Generated by trjconv : CNT in water t= 105.00000
33518
    1C        C    1   2.840   2.765   4.744
    1C        C    2   2.895   2.715   4.865
    1C        C    3   2.837   2.773   4.978
    1C        C    4   2.842   2.770   4.258
    1C        C    5   2.899   2.727   4.380
    1C        C    6   2.841   2.767   4.502
    1C        C    7   3.014   2.642   4.621
    1C        C    8   2.894   2.716   4.623
    1C        C    9   3.077   2.603   4.741
    1C        C   10   3.009   2.632   4.862
    1C        C   11   3.175   2.490   4.973
    1C        C   12   3.058   2.568   4.976
    1C        C   13   2.846   2.767   3.770
    1C        C   14   2.898   2.720   3.893
    1C        C   15   2.842   2.767   4.014
    1C        C   16   3.016   2.646   4.135
    1C        C   17   2.897   2.723   4.136
    1C        C   18   3.079   2.611   4.256
    1C        C   19   3.016   2.648   4.377
    1C        C   20   3.208   2.556   4.500
    1C        C   21   3.078   2.610   4.499
    1C        C   22   3.276   2.534   4.622
    1C        C   23   3.206   2.544   4.744
    1C        C   24   3.409   2.484   4.860
    1C        C   25   3.266   2.494   4.863
    1C        C   26   3.487   2.481   4.977
    1C        C   27   2.849   2.770   3.278
    1C        C   28   2.902   2.725   3.401
    1C        C   29   2.850   2.770   3.525
    1C        C   30   3.018   2.643   3.647
    1C        C   31   2.902   2.723   3.647
    1C        C   32   3.077   2.605   3.770
    1C        C   33   3.014   2.639   3.891
    1C        C   34   3.205   2.549   4.012
    1C        C   35   3.077   2.609   4.013
    1C        C   36   3.274   2.528   4.134
    1C        C   37   3.210   2.557   4.257
    1C        C   38   3.415   2.509   4.378
    1C        C   39   3.276   2.530   4.378
    1C        C   40   3.486   2.503   4.500
    1C        C   41   3.414   2.505   4.622
    1C        C   42   3.628   2.486   4.742
    1C        C   43   3.486   2.481   4.741
    1C        C   44   3.702   2.486   4.862
    1C        C   45   3.626   2.483   4.980
    1C        C   46   2.837   2.755   2.792
    1C        C   47   2.896   2.717   2.915
    1C        C   48   2.844   2.768   3.036
    1C        C   49   3.014   2.637   3.158
    1C        C   50   2.900   2.719   3.156
    1C        C   51   3.078   2.604   3.280
    1C        C   52   3.017   2.643   3.401
    1C        C   53   3.207   2.548   3.525
    1C        C   54   3.079   2.609   3.524
    1C        C   55   3.276   2.528   3.647
    1C        C   56   3.208   2.550   3.769
    1C        C   57   3.414   2.505   3.892
    1C        C   58   3.275   2.530   3.891
    1C        C   59   3.486   2.503   4.014
    1C        C   60   3.413   2.506   4.135
    1C        C   61   3.627   2.497   4.255
    1C        C   62   3.486   2.500   4.256
    1C        C   63   3.699   2.501   4.376
    1C        C   64   3.627   2.495   4.498
    1C        C   65   3.833   2.542   4.620
    1C        C   66   3.697   2.503   4.620
    1C        C   67   3.903   2.556   4.741
    1C        C   68   3.838   2.524   4.863
    1C        C   69   4.047   2.585   4.979
    1C        C   70   3.919   2.530   4.977
    1C        C   71   2.827   2.734   2.307
    1C        C   72   2.883   2.694   2.429
    1C        C   73   2.830   2.746   2.549
    1C        C   74   3.009   2.632   2.668
    1C        C   75   2.887   2.704   2.671
    1C        C   76   3.072   2.603   2.791
    1C        C   77   3.015   2.641   2.914
    1C        C   78   3.206   2.547   3.034
    1C        C   79   3.077   2.604   3.035
    1C        C   80   3.274   2.528   3.157
    1C        C   81   3.208   2.549   3.280
    1C        C   82   3.412   2.501   3.398
    1C        C   83   3.273   2.525   3.403
    1C        C   84   3.482   2.497   3.521
    1C        C   85   3.415   2.504   3.645
    1C        C   86   3.624   2.499   3.765
    1C        C   87   3.483   2.498   3.769
    1C        C   88   3.693   2.511   3.888
    1C        C   89   3.627   2.507   4.012
    1C        C   90   3.836   2.542   4.133
    1C        C   91   3.699   2.508   4.134
    1C        C   92   3.901   2.568   4.256
    1C        C   93   3.834   2.542   4.378
    1C        C   94   4.028   2.630   4.497
    1C        C   95   3.903   2.566   4.499
    1C        C   96   4.089   2.665   4.620
    1C        C   97   4.027   2.625   4.740
    1C        C   98   4.187   2.762   4.858
    1C        C   99   4.097   2.650   4.861
    1C        C  100   4.210   2.837   4.974
    1C        C  101   2.822   2.730   2.067
    1C        C  102   2.987   2.588   2.189
    1C        C  103   2.876   2.678   2.185
    1C        C  104   3.062   2.571   2.308
    1C        C  105   2.999   2.613   2.427
    1C        C  106   3.198   2.532   2.548
    1C        C  107   3.070   2.592   2.547
    1C        C  108   3.269   2.519   2.669
    1C        C  109   3.200   2.543   2.790
    1C        C  110   3.411   2.502   2.912
    1C        C  111   3.271   2.523   2.911
    1C        C  112   3.482   2.493   3.033
    1C        C  113   3.413   2.504   3.156
    1C        C  114   3.626   2.495   3.278
    1C        C  115   3.485   2.492   3.277
    1C        C  116   3.694   2.510   3.401
    1C        C  117   3.623   2.502   3.522
    1C        C  118   3.832   2.544   3.643
    1C        C  119   3.695   2.508   3.644
    1C        C  120   3.897   2.569   3.766
    1C        C  121   3.829   2.550   3.889
    1C        C  122   4.022   2.640   4.011
    1C        C  123   3.898   2.572   4.010
    1C        C  124   4.085   2.673   4.133
    1C        C  125   4.028   2.630   4.255
    1C        C  126   4.197   2.762   4.375
    1C        C  127   4.089   2.670   4.376
    1C        C  128   4.242   2.816   4.498
    1C        C  129   4.193   2.761   4.618
    1C        C  130   4.325   2.931   4.739
    1C        C  131   4.245   2.813   4.739
    1C        C  132   4.350   3.002   4.858
    1C        C  133   4.278   2.958   4.970
    1C        C  134   3.171   2.463   2.080
    1C        C  135   3.039   2.507   2.083
    1C        C  136   3.260   2.476   2.187
    1C        C  137   3.195   2.519   2.305
    1C        C  138   3.405   2.485   2.428
    1C        C  139   3.265   2.504   2.426
    1C        C  140   3.479   2.485   2.548
    1C        C  141   3.409   2.497   2.671
    1C        C  142   3.624   2.492   2.789
    1C        C  143   3.483   2.492   2.791
    1C        C  144   3.694   2.502   2.911
    1C        C  145   3.623   2.496   3.033
    1C        C  146   3.832   2.536   3.151
    1C        C  147   3.695   2.501   3.154
    1C        C  148   3.898   2.557   3.275
    1C        C  149   3.833   2.539   3.399
    1C        C  150   4.027   2.623   3.521
    1C        C  151   3.900   2.562   3.521
    1C        C  152   4.086   2.663   3.643
    1C        C  153   4.024   2.629   3.766
    1C        C  154   4.198   2.754   3.885
    1C        C  155   4.081   2.675   3.887
    1C        C  156   4.249   2.804   4.007
    1C        C  157   4.198   2.758   4.131
    1C        C  158   4.335   2.920   4.252
    1C        C  159   4.251   2.806   4.253
    1C        C  160   4.369   2.983   4.374
    1C        C  161   4.325   2.930   4.497
    1C        C  162   4.436   3.113   4.614
    1C        C  163   4.371   2.987   4.618
    1C        C  164   4.461   3.183   4.734
    1C        C  165   4.424   3.122   4.856
    1C        C  166   4.515   3.320   4.968
    1C        C  167   4.473   3.187   4.970
    1C        C  168   3.470   2.431   2.069
    1C        C  169   3.399   2.454   2.188
    1C        C  170   3.617   2.465   2.304
    1C        C  171   3.474   2.463   2.307
    1C        C  172   3.692   2.480   2.423
    1C        C  173   3.620   2.484   2.544
    1C        C  174   3.828   2.532   2.666
    1C        C  175   3.692   2.494   2.665
    1C        C  176   3.896   2.559   2.787
    1C        C  177   3.832   2.535   2.911
    1C        C  178   4.030   2.619   3.029
    1C        C  179   3.902   2.558   3.031
    1C        C  180   4.084   2.657   3.154
    1C        C  181   4.023   2.622   3.276
    1C        C  182   4.197   2.746   3.396
    1C        C  183   4.085   2.660   3.398
    1C        C  184   4.244   2.800   3.518
    1C        C  185   4.195   2.753   3.642
    1C        C  186   4.332   2.915   3.762
    1C        C  187   4.250   2.800   3.763
    1C        C  188   4.371   2.975   3.884
    1C        C  189   4.333   2.917   4.007
    1C        C  190   4.441   3.100   4.126
    1C        C  191   4.373   2.977   4.129
    1C        C  192   4.464   3.170   4.247
    1C        C  193   4.435   3.108   4.370
    1C        C  194   4.505   3.311   4.488
    1C        C  195   4.464   3.176   4.491
    1C        C  196   4.524   3.385   4.606
    1C        C  197   4.510   3.316   4.728
    1C        C  198   4.553   3.531   4.847
    1C        C  199   4.532   3.390   4.848
    1C        C  200   4.580   3.614   4.961
    1C        C  201   3.609   2.415   2.073
    1C        C  202   3.825   2.508   2.181
    1C        C  203   3.689   2.462   2.182
    1C        C  204   3.898   2.537   2.299
    1C        C  205   3.828   2.519   2.420
    1C        C  206   4.018   2.614   2.540
    1C        C  207   3.893   2.548   2.542
    1C        C  208   4.084   2.648   2.660
    1C        C  209   4.022   2.622   2.784
    1C        C  210   4.199   2.741   2.905
    1C        C  211   4.087   2.655   2.905
    1C        C  212   4.251   2.789   3.028
    1C        C  213   4.196   2.744   3.150
    1C        C  214   4.331   2.907   3.271
    1C        C  215   4.244   2.795   3.272
    1C        C  216   4.369   2.968   3.392
    1C        C  217   4.331   2.912   3.516
    1C        C  218   4.428   3.101   3.640
    1C        C  219   4.369   2.972   3.638
    1C        C  220   4.458   3.168   3.760
    1C        C  221   4.441   3.098   3.881
    1C        C  222   4.494   3.304   4.001
    1C        C  223   4.465   3.165   4.003
    1C        C  224   4.505   3.377   4.122
    1C        C  225   4.497   3.307   4.244
    1C        C  226   4.516   3.521   4.361
    1C        C  227   4.511   3.380   4.365
    1C        C  228   4.520   3.596   4.481
    1C        C  229   4.525   3.527   4.604
    1C        C  230   4.506   3.739   4.723
    1C        C  231   4.535   3.600   4.724
    1C        C  232   4.499   3.818   4.840
    1C        C  233   4.549   3.751   4.952
    1C        C  234   4.014   2.608   2.059
    1C        C  235   3.895   2.536   2.063
    1C        C  236   4.082   2.647   2.176
    1C        C  237   4.022   2.607   2.297
    1C        C  238   4.198   2.730   2.418
    1C        C  239   4.082   2.649   2.418
    1C        C  240   4.252   2.779   2.539
    1C        C  241   4.197   2.733   2.661
    1C        C  242   4.339   2.896   2.780
    1C        C  243   4.248   2.787   2.781
    1C        C  244   4.376   2.957   2.902
    1C        C  245   4.335   2.902   3.026
    1C        C  246   4.431   3.091   3.149
    1C        C  247   4.373   2.963   3.148
    1C        C  248   4.455   3.159   3.271
    1C        C  249   4.430   3.095   3.395
    1C        C  250   4.490   3.300   3.510
    1C        C  251   4.456   3.163   3.516
    1C        C  252   4.504   3.371   3.632
    1C        C  253   4.497   3.304   3.756
    1C        C  254   4.522   3.514   3.875
    1C        C  255   4.509   3.373   3.879
    1C        C  256   4.520   3.587   3.996
    1C        C  257   4.513   3.518   4.119
    1C        C  258   4.495   3.732   4.238
    1C        C  259   4.508   3.592   4.239
    1C        C  260   4.473   3.803   4.359
    1C        C  261   4.489   3.734   4.481
    1C        C  262   4.422   3.937   4.601
    1C        C  263   4.474   3.805   4.603
    1C        C  264   4.397   4.006   4.721
    1C        C  265   4.435   3.944   4.842
    1C        C  266   4.317   4.127   4.955
    1C        C  267   4.390   4.008   4.959
    1C        C  268   4.258   2.776   2.059
    1C        C  269   4.196   2.730   2.176
    1C        C  270   4.343   2.888   2.296
    1C        C  271   4.254   2.777   2.296
    1C        C  272   4.379   2.950   2.417
    1C        C  273   4.341   2.888   2.538
    1C        C  274   4.439   3.082   2.659
    1C        C  275   4.377   2.955   2.658
    1C        C  276   4.467   3.149   2.781
    1C        C  277   4.441   3.082   2.903
    1C        C  278   4.496   3.289   3.022
    1C        C  279   4.458   3.152   3.025
    1C        C  280   4.505   3.363   3.142
    1C        C  281   4.487   3.296   3.265
    1C        C  282   4.514   3.507   3.386
    1C        C  283   4.504   3.366   3.386
    1C        C  284   4.514   3.579   3.508
    1C        C  285   4.509   3.512   3.632
    1C        C  286   4.492   3.725   3.749
    1C        C  287   4.513   3.585   3.753
    1C        C  288   4.478   3.793   3.872
    1C        C  289   4.495   3.726   3.995
    1C        C  290   4.428   3.931   4.116
    1C        C  291   4.481   3.800   4.115
    1C        C  292   4.399   3.999   4.237
    1C        C  293   4.428   3.936   4.361
    1C        C  294   4.322   4.126   4.477
    1C        C  295   4.394   4.004   4.480
    1C        C  296   4.281   4.186   4.598
    1C        C  297   4.321   4.126   4.720
    1C        C  298   4.201   4.312   4.834
    1C        C  299   4.277   4.192   4.838
    1C        C  300   4.168   4.402   4.941
    1C        C  301   4.352   2.879   2.058
    1C        C  302   4.469   3.064   2.176
    1C        C  303   4.394   2.942   2.175
    1C        C  304   4.474   3.140   2.296
    1C        C  305   4.447   3.074   2.419
    1C        C  306   4.505   3.283   2.535
    1C        C  307   4.470   3.147   2.538
    1C        C  308   4.513   3.355   2.657
    1C        C  309   4.503   3.285   2.779
    1C        C  310   4.519   3.498   2.895
    1C        C  311   4.517   3.357   2.900
    1C        C  312   4.517   3.572   3.015
    1C        C  313   4.517   3.504   3.139
    1C        C  314   4.494   3.714   3.260
    1C        C  315   4.510   3.574   3.262
    1C        C  316   4.475   3.785   3.381
    1C        C  317   4.496   3.719   3.505
    1C        C  318   4.422   3.922   3.627
    1C        C  319   4.473   3.790   3.625
    1C        C  320   4.393   3.987   3.749
    1C        C  321   4.422   3.923   3.871
    1C        C  322   4.313   4.106   3.989
    1C        C  323   4.390   3.988   3.993
    1C        C  324   4.276   4.167   4.111
    1C        C  325   4.324   4.118   4.234
    1C        C  326   4.184   4.283   4.352
    1C        C  327   4.281   4.180   4.354
    1C        C  328   4.134   4.336   4.473
    1C        C  329   4.187   4.292   4.596
    1C        C  330   4.020   4.433   4.712
    1C        C  331   4.136   4.351   4.714
    1C        C  332   3.967   4.491   4.830
    1C        C  333   4.050   4.477   4.942
    1C        C  334   4.547   3.266   2.057
    1C        C  335   4.535   3.126   2.066
    1C        C  336   4.534   3.346   2.171
    1C        C  337   4.506   3.278   2.292
    1C        C  338   4.526   3.492   2.409
    1C        C  339   4.521   3.351   2.412
    1C        C  340   4.516   3.566   2.529
    1C        C  341   4.517   3.496   2.652
    1C        C  342   4.498   3.709   2.770
    1C        C  343   4.517   3.569   2.773
    1C        C  344   4.480   3.780   2.891
    1C        C  345   4.493   3.711   3.014
    1C        C  346   4.426   3.912   3.135
    1C        C  347   4.476   3.780   3.137
    1C        C  348   4.397   3.980   3.256
    1C        C  349   4.428   3.918   3.379
    1C        C  350   4.311   4.094   3.500
    1C        C  351   4.394   3.980   3.501
    1C        C  352   4.268   4.155   3.620
    1C        C  353   4.316   4.106   3.744
    1C        C  354   4.173   4.262   3.866
    1C        C  355   4.271   4.161   3.866
    1C        C  356   4.125   4.316   3.987
    1C        C  357   4.179   4.271   4.109
    1C        C  358   4.006   4.398   4.228
    1C        C  359   4.126   4.322   4.229
    1C        C  360   3.948   4.441   4.350
    1C        C  361   4.016   4.414   4.471
    1C        C  362   3.828   4.521   4.589
    1C        C  363   3.956   4.461   4.589
    1C        C  364   3.760   4.542   4.711
    1C        C  365   3.833   4.534   4.831
    1C        C  366   3.628   4.584   4.950
    1C        C  367   3.766   4.568   4.950
    1C        C  368   4.507   3.563   2.054
    1C        C  369   4.524   3.487   2.170
    1C        C  370   4.507   3.704   2.285
    1C        C  371   4.526   3.564   2.288
    1C        C  372   4.485   3.776   2.405
    1C        C  373   4.499   3.706   2.527
    1C        C  374   4.432   3.909   2.646
    1C        C  375   4.483   3.778   2.648
    1C        C  376   4.399   3.974   2.767
    1C        C  377   4.427   3.911   2.890
    1C        C  378   4.314   4.090   3.011
    1C        C  379   4.393   3.973   3.012
    1C        C  380   4.270   4.148   3.132
    1C        C  381   4.314   4.095   3.255
    1C        C  382   4.173   4.254   3.377
    1C        C  383   4.267   4.148   3.377
    1C        C  384   4.119   4.304   3.497
    1C        C  385   4.169   4.256   3.620
    1C        C  386   4.003   4.386   3.741
    1C        C  387   4.116   4.302   3.743
    1C        C  388   3.944   4.428   3.863
    1C        C  389   4.007   4.395   3.985
    1C        C  390   3.818   4.493   4.108
    1C        C  391   3.947   4.436   4.106
    1C        C  392   3.749   4.514   4.229
    1C        C  393   3.820   4.499   4.351
    1C        C  394   3.613   4.559   4.472
    1C        C  395   3.751   4.530   4.470
    1C        C  396   3.543   4.567   4.595
    1C        C  397   3.620   4.558   4.713
    1C        C  398   3.411   4.548   4.838
    1C        C  399   3.550   4.571   4.835
    1C        C  400   3.342   4.512   4.955
    1C        C  401   4.506   3.702   2.049
    1C        C  402   4.456   3.914   2.165
    1C        C  403   4.496   3.779   2.166
    1C        C  404   4.415   3.979   2.283
    1C        C  405   4.438   3.909   2.404
    1C        C  406   4.326   4.093   2.521
    1C        C  407   4.402   3.974   2.524
    1C        C  408   4.275   4.145   2.642
    1C        C  409   4.316   4.089   2.765
    1C        C  410   4.174   4.245   2.886
    1C        C  411   4.275   4.147   2.887
    1C        C  412   4.119   4.292   3.007
    1C        C  413   4.175   4.253   3.131
    1C        C  414   4.001   4.372   3.252
    1C        C  415   4.121   4.299   3.253
    1C        C  416   3.940   4.409   3.374
    1C        C  417   3.999   4.379   3.499
    1C        C  418   3.807   4.471   3.616
    1C        C  419   3.938   4.418   3.620
    1C        C  420   3.744   4.496   3.740
    1C        C  421   3.813   4.481   3.862
    1C        C  422   3.610   4.532   3.986
    1C        C  423   3.749   4.507   3.986
    1C        C  424   3.538   4.539   4.108
    1C        C  425   3.610   4.535   4.229
    1C        C  426   3.400   4.541   4.355
    1C        C  427   3.541   4.549   4.352
    1C        C  428   3.330   4.539   4.477
    1C        C  429   3.402   4.551   4.598
    1C        C  430   3.192   4.521   4.720
    1C        C  431   3.333   4.541   4.720
    1C        C  432   3.124   4.494   4.842
    1C        C  433   3.205   4.491   4.956
    1C        C  434   4.381   4.119   2.049
    1C        C  435   4.447   3.996   2.051
    1C        C  436   4.298   4.157   2.159
    1C        C  437   4.332   4.095   2.282
    1C        C  438   4.179   4.248   2.400
    1C        C  439   4.284   4.154   2.401
    1C        C  440   4.120   4.290   2.521
    1C        C  441   4.177   4.247   2.643
    1C        C  442   4.000   4.367   2.765
    1C        C  443   4.119   4.291   2.764
    1C        C  444   3.942   4.408   2.887
    1C        C  445   4.002   4.371   3.009
    1C        C  446   3.808   4.462   3.127
    1C        C  447   3.937   4.405   3.130
    1C        C  448   3.743   4.490   3.250
    1C        C  449   3.810   4.466   3.372
    1C        C  450   3.605   4.526   3.495
    1C        C  451   3.743   4.495   3.493
    1C        C  452   3.536   4.537   3.618
    1C        C  453   3.607   4.530   3.740
    1C        C  454   3.398   4.539   3.864
    1C        C  455   3.539   4.539   3.864
    1C        C  456   3.328   4.529   3.987
    1C        C  457   3.396   4.538   4.110
    1C        C  458   3.190   4.504   4.234
    1C        C  459   3.328   4.533   4.233
    1C        C  460   3.127   4.483   4.358
    1C        C  461   3.192   4.509   4.481
    1C        C  462   2.992   4.431   4.601
    1C        C  463   3.120   4.491   4.602
    1C        C  464   2.929   4.397   4.722
    1C        C  465   2.990   4.443   4.842
    1C        C  466   2.802   4.331   4.958
    1C        C  467   2.908   4.422   4.957
    1C        C  468   4.116   4.275   2.039
    1C        C  469   4.185   4.245   2.158
    1C        C  470   4.009   4.374   2.277
    1C        C  471   4.127   4.295   2.277
    1C        C  472   3.940   4.403   2.397
    1C        C  473   4.003   4.369   2.519
    1C        C  474   3.810   4.456   2.642
    1C        C  475   3.940   4.401   2.641
    1C        C  476   3.743   4.485   2.762
    1C        C  477   3.812   4.464   2.884
    1C        C  478   3.606   4.523   3.009
    1C        C  479   3.744   4.491   3.005
    1C        C  480   3.535   4.530   3.131
    1C        C  481   3.606   4.525   3.253
    1C        C  482   3.393   4.538   3.377
    1C        C  483   3.534   4.539   3.373
    1C        C  484   3.323   4.533   3.500
    1C        C  485   3.395   4.547   3.620
    1C        C  486   3.188   4.504   3.745
    1C        C  487   3.326   4.537   3.743
    1C        C  488   3.124   4.479   3.869
    1C        C  489   3.189   4.503   3.992
    1C        C  490   2.995   4.419   4.113
    1C        C  491   3.118   4.487   4.113
    1C        C  492   2.941   4.379   4.237
    1C        C  493   3.000   4.420   4.358
    1C        C  494   2.823   4.300   4.482
    1C        C  495   2.935   4.387   4.479
    1C        C  496   2.769   4.252   4.603
    1C        C  497   2.819   4.308   4.723
    1C        C  498   2.662   4.162   4.846
    1C        C  499   2.752   4.270   4.842
    1C        C  500   2.591   4.114   4.957
    1C        C  501   4.001   4.354   2.041
    1C        C  502   3.810   4.459   2.154
    1C        C  503   3.942   4.407   2.157
    1C        C  504   3.743   4.485   2.275
    1C        C  505   3.811   4.459   2.396
    1C        C  506   3.605   4.508   2.522
    1C        C  507   3.743   4.477   2.519
    1C        C  508   3.533   4.521   2.643
    1C        C  509   3.604   4.515   2.764
    1C        C  510   3.394   4.523   2.886
    1C        C  511   3.535   4.522   2.887
    1C        C  512   3.323   4.517   3.008
    1C        C  513   3.394   4.529   3.130
    1C        C  514   3.187   4.496   3.256
    1C        C  515   3.325   4.528   3.253
    1C        C  516   3.120   4.472   3.378
    1C        C  517   3.187   4.494   3.500
    1C        C  518   2.996   4.411   3.625
    1C        C  519   3.122   4.477   3.624
    1C        C  520   2.940   4.370   3.747
    1C        C  521   3.002   4.409   3.868
    1C        C  522   2.835   4.279   3.995
    1C        C  523   2.941   4.372   3.991
    1C        C  524   2.788   4.231   4.120
    1C        C  525   2.838   4.282   4.241
    1C        C  526   2.691   4.129   4.365
    1C        C  527   2.779   4.239   4.362
    1C        C  528   2.648   4.072   4.487
    1C        C  529   2.689   4.136   4.606
    1C        C  530   2.584   3.955   4.730
    1C        C  531   2.646   4.083   4.730
    1C        C  532   2.535   3.899   4.852
    1C        C  533   2.522   3.992   4.960
    1C        C  534   3.617   4.562   2.042
    1C        C  535   3.746   4.508   2.039
    1C        C  536   3.535   4.532   2.156
    1C        C  537   3.603   4.510   2.279
    1C        C  538   3.392   4.508   2.399
    1C        C  539   3.533   4.519   2.401
    1C        C  540   3.321   4.503   2.521
    1C        C  541   3.391   4.518   2.642
    1C        C  542   3.183   4.486   2.764
    1C        C  543   3.321   4.515   2.765
    1C        C  544   3.120   4.464   2.889
    1C        C  545   3.187   4.480   3.013
    1C        C  546   2.995   4.397   3.133
    1C        C  547   3.120   4.463   3.136
    1C        C  548   2.939   4.360   3.257
    1C        C  549   2.998   4.400   3.380
    1C        C  550   2.830   4.277   3.505
    1C        C  551   2.937   4.369   3.503
    1C        C  552   2.779   4.226   3.626
    1C        C  553   2.832   4.279   3.746
    1C        C  554   2.706   4.115   3.874
    1C        C  555   2.790   4.229   3.871
    1C        C  556   2.667   4.056   3.997
    1C        C  557   2.702   4.118   4.118
    1C        C  558   2.601   3.937   4.244
    1C        C  559   2.665   4.063   4.243
    1C        C  560   2.565   3.875   4.366
    1C        C  561   2.585   3.945   4.486
    1C        C  562   2.529   3.745   4.613
    1C        C  563   2.565   3.882   4.611
    1C        C  564   2.515   3.679   4.737
    1C        C  565   2.515   3.758   4.855
    1C        C  566   2.525   3.543   4.976
    1C        C  567   2.513   3.682   4.973
    1C        C  568   3.322   4.478   2.040
    1C        C  569   3.395   4.510   2.155
    1C        C  570   3.182   4.477   2.276
    1C        C  571   3.322   4.506   2.277
    1C        C  572   3.116   4.456   2.399
    1C        C  573   3.181   4.482   2.522
    1C        C  574   2.985   4.403   2.647
    1C        C  575   3.113   4.462   2.644
    1C        C  576   2.929   4.362   2.770
    1C        C  577   2.995   4.399   2.889
    1C        C  578   2.828   4.267   3.015
    1C        C  579   2.936   4.358   3.011
    1C        C  580   2.777   4.220   3.138
    1C        C  581   2.829   4.271   3.259
    1C        C  582   2.700   4.108   3.384
    1C        C  583   2.783   4.223   3.383
    1C        C  584   2.663   4.049   3.507
    1C        C  585   2.699   4.110   3.629
    1C        C  586   2.595   3.931   3.754
    1C        C  587   2.661   4.056   3.754
    1C        C  588   2.570   3.867   3.877
    1C        C  589   2.599   3.932   4.000
    1C        C  590   2.533   3.734   4.124
    1C        C  591   2.572   3.869   4.124
    1C        C  592   2.520   3.668   4.248
    1C        C  593   2.525   3.739   4.370
    1C        C  594   2.507   3.530   4.498
    1C        C  595   2.513   3.672   4.494
    1C        C  596   2.513   3.460   4.621
    1C        C  597   2.507   3.537   4.739
    1C        C  598   2.530   3.324   4.860
    1C        C  599   2.515   3.464   4.860
    1C        C  600   2.527   3.246   4.976
    1C        C  601   3.193   4.429   2.040
    1C        C  602   2.980   4.391   2.158
    1C        C  603   3.117   4.435   2.157
    1C        C  604   2.925   4.356   2.284
    1C        C  605   2.989   4.393   2.404
    1C        C  606   2.818   4.269   2.528
    1C        C  607   2.925   4.361   2.526
    1C        C  608   2.770   4.218   2.651
    1C        C  609   2.824   4.267   2.772
    1C        C  610   2.686   4.106   2.895
    1C        C  611   2.774   4.216   2.894
    1C        C  612   2.647   4.049   3.018
    1C        C  613   2.690   4.109   3.139
    1C        C  614   2.595   3.923   3.262
    1C        C  615   2.660   4.048   3.263
    1C        C  616   2.569   3.859   3.386
    1C        C  617   2.596   3.924   3.509
    1C        C  618   2.532   3.727   3.635
    1C        C  619   2.567   3.863   3.633
    1C        C  620   2.517   3.661   3.759
    1C        C  621   2.530   3.732   3.881
    1C        C  622   2.502   3.522   4.007
    1C        C  623   2.513   3.663   4.003
    1C        C  624   2.508   3.454   4.131
    1C        C  625   2.514   3.527   4.251
    1C        C  626   2.531   3.320   4.374
    1C        C  627   2.512   3.460   4.376
    1C        C  628   2.548   3.250   4.495
    1C        C  629   2.534   3.321   4.617
    1C        C  630   2.599   3.119   4.739
    1C        C  631   2.551   3.253   4.739
    1C        C  632   2.616   3.050   4.862
    1C        C  633   2.561   3.110   4.979
    1C        C  634   2.783   4.303   2.054
    1C        C  635   2.890   4.394   2.047
    1C        C  636   2.750   4.227   2.167
    1C        C  637   2.814   4.267   2.287
    1C        C  638   2.678   4.104   2.410
    1C        C  639   2.765   4.215   2.409
    1C        C  640   2.637   4.049   2.533
    1C        C  641   2.685   4.106   2.654
    1C        C  642   2.585   3.916   2.774
    1C        C  643   2.647   4.043   2.774
    1C        C  644   2.558   3.853   2.897
    1C        C  645   2.587   3.921   3.018
    1C        C  646   2.524   3.721   3.146
    1C        C  647   2.568   3.855   3.141
    1C        C  648   2.508   3.652   3.268
    1C        C  649   2.529   3.724   3.388
    1C        C  650   2.508   3.516   3.517
    1C        C  651   2.520   3.657   3.512
    1C        C  652   2.508   3.448   3.640
    1C        C  653   2.506   3.521   3.761
    1C        C  654   2.525   3.312   3.884
    1C        C  655   2.503   3.451   3.885
    1C        C  656   2.540   3.245   4.008
    1C        C  657   2.525   3.314   4.131
    1C        C  658   2.599   3.116   4.253
    1C        C  659   2.546   3.247   4.254
    1C        C  660   2.629   3.053   4.375
    1C        C  661   2.599   3.118   4.497
    1C        C  662   2.709   2.935   4.620
    1C        C  663   2.632   3.054   4.618
    1C        C  664   2.749   2.874   4.741
    1C        C  665   2.688   2.926   4.858
    1C        C  666   2.737   2.870   4.977
    1C        C  667   2.678   4.019   2.053
    1C        C  668   2.686   4.102   2.166
    1C        C  669   2.592   3.911   2.292
    1C        C  670   2.644   4.043   2.287
    1C        C  671   2.556   3.847   2.412
    1C        C  672   2.578   3.921   2.530
    1C        C  673   2.520   3.715   2.657
    1C        C  674   2.556   3.852   2.651
    1C        C  675   2.503   3.646   2.779
    1C        C  676   2.520   3.717   2.900
    1C        C  677   2.505   3.509   3.028
    1C        C  678   2.513   3.650   3.024
    1C        C  679   2.505   3.439   3.151
    1C        C  680   2.499   3.511   3.272
    1C        C  681   2.525   3.304   3.396
    1C        C  682   2.503   3.443   3.396
    1C        C  683   2.544   3.237   3.519
    1C        C  684   2.531   3.308   3.641
    1C        C  685   2.599   3.109   3.768
    1C        C  686   2.548   3.241   3.764
    1C        C  687   2.628   3.048   3.892
    1C        C  688   2.595   3.115   4.011
    1C        C  689   2.705   2.930   4.134
    1C        C  690   2.629   3.050   4.132
    1C        C  691   2.750   2.877   4.257
    1C        C  692   2.706   2.934   4.379
    1C        C  693   2.747   2.873   4.499
    1C        C  694   2.634   3.886   2.054
    1C        C  695   2.526   3.704   2.173
    1C        C  696   2.582   3.834   2.174
    1C        C  697   2.509   3.637   2.296
    1C        C  698   2.516   3.711   2.416
    1C        C  699   2.489   3.500   2.539
    1C        C  700   2.502   3.641   2.538
    1C        C  701   2.499   3.433   2.663
    1C        C  702   2.494   3.505   2.784
    1C        C  703   2.513   3.295   2.909
    1C        C  704   2.502   3.436   2.907
    1C        C  705   2.540   3.228   3.031
    1C        C  706   2.528   3.300   3.152
    1C        C  707   2.588   3.099   3.276
    1C        C  708   2.540   3.232   3.275
    1C        C  709   2.621   3.039   3.399
    1C        C  710   2.594   3.104   3.521
    1C        C  711   2.707   2.929   3.649
    1C        C  712   2.632   3.048   3.645
    1C        C  713   2.754   2.874   3.770
    1C        C  714   2.710   2.933   3.891
    1C        C  715   2.750   2.874   4.013
    1C        C  716   2.446   3.503   2.061
    1C        C  717   2.489   3.636   2.056
    1C        C  718   2.467   3.421   2.177
    1C        C  719   2.483   3.497   2.296
    1C        C  720   2.512   3.290   2.422
    1C        C  721   2.482   3.428   2.419
    1C        C  722   2.532   3.222   2.545
    1C        C  723   2.517   3.292   2.666
    1C        C  724   2.585   3.094   2.787
    1C        C  725   2.530   3.224   2.789
    1C        C  726   2.612   3.028   2.909
    1C        C  727   2.584   3.094   3.031
    1C        C  728   2.703   2.921   3.160
    1C        C  729   2.616   3.033   3.154
    1C        C  730   2.752   2.873   3.283
    1C        C  731   2.705   2.926   3.406
    1C        C  732   2.751   2.870   3.527
    1C        C  733   2.486   3.192   2.071
    1C        C  734   2.485   3.279   2.181
    1C        C  735   2.581   3.086   2.304
    1C        C  736   2.519   3.214   2.303
    1C        C  737   2.607   3.018   2.425
    1C        C  738   2.577   3.088   2.544
    1C        C  739   2.697   2.913   2.668
    1C        C  740   2.618   3.030   2.666
    1C        C  741   2.738   2.856   2.791
    1C        C  742   2.696   2.914   2.912
    1C        C  743   2.742   2.866   3.037
    1C        C  744   2.548   3.068   2.068
    1C        C  745   2.682   2.896   2.186
    1C        C  746   2.608   3.016   2.184
    1C        C  747   2.730   2.838   2.305
    1C        C  748   2.686   2.900   2.424
    1C        C  749   2.731   2.848   2.547
    1C        C  750   2.738   2.841   2.069
    1C        C  751   3.655   2.310   1.978
    1C        O  752   3.623   2.192   2.004
    1C        O  753   3.711   2.337   1.852
    1C        C  754   4.630   3.048   1.983
    1C        O  755   4.631   3.060   1.857
    1C        O  756   4.758   3.015   2.028
    1C        C  757   4.440   4.228   1.968
    1C        O  758   4.508   4.328   2.004
    1C        O  759   4.409   4.228   1.832
    1C        C  760   3.611   4.697   1.982
    1C        O  761   3.563   4.795   2.044
    1C        O  762   3.648   4.706   1.847
    1C        C  763   2.858   4.517   1.972
    1C        O  764   2.872   4.540   1.849
    1C        O  765   2.812   4.633   2.036
    1C        C  766   2.341   3.471   1.962
    1C        O  767   2.364   3.456   1.840
    1C        O  768   2.216   3.421   2.002
    1C        C  769   4.679   3.577   5.064
    1C        O  770   4.651   3.602   5.185
    1C        O  771   4.812   3.537   5.047
    1C        C  772   4.269   4.460   5.034
    1C        O  773   4.288   4.421   5.152
    1C        O  774   4.376   4.529   4.976
    1C        C  775   4.145   2.525   5.072
    1C        O  776   4.207   2.416   5.055
    1C        O  777   4.131   2.549   5.209
    1C        C  778   2.879   4.531   5.053
    1C        O  779   2.815   4.631   5.011
    1C        O  780   2.921   4.547   5.186
    1C        C  781   2.462   3.028   5.052
    1C        O  782   2.361   2.984   4.990
    1C        O  783   2.449   3.055   5.188
    1C        C  784   2.401   3.993   5.045
    1C        O  785   2.289   3.956   5.001
    1C        O  786   2.403   3.955   5.180
    1C        C  787   2.952   2.415   2.006
    1C        O  788   2.925   2.450   1.888
    1C        O  789   2.872   2.315   2.062
    1C        C  790   3.152   2.354   5.029
    1C        O  791   3.061   2.278   4.986
    1C        O  792   3.183   2.329   5.163
    1C        H  793   4.280   3.023   5.055
    1C        H  794   4.232   2.774   5.058
    1C        H  795   4.519   3.129   5.047
    1C        H  796   4.577   3.347   5.051
    1C        H  797   4.590   3.817   5.025
    1C        H  798   4.383   3.954   5.051
    1C        H  799   4.335   4.191   5.039
    1C        H  800   4.050   4.558   5.011
    1C        H  801   3.821   4.599   5.037
    1C        H  802   3.585   4.647   5.025
    1C        H  803   3.394   4.510   5.048
    1C        H  804   3.164   4.451   5.047
    1C        H  805   3.885   2.494   5.072
    1C        H  806   3.674   2.513   5.070
    1C        H  807   2.992   2.551   5.058
    1C        H  808   3.439   2.478   5.073
    1C        H  809   2.875   2.751   5.076
    1C        H  810   2.689   2.898   5.068
    1C        H  811   2.507   3.291   5.072
    1C        H  812   2.611   3.520   5.036
    1C        H  813   2.471   3.729   5.059
    1C        H  814   2.592   4.170   5.048
    1C        H  815   2.778   4.296   5.056
    1C        H  816   2.725   2.894   1.977
    1C        H  817   2.876   2.719   1.975
    1C        H  818   3.206   2.453   1.979
    1C        H  819   3.430   2.458   1.973
    1C        H  820   3.845   2.516   1.971
    1C        H  821   4.057   2.627   1.963
    1C        H  822   4.253   2.711   1.975
    1C        H  823   4.325   2.948   1.981
    1C        H  824   4.616   3.300   1.983
    1C        H  825   4.466   3.518   1.966
    1C        H  826   4.558   3.750   1.968
    1C        H  827   3.787   4.480   1.944
    1C        H  828   3.929   4.335   1.965
    1C        H  829   4.116   4.199   1.964
    1C        H  830   4.525   3.985   1.977
    1C        H  831   2.694   3.820   1.994
    1C        H  832   2.673   4.071   1.960
    1C        H  833   2.708   4.304   1.978
    1C        H  834   3.381   4.450   1.955
    1C        H  835   3.136   4.437   1.950
    1C        H  836   2.551   3.015   1.975
    1C        H  837   2.415   3.207   1.992
    1C        H  838   2.512   3.674   1.959
    2V3OU   H29  839   2.796   3.542   1.530
    2V3OU   C27  840   2.779   3.500   1.632
    2V3OU   H27  841   2.717   3.563   1.701
    2V3OU   H28  842   2.721   3.405   1.620
    2V3OU   O11  843   2.906   3.473   1.692
    2V3OU   C15  844   2.918   3.389   1.801
    2V3OU   C13  845   3.046   3.374   1.858
    2V3OU   C14  846   3.072   3.270   1.949
    2V3OU   C16  847   2.969   3.189   1.995
    2V3OU    H6  848   2.985   3.105   2.064
    2V3OU   C12  849   3.211   3.230   1.979
    2V3OU    O2  850   3.238   3.124   2.040
    2V3OU   C10  851   3.324   3.307   1.926
    2V3OU    C8  852   3.456   3.270   1.946
    2V3OU   O10  853   3.492   3.148   1.993
    2V3OU   H26  854   3.405   3.113   2.015
    2V3OU    C6  855   3.562   3.350   1.893
    2V3OU    C5  856   3.532   3.466   1.821
    2V3OU    C4  857   3.701   3.296   1.890
    2V3OU    H4  858   3.722   3.226   1.976
    2V3OU    H5  859   3.707   3.228   1.800
    2V3OU    C2  860   3.816   3.396   1.881
    2V3OU    O6  861   3.805   3.476   2.000
    2V3OU   H21  862   3.762   3.556   1.967
    2V3OU    C3  863   3.778   3.491   1.767
    2V3OU    H2  864   3.860   3.567   1.759
    2V3OU    H3  865   3.779   3.431   1.672
    2V3OU   C25  866   3.948   3.324   1.858
    2V3OU    O7  867   3.997   3.291   1.750
    2V3OU   C26  868   4.029   3.289   1.982
    2V3OU   H22  869   4.064   3.382   2.033
    2V3OU   H23  870   4.112   3.218   1.957
    2V3OU    O8  871   3.956   3.210   2.074
    2V3OU   H24  872   3.907   3.265   2.137
    2V3OU    C1  873   3.643   3.559   1.782
    2V3OU    H1  874   3.621   3.615   1.687
    2V3OU    O3  875   3.656   3.651   1.891
    2V3OU   C19  876   3.615   3.786   1.868
    2V3OU    H9  877   3.521   3.798   1.807
    2V3OU    O4  878   3.710   3.846   1.783
    2V3OU   C20  879   3.841   3.872   1.835
    2V3OU   H10  880   3.890   3.772   1.856
    2V3OU   C24  881   3.603   3.855   2.005
    2V3OU   H16  882   3.534   3.796   2.070
    2V3OU   H17  883   3.561   3.957   1.983
    2V3OU   C23  884   3.743   3.873   2.065
    2V3OU   H15  885   3.789   3.771   2.084
    2V3OU    N1  886   3.736   3.953   2.185
    2V3OU   H19  887   3.804   3.921   2.252
    2V3OU   H20  888   3.644   3.929   2.213
    2V3OU   C21  889   3.843   3.945   1.969
    2V3OU   H11  890   3.951   3.926   1.998
    2V3OU    O5  891   3.827   4.086   1.971
    2V3OU   H18  892   3.778   4.102   2.053
    2V3OU   C22  893   3.911   3.949   1.724
    2V3OU   H12  894   3.860   4.047   1.706
    2V3OU   H13  895   3.909   3.888   1.630
    2V3OU   H14  896   4.020   3.958   1.747
    2V3OU   C11  897   3.155   3.467   1.826
    2V3OU    O1  898   3.130   3.586   1.796
    2V3OU    C9  899   3.294   3.427   1.855
    2V3OU    C7  900   3.396   3.505   1.802
    2V3OU    O9  901   3.379   3.613   1.717
    2V3OU   H25  902   3.285   3.632   1.708
    2V3OU   C17  903   2.811   3.314   1.854
    2V3OU    H7  904   2.710   3.332   1.819
    2V3OU   C18  905   2.841   3.214   1.945
    2V3OU    H8  906   2.757   3.145   1.964
    3SOL     OW  907   1.554   4.069   1.233
    3SOL    HW1  908   1.504   4.022   1.306
    3SOL    HW2  909   1.518   4.162   1.224
    4SOL     OW  910   6.296   0.723   1.829
    4SOL    HW1  911   6.197   0.715   1.820
    4SOL    HW2  912   6.328   0.658   1.898
    5SOL     OW  913   3.968   1.394   0.690
    5SOL    HW1  914   4.060   1.360   0.710
    5SOL    HW2  915   3.911   1.389   0.772
    6SOL     OW  916   3.148   2.017   2.324
    6SOL    HW1  917   3.063   2.005   2.272
    6SOL    HW2  918   3.214   1.948   2.297
    7SOL     OW  919   5.597   2.039   2.291
    7SOL    HW1  920   5.510   2.010   2.251
    7SOL    HW2  921   5.634   1.966   2.347
    8SOL     OW  922   2.687   6.856   3.897
    8SOL    HW1  923   2.778   6.898   3.891
    8SOL    HW2  924   2.669   6.828   3.992
    9SOL     OW  925   1.544   5.004   5.733
    9SOL    HW1  926   1.446   4.998   5.716
    9SOL    HW2  927   1.593   4.942   5.672
   10SOL     OW  928   0.694   4.787   5.847
   10SOL    HW1  929   0.737   4.795   5.758
   10SOL    HW2  930   0.608   4.838   5.847
   11SOL     OW  931   3.772   6.738   0.356
   11SOL    HW1  932   3.802   6.651   0.318
   11SOL    HW2  933   3.706   6.780   0.294
   12SOL     OW  934   5.374   5.737   3.286
   12SOL    HW1  935   5.395   5.644   3.317
   12SOL    HW2  936   5.293   5.735   3.228
   13SOL     OW  937   2.845   6.236   3.783
   13SOL    HW1  938   2.778   6.209   3.713
   13SOL    HW2  939   2.886   6.154   3.822
   14SOL     OW  940   3.655   6.488   7.010
   14SOL    HW1  941   3.623   6.394   6.998
   14SOL    HW2  942   3.584   6.542   0.039
   15SOL     OW  943   1.137   6.134   0.068
   15SOL    HW1  944   1.120   6.136   6.988
   15SOL    HW2  945   1.061   6.176   0.116
   16SOL     OW  946   6.504   2.490   6.128
   16SOL    HW1  947   6.471   2.528   6.214
   16SOL    HW2  948   6.582   2.544   6.096
   17SOL     OW  949   5.344   6.531   4.221
   17SOL    HW1  950   5.423   6.564   4.170
   17SOL    HW2  951   5.272   6.600   4.220
   18SOL     OW  952   2.292   1.787   5.908
   18SOL    HW1  953   2.319   1.796   5.812
   18SOL    HW2  954   2.272   1.877   5.945
   19SOL     OW  955   0.114   0.158   2.849
   19SOL    HW1  956   0.033   0.215   2.857
   19SOL    HW2  957   0.191   0.212   2.816
   20SOL     OW  958   3.047   1.505   4.091
   20SOL    HW1  959   2.956   1.501   4.133
   20SOL    HW2  960   3.116   1.504   4.164
   21SOL     OW  961   2.695   1.630   1.788
   21SOL    HW1  962   2.725   1.581   1.869
   21SOL    HW2  963   2.760   1.702   1.766
   22SOL     OW  964   2.251   6.330   5.930
   22SOL    HW1  965   2.211   6.242   5.903
   22SOL    HW2  966   2.343   6.315   5.965
   23SOL     OW  967   4.455   6.531   3.629
   23SOL    HW1  968   4.405   6.589   3.565
   23SOL    HW2  969   4.546   6.511   3.591
   24SOL     OW  970   5.453   0.951   4.925
   24SOL    HW1  971   5.452   1.009   4.844
   24SOL    HW2  972   5.370   0.895   4.928
   25SOL     OW  973   3.427   5.300   0.428
   25SOL    HW1  974   3.388   5.343   0.347
   25SOL    HW2  975   3.517   5.341   0.447
   26SOL     OW  976   6.296   1.324   1.373
   26SOL    HW1  977   6.325   1.316   1.469
   26SOL    HW2  978   6.288   1.421   1.349
   27SOL     OW  979   6.086   0.292   2.138
   27SOL    HW1  980   6.063   0.387   2.117
   27SOL    HW2  981   6.040   0.265   2.223
   28SOL     OW  982   4.790   0.563   6.864
   28SOL    HW1  983   4.796   0.663   6.868
   28SOL    HW2  984   4.706   0.533   6.910
   29SOL     OW  985   4.875   2.351   1.607
   29SOL    HW1  986   4.785   2.343   1.564
   29SOL    HW2  987   4.863   2.368   1.705
   30SOL     OW  988   3.352   0.169   5.217
   30SOL    HW1  989   3.435   0.122   5.188
   30SOL    HW2  990   3.274   0.135   5.164
   31SOL     OW  991   0.629   1.291   5.276
   31SOL    HW1  992   0.569   1.224   5.234
   31SOL    HW2  993   0.707   1.245   5.318
   32SOL     OW  994   0.935   2.026   1.782
   32SOL    HW1  995   0.899   2.094   1.846
   32SOL    HW2  996   0.956   1.942   1.831
   33SOL     OW  997   2.030   2.321   5.910
   33SOL    HW1  998   2.091   2.288   5.838
   33SOL    HW2  999   2.032   2.421   5.911
   34SOL     OW 1000   2.026   0.098   4.741
   34SOL    HW1 1001   1.965   0.086   4.662
   34SOL    HW2 1002   1.977   0.146   4.814
   35SOL     OW 1003   4.709   1.476   0.288
   35SOL    HW1 1004   4.700   1.379   0.311
   35SOL    HW2 1005   4.656   1.531   0.352
   36SOL     OW 1006   1.582   1.010   5.944
   36SOL    HW1 1007   1.496   1.021   5.894
   36SOL    HW2 1008   1.603   0.913   5.952
   37SOL     OW 1009   2.563   6.538   1.496
   37SOL    HW1 1010   2.605   6.555   1.586
   37SOL    HW2 1011   2.609   6.593   1.427
   38SOL     OW 1012   6.927   6.164   3.207
   38SOL    HW1 1013   6.911   6.129   3.299
   38SOL    HW2 1014   6.864   6.240   3.189
   39SOL     OW 1015   6.697   3.527   5.461
   39SOL    HW1 1016   6.797   3.532   5.467
   39SOL    HW2 1017   6.658   3.507   5.551
   40SOL     OW 1018   6.315   1.249   2.465
   40SOL    HW1 1019   6.318   1.220   2.369
   40SOL    HW2 1020   6.346   1.174   2.524
   41SOL     OW 1021   1.762   6.653   4.690
   41SOL    HW1 1022   1.711   6.616   4.768
   41SOL    HW2 1023   1.782   6.580   4.625
   42SOL     OW 1024   3.447   0.404   6.537
   42SOL    HW1 1025   3.463   0.363   6.447
   42SOL    HW2 1026   3.383   0.346   6.589
   43SOL     OW 1027   5.539   6.641   5.715
   43SOL    HW1 1028   5.575   6.548   5.723
   43SOL    HW2 1029   5.613   6.706   5.726
   44SOL     OW 1030   0.691   2.757   6.415
   44SOL    HW1 1031   0.716   2.711   6.500
   44SOL    HW2 1032   0.652   2.847   6.435
   45SOL     OW 1033   3.007   1.135   2.086
   45SOL    HW1 1034   3.013   1.230   2.117
   45SOL    HW2 1035   2.911   1.112   2.067
   46SOL     OW 1036   1.529   3.728   4.282
   46SOL    HW1 1037   1.515   3.821   4.318
   46SOL    HW2 1038   1.592   3.679   4.341
   47SOL     OW 1039   6.286   4.434   3.266
   47SOL    HW1 1040   6.253   4.484   3.186
   47SOL    HW2 1041   6.210   4.417   3.329
   48SOL     OW 1042   7.000   2.378   5.058
   48SOL    HW1 1043   6.982   2.474   5.040
   48SOL    HW2 1044   0.070   2.369   5.104
   49SOL     OW 1045   4.710   3.840   0.707
   49SOL    HW1 1046   4.637   3.871   0.767
   49SOL    HW2 1047   4.685   3.858   0.611
   50SOL     OW 1048   6.516   3.579   4.803
   50SOL    HW1 1049   6.452   3.655   4.810
   50SOL    HW2 1050   6.555   3.560   4.893
   51SOL     OW 1051   3.315   4.881   2.638
   51SOL    HW1 1052   3.324   4.980   2.653
   51SOL    HW2 1053   3.371   4.833   2.706
   52SOL     OW 1054   3.054   1.788   2.727
   52SOL    HW1 1055   3.081   1.884   2.734
   52SOL    HW2 1056   2.991   1.777   2.650
   53SOL     OW 1057   5.026   6.526   4.040
   53SOL    HW1 1058   4.944   6.492   4.087
   53SOL    HW2 1059   5.071   6.595   4.097
   54SOL     OW 1060   3.076   5.037   5.972
   54SOL    HW1 1061   3.091   4.956   5.914
   54SOL    HW2 1062   2.994   5.085   5.941
   55SOL     OW 1063   3.802   1.240   6.011
   55SOL    HW1 1064   3.888   1.290   6.004
   55SOL    HW2 1065   3.771   1.214   5.920
   56SOL     OW 1066   1.293   0.729   2.362
   56SOL    HW1 1067   1.235   0.732   2.281
   56SOL    HW2 1068   1.298   0.635   2.396
   57SOL     OW 1069   5.040   0.888   0.711
   57SOL    HW1 1070   4.969   0.866   0.778
   57SOL    HW2 1071   5.045   0.815   0.643
   58SOL     OW 1072   0.269   6.793   6.697
   58SOL    HW1 1073   0.233   6.836   6.779
   58SOL    HW2 1074   0.280   6.694   6.713
   59SOL     OW 1075   1.614   0.738   5.957
   59SOL    HW1 1076   1.557   0.681   5.898
   59SOL    HW2 1077   1.699   0.689   5.976
   60SOL     OW 1078   4.289   0.097   5.267
   60SOL    HW1 1079   4.275   0.188   5.228
   60SOL    HW2 1080   4.256   0.096   5.361
   61SOL     OW 1081   5.006   0.249   3.959
   61SOL    HW1 1082   5.051   0.326   4.005
   61SOL    HW2 1083   4.929   0.217   4.014
   62SOL     OW 1084   1.615   0.331   4.110
   62SOL    HW1 1085   1.669   0.286   4.181
   62SOL    HW2 1086   1.523   0.350   4.145
   63SOL     OW 1087   6.563   2.698   3.237
   63SOL    HW1 1088   6.564   2.785   3.288
   63SOL    HW2 1089   6.486   2.643   3.268
   64SOL     OW 1090   6.510   3.740   6.463
   64SOL    HW1 1091   6.513   3.790   6.549
   64SOL    HW2 1092   6.594   3.686   6.452
   65SOL     OW 1093   6.533   4.895   4.922
   65SOL    HW1 1094   6.615   4.838   4.932
   65SOL    HW2 1095   6.455   4.837   4.897
   66SOL     OW 1096   3.443   0.691   6.809
   66SOL    HW1 1097   3.543   0.683   6.802
   66SOL    HW2 1098   3.400   0.635   6.738
   67SOL     OW 1099   5.640   6.128   5.386
   67SOL    HW1 1100   5.546   6.115   5.415
   67SOL    HW2 1101   5.669   6.222   5.404
   68SOL     OW 1102   6.019   1.810   6.365
   68SOL    HW1 1103   5.963   1.872   6.310
   68SOL    HW2 1104   6.055   1.737   6.306
   69SOL     OW 1105   2.666   4.372   6.041
   69SOL    HW1 1106   2.615   4.418   5.969
   69SOL    HW2 1107   2.762   4.364   6.014
   70SOL     OW 1108   0.207   5.686   2.557
   70SOL    HW1 1109   0.296   5.714   2.592
   70SOL    HW2 1110   0.210   5.681   2.457
   71SOL     OW 1111   2.281   2.777   3.191
   71SOL    HW1 1112   2.252   2.717   3.116
   71SOL    HW2 1113   2.350   2.730   3.246
   72SOL     OW 1114   2.983   5.735   3.841
   72SOL    HW1 1115   3.039   5.661   3.803
   72SOL    HW2 1116   2.959   5.712   3.935
   73SOL     OW 1117   3.298   1.722   0.125
   73SOL    HW1 1118   3.243   1.642   0.149
   73SOL    HW2 1119   3.243   1.787   0.073
   74SOL     OW 1120   5.366   6.468   6.622
   74SOL    HW1 1121   5.440   6.492   6.685
   74SOL    HW2 1122   5.399   6.397   6.559
   75SOL     OW 1123   3.436   5.981   5.361
   75SOL    HW1 1124   3.430   5.882   5.367
   75SOL    HW2 1125   3.503   6.015   5.427
   76SOL     OW 1126   2.133   2.508   1.337
   76SOL    HW1 1127   2.136   2.410   1.359
   76SOL    HW2 1128   2.195   2.557   1.397
   77SOL     OW 1129   5.428   4.951   4.983
   77SOL    HW1 1130   5.367   4.902   5.046
   77SOL    HW2 1131   5.520   4.912   4.989
   78SOL     OW 1132   6.290   6.153   5.834
   78SOL    HW1 1133   6.371   6.095   5.837
   78SOL    HW2 1134   6.215   6.109   5.883
   79SOL     OW 1135   3.429   0.312   0.825
   79SOL    HW1 1136   3.345   0.358   0.794
   79SOL    HW2 1137   3.445   0.230   0.769
   80SOL     OW 1138   6.599   1.453   4.797
   80SOL    HW1 1139   6.664   1.484   4.866
   80SOL    HW2 1140   6.568   1.531   4.743
   81SOL     OW 1141   2.049   0.848   2.863
   81SOL    HW1 1142   1.998   0.844   2.949
   81SOL    HW2 1143   2.108   0.929   2.863
   82SOL     OW 1144   6.712   5.124   6.772
   82SOL    HW1 1145   6.716   5.132   6.672
   82SOL    HW2 1146   6.800   5.094   6.807
   83SOL     OW 1147   6.857   6.655   0.594
   83SOL    HW1 1148   6.837   6.641   0.690
   83SOL    HW2 1149   6.786   6.612   0.538
   84SOL     OW 1150   5.102   4.038   2.190
   84SOL    HW1 1151   5.051   4.094   2.126
   84SOL    HW2 1152   5.042   4.008   2.264
   85SOL     OW 1153   0.408   1.763   4.919
   85SOL    HW1 1154   0.367   1.853   4.908
   85SOL    HW2 1155   0.441   1.752   5.013
   86SOL     OW 1156   0.639   0.423   5.914
   86SOL    HW1 1157   0.699   0.472   5.852
   86SOL    HW2 1158   0.648   0.460   6.007
   87SOL     OW 1159   4.860   2.592   0.244
   87SOL    HW1 1160   4.835   2.626   0.154
   87SOL    HW2 1161   4.836   2.495   0.251
   88SOL     OW 1162   5.063   1.413   0.611
   88SOL    HW1 1163   5.084   1.380   0.519
   88SOL    HW2 1164   5.034   1.336   0.669
   89SOL     OW 1165   1.757   2.658   6.612
   89SOL    HW1 1166   1.828   2.718   6.575
   89SOL    HW2 1167   1.743   2.678   6.709
   90SOL     OW 1168   6.273   6.430   3.776
   90SOL    HW1 1169   6.285   6.395   3.683
   90SOL    HW2 1170   6.204   6.503   3.776
   91SOL     OW 1171   5.205   4.623   4.012
   91SOL    HW1 1172   5.168   4.531   3.996
   91SOL    HW2 1173   5.284   4.638   3.954
   92SOL     OW 1174   3.097   4.786   0.998
   92SOL    HW1 1175   3.151   4.815   1.077
   92SOL    HW2 1176   3.020   4.848   0.985
   93SOL     OW 1177   3.323   4.778   5.819
   93SOL    HW1 1178   3.383   4.796   5.741
   93SOL    HW2 1179   3.234   4.823   5.803
   94SOL     OW 1180   3.174   5.680   6.922
   94SOL    HW1 1181   3.089   5.721   6.954
   94SOL    HW2 1182   3.186   5.590   6.964
   95SOL     OW 1183   0.470   0.719   3.818
   95SOL    HW1 1184   0.539   0.686   3.882
   95SOL    HW2 1185   0.468   0.660   3.738
   96SOL     OW 1186   2.615   0.143   5.171
   96SOL    HW1 1187   2.701   0.169   5.215
   96SOL    HW2 1188   2.545   0.128   5.241
   97SOL     OW 1189   5.972   3.748   4.252
   97SOL    HW1 1190   5.879   3.781   4.242
   97SOL    HW2 1191   5.984   3.664   4.199
   98SOL     OW 1192   5.305   2.755   6.439
   98SOL    HW1 1193   5.277   2.669   6.482
   98SOL    HW2 1194   5.336   2.737   6.345
   99SOL     OW 1195   4.044   2.660   0.918
   99SOL    HW1 1196   4.091   2.735   0.871
   99SOL    HW2 1197   4.110   2.588   0.939
  100SOL     OW 1198   0.528   6.762   6.626
  100SOL    HW1 1199   0.441   6.783   6.670
  100SOL    HW2 1200   0.552   6.667   6.644
  101SOL     OW 1201   0.644   5.946   3.651
  101SOL    HW1 1202   0.653   6.004   3.731
  101SOL    HW2 1203   0.706   5.979   3.579
  102SOL     OW 1204   4.154   0.595   3.464
  102SOL    HW1 1205   4.068   0.629   3.426
  102SOL    HW2 1206   4.230   0.626   3.406
  103SOL     OW 1207   4.075   1.977   1.623
  103SOL    HW1 1208   4.063   2.057   1.564
  103SOL    HW2 1209   4.171   1.950   1.623
  104SOL     OW 1210   6.433   5.235   2.704
  104SOL    HW1 1211   6.424   5.304   2.776
  104SOL    HW2 1212   6.359   5.168   2.713
  105SOL     OW 1213   6.524   1.023   6.644
  105SOL    HW1 1214   6.474   0.983   6.566
  105SOL    HW2 1215   6.574   0.951   6.692
  106SOL     OW 1216   2.471   6.171   6.326
  106SOL    HW1 1217   2.379   6.142   6.350
  106SOL    HW2 1218   2.528   6.174   6.409
  107SOL     OW 1219   1.391   2.751   1.205
  107SOL    HW1 1220   1.403   2.825   1.271
  107SOL    HW2 1221   1.351   2.672   1.251
  108SOL     OW 1222   4.759   4.680   6.713
  108SOL    HW1 1223   4.662   4.696   6.737
  108SOL    HW2 1224   4.815   4.747   6.762
  109SOL     OW 1225   0.412   0.121   0.952
  109SOL    HW1 1226   0.461   0.160   1.030
  109SOL    HW2 1227   0.339   0.183   0.924
  110SOL     OW 1228   3.604   5.972   5.617
  110SOL    HW1 1229   3.563   5.899   5.671
  110SOL    HW2 1230   3.581   6.061   5.658
  111SOL     OW 1231   3.703   0.735   3.829
  111SOL    HW1 1232   3.685   0.802   3.901
  111SOL    HW2 1233   3.728   0.647   3.870
  112SOL     OW 1234   5.667   5.938   5.673
  112SOL    HW1 1235   5.714   5.878   5.608
  112SOL    HW2 1236   5.573   5.954   5.642
  113SOL     OW 1237   6.616   4.444   3.894
  113SOL    HW1 1238   6.712   4.464   3.910
  113SOL    HW2 1239   6.606   4.349   3.864
  114SOL     OW 1240   0.697   6.436   0.715
  114SOL    HW1 1241   0.697   6.471   0.622
  114SOL    HW2 1242   0.715   6.511   0.779
  115SOL     OW 1243   5.020   1.394   4.093
  115SOL    HW1 1244   4.955   1.375   4.167
  115SOL    HW2 1245   5.035   1.310   4.040
  116SOL     OW 1246   6.342   4.511   2.388
  116SOL    HW1 1247   6.260   4.504   2.445
  116SOL    HW2 1248   6.412   4.564   2.436
  117SOL     OW 1249   1.071   0.513   6.392
  117SOL    HW1 1250   1.122   0.598   6.401
  117SOL    HW2 1251   1.127   0.436   6.423
  118SOL     OW 1252   0.246   1.098   1.418
  118SOL    HW1 1253   0.224   1.020   1.359
  118SOL    HW2 1254   0.211   1.182   1.377
  119SOL     OW 1255   6.936   2.438   6.454
  119SOL    HW1 1256   6.952   2.339   6.448
  119SOL    HW2 1257   6.847   2.455   6.494
  120SOL     OW 1258   6.206   0.210   1.080
  120SOL    HW1 1259   6.138   0.170   1.018
  120SOL    HW2 1260   6.230   0.143   1.151
  121SOL     OW 1261   2.547   3.452   6.358
  121SOL    HW1 1262   2.550   3.502   6.445
  121SOL    HW2 1263   2.625   3.391   6.352
  122SOL     OW 1264   1.203   3.801   5.135
  122SOL    HW1 1265   1.162   3.893   5.133
  122SOL    HW2 1266   1.284   3.802   5.193
  123SOL     OW 1267   6.912   1.918   1.147
  123SOL    HW1 1268   6.905   1.835   1.201
  123SOL    HW2 1269   6.973   1.983   1.192
  124SOL     OW 1270   4.866   3.507   0.157
  124SOL    HW1 1271   4.775   3.545   0.141
  124SOL    HW2 1272   4.858   3.409   0.177
  125SOL     OW 1273   2.018   1.993   2.061
  125SOL    HW1 1274   2.048   2.030   2.149
  125SOL    HW2 1275   1.960   2.060   2.015
  126SOL     OW 1276   2.415   4.570   0.862
  126SOL    HW1 1277   2.390   4.653   0.911
  126SOL    HW2 1278   2.336   4.508   0.859
  127SOL     OW 1279   6.920   5.006   5.851
  127SOL    HW1 1280   6.883   5.021   5.942
  127SOL    HW2 1281   6.846   5.003   5.784
  128SOL     OW 1282   4.404   3.032   1.495
  128SOL    HW1 1283   4.406   3.032   1.595
  128SOL    HW2 1284   4.346   2.958   1.462
  129SOL     OW 1285   3.411   3.575   6.367
  129SOL    HW1 1286   3.482   3.506   6.355
  129SOL    HW2 1287   3.321   3.535   6.347
  130SOL     OW 1288   1.415   0.895   4.357
  130SOL    HW1 1289   1.423   0.805   4.400
  130SOL    HW2 1290   1.393   0.963   4.426
  131SOL     OW 1291   4.880   0.914   3.130
  131SOL    HW1 1292   4.848   0.989   3.072
  131SOL    HW2 1293   4.979   0.922   3.144
  132SOL     OW 1294   1.384   2.939   1.397
  132SOL    HW1 1295   1.297   2.953   1.351
  132SOL    HW2 1296   1.369   2.918   1.493
  133SOL     OW 1297   5.521   6.514   2.665
  133SOL    HW1 1298   5.516   6.607   2.701
  133SOL    HW2 1299   5.444   6.460   2.699
  134SOL     OW 1300   6.586   2.954   3.374
  134SOL    HW1 1301   6.507   3.002   3.412
  134SOL    HW2 1302   6.649   2.930   3.447
  135SOL     OW 1303   5.067   1.728   3.707
  135SOL    HW1 1304   5.106   1.726   3.799
  135SOL    HW2 1305   5.056   1.634   3.674
  136SOL     OW 1306   5.138   4.139   5.518
  136SOL    HW1 1307   5.109   4.103   5.429
  136SOL    HW2 1308   5.058   4.151   5.576
  137SOL     OW 1309   5.053   0.003   5.298
  137SOL    HW1 1310   5.056   6.967   5.381
  137SOL    HW2 1311   5.002   6.972   5.227
  138SOL     OW 1312   0.322   4.994   4.612
  138SOL    HW1 1313   0.346   4.923   4.678
  138SOL    HW2 1314   0.396   5.002   4.544
  139SOL     OW 1315   2.670   5.352   5.140
  139SOL    HW1 1316   2.668   5.294   5.059
  139SOL    HW2 1317   2.614   5.433   5.125
  140SOL     OW 1318   5.521   5.154   4.039
  140SOL    HW1 1319   5.473   5.225   4.091
  140SOL    HW2 1320   5.581   5.104   4.100
  141SOL     OW 1321   0.760   1.996   5.031
  141SOL    HW1 1322   0.810   2.010   5.117
  141SOL    HW2 1323   0.663   1.985   5.050
  142SOL     OW 1324   1.560   6.155   1.880
  142SOL    HW1 1325   1.641   6.193   1.923
  142SOL    HW2 1326   1.499   6.229   1.852
  143SOL     OW 1327   5.620   4.736   2.002
  143SOL    HW1 1328   5.522   4.742   2.022
  143SOL    HW2 1329   5.672   4.748   2.086
  144SOL     OW 1330   1.305   6.370   6.139
  144SOL    HW1 1331   1.370   6.388   6.065
  144SOL    HW2 1332   1.306   6.272   6.161
  145SOL     OW 1333   0.581   5.440   0.548
  145SOL    HW1 1334   0.594   5.429   0.647
  145SOL    HW2 1335   0.535   5.526   0.529
  146SOL     OW 1336   5.359   6.470   0.133
  146SOL    HW1 1337   5.444   6.432   0.097
  146SOL    HW2 1338   5.323   6.410   0.204
  147SOL     OW 1339   6.589   2.986   0.683
  147SOL    HW1 1340   6.629   3.078   0.688
  147SOL    HW2 1341   6.662   2.918   0.680
  148SOL     OW 1342   0.521   5.283   5.065
  148SOL    HW1 1343   0.617   5.308   5.081
  148SOL    HW2 1344   0.463   5.328   5.132
  149SOL     OW 1345   3.067   1.045   4.033
  149SOL    HW1 1346   3.009   0.969   4.005
  149SOL    HW2 1347   3.048   1.124   3.976
  150SOL     OW 1348   6.949   5.231   6.625
  150SOL    HW1 1349   6.946   5.133   6.606
  150SOL    HW2 1350   6.943   5.282   6.539
  151SOL     OW 1351   3.688   1.460   1.334
  151SOL    HW1 1352   3.656   1.432   1.425
  151SOL    HW2 1353   3.678   1.384   1.271
  152SOL     OW 1354   2.722   0.729   4.644
  152SOL    HW1 1355   2.657   0.656   4.666
  152SOL    HW2 1356   2.716   0.801   4.713
  153SOL     OW 1357   2.384   0.279   2.487
  153SOL    HW1 1358   2.342   0.369   2.496
  153SOL    HW2 1359   2.337   0.213   2.546
  154SOL     OW 1360   0.251   2.403   1.487
  154SOL    HW1 1361   0.318   2.453   1.542
  154SOL    HW2 1362   0.239   2.448   1.399
  155SOL     OW 1363   0.475   1.010   3.274
  155SOL    HW1 1364   0.393   1.064   3.253
  155SOL    HW2 1365   0.537   1.065   3.330
  156SOL     OW 1366   5.962   1.629   1.238
  156SOL    HW1 1367   5.991   1.549   1.291
  156SOL    HW2 1368   6.040   1.664   1.185
  157SOL     OW 1369   6.366   3.085   2.427
  157SOL    HW1 1370   6.270   3.088   2.452
  157SOL    HW2 1371   6.407   3.175   2.439
  158SOL     OW 1372   3.240   1.006   2.520
  158SOL    HW1 1373   3.338   0.993   2.508
  158SOL    HW2 1374   3.223   1.088   2.574
  159SOL     OW 1375   4.683   4.695   1.967
  159SOL    HW1 1376   4.586   4.719   1.980
  159SOL    HW2 1377   4.689   4.606   1.923
  160SOL     OW 1378   0.007   4.809   6.196
  160SOL    HW1 1379   6.951   4.758   6.239
  160SOL    HW2 1380   0.094   4.785   6.239
  161SOL     OW 1381   2.212   4.796   5.002
  161SOL    HW1 1382   2.215   4.696   4.994
  161SOL    HW2 1383   2.219   4.822   5.098
  162SOL     OW 1384   4.604   5.882   0.746
  162SOL    HW1 1385   4.539   5.935   0.692
  162SOL    HW2 1386   4.591   5.785   0.728
  163SOL     OW 1387   4.190   6.607   1.679
  163SOL    HW1 1388   4.128   6.577   1.606
  163SOL    HW2 1389   4.243   6.528   1.712
  164SOL     OW 1390   6.535   3.415   1.224
  164SOL    HW1 1391   6.495   3.472   1.151
  164SOL    HW2 1392   6.509   3.452   1.313
  165SOL     OW 1393   4.856   3.261   6.862
  165SOL    HW1 1394   4.807   3.240   6.947
  165SOL    HW2 1395   4.909   3.344   6.875
  166SOL     OW 1396   0.343   6.415   3.514
  166SOL    HW1 1397   0.428   6.455   3.547
  166SOL    HW2 1398   0.281   6.488   3.485
  167SOL     OW 1399   6.073   2.530   6.809
  167SOL    HW1 1400   6.064   2.465   6.885
  167SOL    HW2 1401   6.142   2.495   6.745
  168SOL     OW 1402   2.163   4.739   1.244
  168SOL    HW1 1403   2.239   4.775   1.189
  168SOL    HW2 1404   2.077   4.781   1.215
  169SOL     OW 1405   2.791   0.480   2.013
  169SOL    HW1 1406   2.862   0.521   1.956
  169SOL    HW2 1407   2.747   0.405   1.964
  170SOL     OW 1408   6.965   1.860   3.787
  170SOL    HW1 1409   6.920   1.927   3.847
  170SOL    HW2 1410   0.009   1.907   3.726
  171SOL     OW 1411   3.694   3.941   0.637
  171SOL    HW1 1412   3.766   3.872   0.642
  171SOL    HW2 1413   3.734   4.032   0.638
  172SOL     OW 1414   6.657   2.072   5.143
  172SOL    HW1 1415   6.586   2.086   5.211
  172SOL    HW2 1416   6.708   1.989   5.165
  173SOL     OW 1417   6.978   6.826   4.637
  173SOL    HW1 1418   6.941   6.870   4.556
  173SOL    HW2 1419   6.996   6.895   4.708
  174SOL     OW 1420   2.622   5.256   3.875
  174SOL    HW1 1421   2.591   5.190   3.807
  174SOL    HW2 1422   2.694   5.216   3.932
  175SOL     OW 1423   1.773   6.650   2.193
  175SOL    HW1 1424   1.844   6.663   2.124
  175SOL    HW2 1425   1.713   6.576   2.164
  176SOL     OW 1426   1.798   4.242   1.361
  176SOL    HW1 1427   1.865   4.263   1.290
  176SOL    HW2 1428   1.710   4.224   1.319
  177SOL     OW 1429   5.477   2.201   3.356
  177SOL    HW1 1430   5.576   2.200   3.349
  177SOL    HW2 1431   5.437   2.144   3.283
  178SOL     OW 1432   5.001   4.260   6.414
  178SOL    HW1 1433   5.016   4.324   6.338
  178SOL    HW2 1434   4.947   4.304   6.485
  179SOL     OW 1435   2.997   0.819   0.736
  179SOL    HW1 1436   3.094   0.842   0.732
  179SOL    HW2 1437   2.975   0.784   0.828
  180SOL     OW 1438   0.931   1.397   6.781
  180SOL    HW1 1439   1.014   1.346   6.804
  180SOL    HW2 1440   0.860   1.378   6.849
  181SOL     OW 1441   3.680   1.787   6.637
  181SOL    HW1 1442   3.618   1.716   6.671
  181SOL    HW2 1443   3.773   1.752   6.635
  182SOL     OW 1444   4.184   2.180   4.022
  182SOL    HW1 1445   4.203   2.245   4.095
  182SOL    HW2 1446   4.264   2.171   3.963
  183SOL     OW 1447   4.433   1.105   1.692
  183SOL    HW1 1448   4.485   1.061   1.765
  183SOL    HW2 1449   4.353   1.049   1.670
  184SOL     OW 1450   1.184   5.230   3.291
  184SOL    HW1 1451   1.224   5.176   3.365
  184SOL    HW2 1452   1.230   5.319   3.285
  185SOL     OW 1453   1.693   3.680   6.497
  185SOL    HW1 1454   1.661   3.764   6.452
  185SOL    HW2 1455   1.690   3.604   6.432
  186SOL     OW 1456   6.180   0.383   3.391
  186SOL    HW1 1457   6.263   0.436   3.410
  186SOL    HW2 1458   6.105   0.445   3.370
  187SOL     OW 1459   5.685   1.098   4.203
  187SOL    HW1 1460   5.649   1.112   4.111
  187SOL    HW2 1461   5.612   1.114   4.270
  188SOL     OW 1462   5.774   2.137   3.368
  188SOL    HW1 1463   5.785   2.202   3.293
  188SOL    HW2 1464   5.826   2.054   3.349
  189SOL     OW 1465   2.332   5.452   2.639
  189SOL    HW1 1466   2.262   5.520   2.660
  189SOL    HW2 1467   2.292   5.379   2.583
  190SOL     OW 1468   3.585   1.288   5.438
  190SOL    HW1 1469   3.538   1.208   5.476
  190SOL    HW2 1470   3.666   1.309   5.494
  191SOL     OW 1471   6.014   5.650   6.155
  191SOL    HW1 1472   6.054   5.732   6.114
  191SOL    HW2 1473   6.082   5.577   6.157
  192SOL     OW 1474   6.480   6.841   2.113
  192SOL    HW1 1475   6.562   6.894   2.090
  192SOL    HW2 1476   6.405   6.903   2.136
  193SOL     OW 1477   4.987   3.021   6.786
  193SOL    HW1 1478   4.927   3.096   6.813
  193SOL    HW2 1479   5.080   3.054   6.774
  194SOL     OW 1480   3.157   0.707   3.063
  194SOL    HW1 1481   3.199   0.632   3.115
  194SOL    HW2 1482   3.186   0.702   2.968
  195SOL     OW 1483   1.745   5.243   3.924
  195SOL    HW1 1484   1.774   5.325   3.875
  195SOL    HW2 1485   1.647   5.246   3.941
  196SOL     OW 1486   1.653   1.994   6.837
  196SOL    HW1 1487   1.569   2.039   6.866
  196SOL    HW2 1488   1.671   2.016   6.741
  197SOL     OW 1489   1.981   1.325   1.264
  197SOL    HW1 1490   1.981   1.425   1.269
  197SOL    HW2 1491   2.046   1.289   1.332
  198SOL     OW 1492   4.337   1.253   3.232
  198SOL    HW1 1493   4.349   1.310   3.314
  198SOL    HW2 1494   4.400   1.176   3.237
  199SOL     OW 1495   1.150   2.451   4.390
  199SOL    HW1 1496   1.063   2.429   4.435
  199SOL    HW2 1497   1.203   2.513   4.448
  200SOL     OW 1498   0.294   2.644   0.613
  200SOL    HW1 1499   0.230   2.675   0.683
  200SOL    HW2 1500   0.257   2.564   0.566
  201SOL     OW 1501   0.761   0.621   5.763
  201SOL    HW1 1502   0.787   0.560   5.689
  201SOL    HW2 1503   0.842   0.654   5.810
  202SOL     OW 1504   4.422   0.088   6.324
  202SOL    HW1 1505   4.464   0.168   6.365
  202SOL    HW2 1506   4.485   0.010   6.331
  203SOL     OW 1507   5.569   2.904   5.304
  203SOL    HW1 1508   5.546   2.832   5.240
  203SOL    HW2 1509   5.517   2.891   5.389
  204SOL     OW 1510   0.425   0.262   5.841
  204SOL    HW1 1511   0.493   0.332   5.862
  204SOL    HW2 1512   0.465   0.171   5.856
  205SOL     OW 1513   1.109   2.557   2.170
  205SOL    HW1 1514   1.154   2.587   2.086
  205SOL    HW2 1515   1.023   2.512   2.147
  206SOL     OW 1516   0.519   3.099   1.005
  206SOL    HW1 1517   0.474   3.186   0.985
  206SOL    HW2 1518   0.479   3.059   1.087
  207SOL     OW 1519   4.900   2.158   3.612
  207SOL    HW1 1520   4.867   2.064   3.623
  207SOL    HW2 1521   4.998   2.157   3.591
  208SOL     OW 1522   1.084   4.010   5.001
  208SOL    HW1 1523   1.165   4.069   5.006
  208SOL    HW2 1524   1.071   3.980   4.907
  209SOL     OW 1525   6.524   4.646   2.570
  209SOL    HW1 1526   6.534   4.730   2.624
  209SOL    HW2 1527   6.612   4.600   2.564
  210SOL     OW 1528   4.063   2.545   0.249
  210SOL    HW1 1529   4.026   2.452   0.249
  210SOL    HW2 1530   4.047   2.587   0.338
  211SOL     OW 1531   1.584   0.579   3.277
  211SOL    HW1 1532   1.650   0.522   3.326
  211SOL    HW2 1533   1.491   0.547   3.297
  212SOL     OW 1534   1.537   3.656   3.368
  212SOL    HW1 1535   1.502   3.630   3.278
  212SOL    HW2 1536   1.462   3.656   3.434
  213SOL     OW 1537   1.636   5.497   1.593
  213SOL    HW1 1538   1.624   5.551   1.509
  213SOL    HW2 1539   1.733   5.496   1.618
  214SOL     OW 1540   4.236   5.608   2.297
  214SOL    HW1 1541   4.166   5.540   2.277
  214SOL    HW2 1542   4.302   5.570   2.362
  215SOL     OW 1543   2.282   4.858   2.037
  215SOL    HW1 1544   2.190   4.864   2.076
  215SOL    HW2 1545   2.296   4.766   2.000
  216SOL     OW 1546   1.574   0.235   2.620
  216SOL    HW1 1547   1.592   0.174   2.543
  216SOL    HW2 1548   1.560   0.181   2.703
  217SOL     OW 1549   1.324   3.625   6.201
  217SOL    HW1 1550   1.240   3.679   6.194
  217SOL    HW2 1551   1.301   3.532   6.228
  218SOL     OW 1552   1.013   2.402   5.410
  218SOL    HW1 1553   1.056   2.332   5.354
  218SOL    HW2 1554   1.072   2.423   5.488
  219SOL     OW 1555   4.002   0.311   0.420
  219SOL    HW1 1556   3.975   0.407   0.424
  219SOL    HW2 1557   3.975   0.273   0.331
  220SOL     OW 1558   3.503   0.194   1.084
  220SOL    HW1 1559   3.488   0.259   1.009
  220SOL    HW2 1560   3.428   0.201   1.149
  221SOL     OW 1561   5.439   5.213   1.019
  221SOL    HW1 1562   5.477   5.267   1.095
  221SOL    HW2 1563   5.339   5.220   1.021
  222SOL     OW 1564   2.021   4.526   6.563
  222SOL    HW1 1565   1.951   4.563   6.502
  222SOL    HW2 1566   2.073   4.456   6.516
  223SOL     OW 1567   6.573   2.916   5.218
  223SOL    HW1 1568   6.660   2.921   5.267
  223SOL    HW2 1569   6.498   2.939   5.279
  224SOL     OW 1570   2.535   1.631   5.925
  224SOL    HW1 1571   2.452   1.684   5.907
  224SOL    HW2 1572   2.511   1.537   5.948
  225SOL     OW 1573   4.665   3.703   6.012
  225SOL    HW1 1574   4.720   3.783   5.989
  225SOL    HW2 1575   4.638   3.655   5.928
  226SOL     OW 1576   1.148   1.835   6.482
  226SOL    HW1 1577   1.075   1.778   6.443
  226SOL    HW2 1578   1.162   1.915   6.424
  227SOL     OW 1579   2.362   4.058   1.977
  227SOL    HW1 1580   2.450   4.105   1.979
  227SOL    HW2 1581   2.371   3.970   2.024
  228SOL     OW 1582   1.576   0.554   2.821
  228SOL    HW1 1583   1.565   0.633   2.762
  228SOL    HW2 1584   1.671   0.547   2.851
  229SOL     OW 1585   4.986   4.546   6.660
  229SOL    HW1 1586   5.026   4.574   6.573
  229SOL    HW2 1587   4.907   4.604   6.682
  230SOL     OW 1588   4.385   5.868   4.541
  230SOL    HW1 1589   4.357   5.897   4.632
  230SOL    HW2 1590   4.374   5.769   4.532
  231SOL     OW 1591   5.267   1.242   6.936
  231SOL    HW1 1592   5.249   1.340   6.926
  231SOL    HW2 1593   5.318   1.225   0.001
  232SOL     OW 1594   0.882   2.360   6.116
  232SOL    HW1 1595   0.838   2.423   6.179
  232SOL    HW2 1596   0.969   2.398   6.085
  233SOL     OW 1597   2.859   1.644   3.657
  233SOL    HW1 1598   2.761   1.635   3.675
  233SOL    HW2 1599   2.896   1.719   3.712
  234SOL     OW 1600   5.618   1.228   6.444
  234SOL    HW1 1601   5.610   1.326   6.461
  234SOL    HW2 1602   5.622   1.179   6.531
  235SOL     OW 1603   4.909   3.575   2.367
  235SOL    HW1 1604   4.861   3.491   2.340
  235SOL    HW2 1605   4.859   3.654   2.333
  236SOL     OW 1606   4.149   3.517   6.537
  236SOL    HW1 1607   4.059   3.537   6.576
  236SOL    HW2 1608   4.146   3.530   6.438
  237SOL     OW 1609   5.928   3.974   2.555
  237SOL    HW1 1610   5.837   3.998   2.590
  237SOL    HW2 1611   5.921   3.947   2.460
  238SOL     OW 1612   5.863   1.690   0.413
  238SOL    HW1 1613   5.917   1.752   0.356
  238SOL    HW2 1614   5.868   1.597   0.376
  239SOL     OW 1615   1.157   4.102   0.553
  239SOL    HW1 1616   1.252   4.133   0.562
  239SOL    HW2 1617   1.145   4.015   0.600
  240SOL     OW 1618   6.377   4.066   3.107
  240SOL    HW1 1619   6.285   4.056   3.069
  240SOL    HW2 1620   6.444   4.063   3.033
  241SOL     OW 1621   2.731   1.730   4.298
  241SOL    HW1 1622   2.647   1.769   4.261
  241SOL    HW2 1623   2.744   1.638   4.261
  242SOL     OW 1624   3.353   4.167   3.490
  242SOL    HW1 1625   3.316   4.182   3.398
  242SOL    HW2 1626   3.282   4.125   3.547
  243SOL     OW 1627   4.573   2.711   6.592
  243SOL    HW1 1628   4.510   2.638   6.618
  243SOL    HW2 1629   4.655   2.707   6.649
  244SOL     OW 1630   6.359   3.449   6.311
  244SOL    HW1 1631   6.282   3.441   6.373
  244SOL    HW2 1632   6.444   3.435   6.361
  245SOL     OW 1633   3.460   1.878   3.319
  245SOL    HW1 1634   3.540   1.864   3.377
  245SOL    HW2 1635   3.427   1.790   3.286
  246SOL     OW 1636   5.808   1.642   3.384
  246SOL    HW1 1637   5.860   1.617   3.466
  246SOL    HW2 1638   5.847   1.595   3.304
  247SOL     OW 1639   2.002   2.302   0.582
  247SOL    HW1 1640   1.976   2.278   0.675
  247SOL    HW2 1641   2.045   2.224   0.538
  248SOL     OW 1642   2.458   1.557   2.444
  248SOL    HW1 1643   2.467   1.545   2.345
  248SOL    HW2 1644   2.510   1.638   2.472
  249SOL     OW 1645   5.442   0.049   4.786
  249SOL    HW1 1646   5.501   6.987   4.787
  249SOL    HW2 1647   5.471   0.112   4.858
  250SOL     OW 1648   3.599   2.768   0.903
  250SOL    HW1 1649   3.642   2.679   0.911
  250SOL    HW2 1650   3.560   2.779   0.811
  251SOL     OW 1651   4.377   3.872   5.565
  251SOL    HW1 1652   4.390   3.822   5.650
  251SOL    HW2 1653   4.391   3.810   5.488
  252SOL     OW 1654   5.939   6.670   5.763
  252SOL    HW1 1655   6.013   6.719   5.717
  252SOL    HW2 1656   5.856   6.724   5.759
  253SOL     OW 1657   4.069   5.287   5.525
  253SOL    HW1 1658   4.035   5.290   5.430
  253SOL    HW2 1659   4.085   5.193   5.552
  254SOL     OW 1660   6.474   2.783   4.173
  254SOL    HW1 1661   6.494   2.694   4.213
  254SOL    HW2 1662   6.411   2.771   4.096
  255SOL     OW 1663   1.926   4.792   5.995
  255SOL    HW1 1664   1.985   4.793   6.076
  255SOL    HW2 1665   1.953   4.866   5.933
  256SOL     OW 1666   4.431   3.060   5.845
  256SOL    HW1 1667   4.519   3.093   5.877
  256SOL    HW2 1668   4.364   3.134   5.847
  257SOL     OW 1669   4.619   6.074   2.673
  257SOL    HW1 1670   4.704   6.068   2.726
  257SOL    HW2 1671   4.574   5.985   2.672
  258SOL     OW 1672   2.667   3.977   6.283
  258SOL    HW1 1673   2.724   4.035   6.225
  258SOL    HW2 1674   2.607   3.921   6.225
  259SOL     OW 1675   4.569   0.255   2.286
  259SOL    HW1 1676   4.480   0.265   2.330
  259SOL    HW2 1677   4.640   0.296   2.343
  260SOL     OW 1678   4.086   4.938   3.246
  260SOL    HW1 1679   4.164   4.903   3.192
  260SOL    HW2 1680   4.054   5.024   3.207
  261SOL     OW 1681   5.079   4.699   0.933
  261SOL    HW1 1682   5.001   4.662   0.985
  261SOL    HW2 1683   5.062   4.688   0.835
  262SOL     OW 1684   2.001   3.535   0.809
  262SOL    HW1 1685   1.934   3.600   0.846
  262SOL    HW2 1686   2.067   3.511   0.880
  263SOL     OW 1687   1.435   0.108   4.530
  263SOL    HW1 1688   1.521   0.081   4.487
  263SOL    HW2 1689   1.398   0.031   4.581
  264SOL     OW 1690   0.060   2.837   0.140
  264SOL    HW1 1691   0.106   2.766   0.086
  264SOL    HW2 1692   0.057   2.809   0.236
  265SOL     OW 1693   6.059   6.837   4.050
  265SOL    HW1 1694   5.985   6.887   4.095
  265SOL    HW2 1695   6.074   6.750   4.097
  266SOL     OW 1696   5.123   2.567   5.799
  266SOL    HW1 1697   5.101   2.574   5.896
  266SOL    HW2 1698   5.050   2.516   5.752
  267SOL     OW 1699   1.193   0.698   5.016
  267SOL    HW1 1700   1.247   0.638   5.076
  267SOL    HW2 1701   1.104   0.714   5.058
  268SOL     OW 1702   4.136   1.269   0.154
  268SOL    HW1 1703   4.192   1.224   0.084
  268SOL    HW2 1704   4.040   1.267   0.126
  269SOL     OW 1705   3.000   1.950   0.071
  269SOL    HW1 1706   2.939   1.937   7.011
  269SOL    HW2 1707   2.959   2.014   0.136
  270SOL     OW 1708   0.602   6.672   0.010
  270SOL    HW1 1709   0.631   6.763   0.037
  270SOL    HW2 1710   0.503   6.672   7.014
  271SOL     OW 1711   0.274   1.872   6.323
  271SOL    HW1 1712   0.370   1.888   6.347
  271SOL    HW2 1713   0.231   1.816   6.394
  272SOL     OW 1714   3.290   5.717   4.190
  272SOL    HW1 1715   3.262   5.660   4.267
  272SOL    HW2 1716   3.264   5.812   4.208
  273SOL     OW 1717   1.695   4.899   5.506
  273SOL    HW1 1718   1.703   4.802   5.485
  273SOL    HW2 1719   1.785   4.942   5.502
  274SOL     OW 1720   3.775   1.042   4.407
  274SOL    HW1 1721   3.788   1.011   4.502
  274SOL    HW2 1722   3.843   0.998   4.349
  275SOL     OW 1723   0.367   6.939   2.575
  275SOL    HW1 1724   0.361   0.009   2.529
  275SOL    HW2 1725   0.281   6.920   2.622
  276SOL     OW 1726   0.678   0.349   4.430
  276SOL    HW1 1727   0.750   0.294   4.387
  276SOL    HW2 1728   0.710   0.444   4.439
  277SOL     OW 1729   2.249   2.981   0.497
  277SOL    HW1 1730   2.286   2.978   0.590
  277SOL    HW2 1731   2.262   3.072   0.459
  278SOL     OW 1732   6.851   2.813   3.332
  278SOL    HW1 1733   6.938   2.848   3.368
  278SOL    HW2 1734   6.868   2.727   3.283
  279SOL     OW 1735   5.522   2.831   4.426
  279SOL    HW1 1736   5.605   2.885   4.442
  279SOL    HW2 1737   5.543   2.734   4.439
  280SOL     OW 1738   1.771   5.106   1.932
  280SOL    HW1 1739   1.741   5.184   1.878
  280SOL    HW2 1740   1.870   5.108   1.943
  281SOL     OW 1741   2.399   3.936   1.068
  281SOL    HW1 1742   2.460   4.012   1.092
  281SOL    HW2 1743   2.308   3.973   1.047
  282SOL     OW 1744   3.587   2.085   6.091
  282SOL    HW1 1745   3.570   2.112   6.186
  282SOL    HW2 1746   3.508   2.107   6.035
  283SOL     OW 1747   5.362   2.948   6.628
  283SOL    HW1 1748   5.324   2.891   6.556
  283SOL    HW2 1749   5.462   2.944   6.625
  284SOL     OW 1750   0.791   3.337   3.615
  284SOL    HW1 1751   0.817   3.365   3.707
  284SOL    HW2 1752   0.873   3.310   3.563
  285SOL     OW 1753   5.762   4.635   3.668
  285SOL    HW1 1754   5.799   4.578   3.595
  285SOL    HW2 1755   5.831   4.701   3.697
  286SOL     OW 1756   3.455   3.769   6.994
  286SOL    HW1 1757   3.376   3.800   0.029
  286SOL    HW2 1758   3.428   3.756   6.899
  287SOL     OW 1759   1.888   3.713   0.585
  287SOL    HW1 1760   1.932   3.625   0.566
  287SOL    HW2 1761   1.852   3.713   0.678
  288SOL     OW 1762   4.608   1.577   0.058
  288SOL    HW1 1763   4.660   1.574   0.144
  288SOL    HW2 1764   4.580   1.484   0.034
  289SOL     OW 1765   2.316   4.689   5.974
  289SOL    HW1 1766   2.235   4.683   6.032
  289SOL    HW2 1767   2.296   4.746   5.894
  290SOL     OW 1768   0.072   2.045   5.530
  290SOL    HW1 1769   0.026   2.132   5.515
  290SOL    HW2 1770   0.159   2.061   5.577
  291SOL     OW 1771   0.285   1.557   3.007
  291SOL    HW1 1772   0.235   1.557   2.921
  291SOL    HW2 1773   0.373   1.603   2.995
  292SOL     OW 1774   2.144   0.555   3.270
  292SOL    HW1 1775   2.045   0.571   3.261
  292SOL    HW2 1776   2.175   0.497   3.194
  293SOL     OW 1777   4.372   5.323   4.270
  293SOL    HW1 1778   4.355   5.252   4.202
  293SOL    HW2 1779   4.294   5.328   4.333
  294SOL     OW 1780   5.598   6.557   6.397
  294SOL    HW1 1781   5.521   6.614   6.425
  294SOL    HW2 1782   5.644   6.598   6.318
  295SOL     OW 1783   5.210   0.542   3.787
  295SOL    HW1 1784   5.213   0.572   3.692
  295SOL    HW2 1785   5.234   0.619   3.847
  296SOL     OW 1786   2.994   1.799   3.190
  296SOL    HW1 1787   3.079   1.826   3.144
  296SOL    HW2 1788   2.941   1.740   3.130
  297SOL     OW 1789   1.376   3.770   3.757
  297SOL    HW1 1790   1.312   3.743   3.830
  297SOL    HW2 1791   1.423   3.854   3.783
  298SOL     OW 1792   5.979   5.486   0.882
  298SOL    HW1 1793   5.982   5.392   0.849
  298SOL    HW2 1794   5.976   5.486   0.982
  299SOL     OW 1795   6.262   2.673   4.953
  299SOL    HW1 1796   6.322   2.671   4.873
  299SOL    HW2 1797   6.231   2.580   4.974
  300SOL     OW 1798   5.973   0.854   3.181
  300SOL    HW1 1799   5.965   0.860   3.280
  300SOL    HW2 1800   6.035   0.926   3.148
  301SOL     OW 1801   5.489   3.418   6.375
  301SOL    HW1 1802   5.574   3.370   6.351
  301SOL    HW2 1803   5.509   3.514   6.394
  302SOL     OW 1804   0.867   0.258   3.862
  302SOL    HW1 1805   0.772   0.287   3.872
  302SOL    HW2 1806   0.920   0.329   3.814
  303SOL     OW 1807   5.340   0.858   3.042
  303SOL    HW1 1808   5.381   0.890   2.956
  303SOL    HW2 1809   5.407   0.801   3.091
  304SOL     OW 1810   2.349   0.091   3.584
  304SOL    HW1 1811   2.435   0.046   3.607
  304SOL    HW2 1812   2.276   0.056   3.643
  305SOL     OW 1813   1.237   3.662   0.463
  305SOL    HW1 1814   1.152   3.682   0.511
  305SOL    HW2 1815   1.313   3.708   0.510
  306SOL     OW 1816   1.980   1.266   4.223
  306SOL    HW1 1817   1.968   1.357   4.184
  306SOL    HW2 1818   2.013   1.274   4.317
  307SOL     OW 1819   4.274   0.142   1.109
  307SOL    HW1 1820   4.350   0.179   1.162
  307SOL    HW2 1821   4.191   0.140   1.166
  308SOL     OW 1822   0.862   5.991   3.519
  308SOL    HW1 1823   0.935   5.928   3.495
  308SOL    HW2 1824   0.878   6.026   3.612
  309SOL     OW 1825   3.567   4.969   5.228
  309SOL    HW1 1826   3.639   5.033   5.255
  309SOL    HW2 1827   3.557   4.970   5.129
  310SOL     OW 1828   0.412   6.106   5.629
  310SOL    HW1 1829   0.417   6.175   5.557
  310SOL    HW2 1830   0.333   6.048   5.615
  311SOL     OW 1831   0.736   6.368   1.605
  311SOL    HW1 1832   0.763   6.336   1.695
  311SOL    HW2 1833   0.636   6.365   1.597
  312SOL     OW 1834   4.913   1.996   5.095
  312SOL    HW1 1835   4.879   1.913   5.139
  312SOL    HW2 1836   4.848   2.025   5.024
  313SOL     OW 1837   1.962   4.170   1.758
  313SOL    HW1 1838   1.990   4.125   1.843
  313SOL    HW2 1839   1.870   4.139   1.733
  314SOL     OW 1840   3.447   6.158   0.244
  314SOL    HW1 1841   3.408   6.208   0.321
  314SOL    HW2 1842   3.493   6.076   0.278
  315SOL     OW 1843   0.821   2.082   3.292
  315SOL    HW1 1844   0.862   2.168   3.321
  315SOL    HW2 1845   0.726   2.078   3.323
  316SOL     OW 1846   2.492   2.588   3.910
  316SOL    HW1 1847   2.589   2.562   3.906
  316SOL    HW2 1848   2.461   2.583   4.005
  317SOL     OW 1849   6.795   1.774   0.191
  317SOL    HW1 1850   6.703   1.759   0.227
  317SOL    HW2 1851   6.832   1.859   0.228
  318SOL     OW 1852   2.100   3.923   0.889
  318SOL    HW1 1853   2.054   3.997   0.840
  318SOL    HW2 1854   2.181   3.894   0.837
  319SOL     OW 1855   1.888   6.303   0.853
  319SOL    HW1 1856   1.814   6.244   0.822
  319SOL    HW2 1857   1.908   6.371   0.783
  320SOL     OW 1858   5.930   3.260   0.385
  320SOL    HW1 1859   5.893   3.315   0.460
  320SOL    HW2 1860   6.030   3.264   0.385
  321SOL     OW 1861   2.010   2.859   1.353
  321SOL    HW1 1862   2.001   2.803   1.270
  321SOL    HW2 1863   1.936   2.927   1.355
  322SOL     OW 1864   3.712   3.138   5.255
  322SOL    HW1 1865   3.771   3.217   5.239
  322SOL    HW2 1866   3.749   3.058   5.206
  323SOL     OW 1867   0.015   4.187   1.262
  323SOL    HW1 1868   6.980   4.134   1.197
  323SOL    HW2 1869   0.045   4.127   1.337
  324SOL     OW 1870   0.900   2.493   4.820
  324SOL    HW1 1871   0.975   2.507   4.754
  324SOL    HW2 1872   0.934   2.439   4.897
  325SOL     OW 1873   2.274   2.861   1.943
  325SOL    HW1 1874   2.306   2.950   1.977
  325SOL    HW2 1875   2.234   2.871   1.853
  326SOL     OW 1876   1.654   5.419   6.427
  326SOL    HW1 1877   1.694   5.461   6.508
  326SOL    HW2 1878   1.727   5.378   6.371
  327SOL     OW 1879   6.342   4.836   5.478
  327SOL    HW1 1880   6.360   4.744   5.513
  327SOL    HW2 1881   6.254   4.837   5.431
  328SOL     OW 1882   4.168   5.186   2.486
  328SOL    HW1 1883   4.218   5.149   2.565
  328SOL    HW2 1884   4.098   5.120   2.458
  329SOL     OW 1885   3.490   3.851   3.759
  329SOL    HW1 1886   3.410   3.818   3.709
  329SOL    HW2 1887   3.571   3.800   3.730
  330SOL     OW 1888   3.558   0.077   2.007
  330SOL    HW1 1889   3.578   0.126   1.923
  330SOL    HW2 1890   3.480   0.015   1.992
  331SOL     OW 1891   5.028   5.176   5.868
  331SOL    HW1 1892   4.980   5.263   5.874
  331SOL    HW2 1893   5.127   5.191   5.875
  332SOL     OW 1894   3.352   2.106   2.947
  332SOL    HW1 1895   3.329   2.146   3.036
  332SOL    HW2 1896   3.431   2.045   2.957
  333SOL     OW 1897   4.066   5.818   6.415
  333SOL    HW1 1898   3.972   5.829   6.448
  333SOL    HW2 1899   4.100   5.906   6.383
  334SOL     OW 1900   4.130   0.116   2.312
  334SOL    HW1 1901   4.033   0.091   2.312
  334SOL    HW2 1902   4.179   0.059   2.246
  335SOL     OW 1903   3.045   6.847   3.427
  335SOL    HW1 1904   3.118   6.847   3.496
  335SOL    HW2 1905   3.086   6.856   3.337
  336SOL     OW 1906   3.192   0.913   3.713
  336SOL    HW1 1907   3.251   0.899   3.792
  336SOL    HW2 1908   3.222   0.994   3.663
  337SOL     OW 1909   6.686   3.963   1.307
  337SOL    HW1 1910   6.644   3.880   1.343
  337SOL    HW2 1911   6.762   3.938   1.247
  338SOL     OW 1912   3.339   2.801   1.484
  338SOL    HW1 1913   3.380   2.711   1.466
  338SOL    HW2 1914   3.265   2.791   1.550
  339SOL     OW 1915   4.480   6.494   2.936
  339SOL    HW1 1916   4.531   6.481   3.020
  339SOL    HW2 1917   4.432   6.409   2.913
  340SOL     OW 1918   4.914   3.918   4.710
  340SOL    HW1 1919   4.893   3.830   4.754
  340SOL    HW2 1920   4.852   3.988   4.744
  341SOL     OW 1921   5.322   5.506   4.778
  341SOL    HW1 1922   5.415   5.495   4.814
  341SOL    HW2 1923   5.326   5.525   4.680
  342SOL     OW 1924   6.181   4.654   0.857
  342SOL    HW1 1925   6.081   4.664   0.860
  342SOL    HW2 1926   6.213   4.668   0.764
  343SOL     OW 1927   3.205   0.535   2.083
  343SOL    HW1 1928   3.146   0.464   2.121
  343SOL    HW2 1929   3.159   0.581   2.008
  344SOL     OW 1930   2.360   4.903   0.523
  344SOL    HW1 1931   2.416   4.824   0.545
  344SOL    HW2 1932   2.371   4.973   0.594
  345SOL     OW 1933   1.043   0.235   4.971
  345SOL    HW1 1934   0.947   0.208   4.958
  345SOL    HW2 1935   1.100   0.187   4.905
  346SOL     OW 1936   1.050   0.294   2.931
  346SOL    HW1 1937   1.103   0.227   2.879
  346SOL    HW2 1938   1.101   0.322   3.012
  347SOL     OW 1939   4.953   6.825   6.491
  347SOL    HW1 1940   4.906   6.804   6.577
  347SOL    HW2 1941   4.986   6.920   6.494
  348SOL     OW 1942   3.737   5.295   1.662
  348SOL    HW1 1943   3.681   5.365   1.617
  348SOL    HW2 1944   3.806   5.262   1.598
  349SOL     OW 1945   0.776   4.408   2.401
  349SOL    HW1 1946   0.834   4.409   2.320
  349SOL    HW2 1947   0.752   4.313   2.423
  350SOL     OW 1948   4.297   3.570   1.393
  350SOL    HW1 1949   4.325   3.476   1.371
  350SOL    HW2 1950   4.200   3.571   1.418
  351SOL     OW 1951   3.051   1.716   0.293
  351SOL    HW1 1952   3.052   1.639   0.229
  351SOL    HW2 1953   2.973   1.775   0.272
  352SOL     OW 1954   3.084   0.853   6.403
  352SOL    HW1 1955   3.032   0.907   6.469
  352SOL    HW2 1956   3.177   0.838   6.437
  353SOL     OW 1957   2.013   6.310   1.093
  353SOL    HW1 1958   1.970   6.300   1.003
  353SOL    HW2 1959   1.943   6.331   1.161
  354SOL     OW 1960   4.579   1.272   0.846
  354SOL    HW1 1961   4.670   1.290   0.882
  354SOL    HW2 1962   4.530   1.358   0.833
  355SOL     OW 1963   0.106   2.908   2.709
  355SOL    HW1 1964   0.069   2.923   2.618
  355SOL    HW2 1965   0.063   2.828   2.750
  356SOL     OW 1966   4.152   5.371   3.309
  356SOL    HW1 1967   4.134   5.465   3.280
  356SOL    HW2 1968   4.098   5.308   3.252
  357SOL     OW 1969   6.922   5.259   5.221
  357SOL    HW1 1970   6.863   5.194   5.174
  357SOL    HW2 1971   6.870   5.305   5.293
  358SOL     OW 1972   5.366   0.453   1.187
  358SOL    HW1 1973   5.438   0.384   1.195
  358SOL    HW2 1974   5.399   0.530   1.132
  359SOL     OW 1975   1.608   1.716   1.762
  359SOL    HW1 1976   1.660   1.799   1.780
  359SOL    HW2 1977   1.582   1.673   1.848
  360SOL     OW 1978   4.024   6.796   0.148
  360SOL    HW1 1979   3.964   6.718   0.164
  360SOL    HW2 1980   4.018   6.859   0.226
  361SOL     OW 1981   4.420   6.800   2.313
  361SOL    HW1 1982   4.460   6.883   2.274
  361SOL    HW2 1983   4.421   6.805   2.413
  362SOL     OW 1984   3.118   3.393   0.902
  362SOL    HW1 1985   3.084   3.481   0.869
  362SOL    HW2 1986   3.128   3.396   1.001
  363SOL     OW 1987   4.544   4.473   4.434
  363SOL    HW1 1988   4.555   4.573   4.438
  363SOL    HW2 1989   4.447   4.450   4.449
  364SOL     OW 1990   1.136   5.549   5.639
  364SOL    HW1 1991   1.110   5.473   5.579
  364SOL    HW2 1992   1.218   5.525   5.690
  365SOL     OW 1993   4.708   6.535   1.825
  365SOL    HW1 1994   4.677   6.529   1.730
  365SOL    HW2 1995   4.749   6.447   1.852
  366SOL     OW 1996   5.767   1.185   6.923
  366SOL    HW1 1997   5.795   1.105   6.870
  366SOL    HW2 1998   5.707   1.242   6.868
  367SOL     OW 1999   5.269   2.663   1.408
  367SOL    HW1 2000   5.264   2.563   1.408
  367SOL    HW2 2001   5.206   2.699   1.477
  368SOL     OW 2002   0.985   4.970   4.813
  368SOL    HW1 2003   0.939   4.998   4.728
  368SOL    HW2 2004   1.021   5.051   4.859
  369SOL     OW 2005   1.066   3.645   2.016
  369SOL    HW1 2006   1.049   3.591   2.098
  369SOL    HW2 2007   1.149   3.611   1.971
  370SOL     OW 2008   3.400   1.454   5.645
  370SOL    HW1 2009   3.500   1.460   5.638
  370SOL    HW2 2010   3.366   1.539   5.686
  371SOL     OW 2011   4.103   2.682   0.008
  371SOL    HW1 2012   4.086   2.648   0.100
  371SOL    HW2 2013   4.112   2.781   0.010
  372SOL     OW 2014   0.414   6.103   6.470
  372SOL    HW1 2015   0.390   6.191   6.430
  372SOL    HW2 2016   0.354   6.032   6.432
  373SOL     OW 2017   0.060   6.863   0.191
  373SOL    HW1 2018   7.009   6.833   0.126
  373SOL    HW2 2019   0.017   6.878   0.280
  374SOL     OW 2020   3.302   0.937   1.567
  374SOL    HW1 2021   3.215   0.975   1.599
  374SOL    HW2 2022   3.306   0.840   1.591
  375SOL     OW 2023   6.843   4.794   3.245
  375SOL    HW1 2024   6.792   4.857   3.187
  375SOL    HW2 2025   6.798   4.785   3.334
  376SOL     OW 2026   2.321   2.818   3.927
  376SOL    HW1 2027   2.395   2.750   3.923
  376SOL    HW2 2028   2.304   2.843   4.022
  377SOL     OW 2029   4.826   1.881   3.562
  377SOL    HW1 2030   4.735   1.899   3.600
  377SOL    HW2 2031   4.871   1.811   3.617
  378SOL     OW 2032   5.203   2.826   4.925
  378SOL    HW1 2033   5.106   2.848   4.915
  378SOL    HW2 2034   5.259   2.900   4.888
  379SOL     OW 2035   6.315   3.806   1.185
  379SOL    HW1 2036   6.406   3.767   1.172
  379SOL    HW2 2037   6.262   3.748   1.247
  380SOL     OW 2038   1.141   2.078   1.054
  380SOL    HW1 2039   1.106   2.166   1.085
  380SOL    HW2 2040   1.241   2.079   1.056
  381SOL     OW 2041   3.792   3.492   1.333
  381SOL    HW1 2042   3.722   3.562   1.319
  381SOL    HW2 2043   3.750   3.409   1.370
  382SOL     OW 2044   2.743   5.873   0.754
  382SOL    HW1 2045   2.734   5.817   0.837
  382SOL    HW2 2046   2.707   5.823   0.676
  383SOL     OW 2047   6.223   2.493   0.185
  383SOL    HW1 2048   6.204   2.464   0.278
  383SOL    HW2 2049   6.200   2.590   0.175
  384SOL     OW 2050   1.690   5.514   5.078
  384SOL    HW1 2051   1.688   5.417   5.052
  384SOL    HW2 2052   1.597   5.548   5.089
  385SOL     OW 2053   4.894   5.717   0.599
  385SOL    HW1 2054   4.884   5.680   0.507
  385SOL    HW2 2055   4.832   5.669   0.661
  386SOL     OW 2056   3.320   6.236   5.842
  386SOL    HW1 2057   3.263   6.304   5.795
  386SOL    HW2 2058   3.412   6.239   5.804
  387SOL     OW 2059   0.411   0.776   5.338
  387SOL    HW1 2060   0.433   0.765   5.241
  387SOL    HW2 2061   0.436   0.692   5.387
  388SOL     OW 2062   6.129   2.417   5.063
  388SOL    HW1 2063   6.073   2.408   5.145
  388SOL    HW2 2064   6.219   2.376   5.079
  389SOL     OW 2065   4.016   4.747   1.409
  389SOL    HW1 2066   3.982   4.825   1.461
  389SOL    HW2 2067   4.111   4.728   1.435
  390SOL     OW 2068   3.343   2.012   0.251
  390SOL    HW1 2069   3.310   1.919   0.237
  390SOL    HW2 2070   3.380   2.048   0.166
  391SOL     OW 2071   3.145   4.405   5.539
  391SOL    HW1 2072   3.123   4.384   5.635
  391SOL    HW2 2073   3.147   4.504   5.527
  392SOL     OW 2074   1.339   3.556   1.960
  392SOL    HW1 2075   1.379   3.466   1.942
  392SOL    HW2 2076   1.381   3.595   2.042
  393SOL     OW 2077   1.060   4.040   1.935
  393SOL    HW1 2078   1.059   4.094   1.851
  393SOL    HW2 2079   0.992   3.967   1.928
  394SOL     OW 2080   0.550   1.183   6.613
  394SOL    HW1 2081   0.471   1.241   6.595
  394SOL    HW2 2082   0.592   1.208   6.700
  395SOL     OW 2083   5.384   4.806   1.422
  395SOL    HW1 2084   5.397   4.724   1.367
  395SOL    HW2 2085   5.401   4.887   1.366
  396SOL     OW 2086   2.147   0.997   1.848
  396SOL    HW1 2087   2.089   1.061   1.798
  396SOL    HW2 2088   2.152   1.024   1.944
  397SOL     OW 2089   4.496   2.109   5.095
  397SOL    HW1 2090   4.422   2.052   5.060
  397SOL    HW2 2091   4.581   2.087   5.046
  398SOL     OW 2092   1.568   1.337   4.347
  398SOL    HW1 2093   1.519   1.305   4.266
  398SOL    HW2 2094   1.560   1.436   4.354
  399SOL     OW 2095   5.986   5.974   3.764
  399SOL    HW1 2096   6.036   5.924   3.835
  399SOL    HW2 2097   5.946   6.057   3.804
  400SOL     OW 2098   6.230   0.563   4.612
  400SOL    HW1 2099   6.176   0.643   4.585
  400SOL    HW2 2100   6.326   0.579   4.590
  401SOL     OW 2101   0.138   4.777   5.995
  401SOL    HW1 2102   0.085   4.806   6.075
  401SOL    HW2 2103   0.150   4.854   5.933
  402SOL     OW 2104   6.122   0.680   2.895
  402SOL    HW1 2105   6.120   0.663   2.993
  402SOL    HW2 2106   6.189   0.619   2.851
  403SOL     OW 2107   2.625   1.048   5.203
  403SOL    HW1 2108   2.725   1.045   5.200
  403SOL    HW2 2109   2.591   0.967   5.251
  404SOL     OW 2110   3.553   5.487   3.793
  404SOL    HW1 2111   3.519   5.448   3.708
  404SOL    HW2 2112   3.529   5.584   3.797
  405SOL     OW 2113   2.165   4.823   4.504
  405SOL    HW1 2114   2.236   4.805   4.435
  405SOL    HW2 2115   2.165   4.920   4.527
  406SOL     OW 2116   0.044   5.549   5.443
  406SOL    HW1 2117   6.979   5.601   5.461
  406SOL    HW2 2118   0.065   5.492   5.522
  407SOL     OW 2119   1.760   3.329   4.464
  407SOL    HW1 2120   1.854   3.305   4.441
  407SOL    HW2 2121   1.713   3.250   4.503
  408SOL     OW 2122   2.463   1.511   3.550
  408SOL    HW1 2123   2.533   1.444   3.527
  408SOL    HW2 2124   2.406   1.530   3.469
  409SOL     OW 2125   0.458   3.316   2.621
  409SOL    HW1 2126   0.404   3.232   2.616
  409SOL    HW2 2127   0.446   3.359   2.710
  410SOL     OW 2128   1.978   1.176   1.704
  410SOL    HW1 2129   1.928   1.160   1.618
  410SOL    HW2 2130   1.913   1.186   1.779
  411SOL     OW 2131   0.556   3.209   1.567
  411SOL    HW1 2132   0.575   3.306   1.556
  411SOL    HW2 2133   0.531   3.190   1.662
  412SOL     OW 2134   1.479   5.194   2.471
  412SOL    HW1 2135   1.446   5.135   2.397
  412SOL    HW2 2136   1.404   5.214   2.534
  413SOL     OW 2137   5.446   5.971   2.451
  413SOL    HW1 2138   5.390   6.046   2.485
  413SOL    HW2 2139   5.388   5.900   2.412
  414SOL     OW 2140   2.078   6.433   3.445
  414SOL    HW1 2141   2.144   6.494   3.490
  414SOL    HW2 2142   2.126   6.371   3.384
  415SOL     OW 2143   6.055   1.040   0.445
  415SOL    HW1 2144   6.012   1.131   0.439
  415SOL    HW2 2145   6.133   1.044   0.507
  416SOL     OW 2146   5.307   3.139   4.927
  416SOL    HW1 2147   5.371   3.088   4.984
  416SOL    HW2 2148   5.250   3.197   4.985
  417SOL     OW 2149   1.946   1.820   6.087
  417SOL    HW1 2150   1.974   1.770   6.005
  417SOL    HW2 2151   1.857   1.788   6.118
  418SOL     OW 2152   4.017   6.550   4.317
  418SOL    HW1 2153   4.065   6.533   4.403
  418SOL    HW2 2154   3.921   6.523   4.326
  419SOL     OW 2155   0.265   0.321   0.846
  419SOL    HW1 2156   0.189   0.348   0.905
  419SOL    HW2 2157   0.237   0.328   0.750
  420SOL     OW 2158   4.739   0.851   6.817
  420SOL    HW1 2159   4.652   0.869   6.771
  420SOL    HW2 2160   4.813   0.894   6.766
  421SOL     OW 2161   5.508   3.569   2.498
  421SOL    HW1 2162   5.421   3.614   2.478
  421SOL    HW2 2163   5.492   3.472   2.515
  422SOL     OW 2164   5.050   3.188   1.582
  422SOL    HW1 2165   5.114   3.243   1.636
  422SOL    HW2 2166   4.972   3.163   1.639
  423SOL     OW 2167   3.460   0.880   6.296
  423SOL    HW1 2168   3.500   0.940   6.365
  423SOL    HW2 2169   3.431   0.794   6.339
  424SOL     OW 2170   0.999   3.668   3.515
  424SOL    HW1 2171   1.037   3.592   3.567
  424SOL    HW2 2172   1.072   3.729   3.485
  425SOL     OW 2173   2.694   0.793   6.144
  425SOL    HW1 2174   2.645   0.811   6.229
  425SOL    HW2 2175   2.741   0.705   6.151
  426SOL     OW 2176   2.609   2.115   4.187
  426SOL    HW1 2177   2.545   2.180   4.227
  426SOL    HW2 2178   2.701   2.154   4.186
  427SOL     OW 2179   4.205   2.217   3.076
  427SOL    HW1 2180   4.179   2.136   3.129
  427SOL    HW2 2181   4.244   2.286   3.137
  428SOL     OW 2182   2.943   2.190   5.854
  428SOL    HW1 2183   2.889   2.116   5.893
  428SOL    HW2 2184   2.941   2.184   5.755
  429SOL     OW 2185   0.561   5.597   4.189
  429SOL    HW1 2186   0.640   5.626   4.136
  429SOL    HW2 2187   0.480   5.647   4.160
  430SOL     OW 2188   1.448   0.095   3.897
  430SOL    HW1 2189   1.543   0.099   3.930
  430SOL    HW2 2190   1.386   0.107   3.975
  431SOL     OW 2191   2.587   1.967   1.188
  431SOL    HW1 2192   2.669   1.947   1.134
  431SOL    HW2 2193   2.613   2.003   1.277
  432SOL     OW 2194   5.149   2.174   2.074
  432SOL    HW1 2195   5.136   2.255   2.017
  432SOL    HW2 2196   5.088   2.101   2.042
  433SOL     OW 2197   1.786   4.875   0.928
  433SOL    HW1 2198   1.804   4.972   0.941
  433SOL    HW2 2199   1.696   4.864   0.886
  434SOL     OW 2200   4.200   5.850   3.701
  434SOL    HW1 2201   4.298   5.866   3.700
  434SOL    HW2 2202   4.152   5.934   3.725
  435SOL     OW 2203   3.577   1.790   5.858
  435SOL    HW1 2204   3.506   1.846   5.814
  435SOL    HW2 2205   3.535   1.720   5.915
  436SOL     OW 2206   4.786   0.222   2.809
  436SOL    HW1 2207   4.855   0.280   2.850
  436SOL    HW2 2208   4.761   0.149   2.873
  437SOL     OW 2209   6.276   0.863   4.944
  437SOL    HW1 2210   6.330   0.855   5.027
  437SOL    HW2 2211   6.280   0.777   4.893
  438SOL     OW 2212   7.010   4.582   2.897
  438SOL    HW1 2213   7.012   4.592   2.997
  438SOL    HW2 2214   6.926   4.536   2.870
  439SOL     OW 2215   0.071   0.904   4.590
  439SOL    HW1 2216   6.996   0.869   4.599
  439SOL    HW2 2217   0.123   0.882   4.672
  440SOL     OW 2218   3.910   1.262   0.438
  440SOL    HW1 2219   3.943   1.325   0.508
  440SOL    HW2 2220   3.981   1.248   0.369
  441SOL     OW 2221   0.109   4.089   2.752
  441SOL    HW1 2222   0.171   4.142   2.695
  441SOL    HW2 2223   0.070   4.148   2.823
  442SOL     OW 2224   5.411   3.203   5.587
  442SOL    HW1 2225   5.311   3.191   5.587
  442SOL    HW2 2226   5.453   3.131   5.643
  443SOL     OW 2227   5.163   3.398   1.717
  443SOL    HW1 2228   5.117   3.359   1.797
  443SOL    HW2 2229   5.251   3.436   1.745
  444SOL     OW 2230   3.902   1.022   1.696
  444SOL    HW1 2231   3.826   0.984   1.748
  444SOL    HW2 2232   3.981   0.961   1.701
  445SOL     OW 2233   1.625   5.637   2.479
  445SOL    HW1 2234   1.637   5.638   2.579
  445SOL    HW2 2235   1.535   5.600   2.457
  446SOL     OW 2236   5.404   7.002   1.585
  446SOL    HW1 2237   5.406   6.979   1.487
  446SOL    HW2 2238   5.456   0.068   1.599
  447SOL     OW 2239   6.015   4.559   1.131
  447SOL    HW1 2240   6.056   4.646   1.157
  447SOL    HW2 2241   6.053   4.486   1.188
  448SOL     OW 2242   2.469   0.163   3.058
  448SOL    HW1 2243   2.460   0.070   3.023
  448SOL    HW2 2244   2.404   0.223   3.010
  449SOL     OW 2245   1.525   3.960   4.510
  449SOL    HW1 2246   1.502   4.030   4.442
  449SOL    HW2 2247   1.614   3.980   4.550
  450SOL     OW 2248   0.533   4.649   3.634
  450SOL    HW1 2249   0.531   4.630   3.732
  450SOL    HW2 2250   0.541   4.748   3.620
  451SOL     OW 2251   0.990   1.867   1.538
  451SOL    HW1 2252   1.078   1.818   1.540
  451SOL    HW2 2253   0.986   1.930   1.615
  452SOL     OW 2254   4.535   5.553   2.287
  452SOL    HW1 2255   4.591   5.538   2.206
  452SOL    HW2 2256   4.549   5.477   2.351
  453SOL     OW 2257   3.226   0.589   6.201
  453SOL    HW1 2258   3.248   0.627   6.291
  453SOL    HW2 2259   3.182   0.499   6.212
  454SOL     OW 2260   6.659   3.251   6.728
  454SOL    HW1 2261   6.611   3.186   6.788
  454SOL    HW2 2262   6.748   3.214   6.704
  455SOL     OW 2263   6.145   4.890   6.031
  455SOL    HW1 2264   6.151   4.867   5.934
  455SOL    HW2 2265   6.236   4.906   6.069
  456SOL     OW 2266   2.585   0.921   2.887
  456SOL    HW1 2267   2.639   0.924   2.803
  456SOL    HW2 2268   2.620   0.988   2.952
  457SOL     OW 2269   2.316   6.695   0.261
  457SOL    HW1 2270   2.409   6.659   0.267
  457SOL    HW2 2271   2.281   6.684   0.168
  458SOL     OW 2272   2.854   1.885   3.427
  458SOL    HW1 2273   2.902   1.855   3.345
  458SOL    HW2 2274   2.776   1.942   3.402
  459SOL     OW 2275   3.856   0.057   3.450
  459SOL    HW1 2276   3.799   7.013   3.503
  459SOL    HW2 2277   3.953   0.036   3.466
  460SOL     OW 2278   0.820   1.501   6.184
  460SOL    HW1 2279   0.833   1.425   6.248
  460SOL    HW2 2280   0.813   1.464   6.091
  461SOL     OW 2281   0.825   4.945   5.280
  461SOL    HW1 2282   0.883   4.862   5.279
  461SOL    HW2 2283   0.739   4.924   5.325
  462SOL     OW 2284   3.930   4.021   4.702
  462SOL    HW1 2285   3.962   4.113   4.726
  462SOL    HW2 2286   3.885   4.024   4.613
  463SOL     OW 2287   5.236   6.502   3.547
  463SOL    HW1 2288   5.288   6.517   3.631
  463SOL    HW2 2289   5.167   6.432   3.563
  464SOL     OW 2290   3.957   5.062   6.447
  464SOL    HW1 2291   3.946   4.977   6.396
  464SOL    HW2 2292   4.047   5.101   6.427
  465SOL     OW 2293   0.681   4.070   1.209
  465SOL    HW1 2294   0.640   4.116   1.131
  465SOL    HW2 2295   0.765   4.118   1.235
  466SOL     OW 2296   3.992   5.596   4.620
  466SOL    HW1 2297   3.980   5.676   4.679
  466SOL    HW2 2298   3.934   5.605   4.539
  467SOL     OW 2299   5.930   6.625   1.837
  467SOL    HW1 2300   5.985   6.707   1.850
  467SOL    HW2 2301   5.892   6.624   1.744
  468SOL     OW 2302   2.902   6.545   6.436
  468SOL    HW1 2303   2.953   6.518   6.518
  468SOL    HW2 2304   2.939   6.497   6.357
  469SOL     OW 2305   3.530   4.975   4.920
  469SOL    HW1 2306   3.547   4.945   4.826
  469SOL    HW2 2307   3.431   4.978   4.936
  470SOL     OW 2308   2.375   4.353   2.549
  470SOL    HW1 2309   2.373   4.254   2.533
  470SOL    HW2 2310   2.383   4.401   2.461
  471SOL     OW 2311   1.638   2.236   4.228
  471SOL    HW1 2312   1.607   2.282   4.311
  471SOL    HW2 2313   1.732   2.264   4.207
  472SOL     OW 2314   5.528   3.677   6.476
  472SOL    HW1 2315   5.474   3.722   6.546
  472SOL    HW2 2316   5.599   3.740   6.443
  473SOL     OW 2317   6.435   2.490   2.089
  473SOL    HW1 2318   6.422   2.552   2.166
  473SOL    HW2 2319   6.434   2.396   2.122
  474SOL     OW 2320   4.708   6.529   4.082
  474SOL    HW1 2321   4.706   6.461   4.156
  474SOL    HW2 2322   4.637   6.508   4.016
  475SOL     OW 2323   5.523   1.713   0.136
  475SOL    HW1 2324   5.425   1.731   0.136
  475SOL    HW2 2325   5.565   1.759   0.215
  476SOL     OW 2326   0.781   4.479   1.165
  476SOL    HW1 2327   0.703   4.418   1.156
  476SOL    HW2 2328   0.845   4.462   1.090
  477SOL     OW 2329   1.340   4.661   3.660
  477SOL    HW1 2330   1.411   4.609   3.614
  477SOL    HW2 2331   1.324   4.623   3.751
  478SOL     OW 2332   4.899   5.726   2.038
  478SOL    HW1 2333   4.903   5.810   2.092
  478SOL    HW2 2334   4.926   5.746   1.943
  479SOL     OW 2335   3.134   4.006   3.628
  479SOL    HW1 2336   3.126   3.950   3.710
  479SOL    HW2 2337   3.057   3.989   3.568
  480SOL     OW 2338   1.048   0.804   2.881
  480SOL    HW1 2339   1.090   0.851   2.804
  480SOL    HW2 2340   1.030   0.709   2.856
  481SOL     OW 2341   0.352   6.975   0.471
  481SOL    HW1 2342   0.332   6.898   0.410
  481SOL    HW2 2343   0.450   6.977   0.491
  482SOL     OW 2344   3.934   4.988   1.556
  482SOL    HW1 2345   3.848   5.027   1.525
  482SOL    HW2 2346   3.917   4.926   1.633
  483SOL     OW 2347   5.756   2.332   4.255
  483SOL    HW1 2348   5.756   2.362   4.159
  483SOL    HW2 2349   5.664   2.304   4.281
  484SOL     OW 2350   2.438   4.384   3.753
  484SOL    HW1 2351   2.512   4.362   3.817
  484SOL    HW2 2352   2.459   4.471   3.707
  485SOL     OW 2353   5.508   3.255   1.310
  485SOL    HW1 2354   5.418   3.262   1.354
  485SOL    HW2 2355   5.509   3.176   1.249
  486SOL     OW 2356   5.652   5.999   6.207
  486SOL    HW1 2357   5.678   5.907   6.177
  486SOL    HW2 2358   5.641   6.000   6.306
  487SOL     OW 2359   0.571   6.640   5.828
  487SOL    HW1 2360   0.522   6.597   5.753
  487SOL    HW2 2361   0.538   6.603   5.915
  488SOL     OW 2362   2.013   5.717   3.452
  488SOL    HW1 2363   1.997   5.618   3.454
  488SOL    HW2 2364   2.033   5.749   3.545
  489SOL     OW 2365   1.648   5.714   6.347
  489SOL    HW1 2366   1.561   5.748   6.382
  489SOL    HW2 2367   1.639   5.617   6.325
  490SOL     OW 2368   0.809   4.132   4.709
  490SOL    HW1 2369   0.750   4.065   4.753
  490SOL    HW2 2370   0.879   4.086   4.655
  491SOL     OW 2371   0.416   2.896   0.653
  491SOL    HW1 2372   0.453   2.882   0.745
  491SOL    HW2 2373   0.411   2.808   0.605
  492SOL     OW 2374   1.159   2.419   5.662
  492SOL    HW1 2375   1.091   2.478   5.706
  492SOL    HW2 2376   1.250   2.438   5.700
  493SOL     OW 2377   2.082   5.797   4.559
  493SOL    HW1 2378   2.072   5.752   4.471
  493SOL    HW2 2379   2.080   5.729   4.632
  494SOL     OW 2380   2.548   6.658   4.471
  494SOL    HW1 2381   2.478   6.593   4.500
  494SOL    HW2 2382   2.639   6.620   4.486
  495SOL     OW 2383   3.597   4.178   6.407
  495SOL    HW1 2384   3.667   4.243   6.438
  495SOL    HW2 2385   3.641   4.101   6.361
  496SOL     OW 2386   4.768   1.684   3.246
  496SOL    HW1 2387   4.760   1.670   3.148
  496SOL    HW2 2388   4.816   1.770   3.264
  497SOL     OW 2389   4.538   1.692   0.401
  497SOL    HW1 2390   4.472   1.633   0.448
  497SOL    HW2 2391   4.492   1.776   0.373
  498SOL     OW 2392   0.073   7.004   1.579
  498SOL    HW1 2393   0.146   6.937   1.594
  498SOL    HW2 2394   7.003   6.960   1.589
  499SOL     OW 2395   2.657   5.732   0.489
  499SOL    HW1 2396   2.563   5.699   0.484
  499SOL    HW2 2397   2.719   5.659   0.463
  500SOL     OW 2398   5.299   2.363   0.161
  500SOL    HW1 2399   5.281   2.461   0.153
  500SOL    HW2 2400   5.358   2.334   0.086
  501SOL     OW 2401   1.130   1.271   4.611
  501SOL    HW1 2402   1.030   1.275   4.621
  501SOL    HW2 2403   1.170   1.355   4.649
  502SOL     OW 2404   2.414   4.825   6.730
  502SOL    HW1 2405   2.387   4.734   6.700
  502SOL    HW2 2406   2.336   4.871   6.773
  503SOL     OW 2407   4.317   4.943   0.830
  503SOL    HW1 2408   4.262   4.976   0.753
  503SOL    HW2 2409   4.297   4.998   0.911
  504SOL     OW 2410   6.420   6.154   2.146
  504SOL    HW1 2411   6.333   6.106   2.143
  504SOL    HW2 2412   6.440   6.181   2.241
  505SOL     OW 2413   5.003   5.905   5.433
  505SOL    HW1 2414   5.009   6.005   5.425
  505SOL    HW2 2415   5.047   5.862   5.355
  506SOL     OW 2416   4.344   5.281   2.145
  506SOL    HW1 2417   4.400   5.284   2.063
  506SOL    HW2 2418   4.250   5.255   2.121
  507SOL     OW 2419   3.020   0.918   1.252
  507SOL    HW1 2420   2.992   0.974   1.174
  507SOL    HW2 2421   2.946   0.919   1.320
  508SOL     OW 2422   0.058   3.598   3.237
  508SOL    HW1 2423   0.044   3.576   3.141
  508SOL    HW2 2424   0.149   3.638   3.249
  509SOL     OW 2425   4.653   0.217   6.049
  509SOL    HW1 2426   4.670   0.270   5.966
  509SOL    HW2 2427   4.692   0.266   6.128
  510SOL     OW 2428   6.401   4.047   6.881
  510SOL    HW1 2429   6.425   3.974   6.945
  510SOL    HW2 2430   6.344   4.115   6.927
  511SOL     OW 2431   0.662   2.079   0.515
  511SOL    HW1 2432   0.636   2.142   0.442
  511SOL    HW2 2433   0.701   2.131   0.591
  512SOL     OW 2434   0.125   1.931   4.389
  512SOL    HW1 2435   0.158   1.955   4.480
  512SOL    HW2 2436   0.160   1.841   4.364
  513SOL     OW 2437   5.098   0.893   2.799
  513SOL    HW1 2438   5.062   0.910   2.891
  513SOL    HW2 2439   5.198   0.903   2.800
  514SOL     OW 2440   6.142   0.296   4.647
  514SOL    HW1 2441   6.165   0.393   4.646
  514SOL    HW2 2442   6.063   0.280   4.705
  515SOL     OW 2443   4.019   0.119   5.522
  515SOL    HW1 2444   3.943   0.161   5.570
  515SOL    HW2 2445   4.051   0.181   5.449
  516SOL     OW 2446   2.392   5.823   2.493
  516SOL    HW1 2447   2.385   5.914   2.451
  516SOL    HW2 2448   2.311   5.769   2.471
  517SOL     OW 2449   3.300   5.880   1.641
  517SOL    HW1 2450   3.283   5.806   1.706
  517SOL    HW2 2451   3.280   5.849   1.548
  518SOL     OW 2452   2.131   3.895   4.073
  518SOL    HW1 2453   2.173   3.883   3.983
  518SOL    HW2 2454   2.086   3.809   4.099
  519SOL     OW 2455   6.981   0.050   1.946
  519SOL    HW1 2456   6.948   0.111   2.019
  519SOL    HW2 2457   0.021   6.998   1.985
  520SOL     OW 2458   1.716   4.005   0.805
  520SOL    HW1 2459   1.745   3.984   0.898
  520SOL    HW2 2460   1.796   4.032   0.751
  521SOL     OW 2461   6.519   6.388   5.126
  521SOL    HW1 2462   6.539   6.323   5.199
  521SOL    HW2 2463   6.536   6.345   5.038
  522SOL     OW 2464   3.810   4.268   1.458
  522SOL    HW1 2465   3.883   4.201   1.442
  522SOL    HW2 2466   3.784   4.311   1.372
  523SOL     OW 2467   0.821   0.150   0.892
  523SOL    HW1 2468   0.737   0.203   0.881
  523SOL    HW2 2469   0.899   0.204   0.861
  524SOL     OW 2470   6.954   2.258   1.369
  524SOL    HW1 2471   0.025   2.226   1.339
  524SOL    HW2 2472   6.894   2.270   1.290
  525SOL     OW 2473   0.453   3.851   5.500
  525SOL    HW1 2474   0.530   3.879   5.442
  525SOL    HW2 2475   0.455   3.751   5.511
  526SOL     OW 2476   3.200   0.412   3.889
  526SOL    HW1 2477   3.119   0.434   3.944
  526SOL    HW2 2478   3.282   0.442   3.937
  527SOL     OW 2479   0.456   0.910   0.620
  527SOL    HW1 2480   0.475   1.003   0.587
  527SOL    HW2 2481   0.533   0.851   0.598
  528SOL     OW 2482   0.175   3.299   4.365
  528SOL    HW1 2483   0.225   3.230   4.312
  528SOL    HW2 2484   0.077   3.292   4.346
  529SOL     OW 2485   1.952   0.330   0.243
  529SOL    HW1 2486   2.024   0.378   0.192
  529SOL    HW2 2487   1.948   0.365   0.336
  530SOL     OW 2488   3.334   4.070   1.141
  530SOL    HW1 2489   3.287   3.997   1.090
  530SOL    HW2 2490   3.341   4.151   1.083
  531SOL     OW 2491   1.295   0.258   0.698
  531SOL    HW1 2492   1.289   0.357   0.709
  531SOL    HW2 2493   1.380   0.234   0.652
  532SOL     OW 2494   1.254   2.185   6.565
  532SOL    HW1 2495   1.198   2.161   6.486
  532SOL    HW2 2496   1.195   2.203   6.644
  533SOL     OW 2497   3.940   0.114   4.357
  533SOL    HW1 2498   3.951   0.197   4.302
  533SOL    HW2 2499   3.843   0.089   4.360
  534SOL     OW 2500   2.038   5.167   1.773
  534SOL    HW1 2501   2.097   5.131   1.845
  534SOL    HW2 2502   2.091   5.229   1.714
  535SOL     OW 2503   5.116   3.499   4.131
  535SOL    HW1 2504   5.102   3.535   4.039
  535SOL    HW2 2505   5.028   3.497   4.180
  536SOL     OW 2506   6.342   0.059   2.117
  536SOL    HW1 2507   6.429   0.097   2.148
  536SOL    HW2 2508   6.267   0.113   2.154
  537SOL     OW 2509   3.701   2.124   3.854
  537SOL    HW1 2510   3.800   2.125   3.837
  537SOL    HW2 2511   3.682   2.166   3.943
  538SOL     OW 2512   3.312   4.713   5.308
  538SOL    HW1 2513   3.316   4.793   5.368
  538SOL    HW2 2514   3.238   4.725   5.242
  539SOL     OW 2515   1.048   6.780   0.033
  539SOL    HW1 2516   1.009   6.788   0.125
  539SOL    HW2 2517   1.014   6.856   6.996
  540SOL     OW 2518   0.810   0.248   4.135
  540SOL    HW1 2519   0.838   0.222   4.042
  540SOL    HW2 2520   0.735   0.313   4.129
  541SOL     OW 2521   4.372   6.135   3.884
  541SOL    HW1 2522   4.405   6.136   3.789
  541SOL    HW2 2523   4.401   6.218   3.931
  542SOL     OW 2524   3.531   0.471   5.594
  542SOL    HW1 2525   3.473   0.433   5.522
  542SOL    HW2 2526   3.532   0.407   5.672
  543SOL     OW 2527   6.072   2.328   3.883
  543SOL    HW1 2528   6.168   2.355   3.872
  543SOL    HW2 2529   6.044   2.342   3.978
  544SOL     OW 2530   1.545   3.603   1.158
  544SOL    HW1 2531   1.614   3.675   1.161
  544SOL    HW2 2532   1.586   3.516   1.186
  545SOL     OW 2533   5.654   0.441   1.122
  545SOL    HW1 2534   5.726   0.420   1.057
  545SOL    HW2 2535   5.672   0.529   1.165
  546SOL     OW 2536   6.663   4.533   2.917
  546SOL    HW1 2537   6.724   4.515   2.994
  546SOL    HW2 2538   6.702   4.495   2.833
  547SOL     OW 2539   5.378   0.790   6.268
  547SOL    HW1 2540   5.327   0.860   6.318
  547SOL    HW2 2541   5.460   0.765   6.319
  548SOL     OW 2542   3.998   2.227   6.905
  548SOL    HW1 2543   3.919   2.288   6.904
  548SOL    HW2 2544   4.045   2.233   6.993
  549SOL     OW 2545   5.624   1.620   1.819
  549SOL    HW1 2546   5.525   1.606   1.813
  549SOL    HW2 2547   5.644   1.681   1.896
  550SOL     OW 2548   0.174   5.762   3.214
  550SOL    HW1 2549   0.245   5.822   3.251
  550SOL    HW2 2550   0.128   5.714   3.288
  551SOL     OW 2551   6.280   1.059   0.628
  551SOL    HW1 2552   6.378   1.059   0.606
  551SOL    HW2 2553   6.268   1.047   0.726
  552SOL     OW 2554   0.080   5.419   5.684
  552SOL    HW1 2555   7.006   5.389   5.659
  552SOL    HW2 2556   0.078   5.463   5.773
  553SOL     OW 2557   2.378   1.196   0.311
  553SOL    HW1 2558   2.381   1.292   0.284
  553SOL    HW2 2559   2.400   1.187   0.408
  554SOL     OW 2560   5.222   6.358   1.535
  554SOL    HW1 2561   5.265   6.399   1.455
  554SOL    HW2 2562   5.141   6.411   1.560
  555SOL     OW 2563   1.171   3.814   5.892
  555SOL    HW1 2564   1.212   3.894   5.849
  555SOL    HW2 2565   1.231   3.735   5.880
  556SOL     OW 2566   5.516   0.273   4.386
  556SOL    HW1 2567   5.615   0.262   4.387
  556SOL    HW2 2568   5.474   0.213   4.455
  557SOL     OW 2569   6.817   4.333   6.642
  557SOL    HW1 2570   6.824   4.381   6.555
  557SOL    HW2 2571   6.725   4.344   6.680
  558SOL     OW 2572   3.102   3.952   2.284
  558SOL    HW1 2573   3.050   3.871   2.258
  558SOL    HW2 2574   3.128   4.003   2.202
  559SOL     OW 2575   6.691   6.444   5.574
  559SOL    HW1 2576   6.600   6.418   5.607
  559SOL    HW2 2577   6.712   6.536   5.606
  560SOL     OW 2578   6.410   3.116   3.960
  560SOL    HW1 2579   6.508   3.096   3.966
  560SOL    HW2 2580   6.384   3.176   4.036
  561SOL     OW 2581   0.736   2.867   0.196
  561SOL    HW1 2582   0.829   2.851   0.230
  561SOL    HW2 2583   0.737   2.866   0.096
  562SOL     OW 2584   4.289   6.838   4.805
  562SOL    HW1 2585   4.373   6.818   4.754
  562SOL    HW2 2586   4.309   6.843   4.902
  563SOL     OW 2587   1.785   1.175   4.426
  563SOL    HW1 2588   1.844   1.169   4.345
  563SOL    HW2 2589   1.712   1.240   4.408
  564SOL     OW 2590   6.807   1.758   5.859
  564SOL    HW1 2591   6.826   1.847   5.818
  564SOL    HW2 2592   6.867   1.689   5.818
  565SOL     OW 2593   3.247   3.635   3.873
  565SOL    HW1 2594   3.171   3.698   3.883
  565SOL    HW2 2595   3.226   3.549   3.921
  566SOL     OW 2596   3.279   0.246   3.168
  566SOL    HW1 2597   3.190   0.210   3.193
  566SOL    HW2 2598   3.351   0.187   3.205
  567SOL     OW 2599   2.502   2.767   5.437
  567SOL    HW1 2600   2.417   2.779   5.489
  567SOL    HW2 2601   2.549   2.855   5.428
  568SOL     OW 2602   0.026   6.556   0.055
  568SOL    HW1 2603   0.054   6.645   0.020
  568SOL    HW2 2604   0.083   6.531   0.134
  569SOL     OW 2605   6.265   2.387   0.454
  569SOL    HW1 2606   6.340   2.382   0.521
  569SOL    HW2 2607   6.186   2.431   0.497
  570SOL     OW 2608   2.505   0.104   6.089
  570SOL    HW1 2609   2.467   0.092   5.997
  570SOL    HW2 2610   2.518   0.202   6.107
  571SOL     OW 2611   1.976   4.923   2.099
  571SOL    HW1 2612   1.900   4.986   2.107
  571SOL    HW2 2613   1.998   4.886   2.189
  572SOL     OW 2614   3.018   0.421   4.139
  572SOL    HW1 2615   2.954   0.496   4.124
  572SOL    HW2 2616   3.079   0.444   4.215
  573SOL     OW 2617   0.045   0.937   5.146
  573SOL    HW1 2618   0.014   0.844   5.128
  573SOL    HW2 2619   0.018   0.997   5.070
  574SOL     OW 2620   2.436   2.277   5.739
  574SOL    HW1 2621   2.436   2.363   5.689
  574SOL    HW2 2622   2.445   2.296   5.837
  575SOL     OW 2623   3.913   2.993   0.213
  575SOL    HW1 2624   3.903   2.912   0.271
  575SOL    HW2 2625   3.853   2.985   0.133
  576SOL     OW 2626   2.124   2.967   3.044
  576SOL    HW1 2627   2.171   2.956   2.956
  576SOL    HW2 2628   2.134   2.883   3.098
  577SOL     OW 2629   0.531   1.450   1.962
  577SOL    HW1 2630   0.631   1.440   1.959
  577SOL    HW2 2631   0.489   1.359   1.968
  578SOL     OW 2632   2.502   6.290   6.724
  578SOL    HW1 2633   2.560   6.229   6.669
  578SOL    HW2 2634   2.483   6.373   6.671
  579SOL     OW 2635   2.241   4.391   2.013
  579SOL    HW1 2636   2.233   4.314   1.950
  579SOL    HW2 2637   2.274   4.471   1.963
  580SOL     OW 2638   4.393   5.592   4.551
  580SOL    HW1 2639   4.319   5.557   4.493
  580SOL    HW2 2640   4.396   5.539   4.636
  581SOL     OW 2641   1.720   2.519   4.408
  581SOL    HW1 2642   1.663   2.578   4.465
  581SOL    HW2 2643   1.810   2.561   4.396
  582SOL     OW 2644   5.570   5.643   4.169
  582SOL    HW1 2645   5.493   5.694   4.208
  582SOL    HW2 2646   5.542   5.605   4.080
  583SOL     OW 2647   4.471   5.576   5.856
  583SOL    HW1 2648   4.566   5.569   5.886
  583SOL    HW2 2649   4.463   5.546   5.761
  584SOL     OW 2650   4.796   0.656   5.092
  584SOL    HW1 2651   4.696   0.652   5.091
  584SOL    HW2 2652   4.831   0.628   5.003
  585SOL     OW 2653   3.060   1.052   1.734
  585SOL    HW1 2654   3.032   1.147   1.740
  585SOL    HW2 2655   3.105   1.025   1.819
  586SOL     OW 2656   4.535   6.794   0.699
  586SOL    HW1 2657   4.464   6.863   0.683
  586SOL    HW2 2658   4.624   6.831   0.672
  587SOL     OW 2659   4.806   1.992   1.865
  587SOL    HW1 2660   4.770   1.960   1.953
  587SOL    HW2 2661   4.777   1.929   1.792
  588SOL     OW 2662   1.843   5.216   3.270
  588SOL    HW1 2663   1.814   5.121   3.283
  588SOL    HW2 2664   1.786   5.276   3.326
  589SOL     OW 2665   3.015   5.861   0.964
  589SOL    HW1 2666   3.105   5.870   0.920
  589SOL    HW2 2667   2.949   5.921   0.919
  590SOL     OW 2668   4.476   2.028   0.382
  590SOL    HW1 2669   4.505   1.998   0.291
  590SOL    HW2 2670   4.478   2.127   0.386
  591SOL     OW 2671   3.163   5.995   4.178
  591SOL    HW1 2672   3.090   5.934   4.208
  591SOL    HW2 2673   3.140   6.033   4.089
  592SOL     OW 2674   3.965   2.209   4.259
  592SOL    HW1 2675   3.985   2.126   4.207
  592SOL    HW2 2676   4.048   2.243   4.301
  593SOL     OW 2677   2.964   1.646   6.757
  593SOL    HW1 2678   2.996   1.554   6.735
  593SOL    HW2 2679   2.952   1.698   6.673
  594SOL     OW 2680   4.801   1.102   1.775
  594SOL    HW1 2681   4.841   1.138   1.859
  594SOL    HW2 2682   4.870   1.049   1.726
  595SOL     OW 2683   5.636   5.737   2.604
  595SOL    HW1 2684   5.652   5.791   2.686
  595SOL    HW2 2685   5.557   5.774   2.554
  596SOL     OW 2686   6.393   4.872   4.323
  596SOL    HW1 2687   6.468   4.819   4.365
  596SOL    HW2 2688   6.332   4.810   4.275
  597SOL     OW 2689   2.605   0.774   6.516
  597SOL    HW1 2690   2.570   0.854   6.466
  597SOL    HW2 2691   2.529   0.713   6.537
  598SOL     OW 2692   2.971   3.526   4.397
  598SOL    HW1 2693   3.056   3.474   4.383
  598SOL    HW2 2694   2.966   3.599   4.329
  599SOL     OW 2695   1.041   4.898   1.763
  599SOL    HW1 2696   1.129   4.944   1.754
  599SOL    HW2 2697   1.026   4.838   1.685
  600SOL     OW 2698   6.734   3.918   5.062
  600SOL    HW1 2699   6.759   3.876   4.974
  600SOL    HW2 2700   6.762   4.014   5.062
  601SOL     OW 2701   2.026   6.664   4.750
  601SOL    HW1 2702   2.068   6.715   4.824
  601SOL    HW2 2703   1.932   6.695   4.737
  602SOL     OW 2704   2.095   6.685   3.721
  602SOL    HW1 2705   2.101   6.646   3.813
  602SOL    HW2 2706   2.124   6.617   3.654
  603SOL     OW 2707   1.636   1.429   5.180
  603SOL    HW1 2708   1.649   1.376   5.264
  603SOL    HW2 2709   1.595   1.371   5.110
  604SOL     OW 2710   6.606   2.358   1.721
  604SOL    HW1 2711   6.700   2.361   1.686
  604SOL    HW2 2712   6.587   2.444   1.770
  605SOL     OW 2713   6.889   6.249   2.208
  605SOL    HW1 2714   6.841   6.257   2.120
  605SOL    HW2 2715   6.987   6.260   2.194
  606SOL     OW 2716   3.716   6.505   4.455
  606SOL    HW1 2717   3.764   6.445   4.518
  606SOL    HW2 2718   3.673   6.580   4.505
  607SOL     OW 2719   1.319   4.510   5.969
  607SOL    HW1 2720   1.301   4.551   6.059
  607SOL    HW2 2721   1.270   4.423   5.963
  608SOL     OW 2722   2.680   1.030   5.612
  608SOL    HW1 2723   2.720   1.109   5.567
  608SOL    HW2 2724   2.662   0.958   5.545
  609SOL     OW 2725   3.476   2.847   2.065
  609SOL    HW1 2726   3.488   2.774   1.998
  609SOL    HW2 2727   3.379   2.857   2.085
  610SOL     OW 2728   4.999   3.592   1.130
  610SOL    HW1 2729   4.972   3.674   1.080
  610SOL    HW2 2730   4.944   3.514   1.099
  611SOL     OW 2731   3.602   0.430   2.465
  611SOL    HW1 2732   3.531   0.428   2.535
  611SOL    HW2 2733   3.560   0.448   2.376
  612SOL     OW 2734   3.975   4.594   5.269
  612SOL    HW1 2735   3.946   4.690   5.267
  612SOL    HW2 2736   3.899   4.537   5.301
  613SOL     OW 2737   4.605   4.906   5.432
  613SOL    HW1 2738   4.612   4.814   5.471
  613SOL    HW2 2739   4.521   4.949   5.465
  614SOL     OW 2740   3.716   5.339   5.760
  614SOL    HW1 2741   3.788   5.365   5.696
  614SOL    HW2 2742   3.749   5.347   5.854
  615SOL     OW 2743   0.581   4.592   2.443
  615SOL    HW1 2744   0.650   4.520   2.438
  615SOL    HW2 2745   0.620   4.673   2.487
  616SOL     OW 2746   6.429   3.581   3.171
  616SOL    HW1 2747   6.425   3.586   3.071
  616SOL    HW2 2748   6.435   3.486   3.200
  617SOL     OW 2749   3.196   5.524   6.416
  617SOL    HW1 2750   3.274   5.467   6.391
  617SOL    HW2 2751   3.211   5.563   6.507
  618SOL     OW 2752   1.401   0.949   2.451
  618SOL    HW1 2753   1.359   1.027   2.405
  618SOL    HW2 2754   1.352   0.866   2.425
  619SOL     OW 2755   0.975   0.977   0.121
  619SOL    HW1 2756   0.954   0.955   0.217
  619SOL    HW2 2757   1.074   0.976   0.108
  620SOL     OW 2758   4.680   3.880   1.031
  620SOL    HW1 2759   4.614   3.931   0.975
  620SOL    HW2 2760   4.631   3.816   1.091
  621SOL     OW 2761   0.392   4.892   1.593
  621SOL    HW1 2762   0.343   4.964   1.542
  621SOL    HW2 2763   0.471   4.931   1.639
  622SOL     OW 2764   1.436   0.346   6.877
  622SOL    HW1 2765   1.517   0.289   6.887
  622SOL    HW2 2766   1.411   0.352   6.780
  623SOL     OW 2767   0.847   4.660   6.602
  623SOL    HW1 2768   0.782   4.592   6.568
  623SOL    HW2 2769   0.939   4.621   6.604
  624SOL     OW 2770   0.511   2.350   2.126
  624SOL    HW1 2771   0.611   2.355   2.128
  624SOL    HW2 2772   0.474   2.439   2.099
  625SOL     OW 2773   2.398   1.330   1.924
  625SOL    HW1 2774   2.324   1.353   1.987
  625SOL    HW2 2775   2.392   1.389   1.843
  626SOL     OW 2776   2.941   6.711   4.240
  626SOL    HW1 2777   2.847   6.682   4.223
  626SOL    HW2 2778   2.990   6.718   4.153
  627SOL     OW 2779   5.009   0.890   0.319
  627SOL    HW1 2780   4.982   0.854   0.230
  627SOL    HW2 2781   4.986   0.987   0.324
  628SOL     OW 2782   5.032   4.143   3.771
  628SOL    HW1 2783   5.025   4.231   3.724
  628SOL    HW2 2784   5.106   4.148   3.839
  629SOL     OW 2785   1.552   6.188   0.753
  629SOL    HW1 2786   1.577   6.272   0.800
  629SOL    HW2 2787   1.630   6.153   0.702
  630SOL     OW 2788   3.940   2.201   1.179
  630SOL    HW1 2789   3.936   2.293   1.218
  630SOL    HW2 2790   3.849   2.160   1.181
  631SOL     OW 2791   2.397   6.854   5.132
  631SOL    HW1 2792   2.448   6.899   5.058
  631SOL    HW2 2793   2.437   6.879   5.220
  632SOL     OW 2794   1.988   1.095   1.116
  632SOL    HW1 2795   2.038   1.024   1.165
  632SOL    HW2 2796   1.991   1.180   1.169
  633SOL     OW 2797   2.460   6.995   6.332
  633SOL    HW1 2798   2.531   6.931   6.360
  633SOL    HW2 2799   2.491   0.029   6.252
  634SOL     OW 2800   3.589   6.208   0.012
  634SOL    HW1 2801   3.668   6.149   7.015
  634SOL    HW2 2802   3.534   6.171   0.086
  635SOL     OW 2803   2.574   0.371   2.763
  635SOL    HW1 2804   2.621   0.304   2.705
  635SOL    HW2 2805   2.599   0.463   2.733
  636SOL     OW 2806   5.283   5.228   6.829
  636SOL    HW1 2807   5.213   5.293   6.858
  636SOL    HW2 2808   5.325   5.186   6.910
  637SOL     OW 2809   4.735   4.548   0.905
  637SOL    HW1 2810   4.660   4.611   0.886
  637SOL    HW2 2811   4.739   4.479   0.832
  638SOL     OW 2812   5.302   1.207   2.417
  638SOL    HW1 2813   5.262   1.127   2.371
  638SOL    HW2 2814   5.275   1.207   2.513
  639SOL     OW 2815   4.395   4.750   1.979
  639SOL    HW1 2816   4.411   4.719   2.073
  639SOL    HW2 2817   4.313   4.808   1.976
  640SOL     OW 2818   2.745   4.215   5.565
  640SOL    HW1 2819   2.737   4.233   5.467
  640SOL    HW2 2820   2.834   4.173   5.584
  641SOL     OW 2821   6.961   5.938   4.648
  641SOL    HW1 2822   6.950   6.024   4.598
  641SOL    HW2 2823   6.990   5.958   4.741
  642SOL     OW 2824   1.462   5.265   5.274
  642SOL    HW1 2825   1.384   5.210   5.302
  642SOL    HW2 2826   1.452   5.359   5.307
  643SOL     OW 2827   5.499   6.039   4.993
  643SOL    HW1 2828   5.520   6.130   5.028
  643SOL    HW2 2829   5.466   5.981   5.068
  644SOL     OW 2830   1.347   6.501   2.443
  644SOL    HW1 2831   1.332   6.403   2.433
  644SOL    HW2 2832   1.322   6.529   2.536
  645SOL     OW 2833   5.869   2.975   3.713
  645SOL    HW1 2834   5.872   2.896   3.774
  645SOL    HW2 2835   5.911   3.054   3.758
  646SOL     OW 2836   1.388   1.764   4.696
  646SOL    HW1 2837   1.373   1.791   4.601
  646SOL    HW2 2838   1.474   1.803   4.729
  647SOL     OW 2839   5.667   3.452   0.424
  647SOL    HW1 2840   5.609   3.376   0.454
  647SOL    HW2 2841   5.624   3.500   0.348
  648SOL     OW 2842   6.156   2.743   1.931
  648SOL    HW1 2843   6.074   2.776   1.883
  648SOL    HW2 2844   6.176   2.649   1.902
  649SOL     OW 2845   4.067   4.867   1.053
  649SOL    HW1 2846   4.103   4.774   1.064
  649SOL    HW2 2847   3.999   4.868   0.980
  650SOL     OW 2848   4.784   4.166   0.692
  650SOL    HW1 2849   4.829   4.111   0.622
  650SOL    HW2 2850   4.853   4.209   0.751
  651SOL     OW 2851   1.139   5.632   6.436
  651SOL    HW1 2852   1.091   5.589   6.512
  651SOL    HW2 2853   1.177   5.561   6.376
  652SOL     OW 2854   4.263   1.229   2.904
  652SOL    HW1 2855   4.198   1.218   2.980
  652SOL    HW2 2856   4.215   1.212   2.817
  653SOL     OW 2857   3.832   5.044   3.411
  653SOL    HW1 2858   3.828   5.093   3.498
  653SOL    HW2 2859   3.924   5.006   3.397
  654SOL     OW 2860   6.013   4.560   0.533
  654SOL    HW1 2861   5.991   4.490   0.601
  654SOL    HW2 2862   6.104   4.597   0.552
  655SOL     OW 2863   0.640   0.710   0.568
  655SOL    HW1 2864   0.598   0.620   0.580
  655SOL    HW2 2865   0.691   0.734   0.651
  656SOL     OW 2866   2.891   6.439   2.314
  656SOL    HW1 2867   2.889   6.499   2.394
  656SOL    HW2 2868   2.862   6.347   2.340
  657SOL     OW 2869   3.264   1.843   6.698
  657SOL    HW1 2870   3.266   1.868   6.794
  657SOL    HW2 2871   3.290   1.922   6.642
  658SOL     OW 2872   3.575   4.765   5.981
  658SOL    HW1 2873   3.572   4.665   5.975
  658SOL    HW2 2874   3.486   4.803   5.954
  659SOL     OW 2875   2.903   0.251   0.036
  659SOL    HW1 2876   2.926   0.342   0.071
  659SOL    HW2 2877   2.812   0.225   0.067
  660SOL     OW 2878   3.642   5.478   3.051
  660SOL    HW1 2879   3.710   5.514   2.987
  660SOL    HW2 2880   3.684   5.468   3.142
  661SOL     OW 2881   5.376   5.468   3.285
  661SOL    HW1 2882   5.458   5.454   3.341
  661SOL    HW2 2883   5.295   5.441   3.336
  662SOL     OW 2884   3.315   1.335   0.236
  662SOL    HW1 2885   3.339   1.242   0.209
  662SOL    HW2 2886   3.386   1.371   0.297
  663SOL     OW 2887   2.437   4.457   5.050
  663SOL    HW1 2888   2.473   4.550   5.042
  663SOL    HW2 2889   2.444   4.427   5.145
  664SOL     OW 2890   6.401   1.105   6.882
  664SOL    HW1 2891   6.358   1.015   6.893
  664SOL    HW2 2892   6.465   1.101   6.806
  665SOL     OW 2893   2.501   5.594   2.943
  665SOL    HW1 2894   2.568   5.666   2.922
  665SOL    HW2 2895   2.549   5.509   2.962
  666SOL     OW 2896   4.126   1.096   1.993
  666SOL    HW1 2897   4.213   1.107   2.041
  666SOL    HW2 2898   4.112   1.172   1.930
  667SOL     OW 2899   0.950   6.786   2.599
  667SOL    HW1 2900   0.866   6.772   2.650
  667SOL    HW2 2901   0.940   6.866   2.539
  668SOL     OW 2902   5.279   3.487   0.454
  668SOL    HW1 2903   5.187   3.497   0.492
  668SOL    HW2 2904   5.337   3.440   0.521
  669SOL     OW 2905   4.888   1.650   2.990
  669SOL    HW1 2906   4.936   1.731   2.958
  669SOL    HW2 2907   4.929   1.568   2.950
  670SOL     OW 2908   2.418   2.121   3.152
  670SOL    HW1 2909   2.337   2.121   3.094
  670SOL    HW2 2910   2.426   2.210   3.199
  671SOL     OW 2911   3.359   6.477   1.551
  671SOL    HW1 2912   3.398   6.400   1.601
  671SOL    HW2 2913   3.304   6.443   1.474
  672SOL     OW 2914   1.218   6.769   2.683
  672SOL    HW1 2915   1.120   6.773   2.663
  672SOL    HW2 2916   1.267   6.827   2.619
  673SOL     OW 2917   5.689   6.661   0.025
  673SOL    HW1 2918   5.758   6.645   6.973
  673SOL    HW2 2919   5.599   6.663   7.001
  674SOL     OW 2920   0.175   1.212   4.116
  674SOL    HW1 2921   0.232   1.142   4.072
  674SOL    HW2 2922   0.146   1.181   4.206
  675SOL     OW 2923   5.943   2.776   2.689
  675SOL    HW1 2924   5.933   2.684   2.650
  675SOL    HW2 2925   5.887   2.783   2.771
  676SOL     OW 2926   1.853   5.921   5.908
  676SOL    HW1 2927   1.915   5.996   5.930
  676SOL    HW2 2928   1.783   5.914   5.979
  677SOL     OW 2929   4.864   1.292   0.866
  677SOL    HW1 2930   4.901   1.282   0.958
  677SOL    HW2 2931   4.906   1.224   0.806
  678SOL     OW 2932   2.057   4.957   4.789
  678SOL    HW1 2933   1.991   4.914   4.727
  678SOL    HW2 2934   2.112   4.886   4.833
  679SOL     OW 2935   5.559   1.527   5.398
  679SOL    HW1 2936   5.631   1.548   5.463
  679SOL    HW2 2937   5.590   1.549   5.305
  680SOL     OW 2938   4.795   0.128   4.106
  680SOL    HW1 2939   4.696   0.114   4.109
  680SOL    HW2 2940   4.840   0.062   4.165
  681SOL     OW 2941   4.491   5.054   2.488
  681SOL    HW1 2942   4.472   5.025   2.394
  681SOL    HW2 2943   4.416   5.025   2.548
  682SOL     OW 2944   0.814   0.972   3.423
  682SOL    HW1 2945   0.786   0.881   3.390
  682SOL    HW2 2946   0.748   1.003   3.491
  683SOL     OW 2947   4.310   3.731   1.083
  683SOL    HW1 2948   4.340   3.660   1.020
  683SOL    HW2 2949   4.325   3.700   1.177
  684SOL     OW 2950   6.848   1.047   6.450
  684SOL    HW1 2951   6.783   1.116   6.482
  684SOL    HW2 2952   6.800   0.961   6.433
  685SOL     OW 2953   3.722   0.649   3.046
  685SOL    HW1 2954   3.802   0.707   3.063
  685SOL    HW2 2955   3.671   0.636   3.131
  686SOL     OW 2956   4.774   0.402   5.283
  686SOL    HW1 2957   4.822   0.483   5.250
  686SOL    HW2 2958   4.675   0.420   5.285
  687SOL     OW 2959   1.206   2.152   3.997
  687SOL    HW1 2960   1.277   2.117   4.058
  687SOL    HW2 2961   1.167   2.076   3.945
  688SOL     OW 2962   6.908   1.315   6.665
  688SOL    HW1 2963   6.978   1.248   6.687
  688SOL    HW2 2964   6.881   1.364   6.748
  689SOL     OW 2965   1.248   5.452   5.869
  689SOL    HW1 2966   1.312   5.504   5.925
  689SOL    HW2 2967   1.282   5.359   5.855
  690SOL     OW 2968   5.923   3.192   2.760
  690SOL    HW1 2969   5.889   3.135   2.686
  690SOL    HW2 2970   5.963   3.276   2.723
  691SOL     OW 2971   5.178   1.323   0.859
  691SOL    HW1 2972   5.187   1.398   0.924
  691SOL    HW2 2973   5.228   1.346   0.775
  692SOL     OW 2974   2.362   0.946   5.002
  692SOL    HW1 2975   2.373   0.901   5.091
  692SOL    HW2 2976   2.380   1.044   5.011
  693SOL     OW 2977   5.254   5.969   4.218
  693SOL    HW1 2978   5.206   6.033   4.157
  693SOL    HW2 2979   5.344   6.006   4.241
  694SOL     OW 2980   4.468   6.401   5.462
  694SOL    HW1 2981   4.370   6.393   5.480
  694SOL    HW2 2982   4.490   6.353   5.377
  695SOL     OW 2983   3.206   0.528   4.308
  695SOL    HW1 2984   3.240   0.595   4.241
  695SOL    HW2 2985   3.257   0.537   4.393
  696SOL     OW 2986   5.035   4.682   3.186
  696SOL    HW1 2987   4.990   4.756   3.136
  696SOL    HW2 2988   5.080   4.720   3.267
  697SOL     OW 2989   0.519   5.578   2.266
  697SOL    HW1 2990   0.522   5.586   2.366
  697SOL    HW2 2991   0.612   5.564   2.231
  698SOL     OW 2992   5.711   6.630   0.323
  698SOL    HW1 2993   5.808   6.649   0.334
  698SOL    HW2 2994   5.678   6.673   0.239
  699SOL     OW 2995   2.508   2.599   1.107
  699SOL    HW1 2996   2.434   2.645   1.156
  699SOL    HW2 2997   2.529   2.512   1.152
  700SOL     OW 2998   3.526   0.494   2.958
  700SOL    HW1 2999   3.610   0.547   2.971
  700SOL    HW2 3000   3.456   0.527   3.021
  701SOL     OW 3001   5.996   5.186   1.354
  701SOL    HW1 3002   5.928   5.259   1.352
  701SOL    HW2 3003   5.998   5.139   1.266
  702SOL     OW 3004   3.194   0.860   4.293
  702SOL    HW1 3005   3.137   0.822   4.221
  702SOL    HW2 3006   3.150   0.942   4.331
  703SOL     OW 3007   3.078   2.286   6.102
  703SOL    HW1 3008   3.028   2.236   6.032
  703SOL    HW2 3009   3.018   2.356   6.141
  704SOL     OW 3010   1.362   2.548   5.798
  704SOL    HW1 3011   1.353   2.632   5.745
  704SOL    HW2 3012   1.459   2.529   5.815
  705SOL     OW 3013   0.145   6.436   5.112
  705SOL    HW1 3014   0.112   6.391   5.195
  705SOL    HW2 3015   0.072   6.495   5.075
  706SOL     OW 3016   4.534   0.671   4.931
  706SOL    HW1 3017   4.444   0.632   4.952
  706SOL    HW2 3018   4.525   0.770   4.918
  707SOL     OW 3019   3.451   5.058   3.781
  707SOL    HW1 3020   3.443   5.006   3.866
  707SOL    HW2 3021   3.443   4.995   3.703
  708SOL     OW 3022   3.529   0.252   3.583
  708SOL    HW1 3023   3.556   0.314   3.509
  708SOL    HW2 3024   3.490   0.169   3.545
  709SOL     OW 3025   2.650   0.220   1.630
  709SOL    HW1 3026   2.642   0.150   1.559
  709SOL    HW2 3027   2.570   0.279   1.628
  710SOL     OW 3028   4.539   2.830   1.743
  710SOL    HW1 3029   4.602   2.753   1.752
  710SOL    HW2 3030   4.589   2.916   1.757
  711SOL     OW 3031   0.177   2.389   6.131
  711SOL    HW1 3032   0.184   2.291   6.148
  711SOL    HW2 3033   0.191   2.439   6.216
  712SOL     OW 3034   5.135   4.115   0.673
  712SOL    HW1 3035   5.200   4.103   0.598
  712SOL    HW2 3036   5.063   4.046   0.668
  713SOL     OW 3037   3.998   2.758   5.289
  713SOL    HW1 3038   4.072   2.812   5.329
  713SOL    HW2 3039   4.036   2.673   5.252
  714SOL     OW 3040   5.171   5.122   3.490
  714SOL    HW1 3041   5.239   5.089   3.424
  714SOL    HW2 3042   5.079   5.100   3.456
  715SOL     OW 3043   6.447   5.477   5.347
  715SOL    HW1 3044   6.456   5.422   5.265
  715SOL    HW2 3045   6.406   5.422   5.420
  716SOL     OW 3046   2.077   1.899   2.514
  716SOL    HW1 3047   2.058   1.801   2.508
  716SOL    HW2 3048   2.048   1.943   2.429
  717SOL     OW 3049   5.135   4.553   4.488
  717SOL    HW1 3050   5.190   4.634   4.466
  717SOL    HW2 3051   5.135   4.491   4.410
  718SOL     OW 3052   5.805   1.772   4.866
  718SOL    HW1 3053   5.883   1.754   4.926
  718SOL    HW2 3054   5.820   1.728   4.778
  719SOL     OW 3055   5.397   0.244   3.245
  719SOL    HW1 3056   5.328   0.172   3.256
  719SOL    HW2 3057   5.441   0.234   3.156
  720SOL     OW 3058   2.585   1.410   0.322
  720SOL    HW1 3059   2.598   1.343   0.395
  720SOL    HW2 3060   2.512   1.474   0.347
  721SOL     OW 3061   0.285   1.605   3.259
  721SOL    HW1 3062   0.368   1.561   3.294
  721SOL    HW2 3063   0.274   1.583   3.162
  722SOL     OW 3064   4.288   6.641   0.363
  722SOL    HW1 3065   4.240   6.557   0.387
  722SOL    HW2 3066   4.266   6.666   0.269
  723SOL     OW 3067   2.422   5.415   3.536
  723SOL    HW1 3068   2.518   5.412   3.563
  723SOL    HW2 3069   2.413   5.467   3.451
  724SOL     OW 3070   0.895   1.418   3.901
  724SOL    HW1 3071   0.909   1.391   3.996
  724SOL    HW2 3072   0.967   1.379   3.844
  725SOL     OW 3073   1.182   3.774   2.523
  725SOL    HW1 3074   1.092   3.750   2.558
  725SOL    HW2 3075   1.248   3.773   2.598
  726SOL     OW 3076   1.630   4.334   0.719
  726SOL    HW1 3077   1.725   4.311   0.743
  726SOL    HW2 3078   1.569   4.304   0.792
  727SOL     OW 3079   4.506   5.838   5.393
  727SOL    HW1 3080   4.463   5.754   5.427
  727SOL    HW2 3081   4.596   5.817   5.356
  728SOL     OW 3082   6.661   3.473   4.199
  728SOL    HW1 3083   6.638   3.386   4.242
  728SOL    HW2 3084   6.669   3.460   4.100
  729SOL     OW 3085   0.247   4.081   1.765
  729SOL    HW1 3086   0.250   3.988   1.800
  729SOL    HW2 3087   0.336   4.124   1.779
  730SOL     OW 3088   5.044   0.473   3.196
  730SOL    HW1 3089   5.004   0.514   3.278
  730SOL    HW2 3090   5.142   0.490   3.195
  731SOL     OW 3091   4.414   4.913   6.001
  731SOL    HW1 3092   4.397   5.010   6.014
  731SOL    HW2 3093   4.339   4.860   6.040
  732SOL     OW 3094   4.799   1.542   4.729
  732SOL    HW1 3095   4.819   1.444   4.729
  732SOL    HW2 3096   4.884   1.593   4.719
  733SOL     OW 3097   6.169   6.710   3.065
  733SOL    HW1 3098   6.126   6.699   3.155
  733SOL    HW2 3099   6.100   6.703   2.994
  734SOL     OW 3100   6.163   6.299   2.429
  734SOL    HW1 3101   6.139   6.212   2.472
  734SOL    HW2 3102   6.142   6.294   2.331
  735SOL     OW 3103   4.843   0.653   2.460
  735SOL    HW1 3104   4.856   0.685   2.554
  735SOL    HW2 3105   4.770   0.706   2.417
  736SOL     OW 3106   1.407   1.851   4.410
  736SOL    HW1 3107   1.470   1.928   4.395
  736SOL    HW2 3108   1.349   1.839   4.330
  737SOL     OW 3109   4.951   0.984   6.668
  737SOL    HW1 3110   4.976   1.043   6.591
  737SOL    HW2 3111   4.973   1.030   6.754
  738SOL     OW 3112   2.241   4.363   1.111
  738SOL    HW1 3113   2.222   4.362   1.013
  738SOL    HW2 3114   2.336   4.389   1.126
  739SOL     OW 3115   2.970   6.839   4.550
  739SOL    HW1 3116   2.913   6.890   4.485
  739SOL    HW2 3117   2.912   6.804   4.624
  740SOL     OW 3118   5.559   3.318   2.633
  740SOL    HW1 3119   5.587   3.341   2.726
  740SOL    HW2 3120   5.468   3.275   2.635
  741SOL     OW 3121   2.700   0.385   3.167
  741SOL    HW1 3122   2.652   0.464   3.128
  741SOL    HW2 3123   2.689   0.306   3.106
  742SOL     OW 3124   1.707   6.691   1.703
  742SOL    HW1 3125   1.696   6.764   1.770
  742SOL    HW2 3126   1.697   6.729   1.611
  743SOL     OW 3127   0.810   6.514   3.303
  743SOL    HW1 3128   0.719   6.556   3.300
  743SOL    HW2 3129   0.802   6.417   3.327
  744SOL     OW 3130   4.569   1.971   0.134
  744SOL    HW1 3131   4.525   1.976   0.044
  744SOL    HW2 3132   4.651   1.914   0.127
  745SOL     OW 3133   2.787   6.546   4.525
  745SOL    HW1 3134   2.784   6.614   4.598
  745SOL    HW2 3135   2.880   6.543   4.487
  746SOL     OW 3136   6.669   4.595   5.568
  746SOL    HW1 3137   6.665   4.530   5.644
  746SOL    HW2 3138   6.763   4.600   5.534
  747SOL     OW 3139   5.002   5.949   3.315
  747SOL    HW1 3140   4.954   5.906   3.238
  747SOL    HW2 3141   5.048   6.032   3.283
  748SOL     OW 3142   5.691   5.331   2.076
  748SOL    HW1 3143   5.628   5.357   2.150
  748SOL    HW2 3144   5.778   5.379   2.089
  749SOL     OW 3145   5.059   3.583   3.846
  749SOL    HW1 3146   5.127   3.576   3.773
  749SOL    HW2 3147   4.987   3.646   3.818
  750SOL     OW 3148   2.460   1.974   1.813
  750SOL    HW1 3149   2.455   1.907   1.887
  750SOL    HW2 3150   2.437   1.929   1.727
  751SOL     OW 3151   4.743   0.151   0.236
  751SOL    HW1 3152   4.715   0.058   0.210
  751SOL    HW2 3153   4.681   0.186   0.305
  752SOL     OW 3154   3.663   2.446   5.357
  752SOL    HW1 3155   3.611   2.530   5.377
  752SOL    HW2 3156   3.602   2.378   5.317
  753SOL     OW 3157   3.704   3.378   4.780
  753SOL    HW1 3158   3.638   3.447   4.750
  753SOL    HW2 3159   3.659   3.312   4.840
  754SOL     OW 3160   6.085   0.494   0.027
  754SOL    HW1 3161   6.065   0.482   0.125
  754SOL    HW2 3162   6.000   0.485   6.993
  755SOL     OW 3163   4.162   4.451   5.377
  755SOL    HW1 3164   4.234   4.452   5.308
  755SOL    HW2 3165   4.081   4.499   5.342
  756SOL     OW 3166   2.047   5.068   6.127
  756SOL    HW1 3167   2.114   5.122   6.178
  756SOL    HW2 3168   2.039   4.977   6.167
  757SOL     OW 3169   2.539   6.824   2.814
  757SOL    HW1 3170   2.589   6.756   2.867
  757SOL    HW2 3171   2.583   6.913   2.823
  758SOL     OW 3172   3.294   1.457   3.715
  758SOL    HW1 3173   3.214   1.409   3.679
  758SOL    HW2 3174   3.270   1.553   3.732
  759SOL     OW 3175   0.501   2.580   4.480
  759SOL    HW1 3176   0.440   2.508   4.449
  759SOL    HW2 3177   0.474   2.611   4.571
  760SOL     OW 3178   6.463   5.535   3.628
  760SOL    HW1 3179   6.462   5.595   3.548
  760SOL    HW2 3180   6.504   5.584   3.706
  761SOL     OW 3181   3.980   3.197   6.047
  761SOL    HW1 3182   3.974   3.183   5.948
  761SOL    HW2 3183   4.010   3.112   6.091
  762SOL     OW 3184   3.311   5.262   4.229
  762SOL    HW1 3185   3.353   5.275   4.318
  762SOL    HW2 3186   3.361   5.192   4.178
  763SOL     OW 3187   6.233   0.727   0.149
  763SOL    HW1 3188   6.241   0.661   0.075
  763SOL    HW2 3189   6.287   0.695   0.228
  764SOL     OW 3190   5.612   0.093   5.545
  764SOL    HW1 3191   5.546   0.033   5.590
  764SOL    HW2 3192   5.644   0.050   5.461
  765SOL     OW 3193   6.388   6.590   1.008
  765SOL    HW1 3194   6.487   6.605   1.018
  765SOL    HW2 3195   6.372   6.525   0.934
  766SOL     OW 3196   2.071   2.002   5.059
  766SOL    HW1 3197   2.128   2.082   5.077
  766SOL    HW2 3198   2.043   1.962   5.146
  767SOL     OW 3199   6.953   6.159   4.480
  767SOL    HW1 3200   0.023   6.205   4.484
  767SOL    HW2 3201   6.932   6.135   4.385
  768SOL     OW 3202   1.898   5.214   2.320
  768SOL    HW1 3203   1.855   5.298   2.289
  768SOL    HW2 3204   1.998   5.225   2.317
  769SOL     OW 3205   2.647   2.464   4.794
  769SOL    HW1 3206   2.726   2.524   4.787
  769SOL    HW2 3207   2.671   2.373   4.759
  770SOL     OW 3208   1.790   4.364   5.177
  770SOL    HW1 3209   1.750   4.306   5.106
  770SOL    HW2 3210   1.719   4.423   5.216
  771SOL     OW 3211   1.161   5.676   3.176
  771SOL    HW1 3212   1.087   5.743   3.182
  771SOL    HW2 3213   1.128   5.587   3.207
  772SOL     OW 3214   5.659   4.102   0.616
  772SOL    HW1 3215   5.625   4.180   0.563
  772SOL    HW2 3216   5.625   4.017   0.575
  773SOL     OW 3217   0.600   3.454   3.269
  773SOL    HW1 3218   0.586   3.357   3.293
  773SOL    HW2 3219   0.682   3.488   3.313
  774SOL     OW 3220   1.841   0.571   2.854
  774SOL    HW1 3221   1.869   0.502   2.920
  774SOL    HW2 3222   1.889   0.657   2.873
  775SOL     OW 3223   2.191   4.712   2.915
  775SOL    HW1 3224   2.118   4.776   2.891
  775SOL    HW2 3225   2.280   4.757   2.904
  776SOL     OW 3226   2.795   5.293   6.703
  776SOL    HW1 3227   2.834   5.224   6.764
  776SOL    HW2 3228   2.861   5.366   6.688
  777SOL     OW 3229   2.355   4.043   0.047
  777SOL    HW1 3230   2.346   3.947   0.021
  777SOL    HW2 3231   2.450   4.072   0.038
  778SOL     OW 3232   3.026   6.909   1.379
  778SOL    HW1 3233   3.042   6.977   1.451
  778SOL    HW2 3234   2.934   6.922   1.341
  779SOL     OW 3235   6.875   2.171   3.430
  779SOL    HW1 3236   6.803   2.195   3.365
  779SOL    HW2 3237   6.846   2.092   3.484
  780SOL     OW 3238   0.803   2.006   4.065
  780SOL    HW1 3239   0.865   1.931   4.042
  780SOL    HW2 3240   0.853   2.091   4.072
  781SOL     OW 3241   0.593   4.394   0.293
  781SOL    HW1 3242   0.638   4.417   0.206
  781SOL    HW2 3243   0.538   4.312   0.282
  782SOL     OW 3244   1.812   3.330   5.171
  782SOL    HW1 3245   1.904   3.328   5.209
  782SOL    HW2 3246   1.779   3.424   5.167
  783SOL     OW 3247   6.482   5.248   6.216
  783SOL    HW1 3248   6.472   5.278   6.311
  783SOL    HW2 3249   6.577   5.259   6.187
  784SOL     OW 3250   3.191   6.217   0.601
  784SOL    HW1 3251   3.122   6.147   0.617
  784SOL    HW2 3252   3.147   6.307   0.599
  785SOL     OW 3253   1.425   6.681   4.581
  785SOL    HW1 3254   1.500   6.643   4.526
  785SOL    HW2 3255   1.411   6.625   4.662
  786SOL     OW 3256   6.478   1.073   3.426
  786SOL    HW1 3257   6.482   1.168   3.455
  786SOL    HW2 3258   6.382   1.045   3.418
  787SOL     OW 3259   2.501   0.178   0.893
  787SOL    HW1 3260   2.599   0.163   0.904
  787SOL    HW2 3261   2.465   0.116   0.824
  788SOL     OW 3262   2.930   2.279   1.226
  788SOL    HW1 3263   2.986   2.348   1.180
  788SOL    HW2 3264   2.929   2.297   1.324
  789SOL     OW 3265   4.300   5.042   1.723
  789SOL    HW1 3266   4.335   4.948   1.715
  789SOL    HW2 3267   4.375   5.103   1.746
  790SOL     OW 3268   0.489   2.264   2.461
  790SOL    HW1 3269   0.420   2.274   2.532
  790SOL    HW2 3270   0.450   2.286   2.372
  791SOL     OW 3271   3.140   5.206   4.625
  791SOL    HW1 3272   3.142   5.293   4.674
  791SOL    HW2 3273   3.107   5.134   4.686
  792SOL     OW 3274   1.321   0.524   0.651
  792SOL    HW1 3275   1.339   0.532   0.553
  792SOL    HW2 3276   1.317   0.615   0.691
  793SOL     OW 3277   2.712   5.947   3.984
  793SOL    HW1 3278   2.701   5.848   3.969
  793SOL    HW2 3279   2.667   5.997   3.911
  794SOL     OW 3280   3.391   3.253   2.853
  794SOL    HW1 3281   3.332   3.199   2.914
  794SOL    HW2 3282   3.448   3.192   2.799
  795SOL     OW 3283   3.666   0.581   6.562
  795SOL    HW1 3284   3.682   0.649   6.490
  795SOL    HW2 3285   3.592   0.519   6.533
  796SOL     OW 3286   1.330   3.066   6.786
  796SOL    HW1 3287   1.381   3.147   6.755
  796SOL    HW2 3288   1.307   3.076   6.882
  797SOL     OW 3289   5.177   6.974   0.569
  797SOL    HW1 3290   5.161   6.928   0.656
  797SOL    HW2 3291   5.130   6.924   0.495
  798SOL     OW 3292   4.216   6.187   0.568
  798SOL    HW1 3293   4.179   6.263   0.515
  798SOL    HW2 3294   4.220   6.213   0.665
  799SOL     OW 3295   1.664   2.387   5.371
  799SOL    HW1 3296   1.591   2.350   5.428
  799SOL    HW2 3297   1.731   2.316   5.351
  800SOL     OW 3298   5.891   3.010   2.574
  800SOL    HW1 3299   5.916   2.925   2.620
  800SOL    HW2 3300   5.818   2.992   2.508
  801SOL     OW 3301   2.004   5.696   5.530
  801SOL    HW1 3302   1.920   5.748   5.546
  801SOL    HW2 3303   1.981   5.604   5.499
  802SOL     OW 3304   5.366   3.008   6.311
  802SOL    HW1 3305   5.339   2.930   6.366
  802SOL    HW2 3306   5.388   2.978   6.218
  803SOL     OW 3307   2.485   1.210   5.444
  803SOL    HW1 3308   2.523   1.160   5.367
  803SOL    HW2 3309   2.547   1.204   5.522
  804SOL     OW 3310   5.727   0.508   2.470
  804SOL    HW1 3311   5.735   0.550   2.380
  804SOL    HW2 3312   5.667   0.564   2.528
  805SOL     OW 3313   3.884   0.680   3.383
  805SOL    HW1 3314   3.839   0.769   3.398
  805SOL    HW2 3315   3.893   0.664   3.285
  806SOL     OW 3316   2.066   6.112   5.867
  806SOL    HW1 3317   2.031   6.099   5.774
  806SOL    HW2 3318   2.136   6.043   5.886
  807SOL     OW 3319   1.047   6.068   6.235
  807SOL    HW1 3320   0.975   6.130   6.265
  807SOL    HW2 3321   1.023   5.974   6.260
  808SOL     OW 3322   5.626   3.230   0.087
  808SOL    HW1 3323   5.600   3.321   0.119
  808SOL    HW2 3324   5.682   3.184   0.157
  809SOL     OW 3325   2.348   4.716   0.243
  809SOL    HW1 3326   2.426   4.777   0.229
  809SOL    HW2 3327   2.363   4.631   0.193
  810SOL     OW 3328   3.699   3.242   0.078
  810SOL    HW1 3329   3.783   3.226   0.027
  810SOL    HW2 3330   3.661   3.331   0.053
  811SOL     OW 3331   5.324   4.776   4.488
  811SOL    HW1 3332   5.309   4.872   4.511
  811SOL    HW2 3333   5.414   4.766   4.445
  812SOL     OW 3334   0.580   2.994   2.130
  812SOL    HW1 3335   0.564   2.981   2.228
  812SOL    HW2 3336   0.497   3.031   2.087
  813SOL     OW 3337   0.856   1.855   4.482
  813SOL    HW1 3338   0.831   1.880   4.576
  813SOL    HW2 3339   0.776   1.866   4.423
  814SOL     OW 3340   0.628   4.936   2.821
  814SOL    HW1 3341   0.558   4.995   2.861
  814SOL    HW2 3342   0.589   4.847   2.799
  815SOL     OW 3343   4.808   1.539   4.275
  815SOL    HW1 3344   4.882   1.563   4.339
  815SOL    HW2 3345   4.792   1.615   4.213
  816SOL     OW 3346   5.351   4.894   6.680
  816SOL    HW1 3347   5.285   4.895   6.606
  816SOL    HW2 3348   5.436   4.851   6.650
  817SOL     OW 3349   0.906   4.210   6.752
  817SOL    HW1 3350   0.978   4.146   6.777
  817SOL    HW2 3351   0.936   4.304   6.769
  818SOL     OW 3352   6.477   2.684   4.756
  818SOL    HW1 3353   6.561   2.629   4.763
  818SOL    HW2 3354   6.492   2.774   4.798
  819SOL     OW 3355   5.022   2.138   1.759
  819SOL    HW1 3356   4.955   2.074   1.797
  819SOL    HW2 3357   4.976   2.204   1.700
  820SOL     OW 3358   2.078   2.084   4.791
  820SOL    HW1 3359   2.061   2.060   4.886
  820SOL    HW2 3360   2.018   2.030   4.731
  821SOL     OW 3361   5.371   3.595   5.670
  821SOL    HW1 3362   5.370   3.546   5.758
  821SOL    HW2 3363   5.424   3.542   5.604
  822SOL     OW 3364   0.512   4.162   3.280
  822SOL    HW1 3365   0.584   4.117   3.228
  822SOL    HW2 3366   0.434   4.100   3.290
  823SOL     OW 3367   0.966   3.638   5.820
  823SOL    HW1 3368   0.973   3.635   5.720
  823SOL    HW2 3369   1.050   3.676   5.858
  824SOL     OW 3370   5.682   1.306   5.610
  824SOL    HW1 3371   5.676   1.401   5.641
  824SOL    HW2 3372   5.747   1.257   5.668
  825SOL     OW 3373   5.939   5.824   1.099
  825SOL    HW1 3374   5.937   5.902   1.161
  825SOL    HW2 3375   5.978   5.745   1.147
  826SOL     OW 3376   3.514   1.611   6.767
  826SOL    HW1 3377   3.541   1.639   6.859
  826SOL    HW2 3378   3.417   1.584   6.768
  827SOL     OW 3379   3.960   3.751   4.565
  827SOL    HW1 3380   3.954   3.827   4.629
  827SOL    HW2 3381   4.042   3.698   4.585
  828SOL     OW 3382   6.402   6.003   5.575
  828SOL    HW1 3383   6.447   6.013   5.663
  828SOL    HW2 3384   6.423   5.913   5.537
  829SOL     OW 3385   3.201   3.302   2.428
  829SOL    HW1 3386   3.212   3.352   2.514
  829SOL    HW2 3387   3.276   3.325   2.366
  830SOL     OW 3388   6.426   4.446   0.129
  830SOL    HW1 3389   6.409   4.537   0.093
  830SOL    HW2 3390   6.389   4.377   0.067
  831SOL     OW 3391   4.644   6.987   1.349
  831SOL    HW1 3392   4.632   6.907   1.409
  831SOL    HW2 3393   4.725   0.019   1.377
  832SOL     OW 3394   2.900   1.944   4.737
  832SOL    HW1 3395   2.947   2.032   4.728
  832SOL    HW2 3396   2.815   1.946   4.684
  833SOL     OW 3397   2.660   2.024   6.455
  833SOL    HW1 3398   2.665   2.014   6.356
  833SOL    HW2 3399   2.592   1.961   6.492
  834SOL     OW 3400   5.282   3.372   0.199
  834SOL    HW1 3401   5.271   3.444   0.131
  834SOL    HW2 3402   5.283   3.411   0.290
  835SOL     OW 3403   0.768   6.930   4.373
  835SOL    HW1 3404   0.847   6.990   4.363
  835SOL    HW2 3405   0.721   6.923   4.285
  836SOL     OW 3406   3.750   1.192   4.722
  836SOL    HW1 3407   3.710   1.272   4.677
  836SOL    HW2 3408   3.839   1.216   4.760
  837SOL     OW 3409   1.652   0.516   0.750
  837SOL    HW1 3410   1.731   0.472   0.792
  837SOL    HW2 3411   1.568   0.479   0.789
  838SOL     OW 3412   1.788   5.018   3.603
  838SOL    HW1 3413   1.793   5.002   3.701
  838SOL    HW2 3414   1.880   5.032   3.566
  839SOL     OW 3415   0.993   1.861   0.365
  839SOL    HW1 3416   0.990   1.905   0.275
  839SOL    HW2 3417   1.078   1.886   0.412
  840SOL     OW 3418   5.549   5.211   6.732
  840SOL    HW1 3419   5.459   5.244   6.760
  840SOL    HW2 3420   5.600   5.183   6.813
  841SOL     OW 3421   3.267   4.754   6.747
  841SOL    HW1 3422   3.212   4.716   6.821
  841SOL    HW2 3423   3.273   4.688   6.672
  842SOL     OW 3424   3.479   6.483   6.642
  842SOL    HW1 3425   3.483   6.556   6.711
  842SOL    HW2 3426   3.384   6.453   6.631
  843SOL     OW 3427   1.367   1.207   2.345
  843SOL    HW1 3428   1.302   1.272   2.384
  843SOL    HW2 3429   1.448   1.255   2.314
  844SOL     OW 3430   6.035   0.747   1.746
  844SOL    HW1 3431   6.022   0.710   1.654
  844SOL    HW2 3432   5.953   0.795   1.775
  845SOL     OW 3433   3.778   1.163   2.594
  845SOL    HW1 3434   3.868   1.135   2.561
  845SOL    HW2 3435   3.717   1.083   2.596
  846SOL     OW 3436   2.596   1.898   0.586
  846SOL    HW1 3437   2.667   1.945   0.638
  846SOL    HW2 3438   2.633   1.867   0.498
  847SOL     OW 3439   2.516   4.154   1.436
  847SOL    HW1 3440   2.532   4.252   1.420
  847SOL    HW2 3441   2.554   4.129   1.525
  848SOL     OW 3442   0.091   5.647   0.521
  848SOL    HW1 3443   0.116   5.668   0.427
  848SOL    HW2 3444   0.174   5.634   0.576
  849SOL     OW 3445   6.189   3.783   6.391
  849SOL    HW1 3446   6.189   3.694   6.437
  849SOL    HW2 3447   6.267   3.789   6.330
  850SOL     OW 3448   0.714   0.623   5.274
  850SOL    HW1 3449   0.789   0.566   5.309
  850SOL    HW2 3450   0.752   0.707   5.234
  851SOL     OW 3451   6.611   3.381   5.931
  851SOL    HW1 3452   6.595   3.464   5.985
  851SOL    HW2 3453   6.613   3.302   5.992
  852SOL     OW 3454   0.447   4.130   2.535
  852SOL    HW1 3455   0.547   4.124   2.535
  852SOL    HW2 3456   0.408   4.038   2.530
  853SOL     OW 3457   2.669   2.994   6.822
  853SOL    HW1 3458   2.767   2.981   6.808
  853SOL    HW2 3459   2.632   2.915   6.871
  854SOL     OW 3460   5.664   6.777   6.659
  854SOL    HW1 3461   5.680   6.684   6.626
  854SOL    HW2 3462   5.660   6.840   6.582
  855SOL     OW 3463   5.855   1.566   6.925
  855SOL    HW1 3464   5.875   1.634   6.995
  855SOL    HW2 3465   5.939   1.541   6.877
  856SOL     OW 3466   2.066   6.084   0.705
  856SOL    HW1 3467   2.078   5.990   0.736
  856SOL    HW2 3468   2.031   6.140   0.780
  857SOL     OW 3469   6.181   5.263   5.793
  857SOL    HW1 3470   6.101   5.314   5.825
  857SOL    HW2 3471   6.156   5.212   5.710
  858SOL     OW 3472   4.188   3.468   0.510
  858SOL    HW1 3473   4.114   3.533   0.495
  858SOL    HW2 3474   4.198   3.410   0.429
  859SOL     OW 3475   4.556   6.546   5.689
  859SOL    HW1 3476   4.526   6.481   5.618
  859SOL    HW2 3477   4.638   6.510   5.734
  860SOL     OW 3478   5.323   3.446   5.890
  860SOL    HW1 3479   5.315   3.437   5.989
  860SOL    HW2 3480   5.337   3.355   5.849
  861SOL     OW 3481   2.321   5.895   2.747
  861SOL    HW1 3482   2.316   5.844   2.661
  861SOL    HW2 3483   2.383   5.973   2.735
  862SOL     OW 3484   0.632   3.883   3.383
  862SOL    HW1 3485   0.566   3.952   3.414
  862SOL    HW2 3486   0.686   3.851   3.461
  863SOL     OW 3487   0.020   0.565   0.198
  863SOL    HW1 3488   0.057   0.490   0.253
  863SOL    HW2 3489   6.957   0.602   0.244
  864SOL     OW 3490   5.957   0.275   4.872
  864SOL    HW1 3491   5.861   0.290   4.850
  864SOL    HW2 3492   5.982   0.328   4.954
  865SOL     OW 3493   2.338   6.497   4.598
  865SOL    HW1 3494   2.291   6.491   4.510
  865SOL    HW2 3495   2.314   6.417   4.654
  866SOL     OW 3496   3.427   6.481   2.022
  866SOL    HW1 3497   3.372   6.417   1.969
  866SOL    HW2 3498   3.491   6.528   1.961
  867SOL     OW 3499   5.877   2.300   6.552
  867SOL    HW1 3500   5.833   2.233   6.491
  867SOL    HW2 3501   5.807   2.350   6.602
  868SOL     OW 3502   0.031   1.896   2.389
  868SOL    HW1 3503   0.093   1.956   2.440
  868SOL    HW2 3504   6.984   1.952   2.337
  869SOL     OW 3505   6.695   3.924   3.424
  869SOL    HW1 3506   6.689   3.837   3.374
  869SOL    HW2 3507   6.607   3.943   3.468
  870SOL     OW 3508   3.514   5.056   2.049
  870SOL    HW1 3509   3.528   4.957   2.042
  870SOL    HW2 3510   3.476   5.078   2.138
  871SOL     OW 3511   4.138   1.553   3.486
  871SOL    HW1 3512   4.219   1.498   3.465
  871SOL    HW2 3513   4.057   1.511   3.444
  872SOL     OW 3514   7.009   3.274   5.241
  872SOL    HW1 3515   6.990   3.372   5.233
  872SOL    HW2 3516   0.007   3.251   5.337
  873SOL     OW 3517   4.806   6.753   6.239
  873SOL    HW1 3518   4.864   6.792   6.168
  873SOL    HW2 3519   4.855   6.755   6.326
  874SOL     OW 3520   4.643   4.496   0.408
  874SOL    HW1 3521   4.643   4.412   0.353
  874SOL    HW2 3522   4.676   4.572   0.352
  875SOL     OW 3523   5.321   5.170   0.516
  875SOL    HW1 3524   5.360   5.254   0.554
  875SOL    HW2 3525   5.329   5.096   0.582
  876SOL     OW 3526   0.170   6.489   1.338
  876SOL    HW1 3527   0.194   6.465   1.244
  876SOL    HW2 3528   0.084   6.445   1.363
  877SOL     OW 3529   2.839   3.686   6.667
  877SOL    HW1 3530   2.789   3.643   6.743
  877SOL    HW2 3531   2.857   3.617   6.596
  878SOL     OW 3532   4.009   6.401   3.948
  878SOL    HW1 3533   3.943   6.393   3.874
  878SOL    HW2 3534   4.014   6.314   3.998
  879SOL     OW 3535   6.019   0.417   0.680
  879SOL    HW1 3536   6.034   0.454   0.588
  879SOL    HW2 3537   6.102   0.371   0.711
  880SOL     OW 3538   2.951   3.347   2.676
  880SOL    HW1 3539   3.040   3.387   2.655
  880SOL    HW2 3540   2.910   3.397   2.753
  881SOL     OW 3541   4.175   1.830   6.750
  881SOL    HW1 3542   4.177   1.735   6.719
  881SOL    HW2 3543   4.112   1.882   6.693
  882SOL     OW 3544   1.360   3.564   4.106
  882SOL    HW1 3545   1.406   3.475   4.096
  882SOL    HW2 3546   1.422   3.628   4.151
  883SOL     OW 3547   2.854   0.264   2.382
  883SOL    HW1 3548   2.816   0.200   2.315
  883SOL    HW2 3549   2.860   0.355   2.342
  884SOL     OW 3550   4.733   3.256   5.656
  884SOL    HW1 3551   4.680   3.269   5.573
  884SOL    HW2 3552   4.777   3.342   5.683
  885SOL     OW 3553   3.823   1.953   6.079
  885SOL    HW1 3554   3.833   1.866   6.128
  885SOL    HW2 3555   3.729   1.985   6.086
  886SOL     OW 3556   3.438   0.195   6.840
  886SOL    HW1 3557   3.516   0.211   6.901
  886SOL    HW2 3558   3.358   0.244   6.875
  887SOL     OW 3559   4.448   1.368   4.253
  887SOL    HW1 3560   4.451   1.335   4.347
  887SOL    HW2 3561   4.374   1.322   4.204
  888SOL     OW 3562   0.015   0.096   3.248
  888SOL    HW1 3563   0.087   0.163   3.230
  888SOL    HW2 3564   7.001   0.106   3.341
  889SOL     OW 3565   0.975   3.698   0.021
  889SOL    HW1 3566   0.947   3.637   0.096
  889SOL    HW2 3567   0.949   3.792   0.043
  890SOL     OW 3568   2.618   5.543   3.807
  890SOL    HW1 3569   2.595   5.453   3.843
  890SOL    HW2 3570   2.643   5.536   3.711
  891SOL     OW 3571   5.616   5.581   0.836
  891SOL    HW1 3572   5.651   5.627   0.754
  891SOL    HW2 3573   5.693   5.542   0.887
  892SOL     OW 3574   3.005   4.607   6.131
  892SOL    HW1 3575   3.002   4.510   6.157
  892SOL    HW2 3576   3.012   4.663   6.214
  893SOL     OW 3577   2.622   0.062   2.780
  893SOL    HW1 3578   2.666   0.121   2.848
  893SOL    HW2 3579   2.635   0.101   2.689
  894SOL     OW 3580   1.408   3.999   1.482
  894SOL    HW1 3581   1.433   3.905   1.460
  894SOL    HW2 3582   1.309   4.008   1.483
  895SOL     OW 3583   0.143   6.215   3.623
  895SOL    HW1 3584   0.099   6.220   3.712
  895SOL    HW2 3585   0.191   6.301   3.604
  896SOL     OW 3586   6.647   6.254   5.332
  896SOL    HW1 3587   6.670   6.281   5.426
  896SOL    HW2 3588   6.609   6.162   5.332
  897SOL     OW 3589   5.319   0.575   6.536
  897SOL    HW1 3590   5.357   0.521   6.460
  897SOL    HW2 3591   5.252   0.640   6.500
  898SOL     OW 3592   3.677   6.135   2.999
  898SOL    HW1 3593   3.662   6.043   2.961
  898SOL    HW2 3594   3.589   6.176   3.023
  899SOL     OW 3595   6.931   4.981   6.513
  899SOL    HW1 3596   6.871   4.917   6.464
  899SOL    HW2 3597   7.006   5.009   6.453
  900SOL     OW 3598   5.775   6.296   0.905
  900SOL    HW1 3599   5.859   6.244   0.892
  900SOL    HW2 3600   5.711   6.243   0.961
  901SOL     OW 3601   1.597   1.232   2.036
  901SOL    HW1 3602   1.622   1.180   2.117
  901SOL    HW2 3603   1.504   1.209   2.009
  902SOL     OW 3604   6.317   4.034   1.402
  902SOL    HW1 3605   6.231   4.041   1.454
  902SOL    HW2 3606   6.296   4.029   1.305
  903SOL     OW 3607   6.523   2.154   0.188
  903SOL    HW1 3608   6.562   2.152   0.280
  903SOL    HW2 3609   6.494   2.062   0.162
  904SOL     OW 3610   3.241   1.811   3.024
  904SOL    HW1 3611   3.319   1.749   3.032
  904SOL    HW2 3612   3.244   1.859   2.937
  905SOL     OW 3613   5.848   2.679   6.759
  905SOL    HW1 3614   5.820   2.703   6.852
  905SOL    HW2 3615   5.943   2.646   6.760
  906SOL     OW 3616   6.681   3.181   6.398
  906SOL    HW1 3617   6.624   3.240   6.456
  906SOL    HW2 3618   6.761   3.232   6.367
  907SOL     OW 3619   4.939   3.529   6.877
  907SOL    HW1 3620   4.934   3.572   6.967
  907SOL    HW2 3621   4.997   3.584   6.817
  908SOL     OW 3622   2.855   4.725   2.407
  908SOL    HW1 3623   2.775   4.765   2.362
  908SOL    HW2 3624   2.916   4.685   2.339
  909SOL     OW 3625   5.519   5.144   6.457
  909SOL    HW1 3626   5.430   5.158   6.413
  909SOL    HW2 3627   5.515   5.176   6.552
  910SOL     OW 3628   2.591   3.289   1.246
  910SOL    HW1 3629   2.664   3.221   1.250
  910SOL    HW2 3630   2.504   3.244   1.224
  911SOL     OW 3631   1.277   5.457   6.259
  911SOL    HW1 3632   1.350   5.458   6.190
  911SOL    HW2 3633   1.204   5.395   6.229
  912SOL     OW 3634   5.015   2.289   3.134
  912SOL    HW1 3635   4.985   2.193   3.135
  912SOL    HW2 3636   5.043   2.316   3.226
  913SOL     OW 3637   5.196   0.065   3.198
  913SOL    HW1 3638   5.162   6.996   3.232
  913SOL    HW2 3639   5.162   0.080   3.105
  914SOL     OW 3640   2.565   6.948   0.070
  914SOL    HW1 3641   2.598   6.900   0.152
  914SOL    HW2 3642   2.598   6.901   7.007
  915SOL     OW 3643   5.951   5.854   0.841
  915SOL    HW1 3644   6.002   5.787   0.787
  915SOL    HW2 3645   5.948   5.824   0.937
  916SOL     OW 3646   0.877   2.365   2.290
  916SOL    HW1 3647   0.800   2.404   2.341
  916SOL    HW2 3648   0.896   2.273   2.324
  917SOL     OW 3649   7.004   0.212   0.448
  917SOL    HW1 3650   6.974   0.139   0.387
  917SOL    HW2 3651   0.033   0.174   0.527
  918SOL     OW 3652   1.906   5.323   0.481
  918SOL    HW1 3653   1.943   5.405   0.436
  918SOL    HW2 3654   1.924   5.328   0.579
  919SOL     OW 3655   5.418   1.734   4.360
  919SOL    HW1 3656   5.432   1.661   4.292
  919SOL    HW2 3657   5.475   1.813   4.336
  920SOL     OW 3658   2.967   4.829   2.129
  920SOL    HW1 3659   3.062   4.813   2.106
  920SOL    HW2 3660   2.913   4.747   2.108
  921SOL     OW 3661   4.924   5.783   4.808
  921SOL    HW1 3662   4.932   5.873   4.765
  921SOL    HW2 3663   4.850   5.732   4.764
  922SOL     OW 3664   4.148   3.337   3.613
  922SOL    HW1 3665   4.156   3.390   3.528
  922SOL    HW2 3666   4.111   3.246   3.592
  923SOL     OW 3667   2.331   3.253   5.566
  923SOL    HW1 3668   2.240   3.246   5.607
  923SOL    HW2 3669   2.359   3.163   5.532
  924SOL     OW 3670   0.032   3.588   2.934
  924SOL    HW1 3671   0.006   3.531   2.856
  924SOL    HW2 3672   0.081   3.668   2.902
  925SOL     OW 3673   5.984   2.030   0.212
  925SOL    HW1 3674   5.947   2.066   0.127
  925SOL    HW2 3675   6.038   1.948   0.192
  926SOL     OW 3676   0.279   1.321   2.117
  926SOL    HW1 3677   0.200   1.357   2.068
  926SOL    HW2 3678   0.269   1.222   2.129
  927SOL     OW 3679   5.469   4.034   3.533
  927SOL    HW1 3680   5.479   3.938   3.560
  927SOL    HW2 3681   5.558   4.078   3.530
  928SOL     OW 3682   2.894   5.793   7.012
  928SOL    HW1 3683   2.905   5.797   0.093
  928SOL    HW2 3684   2.876   5.699   6.984
  929SOL     OW 3685   6.795   1.502   5.490
  929SOL    HW1 3686   6.726   1.571   5.511
  929SOL    HW2 3687   6.749   1.418   5.458
  930SOL     OW 3688   5.449   5.712   5.818
  930SOL    HW1 3689   5.400   5.627   5.838
  930SOL    HW2 3690   5.401   5.789   5.860
  931SOL     OW 3691   6.340   2.614   2.810
  931SOL    HW1 3692   6.312   2.702   2.772
  931SOL    HW2 3693   6.423   2.626   2.865
  932SOL     OW 3694   3.438   0.526   3.942
  932SOL    HW1 3695   3.535   0.507   3.926
  932SOL    HW2 3696   3.392   0.545   3.855
  933SOL     OW 3697   1.371   5.028   2.280
  933SOL    HW1 3698   1.284   4.979   2.281
  933SOL    HW2 3699   1.394   5.053   2.186
  934SOL     OW 3700   1.836   4.639   6.380
  934SOL    HW1 3701   1.737   4.623   6.380
  934SOL    HW2 3702   1.871   4.625   6.287
  935SOL     OW 3703   5.278   3.215   3.681
  935SOL    HW1 3704   5.310   3.171   3.765
  935SOL    HW2 3705   5.357   3.241   3.625
  936SOL     OW 3706   1.812   0.612   6.472
  936SOL    HW1 3707   1.774   0.673   6.404
  936SOL    HW2 3708   1.840   0.664   6.553
  937SOL     OW 3709   5.048   1.582   5.734
  937SOL    HW1 3710   5.055   1.610   5.639
  937SOL    HW2 3711   5.067   1.484   5.741
  938SOL     OW 3712   5.529   5.784   4.432
  938SOL    HW1 3713   5.570   5.767   4.343
  938SOL    HW2 3714   5.528   5.882   4.450
  939SOL     OW 3715   0.459   6.911   5.068
  939SOL    HW1 3716   0.400   6.854   5.125
  939SOL    HW2 3717   0.494   6.856   4.992
  940SOL     OW 3718   2.111   4.851   0.477
  940SOL    HW1 3719   2.211   4.857   0.486
  940SOL    HW2 3720   2.071   4.942   0.492
  941SOL     OW 3721   3.231   0.522   6.728
  941SOL    HW1 3722   3.236   0.422   6.727
  941SOL    HW2 3723   3.135   0.550   6.721
  942SOL     OW 3724   0.406   5.114   0.462
  942SOL    HW1 3725   0.341   5.041   0.444
  942SOL    HW2 3726   0.394   5.149   0.555
  943SOL     OW 3727   2.869   5.677   3.028
  943SOL    HW1 3728   2.950   5.669   3.086
  943SOL    HW2 3729   2.862   5.598   2.968
  944SOL     OW 3730   0.553   6.929   4.535
  944SOL    HW1 3731   0.629   6.946   4.472
  944SOL    HW2 3732   0.506   6.845   4.510
  945SOL     OW 3733   0.835   5.571   6.636
  945SOL    HW1 3734   0.765   5.501   6.625
  945SOL    HW2 3735   0.795   5.653   6.676
  946SOL     OW 3736   4.867   3.204   3.487
  946SOL    HW1 3737   4.937   3.223   3.555
  946SOL    HW2 3738   4.887   3.254   3.402
  947SOL     OW 3739   3.890   3.999   4.003
  947SOL    HW1 3740   3.883   3.966   4.097
  947SOL    HW2 3741   3.876   4.098   4.001
  948SOL     OW 3742   4.117   0.426   2.914
  948SOL    HW1 3743   4.135   0.523   2.927
  948SOL    HW2 3744   4.043   0.414   2.847
  949SOL     OW 3745   2.649   6.574   6.341
  949SOL    HW1 3746   2.742   6.551   6.367
  949SOL    HW2 3747   2.610   6.500   6.287
  950SOL     OW 3748   0.057   6.696   2.172
  950SOL    HW1 3749   0.108   6.782   2.178
  950SOL    HW2 3750   0.107   6.624   2.221
  951SOL     OW 3751   2.346   6.851   3.414
  951SOL    HW1 3752   2.392   6.937   3.392
  951SOL    HW2 3753   2.247   6.864   3.408
  952SOL     OW 3754   3.453   1.422   2.035
  952SOL    HW1 3755   3.440   1.504   1.981
  952SOL    HW2 3756   3.518   1.361   1.989
  953SOL     OW 3757   6.029   4.571   5.612
  953SOL    HW1 3758   5.934   4.548   5.591
  953SOL    HW2 3759   6.081   4.580   5.527
  954SOL     OW 3760   4.971   5.930   2.234
  954SOL    HW1 3761   5.015   5.996   2.294
  954SOL    HW2 3762   4.878   5.910   2.267
  955SOL     OW 3763   1.618   4.543   6.784
  955SOL    HW1 3764   1.611   4.506   6.877
  955SOL    HW2 3765   1.617   4.467   6.719
  956SOL     OW 3766   5.721   0.694   1.281
  956SOL    HW1 3767   5.723   0.681   1.380
  956SOL    HW2 3768   5.649   0.760   1.258
  957SOL     OW 3769   5.908   1.891   3.241
  957SOL    HW1 3770   5.872   1.846   3.323
  957SOL    HW2 3771   6.008   1.887   3.243
  958SOL     OW 3772   5.272   0.096   1.787
  958SOL    HW1 3773   5.322   0.037   1.724
  958SOL    HW2 3774   5.268   0.189   1.751
  959SOL     OW 3775   4.215   6.175   4.300
  959SOL    HW1 3776   4.127   6.181   4.347
  959SOL    HW2 3777   4.199   6.155   4.203
  960SOL     OW 3778   0.906   6.968   6.927
  960SOL    HW1 3779   0.950   0.040   6.920
  960SOL    HW2 3780   0.823   6.976   6.982
  961SOL     OW 3781   3.440   6.998   2.544
  961SOL    HW1 3782   3.459   0.021   2.455
  961SOL    HW2 3783   3.344   7.013   2.568
  962SOL     OW 3784   6.623   0.194   5.084
  962SOL    HW1 3785   6.590   0.273   5.136
  962SOL    HW2 3786   6.588   0.200   4.990
  963SOL     OW 3787   5.561   3.214   0.821
  963SOL    HW1 3788   5.526   3.302   0.852
  963SOL    HW2 3789   5.572   3.152   0.899
  964SOL     OW 3790   4.856   4.238   5.039
  964SOL    HW1 3791   4.887   4.331   5.056
  964SOL    HW2 3792   4.903   4.175   5.101
  965SOL     OW 3793   5.955   2.768   3.876
  965SOL    HW1 3794   6.028   2.759   3.809
  965SOL    HW2 3795   5.993   2.799   3.963
  966SOL     OW 3796   4.724   1.859   4.484
  966SOL    HW1 3797   4.706   1.764   4.462
  966SOL    HW2 3798   4.686   1.881   4.574
  967SOL     OW 3799   4.926   3.921   6.081
  967SOL    HW1 3800   4.878   4.006   6.102
  967SOL    HW2 3801   4.972   3.888   6.164
  968SOL     OW 3802   3.500   0.789   1.891
  968SOL    HW1 3803   3.443   0.725   1.839
  968SOL    HW2 3804   3.457   0.808   1.979
  969SOL     OW 3805   3.568   4.219   6.001
  969SOL    HW1 3806   3.504   4.171   6.061
  969SOL    HW2 3807   3.564   4.180   5.909
  970SOL     OW 3808   6.225   0.436   5.959
  970SOL    HW1 3809   6.142   0.462   5.909
  970SOL    HW2 3810   6.200   0.378   6.036
  971SOL     OW 3811   5.482   4.132   2.480
  971SOL    HW1 3812   5.396   4.157   2.435
  971SOL    HW2 3813   5.463   4.074   2.559
  972SOL     OW 3814   0.388   3.182   0.676
  972SOL    HW1 3815   0.441   3.214   0.598
  972SOL    HW2 3816   0.380   3.082   0.673
  973SOL     OW 3817   6.760   3.587   6.463
  973SOL    HW1 3818   6.852   3.618   6.438
  973SOL    HW2 3819   6.762   3.547   6.554
  974SOL     OW 3820   0.209   5.264   3.867
  974SOL    HW1 3821   0.225   5.183   3.923
  974SOL    HW2 3822   0.161   5.238   3.783
  975SOL     OW 3823   2.651   6.775   2.024
  975SOL    HW1 3824   2.699   6.697   2.064
  975SOL    HW2 3825   2.553   6.765   2.039
  976SOL     OW 3826   6.374   3.306   2.825
  976SOL    HW1 3827   6.394   3.399   2.857
  976SOL    HW2 3828   6.355   3.308   2.727
  977SOL     OW 3829   0.204   1.071   2.519
  977SOL    HW1 3830   0.105   1.081   2.504
  977SOL    HW2 3831   0.223   0.977   2.546
  978SOL     OW 3832   5.523   3.245   1.670
  978SOL    HW1 3833   5.557   3.336   1.693
  978SOL    HW2 3834   5.473   3.249   1.583
  979SOL     OW 3835   0.483   4.120   6.559
  979SOL    HW1 3836   0.525   4.173   6.486
  979SOL    HW2 3837   0.391   4.155   6.576
  980SOL     OW 3838   3.375   1.643   4.634
  980SOL    HW1 3839   3.449   1.675   4.694
  980SOL    HW2 3840   3.299   1.708   4.638
  981SOL     OW 3841   6.864   6.306   5.179
  981SOL    HW1 3842   6.941   6.264   5.228
  981SOL    HW2 3843   6.779   6.288   5.228
  982SOL     OW 3844   6.432   0.832   5.183
  982SOL    HW1 3845   6.414   0.930   5.194
  982SOL    HW2 3846   6.438   0.789   5.273
  983SOL     OW 3847   0.297   4.746   4.312
  983SOL    HW1 3848   0.205   4.732   4.276
  983SOL    HW2 3849   0.362   4.758   4.236
  984SOL     OW 3850   1.173   2.127   2.980
  984SOL    HW1 3851   1.170   2.201   3.048
  984SOL    HW2 3852   1.186   2.040   3.027
  985SOL     OW 3853   6.559   4.498   4.897
  985SOL    HW1 3854   6.582   4.402   4.877
  985SOL    HW2 3855   6.539   4.508   4.994
  986SOL     OW 3856   4.868   4.964   1.230
  986SOL    HW1 3857   4.914   4.983   1.144
  986SOL    HW2 3858   4.932   4.977   1.306
  987SOL     OW 3859   5.066   4.928   3.959
  987SOL    HW1 3860   5.041   4.834   3.937
  987SOL    HW2 3861   5.137   4.959   3.895
  988SOL     OW 3862   2.807   4.379   1.378
  988SOL    HW1 3863   2.885   4.317   1.374
  988SOL    HW2 3864   2.817   4.451   1.309
  989SOL     OW 3865   0.480   1.476   1.080
  989SOL    HW1 3866   0.411   1.404   1.072
  989SOL    HW2 3867   0.451   1.556   1.028
  990SOL     OW 3868   3.712   0.455   3.866
  990SOL    HW1 3869   3.753   0.364   3.877
  990SOL    HW2 3870   3.676   0.465   3.774
  991SOL     OW 3871   0.132   4.716   3.515
  991SOL    HW1 3872   0.217   4.677   3.479
  991SOL    HW2 3873   0.100   4.789   3.454
  992SOL     OW 3874   0.639   2.782   1.317
  992SOL    HW1 3875   0.569   2.793   1.247
  992SOL    HW2 3876   0.726   2.760   1.274
  993SOL     OW 3877   1.275   5.094   0.575
  993SOL    HW1 3878   1.370   5.073   0.595
  993SOL    HW2 3879   1.262   5.095   0.476
  994SOL     OW 3880   3.056   6.174   6.574
  994SOL    HW1 3881   3.041   6.096   6.636
  994SOL    HW2 3882   3.154   6.187   6.561
  995SOL     OW 3883   6.144   3.381   5.844
  995SOL    HW1 3884   6.048   3.355   5.854
  995SOL    HW2 3885   6.150   3.478   5.820
  996SOL     OW 3886   3.559   6.255   5.755
  996SOL    HW1 3887   3.606   6.291   5.675
  996SOL    HW2 3888   3.598   6.295   5.838
  997SOL     OW 3889   1.610   5.642   3.748
  997SOL    HW1 3890   1.638   5.727   3.704
  997SOL    HW2 3891   1.528   5.607   3.702
  998SOL     OW 3892   6.509   0.612   6.617
  998SOL    HW1 3893   6.451   0.549   6.565
  998SOL    HW2 3894   6.469   0.704   6.615
  999SOL     OW 3895   4.753   4.168   2.502
  999SOL    HW1 3896   4.793   4.254   2.532
  999SOL    HW2 3897   4.726   4.175   2.406
 1000SOL     OW 3898   4.169   1.969   1.142
 1000SOL    HW1 3899   4.264   1.997   1.156
 1000SOL    HW2 3900   4.109   2.048   1.158
 1001SOL     OW 3901   3.413   6.413   2.284
 1001SOL    HW1 3902   3.427   6.445   2.190
 1001SOL    HW2 3903   3.322   6.373   2.292
 1002SOL     OW 3904   5.337   2.147   1.299
 1002SOL    HW1 3905   5.320   2.241   1.330
 1002SOL    HW2 3906   5.270   2.086   1.340
 1003SOL     OW 3907   0.393   0.178   3.158
 1003SOL    HW1 3908   0.471   0.163   3.219
 1003SOL    HW2 3909   0.424   0.220   3.073
 1004SOL     OW 3910   5.325   1.488   3.792
 1004SOL    HW1 3911   5.266   1.528   3.862
 1004SOL    HW2 3912   5.417   1.528   3.799
 1005SOL     OW 3913   1.347   4.186   2.552
 1005SOL    HW1 3914   1.261   4.135   2.551
 1005SOL    HW2 3915   1.413   4.141   2.491
 1006SOL     OW 3916   2.781   3.663   0.942
 1006SOL    HW1 3917   2.795   3.729   1.016
 1006SOL    HW2 3918   2.699   3.686   0.891
 1007SOL     OW 3919   5.048   1.084   6.901
 1007SOL    HW1 3920   5.085   0.996   6.930
 1007SOL    HW2 3921   5.116   1.156   6.919
 1008SOL     OW 3922   6.750   4.645   4.801
 1008SOL    HW1 3923   6.661   4.608   4.828
 1008SOL    HW2 3924   6.821   4.577   4.818
 1009SOL     OW 3925   6.794   5.636   6.480
 1009SOL    HW1 3926   6.704   5.594   6.467
 1009SOL    HW2 3927   6.795   5.727   6.437
 1010SOL     OW 3928   2.923   3.195   1.079
 1010SOL    HW1 3929   3.021   3.182   1.096
 1010SOL    HW2 3930   2.891   3.276   1.128
 1011SOL     OW 3931   6.391   5.259   2.134
 1011SOL    HW1 3932   6.300   5.241   2.171
 1011SOL    HW2 3933   6.446   5.306   2.202
 1012SOL     OW 3934   4.728   0.399   3.163
 1012SOL    HW1 3935   4.769   0.396   3.071
 1012SOL    HW2 3936   4.733   0.309   3.205
 1013SOL     OW 3937   6.890   0.262   6.732
 1013SOL    HW1 3938   6.970   0.321   6.733
 1013SOL    HW2 3939   6.808   0.318   6.744
 1014SOL     OW 3940   0.991   4.710   4.716
 1014SOL    HW1 3941   0.957   4.768   4.790
 1014SOL    HW2 3942   1.021   4.622   4.753
 1015SOL     OW 3943   3.266   6.468   6.898
 1015SOL    HW1 3944   3.290   6.411   6.819
 1015SOL    HW2 3945   3.168   6.457   6.918
 1016SOL     OW 3946   6.312   4.226   1.785
 1016SOL    HW1 3947   6.374   4.222   1.707
 1016SOL    HW2 3948   6.305   4.135   1.827
 1017SOL     OW 3949   2.124   2.091   2.295
 1017SOL    HW1 3950   2.087   2.183   2.308
 1017SOL    HW2 3951   2.224   2.097   2.290
 1018SOL     OW 3952   0.103   5.797   3.540
 1018SOL    HW1 3953   0.138   5.704   3.553
 1018SOL    HW2 3954   0.164   5.863   3.584
 1019SOL     OW 3955   6.482   4.750   0.712
 1019SOL    HW1 3956   6.571   4.778   0.675
 1019SOL    HW2 3957   6.494   4.720   0.807
 1020SOL     OW 3958   6.593   0.590   0.522
 1020SOL    HW1 3959   6.556   0.521   0.584
 1020SOL    HW2 3960   6.625   0.669   0.575
 1021SOL     OW 3961   6.601   6.006   1.444
 1021SOL    HW1 3962   6.543   5.948   1.501
 1021SOL    HW2 3963   6.697   5.993   1.470
 1022SOL     OW 3964   2.262   6.024   6.449
 1022SOL    HW1 3965   2.224   6.090   6.514
 1022SOL    HW2 3966   2.268   5.934   6.493
 1023SOL     OW 3967   0.779   1.659   3.113
 1023SOL    HW1 3968   0.790   1.570   3.156
 1023SOL    HW2 3969   0.836   1.726   3.160
 1024SOL     OW 3970   1.721   2.061   5.052
 1024SOL    HW1 3971   1.726   2.160   5.036
 1024SOL    HW2 3972   1.803   2.018   5.014
 1025SOL     OW 3973   4.546   3.565   0.549
 1025SOL    HW1 3974   4.520   3.505   0.473
 1025SOL    HW2 3975   4.482   3.642   0.554
 1026SOL     OW 3976   3.284   2.597   1.041
 1026SOL    HW1 3977   3.359   2.532   1.054
 1026SOL    HW2 3978   3.318   2.690   1.059
 1027SOL     OW 3979   0.653   6.638   0.900
 1027SOL    HW1 3980   0.621   6.570   0.966
 1027SOL    HW2 3981   0.587   6.713   0.896
 1028SOL     OW 3982   1.665   6.085   2.637
 1028SOL    HW1 3983   1.587   6.128   2.592
 1028SOL    HW2 3984   1.631   6.014   2.700
 1029SOL     OW 3985   0.997   1.034   6.333
 1029SOL    HW1 3986   1.085   1.001   6.299
 1029SOL    HW2 3987   0.929   0.961   6.327
 1030SOL     OW 3988   3.648   3.319   1.474
 1030SOL    HW1 3989   3.585   3.394   1.453
 1030SOL    HW2 3990   3.601   3.250   1.528
 1031SOL     OW 3991   3.315   3.704   1.365
 1031SOL    HW1 3992   3.301   3.802   1.358
 1031SOL    HW2 3993   3.252   3.656   1.303
 1032SOL     OW 3994   2.206   2.045   6.022
 1032SOL    HW1 3995   2.283   2.026   6.083
 1032SOL    HW2 3996   2.122   2.053   6.077
 1033SOL     OW 3997   1.150   6.277   1.915
 1033SOL    HW1 3998   1.198   6.228   1.842
 1033SOL    HW2 3999   1.087   6.214   1.960
 1034SOL     OW 4000   3.293   7.010   4.071
 1034SOL    HW1 4001   3.309   6.922   4.116
 1034SOL    HW2 4002   3.310   0.066   4.136
 1035SOL     OW 4003   0.982   1.913   5.932
 1035SOL    HW1 4004   1.078   1.901   5.959
 1035SOL    HW2 4005   0.933   1.827   5.942
 1036SOL     OW 4006   4.952   1.760   1.121
 1036SOL    HW1 4007   4.920   1.709   1.041
 1036SOL    HW2 4008   5.047   1.787   1.108
 1037SOL     OW 4009   1.403   2.847   2.331
 1037SOL    HW1 4010   1.460   2.925   2.356
 1037SOL    HW2 4011   1.342   2.824   2.407
 1038SOL     OW 4012   3.007   6.582   0.104
 1038SOL    HW1 4013   3.084   6.645   0.096
 1038SOL    HW2 4014   2.922   6.632   0.087
 1039SOL     OW 4015   3.430   2.999   3.422
 1039SOL    HW1 4016   3.369   2.963   3.493
 1039SOL    HW2 4017   3.391   2.978   3.332
 1040SOL     OW 4018   3.981   0.706   3.130
 1040SOL    HW1 4019   3.967   0.798   3.167
 1040SOL    HW2 4020   4.037   0.711   3.048
 1041SOL     OW 4021   6.699   6.147   6.480
 1041SOL    HW1 4022   6.672   6.164   6.575
 1041SOL    HW2 4023   6.751   6.225   6.446
 1042SOL     OW 4024   5.289   4.699   2.937
 1042SOL    HW1 4025   5.351   4.697   3.016
 1042SOL    HW2 4026   5.324   4.762   2.868
 1043SOL     OW 4027   3.061   2.198   3.919
 1043SOL    HW1 4028   3.097   2.177   3.828
 1043SOL    HW2 4029   3.136   2.204   3.985
 1044SOL     OW 4030   5.536   4.636   1.701
 1044SOL    HW1 4031   5.558   4.662   1.796
 1044SOL    HW2 4032   5.621   4.615   1.652
 1045SOL     OW 4033   2.271   0.829   3.243
 1045SOL    HW1 4034   2.214   0.747   3.234
 1045SOL    HW2 4035   2.229   0.892   3.308
 1046SOL     OW 4036   2.813   1.507   0.834
 1046SOL    HW1 4037   2.794   1.514   0.736
 1046SOL    HW2 4038   2.829   1.411   0.858
 1047SOL     OW 4039   3.555   6.554   3.202
 1047SOL    HW1 4040   3.567   6.634   3.144
 1047SOL    HW2 4041   3.620   6.483   3.175
 1048SOL     OW 4042   1.611   6.501   2.035
 1048SOL    HW1 4043   1.582   6.465   1.947
 1048SOL    HW2 4044   1.532   6.534   2.086
 1049SOL     OW 4045   4.333   6.103   5.165
 1049SOL    HW1 4046   4.269   6.029   5.148
 1049SOL    HW2 4047   4.301   6.160   5.240
 1050SOL     OW 4048   3.319   5.084   2.970
 1050SOL    HW1 4049   3.235   5.137   2.963
 1050SOL    HW2 4050   3.396   5.139   2.938
 1051SOL     OW 4051   0.535   0.006   6.870
 1051SOL    HW1 4052   0.490   6.952   6.818
 1051SOL    HW2 4053   0.547   6.994   6.965
 1052SOL     OW 4054   3.590   0.960   0.108
 1052SOL    HW1 4055   3.601   0.941   0.011
 1052SOL    HW2 4056   3.667   0.922   0.159
 1053SOL     OW 4057   5.565   2.789   3.039
 1053SOL    HW1 4058   5.555   2.717   2.970
 1053SOL    HW2 4059   5.495   2.858   3.025
 1054SOL     OW 4060   3.300   4.803   6.190
 1054SOL    HW1 4061   3.356   4.735   6.237
 1054SOL    HW2 4062   3.214   4.761   6.161
 1055SOL     OW 4063   5.089   6.178   6.554
 1055SOL    HW1 4064   5.178   6.146   6.587
 1055SOL    HW2 4065   5.031   6.198   6.633
 1056SOL     OW 4066   2.605   3.788   6.491
 1056SOL    HW1 4067   2.662   3.792   6.573
 1056SOL    HW2 4068   2.646   3.846   6.420
 1057SOL     OW 4069   2.790   1.908   1.000
 1057SOL    HW1 4070   2.777   1.856   0.916
 1057SOL    HW2 4071   2.876   1.959   0.993
 1058SOL     OW 4072   2.361   2.742   2.440
 1058SOL    HW1 4073   2.392   2.699   2.356
 1058SOL    HW2 4074   2.302   2.820   2.418
 1059SOL     OW 4075   2.903   6.183   1.614
 1059SOL    HW1 4076   2.968   6.111   1.636
 1059SOL    HW2 4077   2.944   6.272   1.635
 1060SOL     OW 4078   5.982   6.468   5.415
 1060SOL    HW1 4079   6.036   6.552   5.414
 1060SOL    HW2 4080   6.035   6.394   5.455
 1061SOL     OW 4081   6.757   3.916   0.146
 1061SOL    HW1 4082   6.686   3.853   0.115
 1061SOL    HW2 4083   6.725   4.010   0.138
 1062SOL     OW 4084   3.777   6.484   5.138
 1062SOL    HW1 4085   3.684   6.488   5.101
 1062SOL    HW2 4086   3.779   6.423   5.217
 1063SOL     OW 4087   2.701   6.063   6.027
 1063SOL    HW1 4088   2.759   6.144   6.022
 1063SOL    HW2 4089   2.732   6.003   6.101
 1064SOL     OW 4090   1.626   3.781   0.211
 1064SOL    HW1 4091   1.612   3.749   0.304
 1064SOL    HW2 4092   1.540   3.779   0.161
 1065SOL     OW 4093   4.223   0.859   4.218
 1065SOL    HW1 4094   4.301   0.804   4.248
 1065SOL    HW2 4095   4.188   0.912   4.295
 1066SOL     OW 4096   4.746   0.008   1.949
 1066SOL    HW1 4097   4.780   6.954   1.889
 1066SOL    HW2 4098   4.809   0.019   2.026
 1067SOL     OW 4099   2.123   1.147   0.177
 1067SOL    HW1 4100   2.210   1.182   0.212
 1067SOL    HW2 4101   2.048   1.182   0.234
 1068SOL     OW 4102   5.990   3.497   1.113
 1068SOL    HW1 4103   6.020   3.473   1.206
 1068SOL    HW2 4104   5.890   3.504   1.111
 1069SOL     OW 4105   6.717   3.962   1.929
 1069SOL    HW1 4106   6.667   4.042   1.962
 1069SOL    HW2 4107   6.660   3.880   1.938
 1070SOL     OW 4108   1.163   0.043   1.917
 1070SOL    HW1 4109   1.113   6.977   1.897
 1070SOL    HW2 4110   1.240   0.052   1.854
 1071SOL     OW 4111   0.061   3.108   5.806
 1071SOL    HW1 4112   7.014   3.175   5.772
 1071SOL    HW2 4113   0.055   3.025   5.751
 1072SOL     OW 4114   2.755   1.346   2.138
 1072SOL    HW1 4115   2.718   1.319   2.049
 1072SOL    HW2 4116   2.770   1.264   2.194
 1073SOL     OW 4117   4.881   1.942   3.302
 1073SOL    HW1 4118   4.854   1.912   3.394
 1073SOL    HW2 4119   4.865   2.041   3.294
 1074SOL     OW 4120   2.658   4.675   1.784
 1074SOL    HW1 4121   2.697   4.767   1.780
 1074SOL    HW2 4122   2.723   4.613   1.828
 1075SOL     OW 4123   5.759   3.644   5.381
 1075SOL    HW1 4124   5.709   3.684   5.305
 1075SOL    HW2 4125   5.760   3.544   5.372
 1076SOL     OW 4126   2.134   3.863   4.824
 1076SOL    HW1 4127   2.202   3.882   4.895
 1076SOL    HW2 4128   2.043   3.885   4.858
 1077SOL     OW 4129   0.456   6.957   0.118
 1077SOL    HW1 4130   0.403   6.893   0.173
 1077SOL    HW2 4131   0.402   0.021   0.101
 1078SOL     OW 4132   6.958   6.579   4.015
 1078SOL    HW1 4133   6.930   6.488   4.046
 1078SOL    HW2 4134   7.018   6.570   3.935
 1079SOL     OW 4135   1.060   6.643   2.376
 1079SOL    HW1 4136   0.989   6.689   2.323
 1079SOL    HW2 4137   1.045   6.659   2.474
 1080SOL     OW 4138   2.496   5.084   6.868
 1080SOL    HW1 4139   2.428   5.134   6.815
 1080SOL    HW2 4140   2.531   5.007   6.814
 1081SOL     OW 4141   6.856   5.570   4.373
 1081SOL    HW1 4142   6.826   5.666   4.374
 1081SOL    HW2 4143   6.824   5.524   4.456
 1082SOL     OW 4144   5.356   6.609   6.049
 1082SOL    HW1 4145   5.304   6.637   5.968
 1082SOL    HW2 4146   5.318   6.655   6.129
 1083SOL     OW 4147   4.969   4.304   0.855
 1083SOL    HW1 4148   4.941   4.399   0.870
 1083SOL    HW2 4149   4.970   4.255   0.942
 1084SOL     OW 4150   6.903   0.308   5.861
 1084SOL    HW1 4151   6.921   0.268   5.951
 1084SOL    HW2 4152   6.965   0.267   5.794
 1085SOL     OW 4153   1.377   3.750   4.568
 1085SOL    HW1 4154   1.438   3.823   4.538
 1085SOL    HW2 4155   1.385   3.738   4.667
 1086SOL     OW 4156   6.047   5.657   0.651
 1086SOL    HW1 4157   6.035   5.654   0.552
 1086SOL    HW2 4158   6.018   5.570   0.692
 1087SOL     OW 4159   2.836   0.240   5.314
 1087SOL    HW1 4160   2.910   0.264   5.251
 1087SOL    HW2 4161   2.875   0.207   5.400
 1088SOL     OW 4162   6.699   4.741   3.459
 1088SOL    HW1 4163   6.600   4.737   3.470
 1088SOL    HW2 4164   6.743   4.691   3.534
 1089SOL     OW 4165   6.432   4.263   4.236
 1089SOL    HW1 4166   6.492   4.246   4.314
 1089SOL    HW2 4167   6.441   4.189   4.170
 1090SOL     OW 4168   5.050   1.557   5.081
 1090SOL    HW1 4169   5.108   1.476   5.072
 1090SOL    HW2 4170   5.100   1.638   5.049
 1091SOL     OW 4171   2.463   2.593   3.283
 1091SOL    HW1 4172   2.450   2.524   3.211
 1091SOL    HW2 4173   2.504   2.549   3.364
 1092SOL     OW 4174   1.124   5.731   1.097
 1092SOL    HW1 4175   1.076   5.653   1.056
 1092SOL    HW2 4176   1.073   5.815   1.076
 1093SOL     OW 4177   1.846   6.931   2.223
 1093SOL    HW1 4178   1.820   6.835   2.233
 1093SOL    HW2 4179   1.944   6.941   2.238
 1094SOL     OW 4180   0.822   0.204   3.054
 1094SOL    HW1 4181   0.828   0.106   3.033
 1094SOL    HW2 4182   0.898   0.252   3.011
 1095SOL     OW 4183   6.202   3.560   0.293
 1095SOL    HW1 4184   6.178   3.513   0.208
 1095SOL    HW2 4185   6.237   3.494   0.360
 1096SOL     OW 4186   2.891   5.332   1.686
 1096SOL    HW1 4187   2.829   5.285   1.622
 1096SOL    HW2 4188   2.837   5.375   1.759
 1097SOL     OW 4189   3.382   5.172   4.505
 1097SOL    HW1 4190   3.291   5.174   4.545
 1097SOL    HW2 4191   3.449   5.203   4.573
 1098SOL     OW 4192   5.947   4.790   0.856
 1098SOL    HW1 4193   5.921   4.848   0.933
 1098SOL    HW2 4194   5.957   4.846   0.773
 1099SOL     OW 4195   4.678   0.409   5.848
 1099SOL    HW1 4196   4.716   0.434   5.759
 1099SOL    HW2 4197   4.642   0.491   5.893
 1100SOL     OW 4198   3.264   1.884   4.009
 1100SOL    HW1 4199   3.248   1.980   4.035
 1100SOL    HW2 4200   3.266   1.828   4.091
 1101SOL     OW 4201   6.597   3.181   6.139
 1101SOL    HW1 4202   6.620   3.158   6.234
 1101SOL    HW2 4203   6.499   3.201   6.132
 1102SOL     OW 4204   3.040   1.119   4.337
 1102SOL    HW1 4205   3.027   1.103   4.239
 1102SOL    HW2 4206   2.966   1.075   4.388
 1103SOL     OW 4207   2.600   6.825   6.827
 1103SOL    HW1 4208   2.544   6.761   6.880
 1103SOL    HW2 4209   2.543   6.870   6.758
 1104SOL     OW 4210   0.452   3.301   4.105
 1104SOL    HW1 4211   0.430   3.240   4.181
 1104SOL    HW2 4212   0.422   3.259   4.019
 1105SOL     OW 4213   5.500   0.873   5.472
 1105SOL    HW1 4214   5.553   0.954   5.450
 1105SOL    HW2 4215   5.417   0.872   5.416
 1106SOL     OW 4216   0.369   2.040   0.537
 1106SOL    HW1 4217   0.469   2.051   0.539
 1106SOL    HW2 4218   0.327   2.119   0.582
 1107SOL     OW 4219   1.213   0.806   0.512
 1107SOL    HW1 4220   1.129   0.758   0.487
 1107SOL    HW2 4221   1.218   0.893   0.462
 1108SOL     OW 4222   2.639   6.293   4.371
 1108SOL    HW1 4223   2.588   6.263   4.452
 1108SOL    HW2 4224   2.713   6.353   4.399
 1109SOL     OW 4225   5.009   1.613   4.477
 1109SOL    HW1 4226   5.042   1.699   4.437
 1109SOL    HW2 4227   5.040   1.606   4.572
 1110SOL     OW 4228   3.470   0.860   2.715
 1110SOL    HW1 4229   3.504   0.919   2.641
 1110SOL    HW2 4230   3.424   0.916   2.784
 1111SOL     OW 4231   5.046   3.891   6.734
 1111SOL    HW1 4232   4.975   3.874   6.665
 1111SOL    HW2 4233   5.107   3.813   6.738
 1112SOL     OW 4234   5.092   0.205   2.256
 1112SOL    HW1 4235   5.068   0.233   2.349
 1112SOL    HW2 4236   5.190   0.222   2.240
 1113SOL     OW 4237   5.439   4.371   2.665
 1113SOL    HW1 4238   5.442   4.286   2.614
 1113SOL    HW2 4239   5.348   4.412   2.656
 1114SOL     OW 4240   4.112   3.515   5.600
 1114SOL    HW1 4241   4.136   3.523   5.503
 1114SOL    HW2 4242   4.060   3.430   5.615
 1115SOL     OW 4243   2.912   4.370   5.899
 1115SOL    HW1 4244   3.003   4.334   5.879
 1115SOL    HW2 4245   2.907   4.465   5.867
 1116SOL     OW 4246   4.577   6.886   6.274
 1116SOL    HW1 4247   4.560   6.846   6.364
 1116SOL    HW2 4248   4.666   6.856   6.241
 1117SOL     OW 4249   1.393   3.247   1.928
 1117SOL    HW1 4250   1.407   3.153   1.898
 1117SOL    HW2 4251   1.421   3.256   2.024
 1118SOL     OW 4252   3.452   4.912   6.866
 1118SOL    HW1 4253   3.387   4.869   6.804
 1118SOL    HW2 4254   3.530   4.851   6.880
 1119SOL     OW 4255   3.752   4.918   3.951
 1119SOL    HW1 4256   3.715   4.891   4.040
 1119SOL    HW2 4257   3.755   5.017   3.944
 1120SOL     OW 4258   6.590   5.054   1.407
 1120SOL    HW1 4259   6.575   5.083   1.501
 1120SOL    HW2 4260   6.671   5.101   1.370
 1121SOL     OW 4261   6.486   5.147   4.585
 1121SOL    HW1 4262   6.440   5.194   4.510
 1121SOL    HW2 4263   6.554   5.084   4.548
 1122SOL     OW 4264   5.476   2.984   1.802
 1122SOL    HW1 4265   5.567   3.018   1.780
 1122SOL    HW2 4266   5.468   2.970   1.901
 1123SOL     OW 4267   4.021   1.767   3.240
 1123SOL    HW1 4268   3.933   1.724   3.259
 1123SOL    HW2 4269   4.094   1.698   3.245
 1124SOL     OW 4270   2.203   2.971   4.783
 1124SOL    HW1 4271   2.279   2.971   4.848
 1124SOL    HW2 4272   2.118   2.951   4.830
 1125SOL     OW 4273   0.926   3.872   3.667
 1125SOL    HW1 4274   0.950   3.797   3.605
 1125SOL    HW2 4275   0.832   3.860   3.698
 1126SOL     OW 4276   3.372   5.366   4.890
 1126SOL    HW1 4277   3.411   5.449   4.931
 1126SOL    HW2 4278   3.440   5.321   4.833
 1127SOL     OW 4279   5.782   6.579   3.259
 1127SOL    HW1 4280   5.694   6.620   3.234
 1127SOL    HW2 4281   5.811   6.517   3.186
 1128SOL     OW 4282   5.854   1.503   3.154
 1128SOL    HW1 4283   5.831   1.407   3.170
 1128SOL    HW2 4284   5.871   1.517   3.057
 1129SOL     OW 4285   1.864   0.354   0.829
 1129SOL    HW1 4286   1.893   0.273   0.779
 1129SOL    HW2 4287   1.853   0.330   0.926
 1130SOL     OW 4288   2.110   4.453   2.383
 1130SOL    HW1 4289   2.091   4.355   2.392
 1130SOL    HW2 4290   2.207   4.466   2.361
 1131SOL     OW 4291   1.512   5.798   4.169
 1131SOL    HW1 4292   1.555   5.819   4.081
 1131SOL    HW2 4293   1.579   5.758   4.231
 1132SOL     OW 4294   3.593   1.239   2.378
 1132SOL    HW1 4295   3.659   1.282   2.440
 1132SOL    HW2 4296   3.520   1.305   2.357
 1133SOL     OW 4297   1.337   6.834   4.991
 1133SOL    HW1 4298   1.293   6.840   5.080
 1133SOL    HW2 4299   1.429   6.874   4.996
 1134SOL     OW 4300   3.941   6.792   1.539
 1134SOL    HW1 4301   3.907   6.886   1.531
 1134SOL    HW2 4302   3.954   6.769   1.635
 1135SOL     OW 4303   2.073   5.779   3.701
 1135SOL    HW1 4304   2.040   5.800   3.793
 1135SOL    HW2 4305   2.167   5.746   3.706
 1136SOL     OW 4306   2.186   5.980   1.940
 1136SOL    HW1 4307   2.192   5.974   1.840
 1136SOL    HW2 4308   2.274   6.011   1.977
 1137SOL     OW 4309   0.443   5.202   5.547
 1137SOL    HW1 4310   0.380   5.203   5.470
 1137SOL    HW2 4311   0.417   5.273   5.612
 1138SOL     OW 4312   2.357   2.859   4.540
 1138SOL    HW1 4313   2.289   2.926   4.510
 1138SOL    HW2 4314   2.399   2.889   4.625
 1139SOL     OW 4315   2.675   5.566   4.387
 1139SOL    HW1 4316   2.738   5.490   4.371
 1139SOL    HW2 4317   2.615   5.575   4.308
 1140SOL     OW 4318   1.264   1.538   1.388
 1140SOL    HW1 4319   1.258   1.539   1.288
 1140SOL    HW2 4320   1.269   1.632   1.422
 1141SOL     OW 4321   6.015   4.750   6.232
 1141SOL    HW1 4322   6.058   4.809   6.163
 1141SOL    HW2 4323   5.919   4.735   6.208
 1142SOL     OW 4324   2.912   6.821   2.698
 1142SOL    HW1 4325   2.825   6.773   2.693
 1142SOL    HW2 4326   2.985   6.761   2.667
 1143SOL     OW 4327   1.345   3.969   2.061
 1143SOL    HW1 4328   1.425   4.024   2.036
 1143SOL    HW2 4329   1.274   3.980   1.991
 1144SOL     OW 4330   5.308   4.441   1.904
 1144SOL    HW1 4331   5.318   4.448   1.805
 1144SOL    HW2 4332   5.343   4.525   1.947
 1145SOL     OW 4333   0.011   1.446   0.994
 1145SOL    HW1 4334   0.074   1.509   1.040
 1145SOL    HW2 4335   0.013   1.357   1.040
 1146SOL     OW 4336   1.179   1.317   1.541
 1146SOL    HW1 4337   1.264   1.301   1.590
 1146SOL    HW2 4338   1.186   1.402   1.488
 1147SOL     OW 4339   3.314   6.502   1.145
 1147SOL    HW1 4340   3.288   6.599   1.139
 1147SOL    HW2 4341   3.272   6.452   1.070
 1148SOL     OW 4342   4.487   5.117   3.517
 1148SOL    HW1 4343   4.481   5.062   3.433
 1148SOL    HW2 4344   4.429   5.197   3.508
 1149SOL     OW 4345   4.883   2.851   1.653
 1149SOL    HW1 4346   4.882   2.894   1.563
 1149SOL    HW2 4347   4.895   2.921   1.723
 1150SOL     OW 4348   2.104   4.462   6.804
 1150SOL    HW1 4349   2.070   4.488   6.714
 1150SOL    HW2 4350   2.030   4.422   6.858
 1151SOL     OW 4351   6.444   5.523   4.167
 1151SOL    HW1 4352   6.542   5.521   4.150
 1151SOL    HW2 4353   6.396   5.478   4.092
 1152SOL     OW 4354   4.040   0.112   6.462
 1152SOL    HW1 4355   4.012   0.057   6.383
 1152SOL    HW2 4356   3.961   0.132   6.519
 1153SOL     OW 4357   6.240   0.619   1.095
 1153SOL    HW1 4358   6.232   0.634   0.997
 1153SOL    HW2 4359   6.160   0.656   1.141
 1154SOL     OW 4360   2.268   2.333   1.711
 1154SOL    HW1 4361   2.347   2.321   1.772
 1154SOL    HW2 4362   2.222   2.246   1.699
 1155SOL     OW 4363   2.750   5.999   5.004
 1155SOL    HW1 4364   2.816   5.979   4.931
 1155SOL    HW2 4365   2.790   6.064   5.069
 1156SOL     OW 4366   3.256   2.152   4.120
 1156SOL    HW1 4367   3.344   2.185   4.154
 1156SOL    HW2 4368   3.191   2.147   4.196
 1157SOL     OW 4369   3.769   0.819   5.782
 1157SOL    HW1 4370   3.743   0.747   5.718
 1157SOL    HW2 4371   3.700   0.827   5.854
 1158SOL     OW 4372   5.803   6.143   3.067
 1158SOL    HW1 4373   5.870   6.069   3.064
 1158SOL    HW2 4374   5.772   6.156   3.161
 1159SOL     OW 4375   6.313   6.416   2.133
 1159SOL    HW1 4376   6.382   6.478   2.170
 1159SOL    HW2 4377   6.344   6.321   2.144
 1160SOL     OW 4378   5.057   1.061   0.989
 1160SOL    HW1 4379   5.018   0.970   0.977
 1160SOL    HW2 4380   5.095   1.093   0.902
 1161SOL     OW 4381   0.266   5.584   0.255
 1161SOL    HW1 4382   0.341   5.540   0.206
 1161SOL    HW2 4383   0.193   5.518   0.272
 1162SOL     OW 4384   2.506   2.214   4.923
 1162SOL    HW1 4385   2.434   2.222   4.854
 1162SOL    HW2 4386   2.504   2.294   4.983
 1163SOL     OW 4387   6.226   3.710   1.795
 1163SOL    HW1 4388   6.291   3.656   1.742
 1163SOL    HW2 4389   6.225   3.678   1.890
 1164SOL     OW 4390   4.881   2.054   4.629
 1164SOL    HW1 4391   4.814   2.052   4.702
 1164SOL    HW2 4392   4.837   2.030   4.542
 1165SOL     OW 4393   4.077   6.358   2.935
 1165SOL    HW1 4394   4.121   6.299   2.868
 1165SOL    HW2 4395   3.996   6.401   2.894
 1166SOL     OW 4396   2.081   5.644   6.647
 1166SOL    HW1 4397   1.988   5.671   6.622
 1166SOL    HW2 4398   2.135   5.629   6.565
 1167SOL     OW 4399   5.505   4.440   2.308
 1167SOL    HW1 4400   5.491   4.395   2.220
 1167SOL    HW2 4401   5.418   4.476   2.342
 1168SOL     OW 4402   6.180   1.861   3.333
 1168SOL    HW1 4403   6.159   1.764   3.343
 1168SOL    HW2 4404   6.278   1.875   3.342
 1169SOL     OW 4405   5.572   0.508   5.391
 1169SOL    HW1 4406   5.488   0.556   5.415
 1169SOL    HW2 4407   5.599   0.447   5.466
 1170SOL     OW 4408   4.867   6.658   3.685
 1170SOL    HW1 4409   4.772   6.688   3.695
 1170SOL    HW2 4410   4.926   6.717   3.741
 1171SOL     OW 4411   1.138   0.292   1.256
 1171SOL    HW1 4412   1.222   0.293   1.310
 1171SOL    HW2 4413   1.059   0.286   1.317
 1172SOL     OW 4414   6.999   3.733   6.354
 1172SOL    HW1 4415   0.077   3.721   6.376
 1172SOL    HW2 4416   6.984   3.719   6.257
 1173SOL     OW 4417   3.180   1.536   0.646
 1173SOL    HW1 4418   3.241   1.615   0.638
 1173SOL    HW2 4419   3.090   1.559   0.609
 1174SOL     OW 4420   3.670   3.154   1.130
 1174SOL    HW1 4421   3.695   3.166   1.227
 1174SOL    HW2 4422   3.570   3.155   1.121
 1175SOL     OW 4423   3.325   3.212   4.322
 1175SOL    HW1 4424   3.315   3.113   4.317
 1175SOL    HW2 4425   3.421   3.236   4.329
 1176SOL     OW 4426   5.051   3.962   6.344
 1176SOL    HW1 4427   5.061   4.061   6.334
 1176SOL    HW2 4428   5.140   3.918   6.331
 1177SOL     OW 4429   6.385   2.219   4.900
 1177SOL    HW1 4430   6.418   2.278   4.974
 1177SOL    HW2 4431   6.366   2.273   4.819
 1178SOL     OW 4432   3.573   4.850   0.190
 1178SOL    HW1 4433   3.529   4.765   0.220
 1178SOL    HW2 4434   3.515   4.928   0.213
 1179SOL     OW 4435   2.352   5.431   0.637
 1179SOL    HW1 4436   2.424   5.496   0.662
 1179SOL    HW2 4437   2.281   5.431   0.708
 1180SOL     OW 4438   3.397   6.028   0.655
 1180SOL    HW1 4439   3.471   6.075   0.704
 1180SOL    HW2 4440   3.323   6.093   0.637
 1181SOL     OW 4441   0.664   5.772   0.375
 1181SOL    HW1 4442   0.577   5.736   0.410
 1181SOL    HW2 4443   0.707   5.829   0.445
 1182SOL     OW 4444   4.233   5.318   2.985
 1182SOL    HW1 4445   4.147   5.284   3.022
 1182SOL    HW2 4446   4.301   5.244   2.986
 1183SOL     OW 4447   1.872   3.756   6.121
 1183SOL    HW1 4448   1.824   3.839   6.147
 1183SOL    HW2 4449   1.938   3.776   6.049
 1184SOL     OW 4450   1.929   6.805   5.209
 1184SOL    HW1 4451   1.990   6.872   5.167
 1184SOL    HW2 4452   1.982   6.726   5.240
 1185SOL     OW 4453   0.083   1.043   6.546
 1185SOL    HW1 4454   7.009   1.063   6.514
 1185SOL    HW2 4455   0.091   1.069   6.642
 1186SOL     OW 4456   5.004   6.236   4.736
 1186SOL    HW1 4457   5.077   6.301   4.714
 1186SOL    HW2 4458   4.978   6.246   4.832
 1187SOL     OW 4459   6.415   0.286   5.581
 1187SOL    HW1 4460   6.422   0.297   5.681
 1187SOL    HW2 4461   6.442   0.193   5.556
 1188SOL     OW 4462   2.566   6.491   5.081
 1188SOL    HW1 4463   2.472   6.465   5.059
 1188SOL    HW2 4464   2.594   6.569   5.026
 1189SOL     OW 4465   6.233   3.499   3.504
 1189SOL    HW1 4466   6.201   3.483   3.411
 1189SOL    HW2 4467   6.236   3.597   3.523
 1190SOL     OW 4468   2.117   6.500   2.429
 1190SOL    HW1 4469   2.148   6.443   2.354
 1190SOL    HW2 4470   2.133   6.596   2.407
 1191SOL     OW 4471   4.594   5.431   2.733
 1191SOL    HW1 4472   4.645   5.377   2.666
 1191SOL    HW2 4473   4.511   5.467   2.689
 1192SOL     OW 4474   4.427   6.100   3.243
 1192SOL    HW1 4475   4.418   6.027   3.175
 1192SOL    HW2 4476   4.361   6.172   3.223
 1193SOL     OW 4477   6.461   5.148   3.431
 1193SOL    HW1 4478   6.525   5.087   3.478
 1193SOL    HW2 4479   6.369   5.135   3.468
 1194SOL     OW 4480   4.343   0.807   1.330
 1194SOL    HW1 4481   4.409   0.740   1.363
 1194SOL    HW2 4482   4.251   0.777   1.352
 1195SOL     OW 4483   6.147   2.779   2.202
 1195SOL    HW1 4484   6.143   2.771   2.102
 1195SOL    HW2 4485   6.134   2.689   2.244
 1196SOL     OW 4486   6.324   6.385   4.267
 1196SOL    HW1 4487   6.303   6.398   4.364
 1196SOL    HW2 4488   6.243   6.349   4.221
 1197SOL     OW 4489   3.336   6.912   0.689
 1197SOL    HW1 4490   3.260   6.965   0.652
 1197SOL    HW2 4491   3.423   6.955   0.662
 1198SOL     OW 4492   0.937   2.122   0.475
 1198SOL    HW1 4493   0.998   2.166   0.409
 1198SOL    HW2 4494   0.907   2.034   0.439
 1199SOL     OW 4495   5.033   4.890   2.013
 1199SOL    HW1 4496   4.981   4.832   2.076
 1199SOL    HW2 4497   5.040   4.843   1.925
 1200SOL     OW 4498   2.928   3.732   2.236
 1200SOL    HW1 4499   2.952   3.635   2.242
 1200SOL    HW2 4500   2.837   3.741   2.194
 1201SOL     OW 4501   1.947   1.906   4.335
 1201SOL    HW1 4502   2.007   1.893   4.256
 1201SOL    HW2 4503   1.925   1.817   4.376
 1202SOL     OW 4504   0.173   5.500   6.446
 1202SOL    HW1 4505   0.163   5.569   6.375
 1202SOL    HW2 4506   0.179   5.545   6.535
 1203SOL     OW 4507   4.741   5.999   5.742
 1203SOL    HW1 4508   4.660   5.976   5.797
 1203SOL    HW2 4509   4.713   6.053   5.663
 1204SOL     OW 4510   1.912   0.719   2.275
 1204SOL    HW1 4511   1.821   0.701   2.237
 1204SOL    HW2 4512   1.919   0.678   2.366
 1205SOL     OW 4513   5.048   3.964   1.330
 1205SOL    HW1 4514   5.110   4.024   1.279
 1205SOL    HW2 4515   4.955   4.000   1.322
 1206SOL     OW 4516   3.350   3.193   4.825
 1206SOL    HW1 4517   3.293   3.207   4.744
 1206SOL    HW2 4518   3.301   3.226   4.906
 1207SOL     OW 4519   2.203   6.359   2.205
 1207SOL    HW1 4520   2.303   6.366   2.199
 1207SOL    HW2 4521   2.162   6.413   2.131
 1208SOL     OW 4522   3.410   3.364   6.818
 1208SOL    HW1 4523   3.432   3.282   6.871
 1208SOL    HW2 4524   3.311   3.368   6.804
 1209SOL     OW 4525   3.385   0.000   5.531
 1209SOL    HW1 4526   3.329   6.960   5.471
 1209SOL    HW2 4527   3.482   7.001   5.513
 1210SOL     OW 4528   3.234   0.953   3.234
 1210SOL    HW1 4529   3.209   0.865   3.194
 1210SOL    HW2 4530   3.316   0.943   3.290
 1211SOL     OW 4531   0.720   3.998   0.634
 1211SOL    HW1 4532   0.771   3.989   0.720
 1211SOL    HW2 4533   0.742   4.085   0.591
 1212SOL     OW 4534   0.798   6.868   6.598
 1212SOL    HW1 4535   0.699   6.856   6.607
 1212SOL    HW2 4536   0.843   6.835   6.681
 1213SOL     OW 4537   5.747   2.650   0.584
 1213SOL    HW1 4538   5.692   2.626   0.504
 1213SOL    HW2 4539   5.809   2.725   0.561
 1214SOL     OW 4540   6.799   2.221   1.129
 1214SOL    HW1 4541   6.834   2.133   1.096
 1214SOL    HW2 4542   6.755   2.270   1.054
 1215SOL     OW 4543   1.050   4.659   4.461
 1215SOL    HW1 4544   1.028   4.682   4.556
 1215SOL    HW2 4545   0.983   4.594   4.425
 1216SOL     OW 4546   4.525   0.340   6.447
 1216SOL    HW1 4547   4.559   0.393   6.524
 1216SOL    HW2 4548   4.429   0.363   6.430
 1217SOL     OW 4549   2.405   4.491   0.409
 1217SOL    HW1 4550   2.434   4.395   0.405
 1217SOL    HW2 4551   2.310   4.498   0.377
 1218SOL     OW 4552   1.517   3.980   3.855
 1218SOL    HW1 4553   1.555   4.049   3.793
 1218SOL    HW2 4554   1.444   4.021   3.910
 1219SOL     OW 4555   4.071   5.854   2.408
 1219SOL    HW1 4556   4.170   5.865   2.416
 1219SOL    HW2 4557   4.026   5.943   2.412
 1220SOL     OW 4558   1.121   4.424   2.535
 1220SOL    HW1 4559   1.036   4.382   2.566
 1220SOL    HW2 4560   1.196   4.360   2.547
 1221SOL     OW 4561   5.894   3.794   6.137
 1221SOL    HW1 4562   5.865   3.878   6.091
 1221SOL    HW2 4563   5.850   3.788   6.227
 1222SOL     OW 4564   6.882   6.311   0.042
 1222SOL    HW1 4565   6.884   6.294   0.140
 1222SOL    HW2 4566   6.943   6.387   0.019
 1223SOL     OW 4567   3.073   6.528   0.362
 1223SOL    HW1 4568   3.057   6.565   0.270
 1223SOL    HW2 4569   2.991   6.481   0.394
 1224SOL     OW 4570   2.561   0.125   1.346
 1224SOL    HW1 4571   2.483   0.097   1.402
 1224SOL    HW2 4572   2.547   0.219   1.314
 1225SOL     OW 4573   3.344   4.342   6.425
 1225SOL    HW1 4574   3.437   4.305   6.420
 1225SOL    HW2 4575   3.300   4.332   6.336
 1226SOL     OW 4576   1.731   4.911   1.329
 1226SOL    HW1 4577   1.637   4.877   1.327
 1226SOL    HW2 4578   1.785   4.856   1.393
 1227SOL     OW 4579   6.899   3.994   6.447
 1227SOL    HW1 4580   6.959   3.921   6.414
 1227SOL    HW2 4581   6.916   4.009   6.545
 1228SOL     OW 4582   4.555   2.034   6.114
 1228SOL    HW1 4583   4.482   2.034   6.182
 1228SOL    HW2 4584   4.514   2.043   6.023
 1229SOL     OW 4585   3.611   4.711   6.489
 1229SOL    HW1 4586   3.627   4.731   6.392
 1229SOL    HW2 4587   3.618   4.796   6.542
 1230SOL     OW 4588   4.324   6.665   3.411
 1230SOL    HW1 4589   4.268   6.631   3.336
 1230SOL    HW2 4590   4.393   6.729   3.376
 1231SOL     OW 4591   2.010   3.235   4.967
 1231SOL    HW1 4592   2.058   3.323   4.957
 1231SOL    HW2 4593   1.922   3.239   4.919
 1232SOL     OW 4594   1.450   2.724   5.175
 1232SOL    HW1 4595   1.476   2.744   5.081
 1232SOL    HW2 4596   1.528   2.739   5.235
 1233SOL     OW 4597   0.831   3.610   5.305
 1233SOL    HW1 4598   0.731   3.619   5.298
 1233SOL    HW2 4599   0.865   3.563   5.224
 1234SOL     OW 4600   5.708   4.151   4.404
 1234SOL    HW1 4601   5.790   4.208   4.395
 1234SOL    HW2 4602   5.626   4.209   4.391
 1235SOL     OW 4603   6.132   5.443   3.354
 1235SOL    HW1 4604   6.067   5.372   3.328
 1235SOL    HW2 4605   6.157   5.432   3.450
 1236SOL     OW 4606   5.793   0.628   6.888
 1236SOL    HW1 4607   5.718   0.637   6.823
 1236SOL    HW2 4608   5.826   0.533   6.888
 1237SOL     OW 4609   3.288   5.074   6.405
 1237SOL    HW1 4610   3.257   4.985   6.439
 1237SOL    HW2 4611   3.246   5.092   6.317
 1238SOL     OW 4612   2.000   1.464   1.002
 1238SOL    HW1 4613   2.002   1.373   0.960
 1238SOL    HW2 4614   2.060   1.525   0.950
 1239SOL     OW 4615   6.587   6.148   6.741
 1239SOL    HW1 4616   6.520   6.076   6.759
 1239SOL    HW2 4617   6.627   6.178   6.828
 1240SOL     OW 4618   4.940   6.100   1.755
 1240SOL    HW1 4619   4.908   6.006   1.745
 1240SOL    HW2 4620   4.959   6.138   1.665
 1241SOL     OW 4621   6.625   3.731   4.359
 1241SOL    HW1 4622   6.665   3.644   4.331
 1241SOL    HW2 4623   6.533   3.739   4.321
 1242SOL     OW 4624   2.442   3.958   0.501
 1242SOL    HW1 4625   2.528   3.947   0.451
 1242SOL    HW2 4626   2.366   3.928   0.443
 1243SOL     OW 4627   2.049   5.151   5.156
 1243SOL    HW1 4628   2.057   5.173   5.059
 1243SOL    HW2 4629   1.974   5.203   5.197
 1244SOL     OW 4630   0.554   1.197   3.839
 1244SOL    HW1 4631   0.514   1.200   3.748
 1244SOL    HW2 4632   0.644   1.154   3.835
 1245SOL     OW 4633   3.570   3.490   0.063
 1245SOL    HW1 4634   3.515   3.511   0.145
 1245SOL    HW2 4635   3.552   3.559   7.012
 1246SOL     OW 4636   2.072   6.110   2.314
 1246SOL    HW1 4637   2.020   6.167   2.378
 1246SOL    HW2 4638   2.110   6.168   2.242
 1247SOL     OW 4639   1.997   6.606   6.068
 1247SOL    HW1 4640   1.994   6.506   6.073
 1247SOL    HW2 4641   2.090   6.636   6.048
 1248SOL     OW 4642   2.150   5.370   4.119
 1248SOL    HW1 4643   2.197   5.288   4.154
 1248SOL    HW2 4644   2.052   5.360   4.133
 1249SOL     OW 4645   5.692   3.071   3.491
 1249SOL    HW1 4646   5.716   3.040   3.583
 1249SOL    HW2 4647   5.759   3.036   3.425
 1250SOL     OW 4648   1.258   4.405   4.359
 1250SOL    HW1 4649   1.357   4.419   4.357
 1250SOL    HW2 4650   1.235   4.320   4.310
 1251SOL     OW 4651   3.884   0.215   4.858
 1251SOL    HW1 4652   3.943   0.296   4.849
 1251SOL    HW2 4653   3.791   0.240   4.832
 1252SOL     OW 4654   3.589   4.266   5.535
 1252SOL    HW1 4655   3.593   4.349   5.591
 1252SOL    HW2 4656   3.515   4.275   5.468
 1253SOL     OW 4657   4.014   5.181   3.068
 1253SOL    HW1 4658   3.936   5.206   3.125
 1253SOL    HW2 4659   3.981   5.131   2.987
 1254SOL     OW 4660   6.469   1.968   2.954
 1254SOL    HW1 4661   6.473   2.066   2.936
 1254SOL    HW2 4662   6.376   1.935   2.937
 1255SOL     OW 4663   6.930   0.010   6.798
 1255SOL    HW1 4664   6.926   0.108   6.783
 1255SOL    HW2 4665   6.904   6.980   6.714
 1256SOL     OW 4666   5.023   0.201   3.497
 1256SOL    HW1 4667   5.020   0.300   3.487
 1256SOL    HW2 4668   4.972   0.158   3.423
 1257SOL     OW 4669   6.609   1.191   3.837
 1257SOL    HW1 4670   6.629   1.149   3.925
 1257SOL    HW2 4671   6.515   1.225   3.836
 1258SOL     OW 4672   0.048   0.133   3.523
 1258SOL    HW1 4673   0.036   0.183   3.609
 1258SOL    HW2 4674   0.141   0.149   3.488
 1259SOL     OW 4675   4.071   2.212   4.576
 1259SOL    HW1 4676   3.989   2.178   4.529
 1259SOL    HW2 4677   4.100   2.298   4.534
 1260SOL     OW 4678   1.217   0.627   6.772
 1260SOL    HW1 4679   1.191   0.616   6.867
 1260SOL    HW2 4680   1.191   0.718   6.740
 1261SOL     OW 4681   7.002   5.155   0.745
 1261SOL    HW1 4682   6.954   5.100   0.677
 1261SOL    HW2 4683   6.952   5.151   0.832
 1262SOL     OW 4684   5.362   5.706   0.895
 1262SOL    HW1 4685   5.351   5.737   0.990
 1262SOL    HW2 4686   5.458   5.689   0.876
 1263SOL     OW 4687   1.450   2.336   3.620
 1263SOL    HW1 4688   1.407   2.251   3.651
 1263SOL    HW2 4689   1.450   2.402   3.695
 1264SOL     OW 4690   0.942   2.679   5.124
 1264SOL    HW1 4691   1.039   2.690   5.104
 1264SOL    HW2 4692   0.921   2.582   5.139
 1265SOL     OW 4693   5.962   6.757   4.640
 1265SOL    HW1 4694   6.007   6.726   4.724
 1265SOL    HW2 4695   6.005   6.712   4.561
 1266SOL     OW 4696   2.224   0.535   4.894
 1266SOL    HW1 4697   2.251   0.626   4.862
 1266SOL    HW2 4698   2.235   0.470   4.819
 1267SOL     OW 4699   4.346   0.301   2.421
 1267SOL    HW1 4700   4.267   0.252   2.384
 1267SOL    HW2 4701   4.337   0.310   2.520
 1268SOL     OW 4702   4.320   2.673   5.419
 1268SOL    HW1 4703   4.320   2.769   5.389
 1268SOL    HW2 4704   4.281   2.616   5.347
 1269SOL     OW 4705   6.143   2.529   4.564
 1269SOL    HW1 4706   6.179   2.535   4.471
 1269SOL    HW2 4707   6.044   2.541   4.561
 1270SOL     OW 4708   0.073   5.134   3.606
 1270SOL    HW1 4709   7.009   5.189   3.609
 1270SOL    HW2 4710   0.059   5.055   3.547
 1271SOL     OW 4711   1.479   1.364   1.437
 1271SOL    HW1 4712   1.543   1.377   1.361
 1271SOL    HW2 4713   1.402   1.426   1.427
 1272SOL     OW 4714   6.745   4.223   0.067
 1272SOL    HW1 4715   6.828   4.204   0.013
 1272SOL    HW2 4716   6.669   4.239   0.005
 1273SOL     OW 4717   1.339   4.698   5.052
 1273SOL    HW1 4718   1.250   4.741   5.033
 1273SOL    HW2 4719   1.375   4.734   5.137
 1274SOL     OW 4720   0.770   5.406   2.703
 1274SOL    HW1 4721   0.797   5.318   2.662
 1274SOL    HW2 4722   0.802   5.481   2.645
 1275SOL     OW 4723   2.784   0.850   2.537
 1275SOL    HW1 4724   2.876   0.854   2.575
 1275SOL    HW2 4725   2.727   0.921   2.579
 1276SOL     OW 4726   5.222   4.989   3.737
 1276SOL    HW1 4727   5.308   5.019   3.778
 1276SOL    HW2 4728   5.203   5.044   3.656
 1277SOL     OW 4729   0.471   6.241   0.800
 1277SOL    HW1 4730   0.547   6.300   0.771
 1277SOL    HW2 4731   0.436   6.274   0.887
 1278SOL     OW 4732   1.190   5.490   2.630
 1278SOL    HW1 4733   1.142   5.481   2.717
 1278SOL    HW2 4734   1.268   5.551   2.640
 1279SOL     OW 4735   2.068   2.189   0.205
 1279SOL    HW1 4736   1.968   2.199   0.200
 1279SOL    HW2 4737   2.110   2.279   0.218
 1280SOL     OW 4738   2.102   2.023   3.267
 1280SOL    HW1 4739   2.126   2.062   3.178
 1280SOL    HW2 4740   2.075   2.096   3.329
 1281SOL     OW 4741   4.312   5.758   4.286
 1281SOL    HW1 4742   4.336   5.801   4.199
 1281SOL    HW2 4743   4.340   5.817   4.361
 1282SOL     OW 4744   6.902   2.661   1.318
 1282SOL    HW1 4745   6.926   2.643   1.414
 1282SOL    HW2 4746   6.809   2.696   1.313
 1283SOL     OW 4747   6.611   3.561   5.066
 1283SOL    HW1 4748   6.540   3.551   5.136
 1283SOL    HW2 4749   6.688   3.614   5.104
 1284SOL     OW 4750   4.049   1.789   2.146
 1284SOL    HW1 4751   4.011   1.765   2.235
 1284SOL    HW2 4752   4.001   1.868   2.109
 1285SOL     OW 4753   3.908   1.082   5.360
 1285SOL    HW1 4754   3.809   1.074   5.348
 1285SOL    HW2 4755   3.930   1.174   5.392
 1286SOL     OW 4756   4.778   1.962   2.150
 1286SOL    HW1 4757   4.803   1.995   2.241
 1286SOL    HW2 4758   4.825   1.876   2.132
 1287SOL     OW 4759   6.467   4.669   4.680
 1287SOL    HW1 4760   6.508   4.614   4.753
 1287SOL    HW2 4761   6.369   4.651   4.675
 1288SOL     OW 4762   4.384   4.285   6.824
 1288SOL    HW1 4763   4.480   4.260   6.837
 1288SOL    HW2 4764   4.336   4.211   6.777
 1289SOL     OW 4765   0.051   0.271   1.786
 1289SOL    HW1 4766   6.997   0.206   1.808
 1289SOL    HW2 4767   0.118   0.227   1.727
 1290SOL     OW 4768   1.673   0.043   6.310
 1290SOL    HW1 4769   1.730   0.095   6.373
 1290SOL    HW2 4770   1.679   6.964   6.331
 1291SOL     OW 4771   0.080   5.341   3.218
 1291SOL    HW1 4772   0.170   5.382   3.231
 1291SOL    HW2 4773   0.011   5.413   3.209
 1292SOL     OW 4774   1.055   6.349   2.316
 1292SOL    HW1 4775   1.087   6.291   2.390
 1292SOL    HW2 4776   1.056   6.444   2.345
 1293SOL     OW 4777   3.099   1.366   6.940
 1293SOL    HW1 4778   3.163   1.290   6.941
 1293SOL    HW2 4779   3.128   1.433   6.872
 1294SOL     OW 4780   2.371   3.560   5.336
 1294SOL    HW1 4781   2.447   3.624   5.344
 1294SOL    HW2 4782   2.405   3.466   5.344
 1295SOL     OW 4783   6.279   4.686   0.580
 1295SOL    HW1 4784   6.327   4.610   0.536
 1295SOL    HW2 4785   6.339   4.729   0.647
 1296SOL     OW 4786   5.306   7.000   5.553
 1296SOL    HW1 4787   5.221   6.946   5.545
 1296SOL    HW2 4788   5.375   6.962   5.491
 1297SOL     OW 4789   0.370   0.157   2.079
 1297SOL    HW1 4790   0.365   0.245   2.032
 1297SOL    HW2 4791   0.285   0.107   2.064
 1298SOL     OW 4792   5.057   6.124   2.419
 1298SOL    HW1 4793   4.990   6.132   2.493
 1298SOL    HW2 4794   5.068   6.213   2.375
 1299SOL     OW 4795   1.399   3.455   4.997
 1299SOL    HW1 4796   1.426   3.415   5.085
 1299SOL    HW2 4797   1.470   3.520   4.968
 1300SOL     OW 4798   1.292   4.325   1.993
 1300SOL    HW1 4799   1.386   4.358   2.000
 1300SOL    HW2 4800   1.270   4.266   2.070
 1301SOL     OW 4801   0.816   0.450   1.228
 1301SOL    HW1 4802   0.870   0.385   1.281
 1301SOL    HW2 4803   0.802   0.533   1.282
 1302SOL     OW 4804   5.332   6.733   4.739
 1302SOL    HW1 4805   5.293   6.710   4.651
 1302SOL    HW2 4806   5.284   6.811   4.778
 1303SOL     OW 4807   4.264   6.292   1.427
 1303SOL    HW1 4808   4.303   6.203   1.404
 1303SOL    HW2 4809   4.268   6.306   1.526
 1304SOL     OW 4810   0.834   1.455   0.771
 1304SOL    HW1 4811   0.812   1.479   0.866
 1304SOL    HW2 4812   0.919   1.500   0.744
 1305SOL     OW 4813   5.323   3.795   6.616
 1305SOL    HW1 4814   5.370   3.859   6.678
 1305SOL    HW2 4815   5.310   3.838   6.527
 1306SOL     OW 4816   2.647   5.664   4.031
 1306SOL    HW1 4817   2.556   5.668   4.072
 1306SOL    HW2 4818   2.642   5.623   3.940
 1307SOL     OW 4819   2.932   2.272   3.477
 1307SOL    HW1 4820   3.018   2.250   3.523
 1307SOL    HW2 4821   2.869   2.196   3.484
 1308SOL     OW 4822   0.113   5.255   5.915
 1308SOL    HW1 4823   0.103   5.256   5.815
 1308SOL    HW2 4824   0.157   5.340   5.945
 1309SOL     OW 4825   5.410   4.232   6.654
 1309SOL    HW1 4826   5.462   4.155   6.618
 1309SOL    HW2 4827   5.330   4.199   6.705
 1310SOL     OW 4828   1.237   4.051   3.597
 1310SOL    HW1 4829   1.163   4.054   3.664
 1310SOL    HW2 4830   1.296   4.130   3.610
 1311SOL     OW 4831   0.006   5.987   0.595
 1311SOL    HW1 4832   0.067   5.968   0.672
 1311SOL    HW2 4833   6.982   6.076   0.608
 1312SOL     OW 4834   2.558   0.392   6.170
 1312SOL    HW1 4835   2.653   0.415   6.148
 1312SOL    HW2 4836   2.499   0.469   6.145
 1313SOL     OW 4837   6.538   5.668   2.689
 1313SOL    HW1 4838   6.482   5.606   2.635
 1313SOL    HW2 4839   6.521   5.762   2.660
 1314SOL     OW 4840   2.656   1.503   5.243
 1314SOL    HW1 4841   2.671   1.602   5.245
 1314SOL    HW2 4842   2.566   1.482   5.282
 1315SOL     OW 4843   6.028   1.404   3.802
 1315SOL    HW1 4844   6.125   1.420   3.821
 1315SOL    HW2 4845   5.995   1.329   3.860
 1316SOL     OW 4846   4.265   0.606   4.957
 1316SOL    HW1 4847   4.235   0.655   4.875
 1316SOL    HW2 4848   4.186   0.583   5.013
 1317SOL     OW 4849   2.793   3.325   5.594
 1317SOL    HW1 4850   2.783   3.248   5.657
 1317SOL    HW2 4851   2.876   3.376   5.617
 1318SOL     OW 4852   2.019   2.752   6.243
 1318SOL    HW1 4853   1.941   2.721   6.190
 1318SOL    HW2 4854   1.995   2.835   6.294
 1319SOL     OW 4855   0.167   6.490   0.801
 1319SOL    HW1 4856   0.152   6.575   0.852
 1319SOL    HW2 4857   0.167   6.413   0.864
 1320SOL     OW 4858   3.475   2.752   5.720
 1320SOL    HW1 4859   3.428   2.740   5.807
 1320SOL    HW2 4860   3.469   2.668   5.666
 1321SOL     OW 4861   5.251   2.520   6.867
 1321SOL    HW1 4862   5.225   2.513   6.771
 1321SOL    HW2 4863   5.321   2.590   6.878
 1322SOL     OW 4864   3.305   1.346   0.802
 1322SOL    HW1 4865   3.245   1.402   0.744
 1322SOL    HW2 4866   3.386   1.320   0.750
 1323SOL     OW 4867   4.059   0.011   0.403
 1323SOL    HW1 4868   4.151   7.006   0.374
 1323SOL    HW2 4869   4.025   6.961   0.467
 1324SOL     OW 4870   1.377   3.485   0.072
 1324SOL    HW1 4871   1.438   3.459   7.015
 1324SOL    HW2 4872   1.389   3.582   0.093
 1325SOL     OW 4873   2.756   5.227   6.214
 1325SOL    HW1 4874   2.823   5.255   6.283
 1325SOL    HW2 4875   2.775   5.274   6.128
 1326SOL     OW 4876   5.022   3.289   3.695
 1326SOL    HW1 4877   4.989   3.292   3.789
 1326SOL    HW2 4878   5.117   3.259   3.694
 1327SOL     OW 4879   6.313   5.910   1.382
 1327SOL    HW1 4880   6.305   5.967   1.463
 1327SOL    HW2 4881   6.380   5.950   1.319
 1328SOL     OW 4882   1.645   3.190   5.745
 1328SOL    HW1 4883   1.707   3.268   5.751
 1328SOL    HW2 4884   1.559   3.211   5.792
 1329SOL     OW 4885   0.705   2.845   2.936
 1329SOL    HW1 4886   0.703   2.944   2.950
 1329SOL    HW2 4887   0.615   2.807   2.955
 1330SOL     OW 4888   6.555   3.420   1.573
 1330SOL    HW1 4889   6.601   3.484   1.634
 1330SOL    HW2 4890   6.623   3.366   1.523
 1331SOL     OW 4891   4.694   2.015   3.102
 1331SOL    HW1 4892   4.604   1.972   3.111
 1331SOL    HW2 4893   4.751   1.991   3.180
 1332SOL     OW 4894   1.690   6.016   0.385
 1332SOL    HW1 4895   1.726   5.949   0.320
 1332SOL    HW2 4896   1.590   6.009   0.389
 1333SOL     OW 4897   3.599   4.108   3.353
 1333SOL    HW1 4898   3.512   4.132   3.394
 1333SOL    HW2 4899   3.669   4.101   3.424
 1334SOL     OW 4900   0.244   3.160   2.293
 1334SOL    HW1 4901   0.179   3.227   2.259
 1334SOL    HW2 4902   0.333   3.204   2.309
 1335SOL     OW 4903   1.282   3.565   2.341
 1335SOL    HW1 4904   1.350   3.598   2.276
 1335SOL    HW2 4905   1.248   3.641   2.396
 1336SOL     OW 4906   3.227   0.521   5.223
 1336SOL    HW1 4907   3.257   0.456   5.153
 1336SOL    HW2 4908   3.229   0.614   5.186
 1337SOL     OW 4909   6.666   1.300   3.437
 1337SOL    HW1 4910   6.653   1.336   3.530
 1337SOL    HW2 4911   6.762   1.311   3.411
 1338SOL     OW 4912   6.184   4.596   5.394
 1338SOL    HW1 4913   6.215   4.659   5.322
 1338SOL    HW2 4914   6.257   4.584   5.461
 1339SOL     OW 4915   0.299   0.717   6.627
 1339SOL    HW1 4916   0.311   0.622   6.657
 1339SOL    HW2 4917   0.369   0.774   6.669
 1340SOL     OW 4918   4.632   2.071   1.644
 1340SOL    HW1 4919   4.564   2.041   1.711
 1340SOL    HW2 4920   4.718   2.091   1.690
 1341SOL     OW 4921   4.792   6.956   6.866
 1341SOL    HW1 4922   4.801   6.874   6.811
 1341SOL    HW2 4923   4.798   6.933   6.963
 1342SOL     OW 4924   2.339   6.416   0.803
 1342SOL    HW1 4925   2.327   6.344   0.735
 1342SOL    HW2 4926   2.395   6.490   0.765
 1343SOL     OW 4927   5.752   6.194   3.336
 1343SOL    HW1 4928   5.812   6.130   3.383
 1343SOL    HW2 4929   5.746   6.279   3.388
 1344SOL     OW 4930   0.211   0.286   4.902
 1344SOL    HW1 4931   0.167   0.239   4.825
 1344SOL    HW2 4932   0.299   0.242   4.921
 1345SOL     OW 4933   0.148   6.152   1.255
 1345SOL    HW1 4934   0.200   6.163   1.340
 1345SOL    HW2 4935   0.075   6.085   1.269
 1346SOL     OW 4936   2.860   5.147   5.866
 1346SOL    HW1 4937   2.855   5.238   5.906
 1346SOL    HW2 4938   2.828   5.150   5.772
 1347SOL     OW 4939   1.487   6.963   6.614
 1347SOL    HW1 4940   1.400   6.948   6.660
 1347SOL    HW2 4941   1.502   6.891   6.546
 1348SOL     OW 4942   0.376   6.541   5.235
 1348SOL    HW1 4943   0.300   6.506   5.180
 1348SOL    HW2 4944   0.419   6.465   5.284
 1349SOL     OW 4945   4.901   3.364   3.924
 1349SOL    HW1 4946   4.921   3.358   4.022
 1349SOL    HW2 4947   4.920   3.456   3.892
 1350SOL     OW 4948   3.488   3.514   0.327
 1350SOL    HW1 4949   3.562   3.478   0.383
 1350SOL    HW2 4950   3.481   3.613   0.340
 1351SOL     OW 4951   6.591   2.626   5.499
 1351SOL    HW1 4952   6.661   2.589   5.438
 1351SOL    HW2 4953   6.502   2.590   5.472
 1352SOL     OW 4954   0.118   0.394   2.336
 1352SOL    HW1 4955   0.079   0.414   2.425
 1352SOL    HW2 4956   0.112   0.476   2.278
 1353SOL     OW 4957   0.715   1.074   0.836
 1353SOL    HW1 4958   0.789   1.038   0.779
 1353SOL    HW2 4959   0.641   1.108   0.778
 1354SOL     OW 4960   5.236   4.940   2.324
 1354SOL    HW1 4961   5.157   4.884   2.301
 1354SOL    HW2 4962   5.317   4.881   2.334
 1355SOL     OW 4963   6.177   3.481   5.365
 1355SOL    HW1 4964   6.133   3.568   5.389
 1355SOL    HW2 4965   6.118   3.430   5.302
 1356SOL     OW 4966   3.532   2.946   1.343
 1356SOL    HW1 4967   3.457   2.917   1.403
 1356SOL    HW2 4968   3.592   3.009   1.392
 1357SOL     OW 4969   6.967   3.548   5.570
 1357SOL    HW1 4970   6.967   3.641   5.535
 1357SOL    HW2 4971   6.941   3.548   5.667
 1358SOL     OW 4972   1.807   6.817   6.488
 1358SOL    HW1 4973   1.727   6.784   6.537
 1358SOL    HW2 4974   1.844   6.897   6.535
 1359SOL     OW 4975   6.623   4.208   2.007
 1359SOL    HW1 4976   6.635   4.261   1.923
 1359SOL    HW2 4977   6.679   4.247   2.080
 1360SOL     OW 4978   2.329   2.302   6.852
 1360SOL    HW1 4979   2.356   2.370   6.784
 1360SOL    HW2 4980   2.406   2.241   6.871
 1361SOL     OW 4981   6.705   5.019   4.457
 1361SOL    HW1 4982   6.766   5.095   4.433
 1361SOL    HW2 4983   6.743   4.970   4.535
 1362SOL     OW 4984   3.196   3.032   2.905
 1362SOL    HW1 4985   3.158   3.038   2.813
 1362SOL    HW2 4986   3.284   2.984   2.901
 1363SOL     OW 4987   0.799   6.380   5.289
 1363SOL    HW1 4988   0.861   6.352   5.216
 1363SOL    HW2 4989   0.704   6.367   5.259
 1364SOL     OW 4990   3.620   3.941   1.174
 1364SOL    HW1 4991   3.555   4.015   1.192
 1364SOL    HW2 4992   3.572   3.853   1.176
 1365SOL     OW 4993   0.197   3.767   6.995
 1365SOL    HW1 4994   0.151   3.740   6.910
 1365SOL    HW2 4995   0.128   3.778   0.049
 1366SOL     OW 4996   2.563   6.978   4.966
 1366SOL    HW1 4997   2.607   0.023   5.029
 1366SOL    HW2 4998   2.565   7.016   4.873
 1367SOL     OW 4999   1.882   1.100   2.450
 1367SOL    HW1 5000   1.857   1.067   2.541
 1367SOL    HW2 5001   1.963   1.051   2.418
 1368SOL     OW 5002   6.004   6.571   4.139
 1368SOL    HW1 5003   6.055   6.493   4.101
 1368SOL    HW2 5004   5.906   6.555   4.129
 1369SOL     OW 5005   0.687   0.565   3.013
 1369SOL    HW1 5006   0.601   0.545   3.060
 1369SOL    HW2 5007   0.674   0.556   2.914
 1370SOL     OW 5008   2.436   1.134   1.484
 1370SOL    HW1 5009   2.357   1.180   1.525
 1370SOL    HW2 5010   2.427   1.035   1.498
 1371SOL     OW 5011   3.955   0.906   6.391
 1371SOL    HW1 5012   3.996   0.815   6.401
 1371SOL    HW2 5013   3.995   0.951   6.311
 1372SOL     OW 5014   3.490   2.072   2.231
 1372SOL    HW1 5015   3.566   2.044   2.172
 1372SOL    HW2 5016   3.443   2.150   2.191
 1373SOL     OW 5017   1.350   5.908   1.330
 1373SOL    HW1 5018   1.369   5.958   1.414
 1373SOL    HW2 5019   1.294   5.828   1.349
 1374SOL     OW 5020   5.039   2.752   0.400
 1374SOL    HW1 5021   5.137   2.750   0.378
 1374SOL    HW2 5022   4.986   2.724   0.320
 1375SOL     OW 5023   0.595   4.170   5.652
 1375SOL    HW1 5024   0.677   4.162   5.595
 1375SOL    HW2 5025   0.514   4.147   5.597
 1376SOL     OW 5026   4.812   1.764   2.391
 1376SOL    HW1 5027   4.782   1.763   2.296
 1376SOL    HW2 5028   4.902   1.722   2.397
 1377SOL     OW 5029   0.417   5.448   4.866
 1377SOL    HW1 5030   0.439   5.356   4.897
 1377SOL    HW2 5031   0.473   5.514   4.914
 1378SOL     OW 5032   1.363   2.178   0.598
 1378SOL    HW1 5033   1.339   2.129   0.514
 1378SOL    HW2 5034   1.455   2.216   0.589
 1379SOL     OW 5035   3.911   5.912   1.809
 1379SOL    HW1 5036   3.932   5.867   1.896
 1379SOL    HW2 5037   3.867   6.000   1.827
 1380SOL     OW 5038   6.368   6.617   2.462
 1380SOL    HW1 5039   6.327   6.530   2.488
 1380SOL    HW2 5040   6.435   6.645   2.531
 1381SOL     OW 5041   5.995   1.422   1.423
 1381SOL    HW1 5042   5.909   1.425   1.475
 1381SOL    HW2 5043   6.071   1.445   1.483
 1382SOL     OW 5044   6.333   5.079   6.482
 1382SOL    HW1 5045   6.311   4.986   6.453
 1382SOL    HW2 5046   6.276   5.144   6.432
 1383SOL     OW 5047   2.376   0.036   0.684
 1383SOL    HW1 5048   2.305   0.013   0.617
 1383SOL    HW2 5049   2.465   0.039   0.639
 1384SOL     OW 5050   3.322   1.927   2.747
 1384SOL    HW1 5051   3.311   2.011   2.798
 1384SOL    HW2 5052   3.345   1.948   2.652
 1385SOL     OW 5053   5.503   3.043   2.832
 1385SOL    HW1 5054   5.436   3.012   2.899
 1385SOL    HW2 5055   5.587   3.071   2.879
 1386SOL     OW 5056   2.200   2.390   4.164
 1386SOL    HW1 5057   2.170   2.411   4.071
 1386SOL    HW2 5058   2.155   2.451   4.228
 1387SOL     OW 5059   2.563   0.667   4.993
 1387SOL    HW1 5060   2.464   0.656   4.997
 1387SOL    HW2 5061   2.600   0.615   4.915
 1388SOL     OW 5062   6.555   0.671   5.014
 1388SOL    HW1 5063   6.514   0.731   5.083
 1388SOL    HW2 5064   6.616   0.606   5.060
 1389SOL     OW 5065   6.798   0.786   4.910
 1389SOL    HW1 5066   6.716   0.759   4.960
 1389SOL    HW2 5067   6.879   0.750   4.956
 1390SOL     OW 5068   4.707   2.765   2.574
 1390SOL    HW1 5069   4.717   2.713   2.490
 1390SOL    HW2 5070   4.633   2.724   2.629
 1391SOL     OW 5071   5.794   1.271   4.873
 1391SOL    HW1 5072   5.765   1.264   4.778
 1391SOL    HW2 5073   5.799   1.180   4.913
 1392SOL     OW 5074   4.360   5.180   6.009
 1392SOL    HW1 5075   4.361   5.198   5.910
 1392SOL    HW2 5076   4.267   5.160   6.039
 1393SOL     OW 5077   5.842   0.350   6.487
 1393SOL    HW1 5078   5.755   0.352   6.536
 1393SOL    HW2 5079   5.894   0.269   6.514
 1394SOL     OW 5080   4.160   0.007   4.108
 1394SOL    HW1 5081   4.175   0.070   4.184
 1394SOL    HW2 5082   4.116   6.942   4.142
 1395SOL     OW 5083   0.897   5.384   2.282
 1395SOL    HW1 5084   0.910   5.435   2.367
 1395SOL    HW2 5085   0.985   5.351   2.249
 1396SOL     OW 5086   1.977   1.411   3.934
 1396SOL    HW1 5087   1.947   1.352   3.859
 1396SOL    HW2 5088   1.897   1.445   3.983
 1397SOL     OW 5089   0.890   5.767   4.442
 1397SOL    HW1 5090   0.946   5.736   4.365
 1397SOL    HW2 5091   0.806   5.714   4.446
 1398SOL     OW 5092   0.977   6.311   0.573
 1398SOL    HW1 5093   1.052   6.350   0.626
 1398SOL    HW2 5094   0.919   6.256   0.633
 1399SOL     OW 5095   4.256   0.270   0.294
 1399SOL    HW1 5096   4.227   0.253   0.200
 1399SOL    HW2 5097   4.190   0.230   0.358
 1400SOL     OW 5098   0.057   0.545   4.885
 1400SOL    HW1 5099   0.104   0.457   4.897
 1400SOL    HW2 5100   6.990   0.530   4.834
 1401SOL     OW 5101   5.474   0.071   2.456
 1401SOL    HW1 5102   5.573   0.063   2.446
 1401SOL    HW2 5103   5.453   0.130   2.533
 1402SOL     OW 5104   6.848   4.978   2.676
 1402SOL    HW1 5105   6.780   4.906   2.694
 1402SOL    HW2 5106   6.863   5.030   2.760
 1403SOL     OW 5107   3.167   3.404   6.727
 1403SOL    HW1 5108   3.187   3.474   6.658
 1403SOL    HW2 5109   3.072   3.413   6.756
 1404SOL     OW 5110   3.703   0.088   0.460
 1404SOL    HW1 5111   3.657   0.032   0.392
 1404SOL    HW2 5112   3.797   0.107   0.431
 1405SOL     OW 5113   0.805   3.937   1.652
 1405SOL    HW1 5114   0.757   4.014   1.609
 1405SOL    HW2 5115   0.814   3.862   1.587
 1406SOL     OW 5116   2.057   3.478   0.534
 1406SOL    HW1 5117   2.032   3.491   0.630
 1406SOL    HW2 5118   2.140   3.529   0.514
 1407SOL     OW 5119   0.412   3.123   1.316
 1407SOL    HW1 5120   0.445   3.099   1.408
 1407SOL    HW2 5121   0.464   3.201   1.282
 1408SOL     OW 5122   5.638   6.718   1.193
 1408SOL    HW1 5123   5.620   6.634   1.142
 1408SOL    HW2 5124   5.687   6.697   1.278
 1409SOL     OW 5125   6.476   0.831   5.938
 1409SOL    HW1 5126   6.544   0.761   5.914
 1409SOL    HW2 5127   6.518   0.898   5.999
 1410SOL     OW 5128   3.769   0.637   6.037
 1410SOL    HW1 5129   3.821   0.720   6.019
 1410SOL    HW2 5130   3.672   0.660   6.049
 1411SOL     OW 5131   3.709   5.229   6.837
 1411SOL    HW1 5132   3.668   5.140   6.856
 1411SOL    HW2 5133   3.807   5.217   6.821
 1412SOL     OW 5134   2.595   2.759   6.966
 1412SOL    HW1 5135   2.518   2.765   0.011
 1412SOL    HW2 5136   2.680   2.748   7.018
 1413SOL     OW 5137   1.286   1.731   4.972
 1413SOL    HW1 5138   1.293   1.719   4.873
 1413SOL    HW2 5139   1.221   1.804   4.992
 1414SOL     OW 5140   0.600   4.302   2.836
 1414SOL    HW1 5141   0.646   4.370   2.894
 1414SOL    HW2 5142   0.659   4.279   2.759
 1415SOL     OW 5143   2.761   1.286   4.962
 1415SOL    HW1 5144   2.769   1.375   4.918
 1415SOL    HW2 5145   2.674   1.243   4.938
 1416SOL     OW 5146   4.385   0.434   4.681
 1416SOL    HW1 5147   4.366   0.511   4.742
 1416SOL    HW2 5148   4.440   0.465   4.604
 1417SOL     OW 5149   3.628   3.495   6.103
 1417SOL    HW1 5150   3.712   3.483   6.051
 1417SOL    HW2 5151   3.606   3.411   6.152
 1418SOL     OW 5152   4.000   4.235   5.433
 1418SOL    HW1 5153   4.067   4.305   5.408
 1418SOL    HW2 5154   3.949   4.265   5.513
 1419SOL     OW 5155   1.243   5.804   2.262
 1419SOL    HW1 5156   1.218   5.708   2.267
 1419SOL    HW2 5157   1.219   5.841   2.172
 1420SOL     OW 5158   2.630   6.698   3.065
 1420SOL    HW1 5159   2.646   6.758   3.143
 1420SOL    HW2 5160   2.606   6.606   3.097
 1421SOL     OW 5161   1.141   4.825   5.957
 1421SOL    HW1 5162   1.075   4.752   5.976
 1421SOL    HW2 5163   1.137   4.850   5.861
 1422SOL     OW 5164   2.276   3.016   6.151
 1422SOL    HW1 5165   2.229   3.100   6.181
 1422SOL    HW2 5166   2.231   2.937   6.192
 1423SOL     OW 5167   3.939   0.823   4.574
 1423SOL    HW1 5168   3.995   0.798   4.653
 1423SOL    HW2 5169   3.845   0.839   4.604
 1424SOL     OW 5170   6.091   3.019   0.602
 1424SOL    HW1 5171   6.098   3.085   0.528
 1424SOL    HW2 5172   6.111   3.064   0.689
 1425SOL     OW 5173   5.293   0.131   3.533
 1425SOL    HW1 5174   5.325   0.186   3.610
 1425SOL    HW2 5175   5.201   0.159   3.508
 1426SOL     OW 5176   3.604   1.371   0.086
 1426SOL    HW1 5177   3.580   1.334   7.015
 1426SOL    HW2 5178   3.636   1.297   0.145
 1427SOL     OW 5179   1.683   0.436   3.658
 1427SOL    HW1 5180   1.681   0.450   3.757
 1427SOL    HW2 5181   1.594   0.402   3.627
 1428SOL     OW 5182   0.894   2.925   3.868
 1428SOL    HW1 5183   0.873   2.998   3.933
 1428SOL    HW2 5184   0.849   2.840   3.898
 1429SOL     OW 5185   6.273   1.024   1.798
 1429SOL    HW1 5186   6.328   0.944   1.823
 1429SOL    HW2 5187   6.282   1.041   1.700
 1430SOL     OW 5188   2.078   3.382   4.069
 1430SOL    HW1 5189   2.159   3.357   4.121
 1430SOL    HW2 5190   2.093   3.361   3.972
 1431SOL     OW 5191   2.738   1.017   0.037
 1431SOL    HW1 5192   2.778   1.090   6.999
 1431SOL    HW2 5193   2.651   0.988   7.017
 1432SOL     OW 5194   3.346   0.864   2.139
 1432SOL    HW1 5195   3.418   0.836   2.202
 1432SOL    HW2 5196   3.264   0.890   2.191
 1433SOL     OW 5197   2.617   0.422   4.108
 1433SOL    HW1 5198   2.686   0.476   4.061
 1433SOL    HW2 5199   2.555   0.380   4.042
 1434SOL     OW 5200   6.368   4.113   0.265
 1434SOL    HW1 5201   6.455   4.086   0.307
 1434SOL    HW2 5202   6.386   4.157   0.178
 1435SOL     OW 5203   1.720   0.503   3.929
 1435SOL    HW1 5204   1.797   0.548   3.975
 1435SOL    HW2 5205   1.678   0.438   3.992
 1436SOL     OW 5206   5.405   0.921   0.571
 1436SOL    HW1 5207   5.343   0.843   0.582
 1436SOL    HW2 5208   5.461   0.931   0.653
 1437SOL     OW 5209   4.242   0.630   6.912
 1437SOL    HW1 5210   4.224   0.728   6.909
 1437SOL    HW2 5211   4.331   0.614   6.955
 1438SOL     OW 5212   2.139   0.426   2.353
 1438SOL    HW1 5213   2.072   0.353   2.365
 1438SOL    HW2 5214   2.226   0.386   2.322
 1439SOL     OW 5215   0.442   4.489   6.888
 1439SOL    HW1 5216   0.440   4.538   6.801
 1439SOL    HW2 5217   0.396   4.543   6.958
 1440SOL     OW 5218   3.564   3.104   2.702
 1440SOL    HW1 5219   3.646   3.058   2.668
 1440SOL    HW2 5220   3.484   3.068   2.654
 1441SOL     OW 5221   6.697   2.952   4.227
 1441SOL    HW1 5222   6.602   2.922   4.217
 1441SOL    HW2 5223   6.745   2.890   4.290
 1442SOL     OW 5224   5.458   6.656   6.804
 1442SOL    HW1 5225   5.536   6.697   6.757
 1442SOL    HW2 5226   5.386   6.725   6.814
 1443SOL     OW 5227   1.229   2.319   3.162
 1443SOL    HW1 5228   1.213   2.407   3.206
 1443SOL    HW2 5229   1.323   2.316   3.127
 1444SOL     OW 5230   5.681   0.724   4.905
 1444SOL    HW1 5231   5.584   0.704   4.915
 1444SOL    HW2 5232   5.732   0.640   4.887
 1445SOL     OW 5233   6.132   2.317   0.854
 1445SOL    HW1 5234   6.116   2.219   0.838
 1445SOL    HW2 5235   6.130   2.365   0.767
 1446SOL     OW 5236   4.037   0.576   0.885
 1446SOL    HW1 5237   4.063   0.480   0.896
 1446SOL    HW2 5238   3.951   0.593   0.932
 1447SOL     OW 5239   5.278   1.366   5.131
 1447SOL    HW1 5240   5.361   1.400   5.086
 1447SOL    HW2 5241   5.281   1.387   5.228
 1448SOL     OW 5242   5.729   0.074   6.680
 1448SOL    HW1 5243   5.814   0.091   6.631
 1448SOL    HW2 5244   5.748   0.056   6.777
 1449SOL     OW 5245   4.795   5.460   0.841
 1449SOL    HW1 5246   4.720   5.432   0.902
 1449SOL    HW2 5247   4.761   5.464   0.747
 1450SOL     OW 5248   5.516   2.136   4.022
 1450SOL    HW1 5249   5.533   2.201   3.948
 1450SOL    HW2 5250   5.432   2.162   4.069
 1451SOL     OW 5251   1.495   0.041   2.151
 1451SOL    HW1 5252   1.526   0.128   2.110
 1451SOL    HW2 5253   1.542   0.027   2.238
 1452SOL     OW 5254   4.405   0.222   4.887
 1452SOL    HW1 5255   4.456   0.137   4.874
 1452SOL    HW2 5256   4.416   0.280   4.806
 1453SOL     OW 5257   4.820   4.438   4.474
 1453SOL    HW1 5258   4.720   4.446   4.468
 1453SOL    HW2 5259   4.843   4.376   4.549
 1454SOL     OW 5260   4.554   4.039   1.296
 1454SOL    HW1 5261   4.554   4.007   1.391
 1454SOL    HW2 5262   4.586   3.966   1.236
 1455SOL     OW 5263   2.407   2.328   1.417
 1455SOL    HW1 5264   2.326   2.318   1.476
 1455SOL    HW2 5265   2.481   2.370   1.470
 1456SOL     OW 5266   6.608   5.164   4.139
 1456SOL    HW1 5267   6.684   5.216   4.176
 1456SOL    HW2 5268   6.576   5.098   4.207
 1457SOL     OW 5269   1.765   0.406   3.398
 1457SOL    HW1 5270   1.798   0.317   3.366
 1457SOL    HW2 5271   1.754   0.403   3.497
 1458SOL     OW 5272   6.730   5.243   0.096
 1458SOL    HW1 5273   6.773   5.153   0.094
 1458SOL    HW2 5274   6.657   5.246   0.028
 1459SOL     OW 5275   2.430   6.959   1.094
 1459SOL    HW1 5276   2.420   0.031   1.054
 1459SOL    HW2 5277   2.524   6.927   1.082
 1460SOL     OW 5278   0.850   6.283   0.877
 1460SOL    HW1 5279   0.791   6.353   0.837
 1460SOL    HW2 5280   0.820   6.193   0.849
 1461SOL     OW 5281   4.257   4.738   1.497
 1461SOL    HW1 5282   4.287   4.800   1.425
 1461SOL    HW2 5283   4.328   4.732   1.567
 1462SOL     OW 5284   5.125   0.380   5.213
 1462SOL    HW1 5285   5.182   0.299   5.230
 1462SOL    HW2 5286   5.052   0.384   5.281
 1463SOL     OW 5287   0.469   1.101   5.114
 1463SOL    HW1 5288   0.411   1.045   5.055
 1463SOL    HW2 5289   0.532   1.043   5.165
 1464SOL     OW 5290   0.250   0.192   1.559
 1464SOL    HW1 5291   0.304   0.181   1.643
 1464SOL    HW2 5292   0.202   0.106   1.540
 1465SOL     OW 5293   0.426   0.091   4.697
 1465SOL    HW1 5294   0.379   0.162   4.645
 1465SOL    HW2 5295   0.463   0.023   4.634
 1466SOL     OW 5296   5.361   5.078   4.346
 1466SOL    HW1 5297   5.402   5.003   4.294
 1466SOL    HW2 5298   5.432   5.145   4.369
 1467SOL     OW 5299   5.996   3.870   2.823
 1467SOL    HW1 5300   6.021   3.894   2.729
 1467SOL    HW2 5301   5.897   3.856   2.828
 1468SOL     OW 5302   5.409   6.130   2.906
 1468SOL    HW1 5303   5.359   6.203   2.860
 1468SOL    HW2 5304   5.500   6.121   2.867
 1469SOL     OW 5305   0.510   0.996   2.724
 1469SOL    HW1 5306   0.599   0.962   2.756
 1469SOL    HW2 5307   0.524   1.070   2.659
 1470SOL     OW 5308   0.007   0.667   3.268
 1470SOL    HW1 5309   6.927   0.667   3.250
 1470SOL    HW2 5310   0.026   0.718   3.351
 1471SOL     OW 5311   6.341   0.605   0.393
 1471SOL    HW1 5312   6.437   0.603   0.417
 1471SOL    HW2 5313   6.308   0.513   0.375
 1472SOL     OW 5314   4.474   5.863   5.049
 1472SOL    HW1 5315   4.446   5.933   5.116
 1472SOL    HW2 5316   4.573   5.851   5.054
 1473SOL     OW 5317   6.025   4.343   3.460
 1473SOL    HW1 5318   5.929   4.369   3.446
 1473SOL    HW2 5319   6.039   4.323   3.557
 1474SOL     OW 5320   4.600   4.988   3.739
 1474SOL    HW1 5321   4.578   5.042   3.657
 1474SOL    HW2 5322   4.518   4.939   3.769
 1475SOL     OW 5323   6.739   0.744   3.226
 1475SOL    HW1 5324   6.669   0.686   3.268
 1475SOL    HW2 5325   6.718   0.840   3.245
 1476SOL     OW 5326   6.108   2.052   1.513
 1476SOL    HW1 5327   6.094   1.980   1.580
 1476SOL    HW2 5328   6.049   2.036   1.434
 1477SOL     OW 5329   3.089   6.431   3.137
 1477SOL    HW1 5330   3.015   6.407   3.200
 1477SOL    HW2 5331   3.156   6.487   3.185
 1478SOL     OW 5332   6.782   4.794   2.057
 1478SOL    HW1 5333   6.702   4.827   2.007
 1478SOL    HW2 5334   6.826   4.871   2.105
 1479SOL     OW 5335   1.068   5.350   1.025
 1479SOL    HW1 5336   1.065   5.286   1.101
 1479SOL    HW2 5337   0.998   5.421   1.039
 1480SOL     OW 5338   2.428   1.011   0.106
 1480SOL    HW1 5339   2.474   0.941   0.161
 1480SOL    HW2 5340   2.414   1.093   0.161
 1481SOL     OW 5341   6.928   2.513   5.873
 1481SOL    HW1 5342   7.007   2.451   5.872
 1481SOL    HW2 5343   6.871   2.493   5.952
 1482SOL     OW 5344   5.704   1.034   6.228
 1482SOL    HW1 5345   5.760   1.112   6.256
 1482SOL    HW2 5346   5.635   1.015   6.297
 1483SOL     OW 5347   6.136   2.767   6.522
 1483SOL    HW1 5348   6.120   2.735   6.616
 1483SOL    HW2 5349   6.144   2.688   6.461
 1484SOL     OW 5350   6.845   6.662   3.144
 1484SOL    HW1 5351   6.898   6.611   3.076
 1484SOL    HW2 5352   6.849   6.759   3.122
 1485SOL     OW 5353   5.788   2.947   4.198
 1485SOL    HW1 5354   5.703   2.999   4.203
 1485SOL    HW2 5355   5.769   2.849   4.203
 1486SOL     OW 5356   4.826   2.365   1.873
 1486SOL    HW1 5357   4.762   2.321   1.935
 1486SOL    HW2 5358   4.802   2.461   1.860
 1487SOL     OW 5359   6.670   1.253   5.492
 1487SOL    HW1 5360   6.725   1.190   5.436
 1487SOL    HW2 5361   6.573   1.236   5.476
 1488SOL     OW 5362   4.386   2.178   2.850
 1488SOL    HW1 5363   4.332   2.201   2.768
 1488SOL    HW2 5364   4.329   2.191   2.931
 1489SOL     OW 5365   3.900   4.931   5.083
 1489SOL    HW1 5366   3.852   5.011   5.048
 1489SOL    HW2 5367   3.938   4.878   5.007
 1490SOL     OW 5368   2.129   2.655   0.730
 1490SOL    HW1 5369   2.169   2.587   0.790
 1490SOL    HW2 5370   2.046   2.692   0.772
 1491SOL     OW 5371   6.829   2.503   5.630
 1491SOL    HW1 5372   6.859   2.516   5.724
 1491SOL    HW2 5373   6.733   2.530   5.621
 1492SOL     OW 5374   5.146   2.676   1.897
 1492SOL    HW1 5375   5.153   2.717   1.806
 1492SOL    HW2 5376   5.105   2.742   1.960
 1493SOL     OW 5377   5.446   0.613   4.919
 1493SOL    HW1 5378   5.377   0.645   4.854
 1493SOL    HW2 5379   5.404   0.595   5.008
 1494SOL     OW 5380   5.025   2.134   4.152
 1494SOL    HW1 5381   4.962   2.158   4.226
 1494SOL    HW2 5382   5.017   2.202   4.079
 1495SOL     OW 5383   1.796   2.544   2.442
 1495SOL    HW1 5384   1.723   2.523   2.378
 1495SOL    HW2 5385   1.778   2.500   2.530
 1496SOL     OW 5386   0.818   1.378   3.182
 1496SOL    HW1 5387   0.863   1.379   3.271
 1496SOL    HW2 5388   0.811   1.283   3.150
 1497SOL     OW 5389   5.059   4.399   5.761
 1497SOL    HW1 5390   5.116   4.322   5.790
 1497SOL    HW2 5391   4.978   4.404   5.819
 1498SOL     OW 5392   1.728   5.825   0.189
 1498SOL    HW1 5393   1.791   5.832   0.111
 1498SOL    HW2 5394   1.663   5.751   0.171
 1499SOL     OW 5395   0.251   4.544   4.777
 1499SOL    HW1 5396   0.165   4.532   4.728
 1499SOL    HW2 5397   0.316   4.594   4.720
 1500SOL     OW 5398   3.990   6.614   5.307
 1500SOL    HW1 5399   4.012   6.710   5.290
 1500SOL    HW2 5400   3.907   6.590   5.257
 1501SOL     OW 5401   4.294   0.488   6.488
 1501SOL    HW1 5402   4.364   0.559   6.494
 1501SOL    HW2 5403   4.210   0.526   6.449
 1502SOL     OW 5404   6.608   6.422   0.227
 1502SOL    HW1 5405   6.667   6.343   0.209
 1502SOL    HW2 5406   6.632   6.462   0.315
 1503SOL     OW 5407   3.410   3.762   5.297
 1503SOL    HW1 5408   3.320   3.742   5.260
 1503SOL    HW2 5409   3.401   3.812   5.383
 1504SOL     OW 5410   2.934   6.301   4.380
 1504SOL    HW1 5411   3.018   6.355   4.385
 1504SOL    HW2 5412   2.924   6.262   4.288
 1505SOL     OW 5413   4.919   4.814   1.505
 1505SOL    HW1 5414   4.964   4.743   1.452
 1505SOL    HW2 5415   4.828   4.832   1.467
 1506SOL     OW 5416   0.702   6.262   3.052
 1506SOL    HW1 5417   0.603   6.246   3.049
 1506SOL    HW2 5418   0.720   6.360   3.047
 1507SOL     OW 5419   1.894   1.030   6.341
 1507SOL    HW1 5420   1.931   1.000   6.253
 1507SOL    HW2 5421   1.956   1.096   6.383
 1508SOL     OW 5422   4.628   6.913   0.315
 1508SOL    HW1 5423   4.536   6.881   0.338
 1508SOL    HW2 5424   4.687   6.908   0.395
 1509SOL     OW 5425   5.356   1.617   0.580
 1509SOL    HW1 5426   5.263   1.584   0.595
 1509SOL    HW2 5427   5.353   1.705   0.533
 1510SOL     OW 5428   0.082   2.176   3.672
 1510SOL    HW1 5429   0.073   2.249   3.604
 1510SOL    HW2 5430   0.174   2.136   3.667
 1511SOL     OW 5431   1.440   2.644   0.483
 1511SOL    HW1 5432   1.365   2.709   0.471
 1511SOL    HW2 5433   1.467   2.642   0.579
 1512SOL     OW 5434   5.860   0.299   2.349
 1512SOL    HW1 5435   5.835   0.361   2.423
 1512SOL    HW2 5436   5.925   0.231   2.384
 1513SOL     OW 5437   3.809   1.326   2.792
 1513SOL    HW1 5438   3.784   1.263   2.718
 1513SOL    HW2 5439   3.833   1.415   2.753
 1514SOL     OW 5440   5.365   1.613   5.893
 1514SOL    HW1 5441   5.284   1.561   5.865
 1514SOL    HW2 5442   5.380   1.688   5.828
 1515SOL     OW 5443   6.502   5.191   4.863
 1515SOL    HW1 5444   6.520   5.196   4.765
 1515SOL    HW2 5445   6.516   5.097   4.894
 1516SOL     OW 5446   0.767   1.247   1.046
 1516SOL    HW1 5447   0.759   1.174   0.978
 1516SOL    HW2 5448   0.762   1.336   1.000
 1517SOL     OW 5449   3.614   5.068   3.256
 1517SOL    HW1 5450   3.689   5.012   3.289
 1517SOL    HW2 5451   3.528   5.037   3.298
 1518SOL     OW 5452   0.937   4.725   1.557
 1518SOL    HW1 5453   0.863   4.683   1.610
 1518SOL    HW2 5454   0.958   4.668   1.478
 1519SOL     OW 5455   0.075   4.993   0.971
 1519SOL    HW1 5456   0.140   4.918   0.980
 1519SOL    HW2 5457   0.119   5.080   0.995
 1520SOL     OW 5458   1.282   2.755   2.594
 1520SOL    HW1 5459   1.339   2.673   2.603
 1520SOL    HW2 5460   1.188   2.733   2.621
 1521SOL     OW 5461   2.611   4.125   5.776
 1521SOL    HW1 5462   2.668   4.160   5.702
 1521SOL    HW2 5463   2.662   4.131   5.863
 1522SOL     OW 5464   0.768   2.622   6.665
 1522SOL    HW1 5465   0.721   2.663   6.743
 1522SOL    HW2 5466   0.807   2.534   6.692
 1523SOL     OW 5467   6.807   1.334   0.682
 1523SOL    HW1 5468   6.756   1.307   0.600
 1523SOL    HW2 5469   6.747   1.328   0.762
 1524SOL     OW 5470   6.163   0.973   2.807
 1524SOL    HW1 5471   6.158   0.877   2.832
 1524SOL    HW2 5472   6.247   0.990   2.756
 1525SOL     OW 5473   4.765   1.847   6.082
 1525SOL    HW1 5474   4.692   1.907   6.115
 1525SOL    HW2 5475   4.758   1.836   5.983
 1526SOL     OW 5476   6.767   1.748   0.817
 1526SOL    HW1 5477   6.777   1.683   0.892
 1526SOL    HW2 5478   6.827   1.827   0.833
 1527SOL     OW 5479   2.993   2.052   5.583
 1527SOL    HW1 5480   3.092   2.065   5.577
 1527SOL    HW2 5481   2.947   2.134   5.552
 1528SOL     OW 5482   5.020   6.017   3.614
 1528SOL    HW1 5483   4.968   6.002   3.698
 1528SOL    HW2 5484   4.960   6.005   3.535
 1529SOL     OW 5485   3.020   0.814   5.248
 1529SOL    HW1 5486   3.005   0.877   5.172
 1529SOL    HW2 5487   2.975   0.850   5.330
 1530SOL     OW 5488   3.252   0.045   2.303
 1530SOL    HW1 5489   3.197   7.006   2.363
 1530SOL    HW2 5490   3.192   0.091   2.238
 1531SOL     OW 5491   6.542   0.051   5.739
 1531SOL    HW1 5492   6.601   6.995   5.771
 1531SOL    HW2 5493   6.589   0.101   5.666
 1532SOL     OW 5494   3.459   2.104   5.022
 1532SOL    HW1 5495   3.364   2.113   4.991
 1532SOL    HW2 5496   3.498   2.021   4.982
 1533SOL     OW 5497   5.556   3.025   6.944
 1533SOL    HW1 5498   5.569   3.083   0.006
 1533SOL    HW2 5499   5.564   3.081   6.861
 1534SOL     OW 5500   6.877   6.845   1.663
 1534SOL    HW1 5501   6.847   6.892   1.745
 1534SOL    HW2 5502   6.920   6.758   1.687
 1535SOL     OW 5503   4.743   5.381   4.026
 1535SOL    HW1 5504   4.696   5.387   4.114
 1535SOL    HW2 5505   4.742   5.287   3.994
 1536SOL     OW 5506   3.019   5.516   3.484
 1536SOL    HW1 5507   3.101   5.491   3.433
 1536SOL    HW2 5508   3.045   5.560   3.570
 1537SOL     OW 5509   2.616   5.217   4.199
 1537SOL    HW1 5510   2.623   5.292   4.133
 1537SOL    HW2 5511   2.541   5.157   4.173
 1538SOL     OW 5512   2.887   4.965   6.712
 1538SOL    HW1 5513   2.942   4.955   6.629
 1538SOL    HW2 5514   2.791   4.946   6.691
 1539SOL     OW 5515   3.365   4.862   1.856
 1539SOL    HW1 5516   3.439   4.798   1.875
 1539SOL    HW2 5517   3.380   4.907   1.768
 1540SOL     OW 5518   6.908   0.038   5.324
 1540SOL    HW1 5519   6.990   0.077   5.367
 1540SOL    HW2 5520   6.935   6.983   5.263
 1541SOL     OW 5521   4.746   2.216   0.669
 1541SOL    HW1 5522   4.803   2.294   0.694
 1541SOL    HW2 5523   4.651   2.237   0.688
 1542SOL     OW 5524   0.948   6.127   1.296
 1542SOL    HW1 5525   0.875   6.145   1.230
 1542SOL    HW2 5526   1.035   6.116   1.248
 1543SOL     OW 5527   3.426   4.094   4.392
 1543SOL    HW1 5528   3.421   4.147   4.476
 1543SOL    HW2 5529   3.432   3.997   4.415
 1544SOL     OW 5530   3.598   3.817   2.807
 1544SOL    HW1 5531   3.639   3.907   2.825
 1544SOL    HW2 5532   3.519   3.804   2.867
 1545SOL     OW 5533   6.898   0.508   4.455
 1545SOL    HW1 5534   6.949   0.426   4.428
 1545SOL    HW2 5535   6.810   0.509   4.407
 1546SOL     OW 5536   0.207   6.536   5.995
 1546SOL    HW1 5537   0.301   6.545   6.029
 1546SOL    HW2 5538   0.206   6.475   5.915
 1547SOL     OW 5539   3.455   6.092   6.814
 1547SOL    HW1 5540   3.529   6.063   6.753
 1547SOL    HW2 5541   3.487   6.168   6.871
 1548SOL     OW 5542   6.330   4.352   3.835
 1548SOL    HW1 5543   6.405   4.297   3.873
 1548SOL    HW2 5544   6.368   4.437   3.797
 1549SOL     OW 5545   6.356   1.961   1.472
 1549SOL    HW1 5546   6.274   2.016   1.487
 1549SOL    HW2 5547   6.367   1.896   1.547
 1550SOL     OW 5548   2.646   6.069   3.301
 1550SOL    HW1 5549   2.629   6.124   3.220
 1550SOL    HW2 5550   2.645   5.972   3.277
 1551SOL     OW 5551   0.800   3.029   1.093
 1551SOL    HW1 5552   0.727   3.048   1.027
 1551SOL    HW2 5553   0.787   3.086   1.174
 1552SOL     OW 5554   1.102   6.875   0.493
 1552SOL    HW1 5555   1.184   6.856   0.547
 1552SOL    HW2 5556   1.121   6.950   0.429
 1553SOL     OW 5557   5.740   1.855   6.246
 1553SOL    HW1 5558   5.764   1.760   6.228
 1553SOL    HW2 5559   5.748   1.909   6.162
 1554SOL     OW 5560   3.100   1.682   0.991
 1554SOL    HW1 5561   3.016   1.692   1.044
 1554SOL    HW2 5562   3.129   1.587   0.991
 1555SOL     OW 5563   4.070   1.098   6.209
 1555SOL    HW1 5564   3.977   1.135   6.204
 1555SOL    HW2 5565   4.128   1.144   6.143
 1556SOL     OW 5566   3.227   1.955   6.942
 1556SOL    HW1 5567   3.288   2.027   6.977
 1556SOL    HW2 5568   3.143   1.955   6.995
 1557SOL     OW 5569   2.008   2.991   0.255
 1557SOL    HW1 5570   2.019   3.082   0.293
 1557SOL    HW2 5571   2.052   2.987   0.165
 1558SOL     OW 5572   5.463   2.994   5.773
 1558SOL    HW1 5573   5.465   2.943   5.859
 1558SOL    HW2 5574   5.552   3.038   5.758
 1559SOL     OW 5575   2.542   4.966   3.867
 1559SOL    HW1 5576   2.465   4.905   3.848
 1559SOL    HW2 5577   2.627   4.922   3.837
 1560SOL     OW 5578   3.918   1.758   0.814
 1560SOL    HW1 5579   3.988   1.764   0.886
 1560SOL    HW2 5580   3.931   1.833   0.749
 1561SOL     OW 5581   6.106   6.031   1.230
 1561SOL    HW1 5582   6.179   5.975   1.271
 1561SOL    HW2 5583   6.144   6.119   1.201
 1562SOL     OW 5584   3.315   0.393   2.340
 1562SOL    HW1 5585   3.237   0.394   2.403
 1562SOL    HW2 5586   3.323   0.481   2.295
 1563SOL     OW 5587   2.801   2.306   3.942
 1563SOL    HW1 5588   2.794   2.315   4.042
 1563SOL    HW2 5589   2.894   2.280   3.918
 1564SOL     OW 5590   0.941   1.219   2.952
 1564SOL    HW1 5591   0.880   1.297   2.944
 1564SOL    HW2 5592   0.887   1.137   2.972
 1565SOL     OW 5593   4.308   1.165   4.958
 1565SOL    HW1 5594   4.396   1.205   4.929
 1565SOL    HW2 5595   4.249   1.154   4.879
 1566SOL     OW 5596   5.804   5.021   3.266
 1566SOL    HW1 5597   5.807   4.971   3.179
 1566SOL    HW2 5598   5.808   4.956   3.342
 1567SOL     OW 5599   5.493   1.076   4.686
 1567SOL    HW1 5600   5.458   1.169   4.679
 1567SOL    HW2 5601   5.437   1.015   4.630
 1568SOL     OW 5602   2.848   5.009   1.232
 1568SOL    HW1 5603   2.898   5.024   1.317
 1568SOL    HW2 5604   2.749   5.011   1.251
 1569SOL     OW 5605   3.040   1.127   3.075
 1569SOL    HW1 5606   3.056   1.226   3.073
 1569SOL    HW2 5607   3.100   1.085   3.143
 1570SOL     OW 5608   3.219   5.742   6.218
 1570SOL    HW1 5609   3.213   5.819   6.281
 1570SOL    HW2 5610   3.242   5.659   6.269
 1571SOL     OW 5611   0.461   2.922   3.749
 1571SOL    HW1 5612   0.532   2.898   3.683
 1571SOL    HW2 5613   0.492   2.998   3.805
 1572SOL     OW 5614   2.702   5.237   2.600
 1572SOL    HW1 5615   2.637   5.214   2.528
 1572SOL    HW2 5616   2.702   5.165   2.669
 1573SOL     OW 5617   5.931   6.012   0.045
 1573SOL    HW1 5618   5.974   6.093   0.007
 1573SOL    HW2 5619   5.855   6.038   0.104
 1574SOL     OW 5620   6.973   3.724   3.487
 1574SOL    HW1 5621   6.893   3.783   3.476
 1574SOL    HW2 5622   6.984   3.668   3.405
 1575SOL     OW 5623   0.020   2.127   0.167
 1575SOL    HW1 5624   6.972   2.170   0.228
 1575SOL    HW2 5625   0.103   2.106   0.218
 1576SOL     OW 5626   0.939   6.713   1.494
 1576SOL    HW1 5627   1.036   6.708   1.472
 1576SOL    HW2 5628   0.892   6.631   1.461
 1577SOL     OW 5629   3.830   5.891   5.512
 1577SOL    HW1 5630   3.742   5.910   5.555
 1577SOL    HW2 5631   3.864   5.803   5.546
 1578SOL     OW 5632   4.735   0.733   1.038
 1578SOL    HW1 5633   4.700   0.668   1.106
 1578SOL    HW2 5634   4.771   0.814   1.086
 1579SOL     OW 5635   2.091   2.639   1.782
 1579SOL    HW1 5636   2.166   2.581   1.813
 1579SOL    HW2 5637   2.124   2.703   1.712
 1580SOL     OW 5638   3.224   3.398   2.685
 1580SOL    HW1 5639   3.276   3.338   2.746
 1580SOL    HW2 5640   3.206   3.485   2.731
 1581SOL     OW 5641   6.145   4.812   5.777
 1581SOL    HW1 5642   6.049   4.838   5.785
 1581SOL    HW2 5643   6.167   4.795   5.681
 1582SOL     OW 5644   4.538   6.235   4.966
 1582SOL    HW1 5645   4.580   6.145   4.956
 1582SOL    HW2 5646   4.446   6.233   4.927
 1583SOL     OW 5647   1.136   5.209   4.871
 1583SOL    HW1 5648   1.231   5.180   4.889
 1583SOL    HW2 5649   1.135   5.272   4.794
 1584SOL     OW 5650   0.122   4.774   0.247
 1584SOL    HW1 5651   0.085   4.691   0.205
 1584SOL    HW2 5652   0.200   4.750   0.304
 1585SOL     OW 5653   4.053   6.411   3.419
 1585SOL    HW1 5654   4.040   6.458   3.507
 1585SOL    HW2 5655   4.065   6.313   3.435
 1586SOL     OW 5656   3.416   6.015   3.701
 1586SOL    HW1 5657   3.417   6.081   3.625
 1586SOL    HW2 5658   3.394   6.062   3.786
 1587SOL     OW 5659   2.889   6.247   6.368
 1587SOL    HW1 5660   2.944   6.212   6.445
 1587SOL    HW2 5661   2.947   6.304   6.310
 1588SOL     OW 5662   6.771   1.640   3.505
 1588SOL    HW1 5663   6.784   1.608   3.599
 1588SOL    HW2 5664   6.695   1.590   3.463
 1589SOL     OW 5665   6.468   4.518   4.143
 1589SOL    HW1 5666   6.554   4.567   4.158
 1589SOL    HW2 5667   6.477   4.424   4.176
 1590SOL     OW 5668   6.203   2.695   3.768
 1590SOL    HW1 5669   6.259   2.659   3.694
 1590SOL    HW2 5670   6.246   2.776   3.806
 1591SOL     OW 5671   1.672   6.273   1.525
 1591SOL    HW1 5672   1.688   6.325   1.441
 1591SOL    HW2 5673   1.574   6.256   1.535
 1592SOL     OW 5674   6.999   4.140   6.076
 1592SOL    HW1 5675   0.011   4.090   5.995
 1592SOL    HW2 5676   6.904   4.167   6.065
 1593SOL     OW 5677   3.224   0.325   6.929
 1593SOL    HW1 5678   3.237   0.309   0.008
 1593SOL    HW2 5679   3.169   0.407   6.915
 1594SOL     OW 5680   5.824   0.280   2.634
 1594SOL    HW1 5681   5.902   0.310   2.689
 1594SOL    HW2 5682   5.770   0.359   2.606
 1595SOL     OW 5683   6.993   4.032   0.455
 1595SOL    HW1 5684   6.990   4.128   0.483
 1595SOL    HW2 5685   0.062   4.012   0.412
 1596SOL     OW 5686   4.471   4.687   3.400
 1596SOL    HW1 5687   4.470   4.597   3.445
 1596SOL    HW2 5688   4.389   4.738   3.427
 1597SOL     OW 5689   3.648   6.069   6.522
 1597SOL    HW1 5690   3.689   5.984   6.555
 1597SOL    HW2 5691   3.631   6.062   6.424
 1598SOL     OW 5692   1.610   4.487   0.026
 1598SOL    HW1 5693   1.565   4.575   0.045
 1598SOL    HW2 5694   1.598   4.426   0.104
 1599SOL     OW 5695   4.701   6.065   3.113
 1599SOL    HW1 5696   4.604   6.042   3.127
 1599SOL    HW2 5697   4.718   6.158   3.145
 1600SOL     OW 5698   4.014   0.474   2.138
 1600SOL    HW1 5699   3.996   0.545   2.071
 1600SOL    HW2 5700   4.092   0.419   2.109
 1601SOL     OW 5701   6.432   0.398   5.312
 1601SOL    HW1 5702   6.421   0.361   5.405
 1601SOL    HW2 5703   6.387   0.336   5.247
 1602SOL     OW 5704   3.513   5.774   3.747
 1602SOL    HW1 5705   3.608   5.792   3.773
 1602SOL    HW2 5706   3.472   5.858   3.711
 1603SOL     OW 5707   3.408   5.598   3.195
 1603SOL    HW1 5708   3.443   5.692   3.189
 1603SOL    HW2 5709   3.429   5.550   3.109
 1604SOL     OW 5710   4.168   5.330   1.795
 1604SOL    HW1 5711   4.096   5.398   1.807
 1604SOL    HW2 5712   4.252   5.363   1.838
 1605SOL     OW 5713   4.649   5.202   0.703
 1605SOL    HW1 5714   4.666   5.112   0.743
 1605SOL    HW2 5715   4.608   5.262   0.772
 1606SOL     OW 5716   3.599   5.788   5.046
 1606SOL    HW1 5717   3.576   5.844   4.966
 1606SOL    HW2 5718   3.570   5.835   5.129
 1607SOL     OW 5719   4.740   5.751   2.855
 1607SOL    HW1 5720   4.739   5.654   2.879
 1607SOL    HW2 5721   4.752   5.806   2.937
 1608SOL     OW 5722   5.279   1.605   3.389
 1608SOL    HW1 5723   5.245   1.699   3.402
 1608SOL    HW2 5724   5.369   1.608   3.346
 1609SOL     OW 5725   2.380   6.768   1.297
 1609SOL    HW1 5726   2.392   6.833   1.221
 1609SOL    HW2 5727   2.403   6.676   1.266
 1610SOL     OW 5728   5.589   6.726   0.830
 1610SOL    HW1 5729   5.516   6.772   0.879
 1610SOL    HW2 5730   5.587   6.754   0.734
 1611SOL     OW 5731   1.259   4.453   1.016
 1611SOL    HW1 5732   1.292   4.542   1.048
 1611SOL    HW2 5733   1.159   4.456   1.006
 1612SOL     OW 5734   3.809   0.417   1.844
 1612SOL    HW1 5735   3.814   0.499   1.787
 1612SOL    HW2 5736   3.824   0.442   1.940
 1613SOL     OW 5737   6.765   5.643   2.499
 1613SOL    HW1 5738   6.744   5.741   2.508
 1613SOL    HW2 5739   6.751   5.598   2.587
 1614SOL     OW 5740   6.489   1.651   6.230
 1614SOL    HW1 5741   6.472   1.603   6.316
 1614SOL    HW2 5742   6.555   1.601   6.176
 1615SOL     OW 5743   0.643   3.936   6.329
 1615SOL    HW1 5744   0.616   3.842   6.351
 1615SOL    HW2 5745   0.743   3.941   6.324
 1616SOL     OW 5746   1.743   1.257   4.686
 1616SOL    HW1 5747   1.724   1.207   4.601
 1616SOL    HW2 5748   1.750   1.355   4.666
 1617SOL     OW 5749   6.403   6.551   2.999
 1617SOL    HW1 5750   6.320   6.606   3.011
 1617SOL    HW2 5751   6.483   6.604   3.030
 1618SOL     OW 5752   3.087   5.614   3.175
 1618SOL    HW1 5753   3.144   5.558   3.236
 1618SOL    HW2 5754   3.146   5.678   3.125
 1619SOL     OW 5755   1.365   4.175   0.244
 1619SOL    HW1 5756   1.334   4.216   0.158
 1619SOL    HW2 5757   1.299   4.106   0.273
 1620SOL     OW 5758   3.357   5.360   5.312
 1620SOL    HW1 5759   3.291   5.327   5.380
 1620SOL    HW2 5760   3.450   5.347   5.347
 1621SOL     OW 5761   5.487   5.990   0.579
 1621SOL    HW1 5762   5.398   5.958   0.613
 1621SOL    HW2 5763   5.559   5.953   0.637
 1622SOL     OW 5764   6.621   4.733   4.468
 1622SOL    HW1 5765   6.693   4.789   4.510
 1622SOL    HW2 5766   6.543   4.727   4.530
 1623SOL     OW 5767   0.200   2.086   3.371
 1623SOL    HW1 5768   0.143   2.168   3.368
 1623SOL    HW2 5769   0.250   2.083   3.458
 1624SOL     OW 5770   3.969   2.182   0.889
 1624SOL    HW1 5771   3.965   2.176   0.988
 1624SOL    HW2 5772   3.968   2.090   0.850
 1625SOL     OW 5773   0.595   5.845   1.217
 1625SOL    HW1 5774   0.694   5.838   1.222
 1625SOL    HW2 5775   0.569   5.897   1.135
 1626SOL     OW 5776   2.845   2.263   1.500
 1626SOL    HW1 5777   2.794   2.349   1.506
 1626SOL    HW2 5778   2.844   2.218   1.589
 1627SOL     OW 5779   3.866   1.785   5.329
 1627SOL    HW1 5780   3.881   1.767   5.426
 1627SOL    HW2 5781   3.942   1.839   5.293
 1628SOL     OW 5782   5.353   6.429   0.979
 1628SOL    HW1 5783   5.433   6.447   1.036
 1628SOL    HW2 5784   5.373   6.451   0.884
 1629SOL     OW 5785   1.922   0.600   3.621
 1629SOL    HW1 5786   1.841   0.547   3.648
 1629SOL    HW2 5787   1.894   0.676   3.563
 1630SOL     OW 5788   0.342   3.968   6.856
 1630SOL    HW1 5789   0.304   3.898   6.916
 1630SOL    HW2 5790   0.406   3.927   6.792
 1631SOL     OW 5791   6.488   3.841   0.033
 1631SOL    HW1 5792   6.487   3.758   6.995
 1631SOL    HW2 5793   6.476   3.815   0.129
 1632SOL     OW 5794   6.371   5.490   2.511
 1632SOL    HW1 5795   6.430   5.419   2.549
 1632SOL    HW2 5796   6.397   5.508   2.416
 1633SOL     OW 5797   5.650   3.877   4.410
 1633SOL    HW1 5798   5.718   3.849   4.477
 1633SOL    HW2 5799   5.641   3.977   4.412
 1634SOL     OW 5800   6.811   1.822   4.617
 1634SOL    HW1 5801   6.779   1.822   4.712
 1634SOL    HW2 5802   6.891   1.762   4.610
 1635SOL     OW 5803   3.967   6.519   2.729
 1635SOL    HW1 5804   3.896   6.589   2.731
 1635SOL    HW2 5805   3.935   6.440   2.676
 1636SOL     OW 5806   6.356   6.113   1.590
 1636SOL    HW1 5807   6.417   6.138   1.665
 1636SOL    HW2 5808   6.279   6.177   1.587
 1637SOL     OW 5809   0.758   0.228   1.980
 1637SOL    HW1 5810   0.731   0.316   2.020
 1637SOL    HW2 5811   0.703   0.211   1.898
 1638SOL     OW 5812   6.218   2.499   1.845
 1638SOL    HW1 5813   6.296   2.438   1.849
 1638SOL    HW2 5814   6.137   2.448   1.816
 1639SOL     OW 5815   5.569   2.383   2.689
 1639SOL    HW1 5816   5.482   2.374   2.640
 1639SOL    HW2 5817   5.644   2.364   2.627
 1640SOL     OW 5818   6.998   0.330   7.013
 1640SOL    HW1 5819   0.007   0.416   0.037
 1640SOL    HW2 5820   6.940   0.278   0.058
 1641SOL     OW 5821   6.249   2.510   3.084
 1641SOL    HW1 5822   6.195   2.588   3.053
 1641SOL    HW2 5823   6.266   2.447   3.008
 1642SOL     OW 5824   6.877   2.794   6.311
 1642SOL    HW1 5825   6.823   2.841   6.241
 1642SOL    HW2 5826   6.959   2.755   6.270
 1643SOL     OW 5827   2.384   5.883   3.978
 1643SOL    HW1 5828   2.461   5.909   3.919
 1643SOL    HW2 5829   2.303   5.935   3.951
 1644SOL     OW 5830   5.804   2.628   1.666
 1644SOL    HW1 5831   5.799   2.530   1.686
 1644SOL    HW2 5832   5.744   2.650   1.590
 1645SOL     OW 5833   2.145   0.785   5.505
 1645SOL    HW1 5834   2.191   0.869   5.476
 1645SOL    HW2 5835   2.103   0.741   5.425
 1646SOL     OW 5836   1.326   4.598   0.711
 1646SOL    HW1 5837   1.262   4.673   0.733
 1646SOL    HW2 5838   1.305   4.519   0.768
 1647SOL     OW 5839   5.344   2.563   3.892
 1647SOL    HW1 5840   5.399   2.480   3.903
 1647SOL    HW2 5841   5.289   2.555   3.809
 1648SOL     OW 5842   5.388   6.158   1.226
 1648SOL    HW1 5843   5.455   6.179   1.155
 1648SOL    HW2 5844   5.397   6.225   1.300
 1649SOL     OW 5845   3.593   0.574   3.267
 1649SOL    HW1 5846   3.521   0.603   3.330
 1649SOL    HW2 5847   3.632   0.487   3.298
 1650SOL     OW 5848   2.899   4.039   6.905
 1650SOL    HW1 5849   2.955   4.003   6.980
 1650SOL    HW2 5850   2.921   3.990   6.821
 1651SOL     OW 5851   0.888   2.753   3.453
 1651SOL    HW1 5852   0.960   2.685   3.447
 1651SOL    HW2 5853   0.828   2.745   3.373
 1652SOL     OW 5854   0.208   3.466   1.396
 1652SOL    HW1 5855   0.164   3.532   1.337
 1652SOL    HW2 5856   0.247   3.513   1.476
 1653SOL     OW 5857   0.244   4.516   3.171
 1653SOL    HW1 5858   0.222   4.594   3.230
 1653SOL    HW2 5859   0.159   4.468   3.149
 1654SOL     OW 5860   6.628   2.768   2.635
 1654SOL    HW1 5861   6.666   2.820   2.558
 1654SOL    HW2 5862   6.603   2.830   2.709
 1655SOL     OW 5863   6.864   0.275   5.158
 1655SOL    HW1 5864   6.795   0.237   5.097
 1655SOL    HW2 5865   6.894   0.204   5.222
 1656SOL     OW 5866   1.972   4.326   3.073
 1656SOL    HW1 5867   1.964   4.328   2.974
 1656SOL    HW2 5868   2.067   4.307   3.099
 1657SOL     OW 5869   0.988   0.058   5.591
 1657SOL    HW1 5870   0.934   0.138   5.615
 1657SOL    HW2 5871   1.077   0.063   5.635
 1658SOL     OW 5872   5.884   6.907   6.304
 1658SOL    HW1 5873   5.907   6.926   6.209
 1658SOL    HW2 5874   5.963   6.926   6.363
 1659SOL     OW 5875   4.218   6.674   6.379
 1659SOL    HW1 5876   4.226   6.762   6.332
 1659SOL    HW2 5877   4.306   6.649   6.418
 1660SOL     OW 5878   2.447   0.606   2.327
 1660SOL    HW1 5879   2.545   0.626   2.333
 1660SOL    HW2 5880   2.432   0.536   2.256
 1661SOL     OW 5881   4.448   4.562   2.684
 1661SOL    HW1 5882   4.530   4.617   2.701
 1661SOL    HW2 5883   4.469   4.466   2.702
 1662SOL     OW 5884   0.066   1.711   4.561
 1662SOL    HW1 5885   0.089   1.622   4.603
 1662SOL    HW2 5886   0.044   1.697   4.464
 1663SOL     OW 5887   4.749   4.847   0.091
 1663SOL    HW1 5888   4.674   4.796   0.133
 1663SOL    HW2 5889   4.766   4.811   7.018
 1664SOL     OW 5890   1.477   0.064   5.674
 1664SOL    HW1 5891   1.422   0.144   5.699
 1664SOL    HW2 5892   1.436   0.019   5.594
 1665SOL     OW 5893   2.695   4.490   0.149
 1665SOL    HW1 5894   2.662   4.553   0.079
 1665SOL    HW2 5895   2.680   4.530   0.239
 1666SOL     OW 5896   5.933   6.587   6.024
 1666SOL    HW1 5897   5.944   6.651   5.948
 1666SOL    HW2 5898   5.856   6.525   6.005
 1667SOL     OW 5899   0.323   6.185   1.471
 1667SOL    HW1 5900   0.345   6.220   1.562
 1667SOL    HW2 5901   0.400   6.202   1.410
 1668SOL     OW 5902   5.563   4.415   2.910
 1668SOL    HW1 5903   5.660   4.389   2.913
 1668SOL    HW2 5904   5.531   4.407   2.816
 1669SOL     OW 5905   6.131   3.817   5.571
 1669SOL    HW1 5906   6.219   3.824   5.523
 1669SOL    HW2 5907   6.057   3.841   5.508
 1670SOL     OW 5908   2.347   4.550   6.684
 1670SOL    HW1 5909   2.257   4.520   6.717
 1670SOL    HW2 5910   2.414   4.478   6.700
 1671SOL     OW 5911   5.999   2.545   0.935
 1671SOL    HW1 5912   6.054   2.464   0.914
 1671SOL    HW2 5913   5.913   2.542   0.884
 1672SOL     OW 5914   0.349   3.571   0.132
 1672SOL    HW1 5915   0.281   3.643   0.118
 1672SOL    HW2 5916   0.434   3.611   0.165
 1673SOL     OW 5917   1.742   0.941   4.574
 1673SOL    HW1 5918   1.772   1.027   4.532
 1673SOL    HW2 5919   1.809   0.870   4.555
 1674SOL     OW 5920   4.556   2.152   2.421
 1674SOL    HW1 5921   4.561   2.062   2.466
 1674SOL    HW2 5922   4.464   2.190   2.432
 1675SOL     OW 5923   5.478   0.694   1.095
 1675SOL    HW1 5924   5.455   0.750   1.174
 1675SOL    HW2 5925   5.411   0.709   1.022
 1676SOL     OW 5926   1.042   2.040   2.173
 1676SOL    HW1 5927   0.953   2.034   2.128
 1676SOL    HW2 5928   1.029   2.071   2.268
 1677SOL     OW 5929   3.971   3.098   3.552
 1677SOL    HW1 5930   3.965   3.089   3.651
 1677SOL    HW2 5931   3.919   3.025   3.508
 1678SOL     OW 5932   0.854   6.865   1.201
 1678SOL    HW1 5933   0.896   6.867   1.292
 1678SOL    HW2 5934   0.803   6.950   1.187
 1679SOL     OW 5935   0.886   2.193   6.529
 1679SOL    HW1 5936   0.948   2.173   6.453
 1679SOL    HW2 5937   0.822   2.117   6.540
 1680SOL     OW 5938   5.187   2.847   3.967
 1680SOL    HW1 5939   5.205   2.754   4.000
 1680SOL    HW2 5940   5.241   2.913   4.020
 1681SOL     OW 5941   2.486   6.163   4.573
 1681SOL    HW1 5942   2.459   6.185   4.666
 1681SOL    HW2 5943   2.466   6.067   4.553
 1682SOL     OW 5944   2.951   0.357   4.549
 1682SOL    HW1 5945   2.922   0.443   4.507
 1682SOL    HW2 5946   3.014   0.310   4.488
 1683SOL     OW 5947   6.071   4.946   2.916
 1683SOL    HW1 5948   5.974   4.923   2.928
 1683SOL    HW2 5949   6.117   4.945   3.004
 1684SOL     OW 5950   2.456   4.537   1.924
 1684SOL    HW1 5951   2.530   4.583   1.874
 1684SOL    HW2 5952   2.466   4.555   2.022
 1685SOL     OW 5953   0.022   1.537   5.352
 1685SOL    HW1 5954   0.028   1.628   5.393
 1685SOL    HW2 5955   6.949   1.500   5.369
 1686SOL     OW 5956   4.284   5.939   2.899
 1686SOL    HW1 5957   4.219   5.863   2.903
 1686SOL    HW2 5958   4.278   5.984   2.810
 1687SOL     OW 5959   5.454   4.087   1.736
 1687SOL    HW1 5960   5.366   4.132   1.750
 1687SOL    HW2 5961   5.501   4.077   1.824
 1688SOL     OW 5962   1.198   0.918   2.674
 1688SOL    HW1 5963   1.220   0.926   2.576
 1688SOL    HW2 5964   1.212   1.006   2.718
 1689SOL     OW 5965   4.441   0.606   0.808
 1689SOL    HW1 5966   4.355   0.635   0.850
 1689SOL    HW2 5967   4.517   0.657   0.849
 1690SOL     OW 5968   0.379   4.255   3.607
 1690SOL    HW1 5969   0.359   4.335   3.664
 1690SOL    HW2 5970   0.469   4.266   3.564
 1691SOL     OW 5971   4.662   2.816   5.232
 1691SOL    HW1 5972   4.627   2.908   5.251
 1691SOL    HW2 5973   4.629   2.753   5.302
 1692SOL     OW 5974   5.106   5.045   1.515
 1692SOL    HW1 5975   5.057   5.078   1.597
 1692SOL    HW2 5976   5.063   4.959   1.484
 1693SOL     OW 5977   5.706   6.995   5.039
 1693SOL    HW1 5978   5.747   6.993   4.947
 1693SOL    HW2 5979   5.627   0.038   5.039
 1694SOL     OW 5980   4.956   1.839   5.736
 1694SOL    HW1 5981   5.005   1.753   5.752
 1694SOL    HW2 5982   5.006   1.914   5.779
 1695SOL     OW 5983   4.439   0.935   6.786
 1695SOL    HW1 5984   4.396   0.992   6.856
 1695SOL    HW2 5985   4.498   0.992   6.729
 1696SOL     OW 5986   5.251   6.310   0.340
 1696SOL    HW1 5987   5.326   6.305   0.407
 1696SOL    HW2 5988   5.211   6.219   0.329
 1697SOL     OW 5989   5.194   2.005   2.307
 1697SOL    HW1 5990   5.170   2.069   2.381
 1697SOL    HW2 5991   5.227   2.056   2.228
 1698SOL     OW 5992   3.909   0.717   1.708
 1698SOL    HW1 5993   3.979   0.787   1.689
 1698SOL    HW2 5994   3.848   0.709   1.629
 1699SOL     OW 5995   2.565   6.573   0.267
 1699SOL    HW1 5996   2.573   6.590   0.169
 1699SOL    HW2 5997   2.656   6.562   0.307
 1700SOL     OW 5998   6.225   2.367   2.807
 1700SOL    HW1 5999   6.239   2.466   2.797
 1700SOL    HW2 6000   6.129   2.349   2.829
 1701SOL     OW 6001   0.018   5.688   4.635
 1701SOL    HW1 6002   0.112   5.692   4.669
 1701SOL    HW2 6003   6.996   5.780   4.637
 1702SOL     OW 6004   2.049   2.301   6.219
 1702SOL    HW1 6005   2.097   2.306   6.132
 1702SOL    HW2 6006   1.977   2.371   6.221
 1703SOL     OW 6007   2.357   1.831   1.161
 1703SOL    HW1 6008   2.283   1.827   1.228
 1703SOL    HW2 6009   2.437   1.875   1.202
 1704SOL     OW 6010   2.994   2.191   0.731
 1704SOL    HW1 6011   3.022   2.140   0.812
 1704SOL    HW2 6012   3.066   2.182   0.661
 1705SOL     OW 6013   3.861   2.190   0.519
 1705SOL    HW1 6014   3.912   2.271   0.549
 1705SOL    HW2 6015   3.769   2.218   0.490
 1706SOL     OW 6016   5.180   2.158   6.960
 1706SOL    HW1 6017   5.089   2.195   6.981
 1706SOL    HW2 6018   5.250   2.215   7.003
 1707SOL     OW 6019   4.579   1.879   2.543
 1707SOL    HW1 6020   4.552   1.843   2.632
 1707SOL    HW2 6021   4.644   1.817   2.500
 1708SOL     OW 6022   3.251   4.906   2.092
 1708SOL    HW1 6023   3.300   4.878   2.009
 1708SOL    HW2 6024   3.289   4.859   2.171
 1709SOL     OW 6025   4.827   5.191   1.035
 1709SOL    HW1 6026   4.815   5.107   0.982
 1709SOL    HW2 6027   4.818   5.271   0.974
 1710SOL     OW 6028   5.078   5.247   3.149
 1710SOL    HW1 6029   5.104   5.343   3.154
 1710SOL    HW2 6030   5.120   5.205   3.069
 1711SOL     OW 6031   3.877   4.493   6.841
 1711SOL    HW1 6032   3.812   4.428   6.880
 1711SOL    HW2 6033   3.970   4.470   6.869
 1712SOL     OW 6034   0.396   1.332   2.665
 1712SOL    HW1 6035   0.390   1.282   2.579
 1712SOL    HW2 6036   0.424   1.426   2.648
 1713SOL     OW 6037   4.278   0.784   3.303
 1713SOL    HW1 6038   4.204   0.846   3.278
 1713SOL    HW2 6039   4.351   0.789   3.234
 1714SOL     OW 6040   3.754   3.414   0.414
 1714SOL    HW1 6041   3.768   3.335   0.354
 1714SOL    HW2 6042   3.755   3.384   0.509
 1715SOL     OW 6043   1.939   6.757   2.684
 1715SOL    HW1 6044   1.999   6.678   2.685
 1715SOL    HW2 6045   1.938   6.799   2.775
 1716SOL     OW 6046   4.966   1.468   3.661
 1716SOL    HW1 6047   4.949   1.469   3.562
 1716SOL    HW2 6048   4.973   1.374   3.693
 1717SOL     OW 6049   3.235   6.554   5.210
 1717SOL    HW1 6050   3.267   6.484   5.146
 1717SOL    HW2 6051   3.136   6.563   5.204
 1718SOL     OW 6052   1.297   2.909   1.011
 1718SOL    HW1 6053   1.254   2.954   1.088
 1718SOL    HW2 6054   1.321   2.815   1.036
 1719SOL     OW 6055   1.289   5.233   2.647
 1719SOL    HW1 6056   1.261   5.328   2.657
 1719SOL    HW2 6057   1.353   5.208   2.719
 1720SOL     OW 6058   0.776   2.996   6.100
 1720SOL    HW1 6059   0.797   2.899   6.109
 1720SOL    HW2 6060   0.693   3.008   6.046
 1721SOL     OW 6061   1.223   1.989   0.772
 1721SOL    HW1 6062   1.124   1.999   0.780
 1721SOL    HW2 6063   1.257   2.054   0.704
 1722SOL     OW 6064   2.361   2.601   3.668
 1722SOL    HW1 6065   2.403   2.584   3.757
 1722SOL    HW2 6066   2.377   2.522   3.608
 1723SOL     OW 6067   5.689   3.636   0.632
 1723SOL    HW1 6068   5.653   3.573   0.563
 1723SOL    HW2 6069   5.632   3.633   0.714
 1724SOL     OW 6070   5.548   2.224   1.136
 1724SOL    HW1 6071   5.460   2.177   1.125
 1724SOL    HW2 6072   5.541   2.292   1.209
 1725SOL     OW 6073   1.535   6.085   6.745
 1725SOL    HW1 6074   1.483   6.129   6.672
 1725SOL    HW2 6075   1.475   6.069   6.824
 1726SOL     OW 6076   5.525   4.525   3.174
 1726SOL    HW1 6077   5.483   4.452   3.228
 1726SOL    HW2 6078   5.546   4.492   3.083
 1727SOL     OW 6079   3.007   3.874   3.411
 1727SOL    HW1 6080   3.088   3.865   3.353
 1727SOL    HW2 6081   2.931   3.910   3.357
 1728SOL     OW 6082   5.065   2.482   4.166
 1728SOL    HW1 6083   5.055   2.581   4.163
 1728SOL    HW2 6084   5.025   2.441   4.084
 1729SOL     OW 6085   1.195   3.026   2.517
 1729SOL    HW1 6086   1.242   2.945   2.552
 1729SOL    HW2 6087   1.216   3.105   2.575
 1730SOL     OW 6088   2.513   5.138   4.435
 1730SOL    HW1 6089   2.564   5.059   4.467
 1730SOL    HW2 6090   2.559   5.178   4.355
 1731SOL     OW 6091   6.266   4.897   3.700
 1731SOL    HW1 6092   6.239   4.839   3.777
 1731SOL    HW2 6093   6.295   4.986   3.734
 1732SOL     OW 6094   2.505   3.426   5.688
 1732SOL    HW1 6095   2.585   3.396   5.636
 1732SOL    HW2 6096   2.422   3.388   5.647
 1733SOL     OW 6097   2.077   3.654   6.268
 1733SOL    HW1 6098   2.079   3.624   6.364
 1733SOL    HW2 6099   1.982   3.660   6.237
 1734SOL     OW 6100   6.768   3.299   1.447
 1734SOL    HW1 6101   6.858   3.304   1.491
 1734SOL    HW2 6102   6.769   3.227   1.378
 1735SOL     OW 6103   3.808   5.135   6.177
 1735SOL    HW1 6104   3.758   5.165   6.258
 1735SOL    HW2 6105   3.744   5.102   6.108
 1736SOL     OW 6106   5.384   2.999   0.577
 1736SOL    HW1 6107   5.387   3.045   0.488
 1736SOL    HW2 6108   5.302   3.028   0.627
 1737SOL     OW 6109   4.416   1.889   5.296
 1737SOL    HW1 6110   4.514   1.908   5.296
 1737SOL    HW2 6111   4.385   1.874   5.202
 1738SOL     OW 6112   1.539   3.177   3.774
 1738SOL    HW1 6113   1.451   3.171   3.728
 1738SOL    HW2 6114   1.612   3.186   3.705
 1739SOL     OW 6115   5.532   0.657   3.569
 1739SOL    HW1 6116   5.527   0.558   3.552
 1739SOL    HW2 6117   5.571   0.672   3.660
 1740SOL     OW 6118   6.219   2.992   4.908
 1740SOL    HW1 6119   6.260   3.082   4.922
 1740SOL    HW2 6120   6.256   2.928   4.976
 1741SOL     OW 6121   0.151   1.974   4.644
 1741SOL    HW1 6122   0.071   1.916   4.659
 1741SOL    HW2 6123   0.199   1.987   4.731
 1742SOL     OW 6124   6.313   5.966   6.092
 1742SOL    HW1 6125   6.281   6.057   6.119
 1742SOL    HW2 6126   6.387   5.975   6.025
 1743SOL     OW 6127   1.948   1.392   2.450
 1743SOL    HW1 6128   1.947   1.292   2.438
 1743SOL    HW2 6129   1.890   1.434   2.380
 1744SOL     OW 6130   3.723   2.102   4.806
 1744SOL    HW1 6131   3.665   2.070   4.731
 1744SOL    HW2 6132   3.693   2.193   4.835
 1745SOL     OW 6133   5.936   6.544   1.040
 1745SOL    HW1 6134   6.007   6.487   1.000
 1745SOL    HW2 6135   5.872   6.573   0.969
 1746SOL     OW 6136   2.428   4.422   3.330
 1746SOL    HW1 6137   2.439   4.331   3.290
 1746SOL    HW2 6138   2.385   4.415   3.420
 1747SOL     OW 6139   4.497   0.014   2.128
 1747SOL    HW1 6140   4.485   0.106   2.165
 1747SOL    HW2 6141   4.567   0.017   2.056
 1748SOL     OW 6142   6.813   3.133   5.145
 1748SOL    HW1 6143   6.888   3.176   5.196
 1748SOL    HW2 6144   6.784   3.050   5.193
 1749SOL     OW 6145   0.772   4.905   1.007
 1749SOL    HW1 6146   0.685   4.875   1.046
 1749SOL    HW2 6147   0.845   4.891   1.073
 1750SOL     OW 6148   4.019   0.136   5.991
 1750SOL    HW1 6149   4.091   0.187   6.037
 1750SOL    HW2 6150   4.052   0.104   5.902
 1751SOL     OW 6151   5.936   3.121   5.271
 1751SOL    HW1 6152   5.939   3.076   5.181
 1751SOL    HW2 6153   5.935   3.220   5.258
 1752SOL     OW 6154   6.818   0.370   2.446
 1752SOL    HW1 6155   6.756   0.442   2.419
 1752SOL    HW2 6156   6.899   0.410   2.490
 1753SOL     OW 6157   6.238   1.301   1.782
 1753SOL    HW1 6158   6.228   1.202   1.796
 1753SOL    HW2 6159   6.185   1.349   1.852
 1754SOL     OW 6160   2.897   5.620   4.099
 1754SOL    HW1 6161   2.890   5.524   4.123
 1754SOL    HW2 6162   2.806   5.657   4.079
 1755SOL     OW 6163   6.215   6.945   4.728
 1755SOL    HW1 6164   6.140   6.910   4.673
 1755SOL    HW2 6165   6.270   6.869   4.762
 1756SOL     OW 6166   4.753   6.193   0.236
 1756SOL    HW1 6167   4.785   6.280   0.273
 1756SOL    HW2 6168   4.737   6.129   0.312
 1757SOL     OW 6169   2.357   5.398   5.304
 1757SOL    HW1 6170   2.330   5.307   5.276
 1757SOL    HW2 6171   2.354   5.460   5.225
 1758SOL     OW 6172   2.057   6.052   4.599
 1758SOL    HW1 6173   2.064   5.952   4.595
 1758SOL    HW2 6174   2.017   6.079   4.687
 1759SOL     OW 6175   1.479   6.407   0.363
 1759SOL    HW1 6176   1.394   6.379   0.318
 1759SOL    HW2 6177   1.557   6.368   0.314
 1760SOL     OW 6178   6.824   0.831   4.612
 1760SOL    HW1 6179   6.803   0.819   4.709
 1760SOL    HW2 6180   6.740   0.854   4.562
 1761SOL     OW 6181   5.658   1.538   2.765
 1761SOL    HW1 6182   5.661   1.439   2.772
 1761SOL    HW2 6183   5.568   1.567   2.731
 1762SOL     OW 6184   0.660   1.322   5.706
 1762SOL    HW1 6185   0.698   1.304   5.796
 1762SOL    HW2 6186   0.561   1.309   5.708
 1763SOL     OW 6187   0.659   3.866   3.762
 1763SOL    HW1 6188   0.638   3.960   3.791
 1763SOL    HW2 6189   0.575   3.819   3.738
 1764SOL     OW 6190   1.042   5.428   2.847
 1764SOL    HW1 6191   1.037   5.395   2.941
 1764SOL    HW2 6192   0.954   5.415   2.802
 1765SOL     OW 6193   5.626   3.299   2.374
 1765SOL    HW1 6194   5.624   3.337   2.467
 1765SOL    HW2 6195   5.628   3.373   2.307
 1766SOL     OW 6196   4.266   4.658   3.911
 1766SOL    HW1 6197   4.178   4.704   3.907
 1766SOL    HW2 6198   4.280   4.620   4.003
 1767SOL     OW 6199   0.308   4.562   2.422
 1767SOL    HW1 6200   0.287   4.465   2.421
 1767SOL    HW2 6201   0.407   4.575   2.413
 1768SOL     OW 6202   5.059   5.685   2.326
 1768SOL    HW1 6203   5.028   5.773   2.290
 1768SOL    HW2 6204   5.022   5.611   2.271
 1769SOL     OW 6205   6.205   0.333   0.333
 1769SOL    HW1 6206   6.129   0.292   0.384
 1769SOL    HW2 6207   6.220   0.281   0.249
 1770SOL     OW 6208   1.796   5.011   0.633
 1770SOL    HW1 6209   1.868   5.016   0.702
 1770SOL    HW2 6210   1.811   4.932   0.574
 1771SOL     OW 6211   1.868   3.079   6.058
 1771SOL    HW1 6212   1.881   3.011   5.985
 1771SOL    HW2 6213   1.785   3.056   6.109
 1772SOL     OW 6214   2.184   3.974   2.544
 1772SOL    HW1 6215   2.123   3.955   2.621
 1772SOL    HW2 6216   2.184   3.897   2.481
 1773SOL     OW 6217   1.672   6.408   6.554
 1773SOL    HW1 6218   1.743   6.431   6.487
 1773SOL    HW2 6219   1.581   6.420   6.512
 1774SOL     OW 6220   5.474   5.359   0.633
 1774SOL    HW1 6221   5.456   5.372   0.731
 1774SOL    HW2 6222   5.468   5.448   0.587
 1775SOL     OW 6223   2.278   5.657   6.857
 1775SOL    HW1 6224   2.204   5.655   6.791
 1775SOL    HW2 6225   2.241   5.647   6.950
 1776SOL     OW 6226   4.715   2.438   5.267
 1776SOL    HW1 6227   4.758   2.357   5.308
 1776SOL    HW2 6228   4.701   2.508   5.336
 1777SOL     OW 6229   5.115   6.538   6.714
 1777SOL    HW1 6230   5.166   6.482   6.649
 1777SOL    HW2 6231   5.115   6.494   6.804
 1778SOL     OW 6232   5.923   0.018   4.195
 1778SOL    HW1 6233   5.877   0.096   4.151
 1778SOL    HW2 6234   5.967   0.048   4.279
 1779SOL     OW 6235   5.380   0.261   4.108
 1779SOL    HW1 6236   5.316   0.323   4.063
 1779SOL    HW2 6237   5.375   0.274   4.207
 1780SOL     OW 6238   2.020   5.211   4.891
 1780SOL    HW1 6239   2.098   5.268   4.868
 1780SOL    HW2 6240   2.031   5.120   4.851
 1781SOL     OW 6241   4.109   0.777   4.807
 1781SOL    HW1 6242   4.129   0.870   4.839
 1781SOL    HW2 6243   4.171   0.754   4.732
 1782SOL     OW 6244   6.897   1.313   2.394
 1782SOL    HW1 6245   6.951   1.394   2.371
 1782SOL    HW2 6246   6.922   1.281   2.485
 1783SOL     OW 6247   1.803   4.013   6.089
 1783SOL    HW1 6248   1.824   4.090   6.148
 1783SOL    HW2 6249   1.779   4.046   5.998
 1784SOL     OW 6250   2.913   6.687   1.647
 1784SOL    HW1 6251   2.819   6.686   1.679
 1784SOL    HW2 6252   2.915   6.707   1.549
 1785SOL     OW 6253   1.610   6.529   4.887
 1785SOL    HW1 6254   1.640   6.434   4.896
 1785SOL    HW2 6255   1.512   6.531   4.867
 1786SOL     OW 6256   1.172   6.442   0.736
 1786SOL    HW1 6257   1.207   6.534   0.722
 1786SOL    HW2 6258   1.130   6.435   0.826
 1787SOL     OW 6259   2.762   3.251   6.010
 1787SOL    HW1 6260   2.758   3.278   6.106
 1787SOL    HW2 6261   2.848   3.205   5.992
 1788SOL     OW 6262   4.556   3.995   1.555
 1788SOL    HW1 6263   4.600   3.994   1.644
 1788SOL    HW2 6264   4.489   3.920   1.550
 1789SOL     OW 6265   6.227   3.616   2.040
 1789SOL    HW1 6266   6.253   3.522   2.060
 1789SOL    HW2 6267   6.133   3.632   2.071
 1790SOL     OW 6268   2.321   1.964   4.631
 1790SOL    HW1 6269   2.246   1.996   4.689
 1790SOL    HW2 6270   2.296   1.975   4.535
 1791SOL     OW 6271   5.069   6.940   3.593
 1791SOL    HW1 6272   5.091   6.871   3.524
 1791SOL    HW2 6273   5.132   7.017   3.584
 1792SOL     OW 6274   0.250   2.094   5.760
 1792SOL    HW1 6275   0.339   2.080   5.804
 1792SOL    HW2 6276   0.185   2.026   5.795
 1793SOL     OW 6277   0.370   0.863   6.036
 1793SOL    HW1 6278   0.338   0.893   5.946
 1793SOL    HW2 6279   0.300   0.807   6.080
 1794SOL     OW 6280   1.490   0.496   6.113
 1794SOL    HW1 6281   1.489   0.595   6.105
 1794SOL    HW2 6282   1.488   0.471   6.210
 1795SOL     OW 6283   5.818   4.362   1.064
 1795SOL    HW1 6284   5.877   4.443   1.067
 1795SOL    HW2 6285   5.875   4.280   1.058
 1796SOL     OW 6286   0.548   0.424   6.758
 1796SOL    HW1 6287   0.531   0.386   6.667
 1796SOL    HW2 6288   0.624   0.489   6.754
 1797SOL     OW 6289   1.970   4.978   5.486
 1797SOL    HW1 6290   1.972   4.920   5.404
 1797SOL    HW2 6291   2.013   5.066   5.466
 1798SOL     OW 6292   2.522   3.785   5.366
 1798SOL    HW1 6293   2.487   3.835   5.287
 1798SOL    HW2 6294   2.487   3.827   5.450
 1799SOL     OW 6295   3.237   1.449   1.039
 1799SOL    HW1 6296   3.252   1.401   0.953
 1799SOL    HW2 6297   3.323   1.489   1.071
 1800SOL     OW 6298   5.720   3.347   5.305
 1800SOL    HW1 6299   5.715   3.269   5.367
 1800SOL    HW2 6300   5.706   3.315   5.211
 1801SOL     OW 6301   0.927   0.528   3.206
 1801SOL    HW1 6302   0.849   0.503   3.148
 1801SOL    HW2 6303   0.979   0.446   3.229
 1802SOL     OW 6304   6.670   5.050   3.814
 1802SOL    HW1 6305   6.626   4.993   3.884
 1802SOL    HW2 6306   6.648   5.146   3.831
 1803SOL     OW 6307   0.319   0.252   3.726
 1803SOL    HW1 6308   0.371   0.210   3.800
 1803SOL    HW2 6309   0.347   0.211   3.639
 1804SOL     OW 6310   2.409   3.315   6.119
 1804SOL    HW1 6311   2.459   3.292   6.203
 1804SOL    HW2 6312   2.438   3.254   6.045
 1805SOL     OW 6313   6.477   5.530   0.771
 1805SOL    HW1 6314   6.546   5.494   0.834
 1805SOL    HW2 6315   6.520   5.593   0.707
 1806SOL     OW 6316   0.385   1.387   1.419
 1806SOL    HW1 6317   0.401   1.362   1.515
 1806SOL    HW2 6318   0.471   1.382   1.368
 1807SOL     OW 6319   0.028   2.350   2.696
 1807SOL    HW1 6320   7.008   2.432   2.654
 1807SOL    HW2 6321   6.975   2.302   2.747
 1808SOL     OW 6322   5.146   1.940   6.174
 1808SOL    HW1 6323   5.126   2.008   6.245
 1808SOL    HW2 6324   5.245   1.923   6.172
 1809SOL     OW 6325   4.612   0.211   5.088
 1809SOL    HW1 6326   4.650   0.142   5.025
 1809SOL    HW2 6327   4.527   0.247   5.049
 1810SOL     OW 6328   1.081   0.844   4.579
 1810SOL    HW1 6329   1.067   0.774   4.510
 1810SOL    HW2 6330   1.149   0.812   4.645
 1811SOL     OW 6331   3.756   5.455   1.952
 1811SOL    HW1 6332   3.767   5.536   1.895
 1811SOL    HW2 6333   3.661   5.424   1.947
 1812SOL     OW 6334   4.602   6.566   6.315
 1812SOL    HW1 6335   4.606   6.470   6.287
 1812SOL    HW2 6336   4.669   6.618   6.263
 1813SOL     OW 6337   4.921   4.588   2.080
 1813SOL    HW1 6338   4.835   4.628   2.048
 1813SOL    HW2 6339   4.939   4.503   2.030
 1814SOL     OW 6340   6.493   6.094   0.265
 1814SOL    HW1 6341   6.521   5.999   0.269
 1814SOL    HW2 6342   6.490   6.124   0.169
 1815SOL     OW 6343   5.170   6.406   1.209
 1815SOL    HW1 6344   5.211   6.393   1.118
 1815SOL    HW2 6345   5.110   6.328   1.229
 1816SOL     OW 6346   3.952   4.852   5.330
 1816SOL    HW1 6347   3.934   4.880   5.236
 1816SOL    HW2 6348   3.902   4.912   5.393
 1817SOL     OW 6349   7.008   2.123   3.923
 1817SOL    HW1 6350   0.056   2.099   3.994
 1817SOL    HW2 6351   0.037   2.155   3.841
 1818SOL     OW 6352   2.367   0.949   0.527
 1818SOL    HW1 6353   2.436   1.014   0.494
 1818SOL    HW2 6354   2.408   0.891   0.597
 1819SOL     OW 6355   1.579   4.391   2.507
 1819SOL    HW1 6356   1.652   4.431   2.563
 1819SOL    HW2 6357   1.614   4.310   2.460
 1820SOL     OW 6358   3.113   0.151   5.049
 1820SOL    HW1 6359   3.054   0.107   4.981
 1820SOL    HW2 6360   3.063   0.227   5.091
 1821SOL     OW 6361   3.678   1.865   2.541
 1821SOL    HW1 6362   3.647   1.960   2.548
 1821SOL    HW2 6363   3.714   1.848   2.450
 1822SOL     OW 6364   6.720   3.246   3.162
 1822SOL    HW1 6365   6.766   3.268   3.248
 1822SOL    HW2 6366   6.722   3.147   3.147
 1823SOL     OW 6367   4.299   6.323   1.706
 1823SOL    HW1 6368   4.397   6.305   1.713
 1823SOL    HW2 6369   4.249   6.260   1.765
 1824SOL     OW 6370   4.388   3.136   1.742
 1824SOL    HW1 6371   4.465   3.133   1.805
 1824SOL    HW2 6372   4.337   3.221   1.755
 1825SOL     OW 6373   1.146   2.236   5.246
 1825SOL    HW1 6374   1.125   2.139   5.229
 1825SOL    HW2 6375   1.241   2.254   5.221
 1826SOL     OW 6376   3.445   2.058   1.837
 1826SOL    HW1 6377   3.369   2.113   1.871
 1826SOL    HW2 6378   3.523   2.067   1.898
 1827SOL     OW 6379   5.607   5.917   1.011
 1827SOL    HW1 6380   5.701   5.883   1.011
 1827SOL    HW2 6381   5.550   5.858   1.068
 1828SOL     OW 6382   1.639   3.544   5.152
 1828SOL    HW1 6383   1.633   3.622   5.214
 1828SOL    HW2 6384   1.690   3.570   5.070
 1829SOL     OW 6385   3.752   0.396   2.204
 1829SOL    HW1 6386   3.746   0.297   2.210
 1829SOL    HW2 6387   3.838   0.421   2.160
 1830SOL     OW 6388   5.586   0.675   5.876
 1830SOL    HW1 6389   5.558   0.630   5.961
 1830SOL    HW2 6390   5.634   0.760   5.899
 1831SOL     OW 6391   3.351   4.944   0.334
 1831SOL    HW1 6392   3.297   4.878   0.282
 1831SOL    HW2 6393   3.361   5.028   0.282
 1832SOL     OW 6394   2.649   2.515   0.311
 1832SOL    HW1 6395   2.595   2.594   0.339
 1832SOL    HW2 6396   2.741   2.521   0.352
 1833SOL     OW 6397   5.862   1.753   6.713
 1833SOL    HW1 6398   5.852   1.668   6.765
 1833SOL    HW2 6399   5.957   1.763   6.684
 1834SOL     OW 6400   0.576   2.771   5.392
 1834SOL    HW1 6401   0.668   2.761   5.428
 1834SOL    HW2 6402   0.569   2.723   5.304
 1835SOL     OW 6403   6.724   6.627   1.319
 1835SOL    HW1 6404   6.634   6.630   1.362
 1835SOL    HW2 6405   6.776   6.550   1.356
 1836SOL     OW 6406   5.088   2.670   2.458
 1836SOL    HW1 6407   5.057   2.738   2.392
 1836SOL    HW2 6408   5.049   2.581   2.435
 1837SOL     OW 6409   3.089   1.935   6.361
 1837SOL    HW1 6410   3.081   2.020   6.415
 1837SOL    HW2 6411   3.156   1.875   6.405
 1838SOL     OW 6412   5.299   0.781   0.918
 1838SOL    HW1 6413   5.208   0.803   0.952
 1838SOL    HW2 6414   5.342   0.863   0.880
 1839SOL     OW 6415   0.332   0.376   0.587
 1839SOL    HW1 6416   0.360   0.313   0.515
 1839SOL    HW2 6417   0.413   0.411   0.633
 1840SOL     OW 6418   4.435   6.249   3.597
 1840SOL    HW1 6419   4.430   6.343   3.630
 1840SOL    HW2 6420   4.524   6.233   3.553
 1841SOL     OW 6421   1.330   1.190   1.997
 1841SOL    HW1 6422   1.326   1.174   2.095
 1841SOL    HW2 6423   1.239   1.183   1.957
 1842SOL     OW 6424   1.387   5.533   1.422
 1842SOL    HW1 6425   1.327   5.601   1.466
 1842SOL    HW2 6426   1.465   5.580   1.380
 1843SOL     OW 6427   2.472   0.852   5.899
 1843SOL    HW1 6428   2.511   0.804   5.977
 1843SOL    HW2 6429   2.403   0.793   5.856
 1844SOL     OW 6430   6.192   2.823   6.127
 1844SOL    HW1 6431   6.132   2.902   6.117
 1844SOL    HW2 6432   6.276   2.850   6.174
 1845SOL     OW 6433   1.058   2.099   2.634
 1845SOL    HW1 6434   1.052   2.199   2.628
 1845SOL    HW2 6435   1.147   2.073   2.672
 1846SOL     OW 6436   2.862   1.226   1.422
 1846SOL    HW1 6437   2.826   1.253   1.511
 1846SOL    HW2 6438   2.835   1.293   1.353
 1847SOL     OW 6439   1.676   5.602   5.506
 1847SOL    HW1 6440   1.731   5.636   5.430
 1847SOL    HW2 6441   1.699   5.652   5.589
 1848SOL     OW 6442   3.920   6.588   3.263
 1848SOL    HW1 6443   3.995   6.531   3.295
 1848SOL    HW2 6444   3.856   6.532   3.210
 1849SOL     OW 6445   4.748   2.689   2.267
 1849SOL    HW1 6446   4.721   2.672   2.173
 1849SOL    HW2 6447   4.802   2.773   2.272
 1850SOL     OW 6448   4.037   1.972   0.674
 1850SOL    HW1 6449   4.131   1.950   0.648
 1850SOL    HW2 6450   4.003   2.046   0.616
 1851SOL     OW 6451   6.976   4.487   4.871
 1851SOL    HW1 6452   6.953   4.391   4.858
 1851SOL    HW2 6453   0.027   4.496   4.942
 1852SOL     OW 6454   0.553   0.305   2.905
 1852SOL    HW1 6455   0.651   0.289   2.913
 1852SOL    HW2 6456   0.524   0.373   2.972
 1853SOL     OW 6457   0.161   2.346   5.865
 1853SOL    HW1 6458   0.196   2.348   5.958
 1853SOL    HW2 6459   0.171   2.253   5.828
 1854SOL     OW 6460   0.888   6.735   3.731
 1854SOL    HW1 6461   0.845   6.679   3.660
 1854SOL    HW2 6462   0.831   6.733   3.814
 1855SOL     OW 6463   5.580   3.148   4.661
 1855SOL    HW1 6464   5.488   3.168   4.695
 1855SOL    HW2 6465   5.574   3.093   4.578
 1856SOL     OW 6466   4.028   3.285   0.186
 1856SOL    HW1 6467   4.123   3.266   0.212
 1856SOL    HW2 6468   3.975   3.200   0.189
 1857SOL     OW 6469   3.572   1.227   6.870
 1857SOL    HW1 6470   3.623   1.142   6.856
 1857SOL    HW2 6471   3.561   1.274   6.782
 1858SOL     OW 6472   4.684   2.354   4.087
 1858SOL    HW1 6473   4.723   2.402   4.008
 1858SOL    HW2 6474   4.723   2.393   4.171
 1859SOL     OW 6475   6.620   1.568   4.049
 1859SOL    HW1 6476   6.648   1.585   3.954
 1859SOL    HW2 6477   6.605   1.655   4.096
 1860SOL     OW 6478   1.948   0.995   6.070
 1860SOL    HW1 6479   1.896   1.060   6.015
 1860SOL    HW2 6480   1.968   0.913   6.016
 1861SOL     OW 6481   6.731   6.653   4.158
 1861SOL    HW1 6482   6.652   6.594   4.141
 1861SOL    HW2 6483   6.808   6.623   4.102
 1862SOL     OW 6484   2.938   5.472   5.230
 1862SOL    HW1 6485   2.920   5.561   5.274
 1862SOL    HW2 6486   2.852   5.422   5.221
 1863SOL     OW 6487   0.131   2.704   0.864
 1863SOL    HW1 6488   0.065   2.674   0.932
 1863SOL    HW2 6489   0.146   2.803   0.873
 1864SOL     OW 6490   3.918   5.672   2.276
 1864SOL    HW1 6491   3.986   5.720   2.331
 1864SOL    HW2 6492   3.930   5.573   2.287
 1865SOL     OW 6493   6.134   2.101   5.748
 1865SOL    HW1 6494   6.106   2.120   5.653
 1865SOL    HW2 6495   6.156   2.187   5.794
 1866SOL     OW 6496   0.400   5.162   3.358
 1866SOL    HW1 6497   0.321   5.137   3.303
 1866SOL    HW2 6498   0.482   5.115   3.324
 1867SOL     OW 6499   0.722   2.388   1.556
 1867SOL    HW1 6500   0.678   2.471   1.522
 1867SOL    HW2 6501   0.774   2.346   1.481
 1868SOL     OW 6502   5.525   3.557   6.978
 1868SOL    HW1 6503   5.434   3.593   6.958
 1868SOL    HW2 6504   5.553   3.493   6.906
 1869SOL     OW 6505   4.765   0.830   4.463
 1869SOL    HW1 6506   4.729   0.886   4.538
 1869SOL    HW2 6507   4.865   0.823   4.472
 1870SOL     OW 6508   6.386   6.337   5.559
 1870SOL    HW1 6509   6.408   6.240   5.545
 1870SOL    HW2 6510   6.379   6.355   5.657
 1871SOL     OW 6511   0.321   6.599   0.016
 1871SOL    HW1 6512   0.324   6.569   0.111
 1871SOL    HW2 6513   0.226   6.602   7.003
 1872SOL     OW 6514   2.857   2.971   1.756
 1872SOL    HW1 6515   2.925   2.907   1.790
 1872SOL    HW2 6516   2.899   3.034   1.691
 1873SOL     OW 6517   6.524   1.068   0.502
 1873SOL    HW1 6518   6.571   1.157   0.506
 1873SOL    HW2 6519   6.567   1.012   0.432
 1874SOL     OW 6520   0.629   5.418   0.806
 1874SOL    HW1 6521   0.642   5.321   0.826
 1874SOL    HW2 6522   0.718   5.464   0.807
 1875SOL     OW 6523   0.103   5.707   1.956
 1875SOL    HW1 6524   0.017   5.745   1.991
 1875SOL    HW2 6525   0.131   5.630   2.013
 1876SOL     OW 6526   0.467   5.560   1.374
 1876SOL    HW1 6527   0.469   5.593   1.468
 1876SOL    HW2 6528   0.457   5.461   1.374
 1877SOL     OW 6529   0.827   1.702   2.478
 1877SOL    HW1 6530   0.926   1.716   2.477
 1877SOL    HW2 6531   0.807   1.605   2.469
 1878SOL     OW 6532   5.470   4.214   3.985
 1878SOL    HW1 6533   5.545   4.151   4.002
 1878SOL    HW2 6534   5.483   4.297   4.038
 1879SOL     OW 6535   4.469   6.079   4.388
 1879SOL    HW1 6536   4.471   6.019   4.468
 1879SOL    HW2 6537   4.374   6.089   4.356
 1880SOL     OW 6538   0.015   1.426   3.997
 1880SOL    HW1 6539   6.941   1.395   3.978
 1880SOL    HW2 6540   0.065   1.355   4.046
 1881SOL     OW 6541   1.860   1.728   4.062
 1881SOL    HW1 6542   1.808   1.643   4.070
 1881SOL    HW2 6543   1.953   1.714   4.094
 1882SOL     OW 6544   1.724   5.336   0.245
 1882SOL    HW1 6545   1.765   5.329   0.336
 1882SOL    HW2 6546   1.664   5.257   0.230
 1883SOL     OW 6547   1.992   2.337   3.068
 1883SOL    HW1 6548   1.929   2.395   3.120
 1883SOL    HW2 6549   2.045   2.393   3.005
 1884SOL     OW 6550   4.208   1.046   0.294
 1884SOL    HW1 6551   4.275   0.986   0.251
 1884SOL    HW2 6552   4.193   1.127   0.236
 1885SOL     OW 6553   0.179   1.545   0.451
 1885SOL    HW1 6554   0.080   1.560   0.463
 1885SOL    HW2 6555   0.229   1.621   0.492
 1886SOL     OW 6556   3.601   2.204   6.355
 1886SOL    HW1 6557   3.546   2.271   6.405
 1886SOL    HW2 6558   3.686   2.246   6.324
 1887SOL     OW 6559   0.781   6.727   4.972
 1887SOL    HW1 6560   0.732   6.793   4.915
 1887SOL    HW2 6561   0.718   6.655   5.001
 1888SOL     OW 6562   1.821   2.147   5.320
 1888SOL    HW1 6563   1.881   2.169   5.244
 1888SOL    HW2 6564   1.818   2.048   5.334
 1889SOL     OW 6565   3.161   2.875   6.803
 1889SOL    HW1 6566   3.192   2.959   6.757
 1889SOL    HW2 6567   3.237   2.811   6.812
 1890SOL     OW 6568   6.369   5.970   6.766
 1890SOL    HW1 6569   6.349   5.928   6.677
 1890SOL    HW2 6570   6.365   5.901   6.838
 1891SOL     OW 6571   5.131   3.596   6.682
 1891SOL    HW1 6572   5.102   3.528   6.615
 1891SOL    HW2 6573   5.197   3.659   6.640
 1892SOL     OW 6574   3.947   0.147   1.799
 1892SOL    HW1 6575   3.925   0.237   1.836
 1892SOL    HW2 6576   3.943   0.079   1.873
 1893SOL     OW 6577   3.029   1.718   5.184
 1893SOL    HW1 6578   2.982   1.766   5.258
 1893SOL    HW2 6579   2.998   1.623   5.181
 1894SOL     OW 6580   4.967   3.823   1.007
 1894SOL    HW1 6581   4.875   3.855   1.029
 1894SOL    HW2 6582   4.982   3.831   0.908
 1895SOL     OW 6583   4.311   0.349   3.902
 1895SOL    HW1 6584   4.406   0.323   3.884
 1895SOL    HW2 6585   4.292   0.439   3.861
 1896SOL     OW 6586   6.279   2.032   6.173
 1896SOL    HW1 6587   6.314   2.122   6.147
 1896SOL    HW2 6588   6.273   2.027   6.273
 1897SOL     OW 6589   5.437   5.363   3.685
 1897SOL    HW1 6590   5.519   5.370   3.629
 1897SOL    HW2 6591   5.356   5.365   3.627
 1898SOL     OW 6592   5.880   6.727   6.820
 1898SOL    HW1 6593   5.794   6.754   6.776
 1898SOL    HW2 6594   5.912   6.641   6.780
 1899SOL     OW 6595   1.310   2.137   2.728
 1899SOL    HW1 6596   1.408   2.147   2.744
 1899SOL    HW2 6597   1.261   2.148   2.814
 1900SOL     OW 6598   2.916   6.327   1.365
 1900SOL    HW1 6599   2.982   6.255   1.341
 1900SOL    HW2 6600   2.847   6.290   1.427
 1901SOL     OW 6601   1.412   1.639   6.186
 1901SOL    HW1 6602   1.425   1.643   6.285
 1901SOL    HW2 6603   1.314   1.641   6.166
 1902SOL     OW 6604   1.997   2.340   5.174
 1902SOL    HW1 6605   2.072   2.285   5.211
 1902SOL    HW2 6606   2.026   2.435   5.164
 1903SOL     OW 6607   6.444   4.082   4.047
 1903SOL    HW1 6608   6.474   4.003   4.101
 1903SOL    HW2 6609   6.519   4.113   3.989
 1904SOL     OW 6610   0.671   0.845   4.436
 1904SOL    HW1 6611   0.724   0.764   4.459
 1904SOL    HW2 6612   0.702   0.923   4.491
 1905SOL     OW 6613   6.428   3.244   4.552
 1905SOL    HW1 6614   6.434   3.144   4.547
 1905SOL    HW2 6615   6.511   3.284   4.513
 1906SOL     OW 6616   2.817   6.183   6.783
 1906SOL    HW1 6617   2.776   6.120   6.849
 1906SOL    HW2 6618   2.860   6.259   6.832
 1907SOL     OW 6619   3.869   6.104   3.352
 1907SOL    HW1 6620   3.964   6.079   3.337
 1907SOL    HW2 6621   3.809   6.038   3.307
 1908SOL     OW 6622   4.899   0.295   6.673
 1908SOL    HW1 6623   4.810   0.278   6.716
 1908SOL    HW2 6624   4.956   0.350   6.734
 1909SOL     OW 6625   3.942   5.167   4.714
 1909SOL    HW1 6626   3.894   5.213   4.639
 1909SOL    HW2 6627   4.016   5.226   4.747
 1910SOL     OW 6628   4.936   2.774   4.763
 1910SOL    HW1 6629   5.015   2.739   4.712
 1910SOL    HW2 6630   4.872   2.700   4.780
 1911SOL     OW 6631   7.011   3.745   6.085
 1911SOL    HW1 6632   0.036   3.815   6.029
 1911SOL    HW2 6633   6.911   3.751   6.074
 1912SOL     OW 6634   2.651   6.257   3.089
 1912SOL    HW1 6635   2.693   6.299   3.008
 1912SOL    HW2 6636   2.557   6.289   3.098
 1913SOL     OW 6637   1.361   4.179   5.291
 1913SOL    HW1 6638   1.445   4.195   5.343
 1913SOL    HW2 6639   1.336   4.262   5.241
 1914SOL     OW 6640   4.703   1.190   5.563
 1914SOL    HW1 6641   4.790   1.156   5.599
 1914SOL    HW2 6642   4.685   1.281   5.599
 1915SOL     OW 6643   3.325   0.323   5.421
 1915SOL    HW1 6644   3.344   0.257   5.349
 1915SOL    HW2 6645   3.308   0.413   5.380
 1916SOL     OW 6646   4.063   6.464   1.482
 1916SOL    HW1 6647   4.039   6.535   1.416
 1916SOL    HW2 6648   4.121   6.396   1.437
 1917SOL     OW 6649   3.539   2.947   4.091
 1917SOL    HW1 6650   3.576   3.030   4.048
 1917SOL    HW2 6651   3.602   2.915   4.162
 1918SOL     OW 6652   5.929   6.321   4.695
 1918SOL    HW1 6653   6.015   6.349   4.738
 1918SOL    HW2 6654   5.871   6.402   4.682
 1919SOL     OW 6655   6.737   6.920   1.985
 1919SOL    HW1 6656   6.812   6.985   1.977
 1919SOL    HW2 6657   6.770   6.835   2.028
 1920SOL     OW 6658   6.921   6.055   4.236
 1920SOL    HW1 6659   6.930   6.138   4.182
 1920SOL    HW2 6660   6.827   6.022   4.231
 1921SOL     OW 6661   0.987   7.001   6.157
 1921SOL    HW1 6662   1.045   0.054   6.119
 1921SOL    HW2 6663   0.907   0.023   6.201
 1922SOL     OW 6664   3.458   4.503   1.283
 1922SOL    HW1 6665   3.450   4.593   1.239
 1922SOL    HW2 6666   3.511   4.442   1.225
 1923SOL     OW 6667   1.923   2.838   0.955
 1923SOL    HW1 6668   1.972   2.814   1.039
 1923SOL    HW2 6669   1.869   2.760   0.925
 1924SOL     OW 6670   1.012   3.499   2.250
 1924SOL    HW1 6671   0.953   3.435   2.300
 1924SOL    HW2 6672   1.100   3.506   2.296
 1925SOL     OW 6673   3.225   4.081   0.293
 1925SOL    HW1 6674   3.303   4.106   0.349
 1925SOL    HW2 6675   3.252   4.080   0.197
 1926SOL     OW 6676   0.990   0.406   3.646
 1926SOL    HW1 6677   1.063   0.342   3.624
 1926SOL    HW2 6678   0.915   0.396   3.581
 1927SOL     OW 6679   3.957   3.610   0.429
 1927SOL    HW1 6680   3.887   3.540   0.416
 1927SOL    HW2 6681   3.967   3.664   0.346
 1928SOL     OW 6682   6.755   5.095   5.587
 1928SOL    HW1 6683   6.815   5.052   5.519
 1928SOL    HW2 6684   6.660   5.070   5.568
 1929SOL     OW 6685   1.398   6.745   3.460
 1929SOL    HW1 6686   1.301   6.722   3.466
 1929SOL    HW2 6687   1.442   6.683   3.395
 1930SOL     OW 6688   6.569   4.877   6.682
 1930SOL    HW1 6689   6.565   4.967   6.726
 1930SOL    HW2 6690   6.616   4.885   6.594
 1931SOL     OW 6691   0.668   2.288   4.973
 1931SOL    HW1 6692   0.657   2.365   4.909
 1931SOL    HW2 6693   0.759   2.291   5.013
 1932SOL     OW 6694   5.519   2.975   2.526
 1932SOL    HW1 6695   5.558   3.032   2.598
 1932SOL    HW2 6696   5.591   2.925   2.479
 1933SOL     OW 6697   2.542   4.377   1.131
 1933SOL    HW1 6698   2.594   4.419   1.056
 1933SOL    HW2 6699   2.585   4.401   1.218
 1934SOL     OW 6700   0.160   6.311   4.514
 1934SOL    HW1 6701   0.200   6.322   4.423
 1934SOL    HW2 6702   0.217   6.250   4.569
 1935SOL     OW 6703   2.475   0.951   4.174
 1935SOL    HW1 6704   2.457   0.872   4.115
 1935SOL    HW2 6705   2.505   1.028   4.118
 1936SOL     OW 6706   6.615   5.726   5.743
 1936SOL    HW1 6707   6.586   5.630   5.745
 1936SOL    HW2 6708   6.715   5.730   5.738
 1937SOL     OW 6709   4.702   0.087   2.587
 1937SOL    HW1 6710   4.725   0.099   2.684
 1937SOL    HW2 6711   4.705   0.176   2.541
 1938SOL     OW 6712   5.372   0.319   3.701
 1938SOL    HW1 6713   5.435   0.357   3.634
 1938SOL    HW2 6714   5.301   0.386   3.722
 1939SOL     OW 6715   2.162   0.335   3.102
 1939SOL    HW1 6716   2.219   0.315   3.182
 1939SOL    HW2 6717   2.221   0.349   3.022
 1940SOL     OW 6718   6.528   5.216   0.381
 1940SOL    HW1 6719   6.627   5.213   0.395
 1940SOL    HW2 6720   6.507   5.274   0.302
 1941SOL     OW 6721   5.323   4.995   3.292
 1941SOL    HW1 6722   5.306   4.897   3.286
 1941SOL    HW2 6723   5.292   5.040   3.208
 1942SOL     OW 6724   6.576   5.667   3.157
 1942SOL    HW1 6725   6.494   5.640   3.207
 1942SOL    HW2 6726   6.656   5.658   3.216
 1943SOL     OW 6727   3.418   5.177   2.520
 1943SOL    HW1 6728   3.428   5.274   2.542
 1943SOL    HW2 6729   3.383   5.167   2.427
 1944SOL     OW 6730   6.604   0.894   1.712
 1944SOL    HW1 6731   6.589   0.796   1.728
 1944SOL    HW2 6732   6.593   0.943   1.799
 1945SOL     OW 6733   2.797   4.901   4.125
 1945SOL    HW1 6734   2.819   4.857   4.212
 1945SOL    HW2 6735   2.748   4.986   4.142
 1946SOL     OW 6736   1.795   0.168   0.101
 1946SOL    HW1 6737   1.857   0.243   0.125
 1946SOL    HW2 6738   1.847   0.084   0.087
 1947SOL     OW 6739   5.567   6.723   4.141
 1947SOL    HW1 6740   5.609   6.635   4.164
 1947SOL    HW2 6741   5.591   6.791   4.211
 1948SOL     OW 6742   6.100   4.140   5.855
 1948SOL    HW1 6743   6.100   4.043   5.878
 1948SOL    HW2 6744   6.098   4.152   5.756
 1949SOL     OW 6745   5.502   3.982   6.711
 1949SOL    HW1 6746   5.598   4.008   6.703
 1949SOL    HW2 6747   5.470   4.000   6.804
 1950SOL     OW 6748   2.743   4.126   0.778
 1950SOL    HW1 6749   2.772   4.116   0.873
 1950SOL    HW2 6750   2.764   4.043   0.727
 1951SOL     OW 6751   0.008   2.207   6.902
 1951SOL    HW1 6752   0.059   2.130   6.863
 1951SOL    HW2 6753   7.016   2.193   7.001
 1952SOL     OW 6754   4.105   1.918   5.270
 1952SOL    HW1 6755   4.152   1.878   5.348
 1952SOL    HW2 6756   4.150   2.004   5.244
 1953SOL     OW 6757   0.374   3.219   5.467
 1953SOL    HW1 6758   0.447   3.166   5.509
 1953SOL    HW2 6759   0.411   3.269   5.388
 1954SOL     OW 6760   2.222   2.060   3.558
 1954SOL    HW1 6761   2.307   2.012   3.538
 1954SOL    HW2 6762   2.149   1.993   3.574
 1955SOL     OW 6763   6.423   5.764   2.325
 1955SOL    HW1 6764   6.453   5.813   2.407
 1955SOL    HW2 6765   6.369   5.826   2.268
 1956SOL     OW 6766   5.857   6.671   2.433
 1956SOL    HW1 6767   5.809   6.587   2.458
 1956SOL    HW2 6768   5.943   6.648   2.388
 1957SOL     OW 6769   0.649   6.934   5.344
 1957SOL    HW1 6770   0.746   6.919   5.361
 1957SOL    HW2 6771   0.605   6.847   5.318
 1958SOL     OW 6772   4.767   3.229   5.986
 1958SOL    HW1 6773   4.740   3.262   5.896
 1958SOL    HW2 6774   4.862   3.256   6.004
 1959SOL     OW 6775   1.727   2.081   6.584
 1959SOL    HW1 6776   1.707   2.092   6.487
 1959SOL    HW2 6777   1.787   2.155   6.615
 1960SOL     OW 6778   4.986   6.527   1.638
 1960SOL    HW1 6779   4.890   6.550   1.623
 1960SOL    HW2 6780   5.006   6.530   1.736
 1961SOL     OW 6781   5.987   5.551   4.248
 1961SOL    HW1 6782   5.962   5.558   4.151
 1961SOL    HW2 6783   5.903   5.544   4.302
 1962SOL     OW 6784   0.259   6.615   3.231
 1962SOL    HW1 6785   0.216   6.525   3.234
 1962SOL    HW2 6786   0.334   6.614   3.165
 1963SOL     OW 6787   1.465   0.073   2.866
 1963SOL    HW1 6788   1.513   0.120   2.940
 1963SOL    HW2 6789   1.521   7.016   2.831
 1964SOL     OW 6790   5.392   3.763   2.793
 1964SOL    HW1 6791   5.359   3.712   2.872
 1964SOL    HW2 6792   5.385   3.705   2.711
 1965SOL     OW 6793   2.238   5.179   3.632
 1965SOL    HW1 6794   2.202   5.209   3.720
 1965SOL    HW2 6795   2.274   5.258   3.581
 1966SOL     OW 6796   6.222   5.703   5.636
 1966SOL    HW1 6797   6.178   5.792   5.648
 1966SOL    HW2 6798   6.210   5.649   5.719
 1967SOL     OW 6799   4.668   2.337   4.819
 1967SOL    HW1 6800   4.710   2.427   4.808
 1967SOL    HW2 6801   4.568   2.348   4.825
 1968SOL     OW 6802   3.305   5.235   5.787
 1968SOL    HW1 6803   3.242   5.207   5.860
 1968SOL    HW2 6804   3.328   5.332   5.799
 1969SOL     OW 6805   6.496   2.644   1.449
 1969SOL    HW1 6806   6.545   2.674   1.367
 1969SOL    HW2 6807   6.501   2.544   1.455
 1970SOL     OW 6808   2.056   0.182   3.554
 1970SOL    HW1 6809   2.060   0.082   3.561
 1970SOL    HW2 6810   2.066   0.222   3.645
 1971SOL     OW 6811   0.462   6.557   6.095
 1971SOL    HW1 6812   0.529   6.498   6.141
 1971SOL    HW2 6813   0.436   6.631   6.157
 1972SOL     OW 6814   0.888   5.058   3.963
 1972SOL    HW1 6815   0.923   5.090   4.051
 1972SOL    HW2 6816   0.960   5.063   3.894
 1973SOL     OW 6817   2.566   3.172   0.560
 1973SOL    HW1 6818   2.642   3.237   0.561
 1973SOL    HW2 6819   2.481   3.221   0.581
 1974SOL     OW 6820   5.592   0.841   4.262
 1974SOL    HW1 6821   5.630   0.932   4.246
 1974SOL    HW2 6822   5.631   0.777   4.196
 1975SOL     OW 6823   3.474   0.933   3.420
 1975SOL    HW1 6824   3.457   0.978   3.507
 1975SOL    HW2 6825   3.553   0.872   3.428
 1976SOL     OW 6826   6.830   4.890   0.254
 1976SOL    HW1 6827   6.929   4.894   0.264
 1976SOL    HW2 6828   6.806   4.829   0.178
 1977SOL     OW 6829   1.966   2.948   4.904
 1977SOL    HW1 6830   1.904   2.902   4.967
 1977SOL    HW2 6831   1.969   3.046   4.925
 1978SOL     OW 6832   6.793   1.513   4.963
 1978SOL    HW1 6833   6.818   1.486   5.056
 1978SOL    HW2 6834   6.874   1.545   4.914
 1979SOL     OW 6835   5.907   5.268   3.635
 1979SOL    HW1 6836   5.875   5.217   3.715
 1979SOL    HW2 6837   5.976   5.215   3.586
 1980SOL     OW 6838   3.963   0.370   1.431
 1980SOL    HW1 6839   3.971   0.298   1.363
 1980SOL    HW2 6840   3.867   0.383   1.455
 1981SOL     OW 6841   4.736   3.251   1.671
 1981SOL    HW1 6842   4.673   3.194   1.724
 1981SOL    HW2 6843   4.736   3.221   1.575
 1982SOL     OW 6844   5.606   6.851   4.773
 1982SOL    HW1 6845   5.519   6.804   4.759
 1982SOL    HW2 6846   5.674   6.786   4.808
 1983SOL     OW 6847   0.734   3.534   2.837
 1983SOL    HW1 6848   0.733   3.557   2.935
 1983SOL    HW2 6849   0.686   3.605   2.786
 1984SOL     OW 6850   4.229   0.276   6.120
 1984SOL    HW1 6851   4.300   0.222   6.075
 1984SOL    HW2 6852   4.264   0.312   6.207
 1985SOL     OW 6853   1.327   0.270   1.430
 1985SOL    HW1 6854   1.390   0.343   1.458
 1985SOL    HW2 6855   1.261   0.254   1.504
 1986SOL     OW 6856   1.219   1.978   6.273
 1986SOL    HW1 6857   1.202   1.930   6.186
 1986SOL    HW2 6858   1.161   2.060   6.277
 1987SOL     OW 6859   2.749   3.257   6.292
 1987SOL    HW1 6860   2.824   3.290   6.350
 1987SOL    HW2 6861   2.701   3.183   6.339
 1988SOL     OW 6862   4.764   3.017   0.819
 1988SOL    HW1 6863   4.831   2.984   0.885
 1988SOL    HW2 6864   4.794   3.106   0.782
 1989SOL     OW 6865   2.750   0.567   4.338
 1989SOL    HW1 6866   2.678   0.614   4.389
 1989SOL    HW2 6867   2.712   0.485   4.296
 1990SOL     OW 6868   2.683   1.062   2.322
 1990SOL    HW1 6869   2.609   1.003   2.354
 1990SOL    HW2 6870   2.692   1.053   2.223
 1991SOL     OW 6871   3.829   5.297   4.492
 1991SOL    HW1 6872   3.864   5.250   4.411
 1991SOL    HW2 6873   3.742   5.341   4.470
 1992SOL     OW 6874   2.210   6.591   5.184
 1992SOL    HW1 6875   2.234   6.688   5.186
 1992SOL    HW2 6876   2.257   6.547   5.107
 1993SOL     OW 6877   3.854   3.361   5.371
 1993SOL    HW1 6878   3.797   3.444   5.379
 1993SOL    HW2 6879   3.949   3.388   5.355
 1994SOL     OW 6880   6.082   2.433   2.131
 1994SOL    HW1 6881   6.029   2.348   2.126
 1994SOL    HW2 6882   6.136   2.443   2.048
 1995SOL     OW 6883   5.260   2.408   1.672
 1995SOL    HW1 6884   5.305   2.340   1.730
 1995SOL    HW2 6885   5.164   2.416   1.699
 1996SOL     OW 6886   3.075   4.527   0.032
 1996SOL    HW1 6887   3.089   4.610   0.085
 1996SOL    HW2 6888   2.995   4.538   6.991
 1997SOL     OW 6889   5.482   0.876   3.834
 1997SOL    HW1 6890   5.477   0.967   3.875
 1997SOL    HW2 6891   5.404   0.864   3.772
 1998SOL     OW 6892   3.064   4.789   5.140
 1998SOL    HW1 6893   2.995   4.856   5.112
 1998SOL    HW2 6894   3.019   4.701   5.157
 1999SOL     OW 6895   1.626   1.087   2.292
 1999SOL    HW1 6896   1.707   1.095   2.349
 1999SOL    HW2 6897   1.546   1.067   2.349
 2000SOL     OW 6898   3.869   1.988   4.990
 2000SOL    HW1 6899   3.931   2.054   5.032
 2000SOL    HW2 6900   3.818   2.032   4.916
 2001SOL     OW 6901   3.207   2.887   0.547
 2001SOL    HW1 6902   3.143   2.956   0.514
 2001SOL    HW2 6903   3.162   2.797   0.546
 2002SOL     OW 6904   1.856   4.813   4.645
 2002SOL    HW1 6905   1.878   4.723   4.682
 2002SOL    HW2 6906   1.820   4.802   4.552
 2003SOL     OW 6907   6.193   5.784   3.855
 2003SOL    HW1 6908   6.246   5.708   3.893
 2003SOL    HW2 6909   6.179   5.770   3.757
 2004SOL     OW 6910   2.960   0.734   5.918
 2004SOL    HW1 6911   3.044   0.713   5.868
 2004SOL    HW2 6912   2.983   0.779   6.004
 2005SOL     OW 6913   2.863   6.256   5.876
 2005SOL    HW1 6914   2.936   6.219   5.933
 2005SOL    HW2 6915   2.860   6.207   5.789
 2006SOL     OW 6916   4.004   4.812   3.911
 2006SOL    HW1 6917   4.016   4.806   4.010
 2006SOL    HW2 6918   3.907   4.825   3.890
 2007SOL     OW 6919   5.819   5.349   0.257
 2007SOL    HW1 6920   5.892   5.386   0.200
 2007SOL    HW2 6921   5.843   5.257   0.289
 2008SOL     OW 6922   0.421   5.949   3.984
 2008SOL    HW1 6923   0.410   5.853   4.009
 2008SOL    HW2 6924   0.518   5.972   3.983
 2009SOL     OW 6925   0.395   0.416   1.953
 2009SOL    HW1 6926   0.490   0.448   1.950
 2009SOL    HW2 6927   0.359   0.411   1.860
 2010SOL     OW 6928   1.578   6.951   0.960
 2010SOL    HW1 6929   1.672   6.976   0.937
 2010SOL    HW2 6930   1.520   0.014   0.955
 2011SOL     OW 6931   6.892   2.713   5.276
 2011SOL    HW1 6932   6.816   2.649   5.287
 2011SOL    HW2 6933   6.959   2.698   5.348
 2012SOL     OW 6934   0.944   3.709   1.122
 2012SOL    HW1 6935   0.904   3.633   1.172
 2012SOL    HW2 6936   1.043   3.709   1.136
 2013SOL     OW 6937   4.441   1.637   2.316
 2013SOL    HW1 6938   4.480   1.721   2.279
 2013SOL    HW2 6939   4.368   1.604   2.257
 2014SOL     OW 6940   2.471   5.927   3.476
 2014SOL    HW1 6941   2.533   5.995   3.437
 2014SOL    HW2 6942   2.500   5.835   3.448
 2015SOL     OW 6943   3.143   6.986   6.640
 2015SOL    HW1 6944   3.242   6.980   6.653
 2015SOL    HW2 6945   3.111   6.902   6.595
 2016SOL     OW 6946   6.544   4.878   4.010
 2016SOL    HW1 6947   6.528   4.883   4.108
 2016SOL    HW2 6948   6.539   4.783   3.980
 2017SOL     OW 6949   2.837   5.918   2.332
 2017SOL    HW1 6950   2.909   5.892   2.268
 2017SOL    HW2 6951   2.772   5.842   2.342
 2018SOL     OW 6952   0.751   5.206   5.582
 2018SOL    HW1 6953   0.801   5.141   5.639
 2018SOL    HW2 6954   0.653   5.186   5.587
 2019SOL     OW 6955   6.312   1.352   2.121
 2019SOL    HW1 6956   6.308   1.434   2.064
 2019SOL    HW2 6957   6.403   1.311   2.115
 2020SOL     OW 6958   2.229   6.056   3.039
 2020SOL    HW1 6959   2.304   5.995   3.011
 2020SOL    HW2 6960   2.184   6.019   3.120
 2021SOL     OW 6961   1.020   6.813   1.837
 2021SOL    HW1 6962   1.110   6.774   1.818
 2021SOL    HW2 6963   0.951   6.740   1.838
 2022SOL     OW 6964   2.391   3.883   1.516
 2022SOL    HW1 6965   2.464   3.826   1.555
 2022SOL    HW2 6966   2.427   3.973   1.494
 2023SOL     OW 6967   6.843   0.900   5.721
 2023SOL    HW1 6968   6.929   0.947   5.700
 2023SOL    HW2 6969   6.795   0.880   5.636
 2024SOL     OW 6970   5.743   1.400   3.585
 2024SOL    HW1 6971   5.826   1.450   3.607
 2024SOL    HW2 6972   5.666   1.439   3.636
 2025SOL     OW 6973   6.486   1.127   1.287
 2025SOL    HW1 6974   6.408   1.190   1.291
 2025SOL    HW2 6975   6.529   1.121   1.377
 2026SOL     OW 6976   1.718   1.809   5.585
 2026SOL    HW1 6977   1.713   1.721   5.538
 2026SOL    HW2 6978   1.705   1.796   5.683
 2027SOL     OW 6979   0.674   1.296   2.910
 2027SOL    HW1 6980   0.579   1.267   2.912
 2027SOL    HW2 6981   0.679   1.396   2.909
 2028SOL     OW 6982   4.109   2.937   6.964
 2028SOL    HW1 6983   4.102   2.909   6.868
 2028SOL    HW2 6984   4.023   2.978   6.993
 2029SOL     OW 6985   1.616   0.405   0.283
 2029SOL    HW1 6986   1.687   0.343   0.250
 2029SOL    HW2 6987   1.573   0.452   0.206
 2030SOL     OW 6988   1.867   0.800   3.074
 2030SOL    HW1 6989   1.819   0.877   3.115
 2030SOL    HW2 6990   1.839   0.715   3.120
 2031SOL     OW 6991   5.234   6.892   2.288
 2031SOL    HW1 6992   5.307   6.824   2.285
 2031SOL    HW2 6993   5.244   6.955   2.212
 2032SOL     OW 6994   5.134   6.682   1.121
 2032SOL    HW1 6995   5.092   6.603   1.166
 2032SOL    HW2 6996   5.221   6.704   1.166
 2033SOL     OW 6997   6.000   4.898   0.146
 2033SOL    HW1 6998   5.920   4.912   0.088
 2033SOL    HW2 6999   5.975   4.840   0.224
 2034SOL     OW 7000   2.132   0.452   2.731
 2034SOL    HW1 7001   2.192   0.529   2.751
 2034SOL    HW2 7002   2.053   0.454   2.791
 2035SOL     OW 7003   1.243   3.032   2.137
 2035SOL    HW1 7004   1.185   3.033   2.219
 2035SOL    HW2 7005   1.339   3.036   2.164
 2036SOL     OW 7006   1.679   4.597   0.618
 2036SOL    HW1 7007   1.630   4.661   0.679
 2036SOL    HW2 7008   1.649   4.504   0.638
 2037SOL     OW 7009   0.288   1.089   6.391
 2037SOL    HW1 7010   0.373   1.044   6.418
 2037SOL    HW2 7011   0.214   1.061   6.453
 2038SOL     OW 7012   0.575   0.995   4.718
 2038SOL    HW1 7013   0.496   1.045   4.752
 2038SOL    HW2 7014   0.563   0.897   4.736
 2039SOL     OW 7015   0.802   5.744   2.628
 2039SOL    HW1 7016   0.814   5.755   2.727
 2039SOL    HW2 7017   0.770   5.830   2.588
 2040SOL     OW 7018   3.982   3.318   4.752
 2040SOL    HW1 7019   3.984   3.280   4.660
 2040SOL    HW2 7020   3.888   3.331   4.781
 2041SOL     OW 7021   5.963   4.301   6.022
 2041SOL    HW1 7022   6.026   4.239   5.975
 2041SOL    HW2 7023   5.919   4.360   5.955
 2042SOL     OW 7024   4.222   5.202   6.744
 2042SOL    HW1 7025   4.223   5.241   6.652
 2042SOL    HW2 7026   4.315   5.204   6.781
 2043SOL     OW 7027   5.033   4.728   2.272
 2043SOL    HW1 7028   4.992   4.674   2.199
 2043SOL    HW2 7029   4.962   4.784   2.315
 2044SOL     OW 7030   6.680   0.517   1.700
 2044SOL    HW1 7031   6.765   0.469   1.680
 2044SOL    HW2 7032   6.674   0.600   1.644
 2045SOL     OW 7033   1.866   5.259   6.090
 2045SOL    HW1 7034   1.807   5.242   6.011
 2045SOL    HW2 7035   1.941   5.192   6.090
 2046SOL     OW 7036   6.084   0.434   5.054
 2046SOL    HW1 7037   6.131   0.490   4.986
 2046SOL    HW2 7038   6.020   0.491   5.106
 2047SOL     OW 7039   5.504   2.790   0.048
 2047SOL    HW1 7040   5.432   2.843   0.002
 2047SOL    HW2 7041   5.585   2.788   7.009
 2048SOL     OW 7042   4.370   0.072   5.554
 2048SOL    HW1 7043   4.436   0.048   5.625
 2048SOL    HW2 7044   4.350   0.170   5.560
 2049SOL     OW 7045   5.232   0.235   0.476
 2049SOL    HW1 7046   5.171   0.168   0.518
 2049SOL    HW2 7047   5.249   0.210   0.381
 2050SOL     OW 7048   5.808   2.179   3.999
 2050SOL    HW1 7049   5.721   2.132   3.982
 2050SOL    HW2 7050   5.832   2.234   3.919
 2051SOL     OW 7051   1.906   5.056   0.382
 2051SOL    HW1 7052   1.885   5.121   0.455
 2051SOL    HW2 7053   1.958   5.102   0.310
 2052SOL     OW 7054   0.842   3.357   0.524
 2052SOL    HW1 7055   0.848   3.324   0.618
 2052SOL    HW2 7056   0.921   3.324   0.472
 2053SOL     OW 7057   5.709   0.726   0.399
 2053SOL    HW1 7058   5.745   0.732   0.306
 2053SOL    HW2 7059   5.753   0.794   0.457
 2054SOL     OW 7060   6.084   2.824   0.929
 2054SOL    HW1 7061   6.075   2.727   0.949
 2054SOL    HW2 7062   5.997   2.860   0.897
 2055SOL     OW 7063   5.535   3.058   4.197
 2055SOL    HW1 7064   5.492   3.130   4.251
 2055SOL    HW2 7065   5.465   3.004   4.150
 2056SOL     OW 7066   1.533   0.842   3.401
 2056SOL    HW1 7067   1.486   0.836   3.489
 2056SOL    HW2 7068   1.549   0.750   3.366
 2057SOL     OW 7069   0.172   2.777   4.445
 2057SOL    HW1 7070   0.232   2.777   4.364
 2057SOL    HW2 7071   0.205   2.845   4.510
 2058SOL     OW 7072   6.688   2.091   2.069
 2058SOL    HW1 7073   6.781   2.086   2.105
 2058SOL    HW2 7074   6.691   2.090   1.969
 2059SOL     OW 7075   1.475   1.527   7.016
 2059SOL    HW1 7076   1.459   1.590   6.940
 2059SOL    HW2 7077   1.535   1.570   0.065
 2060SOL     OW 7078   1.055   5.141   2.495
 2060SOL    HW1 7079   1.138   5.190   2.525
 2060SOL    HW2 7080   0.974   5.186   2.532
 2061SOL     OW 7081   6.392   1.745   1.674
 2061SOL    HW1 7082   6.469   1.707   1.726
 2061SOL    HW2 7083   6.348   1.817   1.728
 2062SOL     OW 7084   4.549   0.494   3.358
 2062SOL    HW1 7085   4.605   0.481   3.276
 2062SOL    HW2 7086   4.541   0.592   3.378
 2063SOL     OW 7087   2.140   2.505   6.535
 2063SOL    HW1 7088   2.145   2.405   6.524
 2063SOL    HW2 7089   2.166   2.549   6.450
 2064SOL     OW 7090   0.859   2.437   0.248
 2064SOL    HW1 7091   0.860   2.504   0.174
 2064SOL    HW2 7092   0.788   2.369   0.231
 2065SOL     OW 7093   6.374   3.415   1.827
 2065SOL    HW1 7094   6.430   3.368   1.895
 2065SOL    HW2 7095   6.421   3.415   1.739
 2066SOL     OW 7096   1.510   6.342   4.504
 2066SOL    HW1 7097   1.456   6.328   4.587
 2066SOL    HW2 7098   1.598   6.384   4.528
 2067SOL     OW 7099   6.307   0.137   1.341
 2067SOL    HW1 7100   6.372   0.101   1.273
 2067SOL    HW2 7101   6.353   0.146   1.429
 2068SOL     OW 7102   1.474   2.046   5.172
 2068SOL    HW1 7103   1.558   2.043   5.117
 2068SOL    HW2 7104   1.491   2.007   5.262
 2069SOL     OW 7105   0.532   2.128   1.493
 2069SOL    HW1 7106   0.553   2.127   1.591
 2069SOL    HW2 7107   0.584   2.202   1.449
 2070SOL     OW 7108   0.786   0.912   2.682
 2070SOL    HW1 7109   0.770   1.011   2.673
 2070SOL    HW2 7110   0.813   0.891   2.775
 2071SOL     OW 7111   1.576   6.649   4.357
 2071SOL    HW1 7112   1.657   6.610   4.313
 2071SOL    HW2 7113   1.580   6.749   4.350
 2072SOL     OW 7114   4.903   5.282   1.618
 2072SOL    HW1 7115   4.984   5.336   1.596
 2072SOL    HW2 7116   4.824   5.343   1.626
 2073SOL     OW 7117   2.695   6.653   6.039
 2073SOL    HW1 7118   2.649   6.583   6.094
 2073SOL    HW2 7119   2.629   6.724   6.016
 2074SOL     OW 7120   5.600   1.463   2.238
 2074SOL    HW1 7121   5.560   1.474   2.329
 2074SOL    HW2 7122   5.538   1.502   2.170
 2075SOL     OW 7123   4.714   3.591   6.731
 2075SOL    HW1 7124   4.791   3.550   6.780
 2075SOL    HW2 7125   4.702   3.686   6.762
 2076SOL     OW 7126   4.813   0.375   1.122
 2076SOL    HW1 7127   4.816   0.407   1.027
 2076SOL    HW2 7128   4.888   0.417   1.173
 2077SOL     OW 7129   5.729   0.715   2.742
 2077SOL    HW1 7130   5.652   0.662   2.708
 2077SOL    HW2 7131   5.732   0.711   2.842
 2078SOL     OW 7132   3.231   5.200   5.537
 2078SOL    HW1 7133   3.277   5.120   5.497
 2078SOL    HW2 7134   3.240   5.197   5.637
 2079SOL     OW 7135   5.463   1.110   3.972
 2079SOL    HW1 7136   5.541   1.170   3.958
 2079SOL    HW2 7137   5.380   1.155   3.940
 2080SOL     OW 7138   2.843   2.287   4.206
 2080SOL    HW1 7139   2.786   2.333   4.273
 2080SOL    HW2 7140   2.938   2.287   4.238
 2081SOL     OW 7141   0.624   6.547   5.093
 2081SOL    HW1 7142   0.711   6.509   5.124
 2081SOL    HW2 7143   0.565   6.566   5.173
 2082SOL     OW 7144   5.367   0.836   1.645
 2082SOL    HW1 7145   5.364   0.805   1.741
 2082SOL    HW2 7146   5.301   0.783   1.591
 2083SOL     OW 7147   3.158   5.520   5.726
 2083SOL    HW1 7148   3.081   5.573   5.761
 2083SOL    HW2 7149   3.131   5.472   5.643
 2084SOL     OW 7150   0.051   2.854   3.472
 2084SOL    HW1 7151   0.111   2.925   3.510
 2084SOL    HW2 7152   0.038   2.782   3.540
 2085SOL     OW 7153   5.307   0.076   6.022
 2085SOL    HW1 7154   5.328   0.173   6.038
 2085SOL    HW2 7155   5.217   0.068   5.979
 2086SOL     OW 7156   2.968   5.134   0.729
 2086SOL    HW1 7157   3.023   5.138   0.812
 2086SOL    HW2 7158   3.025   5.155   0.650
 2087SOL     OW 7159   5.287   6.921   4.065
 2087SOL    HW1 7160   5.380   6.923   4.100
 2087SOL    HW2 7161   5.277   6.992   3.995
 2088SOL     OW 7162   3.456   0.103   0.555
 2088SOL    HW1 7163   3.413   0.118   0.466
 2088SOL    HW2 7164   3.555   0.110   0.546
 2089SOL     OW 7165   3.997   0.417   6.938
 2089SOL    HW1 7166   3.978   0.437   6.841
 2089SOL    HW2 7167   4.091   0.443   6.959
 2090SOL     OW 7168   3.605   3.290   4.458
 2090SOL    HW1 7169   3.539   3.342   4.512
 2090SOL    HW2 7170   3.634   3.346   4.380
 2091SOL     OW 7171   1.936   4.856   1.151
 2091SOL    HW1 7172   1.896   4.817   1.068
 2091SOL    HW2 7173   1.863   4.885   1.212
 2092SOL     OW 7174   6.262   6.509   0.673
 2092SOL    HW1 7175   6.321   6.430   0.657
 2092SOL    HW2 7176   6.271   6.574   0.598
 2093SOL     OW 7177   1.256   2.910   1.640
 2093SOL    HW1 7178   1.180   2.859   1.600
 2093SOL    HW2 7179   1.256   2.899   1.739
 2094SOL     OW 7180   6.037   0.113   2.386
 2094SOL    HW1 7181   6.127   0.149   2.412
 2094SOL    HW2 7182   6.030   0.017   2.413
 2095SOL     OW 7183   6.140   5.035   5.026
 2095SOL    HW1 7184   6.176   5.103   5.089
 2095SOL    HW2 7185   6.049   5.062   4.996
 2096SOL     OW 7186   4.808   4.109   2.757
 2096SOL    HW1 7187   4.761   4.082   2.673
 2096SOL    HW2 7188   4.789   4.043   2.829
 2097SOL     OW 7189   0.252   2.496   0.215
 2097SOL    HW1 7190   0.170   2.465   0.166
 2097SOL    HW2 7191   0.333   2.475   0.161
 2098SOL     OW 7192   4.612   0.440   4.216
 2098SOL    HW1 7193   4.587   0.358   4.165
 2098SOL    HW2 7194   4.551   0.515   4.192
 2099SOL     OW 7195   3.054   1.580   4.519
 2099SOL    HW1 7196   3.084   1.608   4.610
 2099SOL    HW2 7197   2.983   1.510   4.528
 2100SOL     OW 7198   4.423   3.993   6.558
 2100SOL    HW1 7199   4.444   3.912   6.503
 2100SOL    HW2 7200   4.491   4.064   6.540
 2101SOL     OW 7201   6.991   0.020   3.965
 2101SOL    HW1 7202   0.022   6.952   3.974
 2101SOL    HW2 7203   0.021   0.080   3.901
 2102SOL     OW 7204   0.209   4.805   2.490
 2102SOL    HW1 7205   0.132   4.799   2.553
 2102SOL    HW2 7206   0.238   4.712   2.463
 2103SOL     OW 7207   3.300   3.840   6.444
 2103SOL    HW1 7208   3.361   3.899   6.498
 2103SOL    HW2 7209   3.355   3.777   6.389
 2104SOL     OW 7210   1.368   3.575   5.448
 2104SOL    HW1 7211   1.434   3.630   5.396
 2104SOL    HW2 7212   1.413   3.539   5.530
 2105SOL     OW 7213   5.909   5.621   1.560
 2105SOL    HW1 7214   5.943   5.571   1.640
 2105SOL    HW2 7215   5.982   5.679   1.524
 2106SOL     OW 7216   4.730   5.570   6.735
 2106SOL    HW1 7217   4.829   5.584   6.746
 2106SOL    HW2 7218   4.695   5.518   6.813
 2107SOL     OW 7219   3.982   4.204   6.066
 2107SOL    HW1 7220   4.045   4.202   6.144
 2107SOL    HW2 7221   3.949   4.112   6.048
 2108SOL     OW 7222   5.676   5.227   6.260
 2108SOL    HW1 7223   5.699   5.139   6.219
 2108SOL    HW2 7224   5.609   5.213   6.333
 2109SOL     OW 7225   5.667   6.832   2.990
 2109SOL    HW1 7226   5.742   6.870   3.044
 2109SOL    HW2 7227   5.599   6.791   3.051
 2110SOL     OW 7228   2.550   4.552   6.426
 2110SOL    HW1 7229   2.550   4.527   6.329
 2110SOL    HW2 7230   2.471   4.611   6.445
 2111SOL     OW 7231   1.283   2.621   0.066
 2111SOL    HW1 7232   1.221   2.615   7.007
 2111SOL    HW2 7233   1.294   2.717   0.093
 2112SOL     OW 7234   4.649   3.063   1.332
 2112SOL    HW1 7235   4.718   3.002   1.370
 2112SOL    HW2 7236   4.558   3.024   1.346
 2113SOL     OW 7237   0.244   0.709   2.488
 2113SOL    HW1 7238   0.164   0.711   2.427
 2113SOL    HW2 7239   0.217   0.668   2.576
 2114SOL     OW 7240   2.295   3.982   6.716
 2114SOL    HW1 7241   2.236   3.994   6.796
 2114SOL    HW2 7242   2.325   4.071   6.682
 2115SOL     OW 7243   2.405   4.530   2.363
 2115SOL    HW1 7244   2.489   4.551   2.312
 2115SOL    HW2 7245   2.403   4.585   2.447
 2116SOL     OW 7246   0.213   4.053   3.302
 2116SOL    HW1 7247   0.143   4.122   3.285
 2116SOL    HW2 7248   0.239   4.011   3.215
 2117SOL     OW 7249   0.454   5.061   0.800
 2117SOL    HW1 7250   0.397   5.141   0.783
 2117SOL    HW2 7251   0.397   4.979   0.808
 2118SOL     OW 7252   6.826   3.812   2.241
 2118SOL    HW1 7253   6.836   3.863   2.155
 2118SOL    HW2 7254   6.908   3.823   2.296
 2119SOL     OW 7255   2.699   6.135   1.440
 2119SOL    HW1 7256   2.767   6.134   1.514
 2119SOL    HW2 7257   2.607   6.141   1.479
 2120SOL     OW 7258   6.924   5.013   2.180
 2120SOL    HW1 7259   7.004   5.050   2.132
 2120SOL    HW2 7260   6.949   4.992   2.275
 2121SOL     OW 7261   0.703   5.104   4.781
 2121SOL    HW1 7262   0.726   5.078   4.687
 2121SOL    HW2 7263   0.613   5.067   4.805
 2122SOL     OW 7264   4.844   4.209   4.772
 2122SOL    HW1 7265   4.930   4.218   4.721
 2122SOL    HW2 7266   4.862   4.217   4.870
 2123SOL     OW 7267   6.113   4.883   3.419
 2123SOL    HW1 7268   6.125   4.788   3.447
 2123SOL    HW2 7269   6.027   4.918   3.455
 2124SOL     OW 7270   1.796   2.484   0.592
 2124SOL    HW1 7271   1.787   2.543   0.511
 2124SOL    HW2 7272   1.875   2.424   0.580
 2125SOL     OW 7273   3.116   0.031   0.587
 2125SOL    HW1 7274   3.124   0.088   0.505
 2125SOL    HW2 7275   3.030   6.998   0.584
 2126SOL     OW 7276   2.569   0.841   0.289
 2126SOL    HW1 7277   2.513   0.764   0.319
 2126SOL    HW2 7278   2.647   0.852   0.351
 2127SOL     OW 7279   5.703   3.238   5.056
 2127SOL    HW1 7280   5.683   3.303   4.983
 2127SOL    HW2 7281   5.743   3.155   5.017
 2128SOL     OW 7282   0.496   4.993   4.412
 2128SOL    HW1 7283   0.579   4.939   4.396
 2128SOL    HW2 7284   0.455   5.016   4.324
 2129SOL     OW 7285   3.915   1.882   5.586
 2129SOL    HW1 7286   3.851   1.952   5.555
 2129SOL    HW2 7287   3.903   1.868   5.685
 2130SOL     OW 7288   4.478   5.988   2.237
 2130SOL    HW1 7289   4.505   6.083   2.217
 2130SOL    HW2 7290   4.560   5.932   2.247
 2131SOL     OW 7291   6.729   1.799   0.550
 2131SOL    HW1 7292   6.633   1.794   0.522
 2131SOL    HW2 7293   6.735   1.789   0.649
 2132SOL     OW 7294   2.014   3.266   0.324
 2132SOL    HW1 7295   2.062   3.295   0.241
 2132SOL    HW2 7296   2.033   3.331   0.397
 2133SOL     OW 7297   3.037   2.629   5.919
 2133SOL    HW1 7298   2.991   2.663   5.837
 2133SOL    HW2 7299   3.001   2.676   6.000
 2134SOL     OW 7300   1.134   0.122   0.029
 2134SOL    HW1 7301   1.147   0.220   0.013
 2134SOL    HW2 7302   1.202   0.071   6.995
 2135SOL     OW 7303   0.696   3.810   4.090
 2135SOL    HW1 7304   0.655   3.833   4.001
 2135SOL    HW2 7305   0.663   3.721   4.119
 2136SOL     OW 7306   2.085   5.719   2.050
 2136SOL    HW1 7307   2.133   5.653   1.992
 2136SOL    HW2 7308   2.092   5.810   2.010
 2137SOL     OW 7309   2.307   5.617   3.732
 2137SOL    HW1 7310   2.346   5.586   3.645
 2137SOL    HW2 7311   2.346   5.564   3.807
 2138SOL     OW 7312   5.070   1.647   2.414
 2138SOL    HW1 7313   5.112   1.564   2.451
 2138SOL    HW2 7314   5.134   1.692   2.352
 2139SOL     OW 7315   2.682   0.840   5.426
 2139SOL    HW1 7316   2.699   0.820   5.329
 2139SOL    HW2 7317   2.646   0.759   5.471
 2140SOL     OW 7318   2.329   1.336   5.674
 2140SOL    HW1 7319   2.352   1.367   5.766
 2140SOL    HW2 7320   2.412   1.303   5.628
 2141SOL     OW 7321   6.149   4.394   2.548
 2141SOL    HW1 7322   6.167   4.299   2.571
 2141SOL    HW2 7323   6.132   4.446   2.632
 2142SOL     OW 7324   1.945   1.291   2.811
 2142SOL    HW1 7325   1.864   1.236   2.832
 2142SOL    HW2 7326   1.924   1.388   2.823
 2143SOL     OW 7327   1.479   4.781   0.348
 2143SOL    HW1 7328   1.567   4.742   0.322
 2143SOL    HW2 7329   1.492   4.873   0.384
 2144SOL     OW 7330   5.812   5.898   4.178
 2144SOL    HW1 7331   5.844   5.854   4.261
 2144SOL    HW2 7332   5.830   5.840   4.099
 2145SOL     OW 7333   4.173   0.029   3.440
 2145SOL    HW1 7334   4.147   0.126   3.436
 2145SOL    HW2 7335   4.262   0.016   3.396
 2146SOL     OW 7336   1.969   3.147   0.605
 2146SOL    HW1 7337   2.033   3.071   0.621
 2146SOL    HW2 7338   1.999   3.200   0.526
 2147SOL     OW 7339   5.851   0.991   4.904
 2147SOL    HW1 7340   5.803   0.944   4.978
 2147SOL    HW2 7341   5.820   0.955   4.816
 2148SOL     OW 7342   0.453   3.163   6.666
 2148SOL    HW1 7343   0.353   3.167   6.673
 2148SOL    HW2 7344   0.492   3.250   6.697
 2149SOL     OW 7345   0.584   0.283   6.956
 2149SOL    HW1 7346   0.569   0.188   6.926
 2149SOL    HW2 7347   0.552   0.346   6.885
 2150SOL     OW 7348   2.403   3.198   1.076
 2150SOL    HW1 7349   2.308   3.169   1.064
 2150SOL    HW2 7350   2.411   3.297   1.062
 2151SOL     OW 7351   1.124   5.416   0.521
 2151SOL    HW1 7352   1.093   5.371   0.605
 2151SOL    HW2 7353   1.212   5.460   0.538
 2152SOL     OW 7354   3.760   5.862   3.828
 2152SOL    HW1 7355   3.798   5.939   3.776
 2152SOL    HW2 7356   3.779   5.876   3.925
 2153SOL     OW 7357   4.626   1.010   3.773
 2153SOL    HW1 7358   4.670   1.073   3.837
 2153SOL    HW2 7359   4.559   1.060   3.718
 2154SOL     OW 7360   2.865   0.032   3.169
 2154SOL    HW1 7361   2.796   7.007   3.226
 2154SOL    HW2 7362   2.919   6.980   3.122
 2155SOL     OW 7363   5.002   6.898   1.056
 2155SOL    HW1 7364   4.988   6.947   1.143
 2155SOL    HW2 7365   5.051   6.813   1.074
 2156SOL     OW 7366   5.907   2.020   4.204
 2156SOL    HW1 7367   5.872   2.089   4.142
 2156SOL    HW2 7368   5.924   2.060   4.294
 2157SOL     OW 7369   3.488   5.791   4.031
 2157SOL    HW1 7370   3.432   5.772   4.112
 2157SOL    HW2 7371   3.430   5.792   3.950
 2158SOL     OW 7372   3.502   0.423   0.018
 2158SOL    HW1 7373   3.578   0.471   6.993
 2158SOL    HW2 7374   3.427   0.487   0.034
 2159SOL     OW 7375   1.497   0.585   5.765
 2159SOL    HW1 7376   1.557   0.511   5.734
 2159SOL    HW2 7377   1.406   0.548   5.783
 2160SOL     OW 7378   5.777   6.133   0.257
 2160SOL    HW1 7379   5.827   6.145   0.342
 2160SOL    HW2 7380   5.737   6.221   0.229
 2161SOL     OW 7381   1.227   2.474   2.409
 2161SOL    HW1 7382   1.203   2.502   2.316
 2161SOL    HW2 7383   1.319   2.507   2.432
 2162SOL     OW 7384   1.011   6.934   2.113
 2162SOL    HW1 7385   1.058   7.006   2.062
 2162SOL    HW2 7386   0.946   6.975   2.176
 2163SOL     OW 7387   1.526   3.044   2.544
 2163SOL    HW1 7388   1.463   3.067   2.618
 2163SOL    HW2 7389   1.588   2.971   2.574
 2164SOL     OW 7390   1.480   2.570   2.507
 2164SOL    HW1 7391   1.557   2.547   2.566
 2164SOL    HW2 7392   1.499   2.541   2.413
 2165SOL     OW 7393   0.067   1.608   3.780
 2165SOL    HW1 7394   0.043   1.542   3.853
 2165SOL    HW2 7395   7.008   1.670   3.765
 2166SOL     OW 7396   6.700   3.992   2.808
 2166SOL    HW1 7397   6.697   3.905   2.759
 2166SOL    HW2 7398   6.751   3.979   2.893
 2167SOL     OW 7399   2.665   1.809   3.790
 2167SOL    HW1 7400   2.630   1.890   3.839
 2167SOL    HW2 7401   2.737   1.766   3.845
 2168SOL     OW 7402   1.896   1.575   3.149
 2168SOL    HW1 7403   1.973   1.552   3.090
 2168SOL    HW2 7404   1.878   1.673   3.142
 2169SOL     OW 7405   0.341   0.467   1.677
 2169SOL    HW1 7406   0.307   0.380   1.643
 2169SOL    HW2 7407   0.303   0.542   1.623
 2170SOL     OW 7408   0.746   4.150   5.439
 2170SOL    HW1 7409   0.713   4.071   5.388
 2170SOL    HW2 7410   0.724   4.234   5.389
 2171SOL     OW 7411   0.445   5.275   1.468
 2171SOL    HW1 7412   0.477   5.269   1.562
 2171SOL    HW2 7413   0.361   5.222   1.457
 2172SOL     OW 7414   1.239   1.554   4.681
 2172SOL    HW1 7415   1.168   1.586   4.617
 2172SOL    HW2 7416   1.305   1.627   4.696
 2173SOL     OW 7417   5.581   0.408   5.061
 2173SOL    HW1 7418   5.546   0.455   4.980
 2173SOL    HW2 7419   5.544   0.451   5.143
 2174SOL     OW 7420   0.184   6.549   5.627
 2174SOL    HW1 7421   0.120   6.529   5.700
 2174SOL    HW2 7422   0.226   6.639   5.643
 2175SOL     OW 7423   2.969   4.062   5.228
 2175SOL    HW1 7424   2.911   4.024   5.300
 2175SOL    HW2 7425   2.999   4.154   5.254
 2176SOL     OW 7426   5.642   2.061   1.647
 2176SOL    HW1 7427   5.603   2.025   1.562
 2176SOL    HW2 7428   5.725   2.011   1.670
 2177SOL     OW 7429   0.585   0.327   3.832
 2177SOL    HW1 7430   0.567   0.398   3.764
 2177SOL    HW2 7431   0.580   0.367   3.924
 2178SOL     OW 7432   0.899   2.121   2.410
 2178SOL    HW1 7433   0.953   2.109   2.493
 2178SOL    HW2 7434   0.803   2.098   2.429
 2179SOL     OW 7435   1.587   4.275   6.032
 2179SOL    HW1 7436   1.602   4.269   5.933
 2179SOL    HW2 7437   1.564   4.185   6.068
 2180SOL     OW 7438   0.848   6.199   2.308
 2180SOL    HW1 7439   0.927   6.258   2.292
 2180SOL    HW2 7440   0.832   6.189   2.406
 2181SOL     OW 7441   4.198   4.757   4.541
 2181SOL    HW1 7442   4.281   4.737   4.592
 2181SOL    HW2 7443   4.125   4.695   4.570
 2182SOL     OW 7444   0.213   5.069   2.495
 2182SOL    HW1 7445   0.264   5.124   2.562
 2182SOL    HW2 7446   0.240   4.973   2.505
 2183SOL     OW 7447   3.325   2.773   0.239
 2183SOL    HW1 7448   3.237   2.725   0.230
 2183SOL    HW2 7449   3.311   2.860   0.286
 2184SOL     OW 7450   6.230   1.162   6.596
 2184SOL    HW1 7451   6.285   1.177   6.677
 2184SOL    HW2 7452   6.165   1.087   6.612
 2185SOL     OW 7453   0.719   0.544   7.004
 2185SOL    HW1 7454   0.720   0.584   6.913
 2185SOL    HW2 7455   0.684   0.450   6.999
 2186SOL     OW 7456   0.099   4.792   5.326
 2186SOL    HW1 7457   0.038   4.871   5.325
 2186SOL    HW2 7458   0.115   4.763   5.420
 2187SOL     OW 7459   0.547   5.301   3.085
 2187SOL    HW1 7460   0.557   5.389   3.038
 2187SOL    HW2 7461   0.635   5.255   3.088
 2188SOL     OW 7462   2.287   0.461   1.115
 2188SOL    HW1 7463   2.239   0.486   1.199
 2188SOL    HW2 7464   2.226   0.405   1.058
 2189SOL     OW 7465   2.697   2.010   1.457
 2189SOL    HW1 7466   2.771   1.945   1.475
 2189SOL    HW2 7467   2.735   2.103   1.453
 2190SOL     OW 7468   6.102   4.150   2.338
 2190SOL    HW1 7469   6.123   4.230   2.283
 2190SOL    HW2 7470   6.025   4.101   2.298
 2191SOL     OW 7471   2.659   0.043   0.611
 2191SOL    HW1 7472   2.691   0.100   0.535
 2191SOL    HW2 7473   2.727   6.991   0.631
 2192SOL     OW 7474   4.322   1.323   1.058
 2192SOL    HW1 7475   4.235   1.274   1.047
 2192SOL    HW2 7476   4.331   1.391   0.986
 2193SOL     OW 7477   1.231   6.594   6.465
 2193SOL    HW1 7478   1.184   6.516   6.507
 2193SOL    HW2 7479   1.172   6.675   6.469
 2194SOL     OW 7480   0.793   3.636   6.182
 2194SOL    HW1 7481   0.815   3.719   6.131
 2194SOL    HW2 7482   0.694   3.624   6.186
 2195SOL     OW 7483   0.680   4.166   6.160
 2195SOL    HW1 7484   0.652   4.156   6.064
 2195SOL    HW2 7485   0.670   4.078   6.207
 2196SOL     OW 7486   2.885   6.408   5.412
 2196SOL    HW1 7487   2.948   6.334   5.434
 2196SOL    HW2 7488   2.891   6.479   5.481
 2197SOL     OW 7489   2.801   5.404   5.572
 2197SOL    HW1 7490   2.723   5.396   5.511
 2197SOL    HW2 7491   2.860   5.324   5.563
 2198SOL     OW 7492   0.554   0.815   6.457
 2198SOL    HW1 7493   0.487   0.741   6.445
 2198SOL    HW2 7494   0.583   0.849   6.368
 2199SOL     OW 7495   4.309   6.431   4.425
 2199SOL    HW1 7496   4.296   6.368   4.348
 2199SOL    HW2 7497   4.379   6.498   4.402
 2200SOL     OW 7498   2.595   1.586   4.492
 2200SOL    HW1 7499   2.546   1.635   4.564
 2200SOL    HW2 7500   2.660   1.647   4.448
 2201SOL     OW 7501   6.030   3.858   3.735
 2201SOL    HW1 7502   5.973   3.788   3.778
 2201SOL    HW2 7503   6.071   3.916   3.805
 2202SOL     OW 7504   3.992   5.801   2.056
 2202SOL    HW1 7505   3.947   5.764   2.138
 2202SOL    HW2 7506   4.080   5.841   2.082
 2203SOL     OW 7507   2.166   3.276   0.845
 2203SOL    HW1 7508   2.168   3.185   0.887
 2203SOL    HW2 7509   2.071   3.303   0.829
 2204SOL     OW 7510   5.050   3.007   1.181
 2204SOL    HW1 7511   5.005   2.948   1.114
 2204SOL    HW2 7512   5.130   2.961   1.219
 2205SOL     OW 7513   0.643   5.004   0.372
 2205SOL    HW1 7514   0.722   5.007   0.434
 2205SOL    HW2 7515   0.563   5.042   0.418
 2206SOL     OW 7516   2.528   2.295   6.002
 2206SOL    HW1 7517   2.497   2.332   6.090
 2206SOL    HW2 7518   2.611   2.342   5.973
 2207SOL     OW 7519   4.681   6.134   0.878
 2207SOL    HW1 7520   4.661   6.049   0.828
 2207SOL    HW2 7521   4.654   6.212   0.822
 2208SOL     OW 7522   0.762   5.980   4.165
 2208SOL    HW1 7523   0.734   6.046   4.095
 2208SOL    HW2 7524   0.761   6.024   4.254
 2209SOL     OW 7525   3.205   5.513   4.350
 2209SOL    HW1 7526   3.253   5.456   4.283
 2209SOL    HW2 7527   3.120   5.468   4.377
 2210SOL     OW 7528   4.664   6.561   1.269
 2210SOL    HW1 7529   4.680   6.659   1.263
 2210SOL    HW2 7530   4.633   6.526   1.181
 2211SOL     OW 7531   6.804   1.635   1.060
 2211SOL    HW1 7532   6.870   1.656   1.133
 2211SOL    HW2 7533   6.820   1.543   1.026
 2212SOL     OW 7534   2.652   5.907   6.400
 2212SOL    HW1 7535   2.565   5.879   6.359
 2212SOL    HW2 7536   2.639   5.991   6.453
 2213SOL     OW 7537   3.441   2.135   4.335
 2213SOL    HW1 7538   3.391   2.060   4.378
 2213SOL    HW2 7539   3.438   2.216   4.394
 2214SOL     OW 7540   3.899   3.396   6.381
 2214SOL    HW1 7541   3.947   3.313   6.410
 2214SOL    HW2 7542   3.964   3.459   6.338
 2215SOL     OW 7543   4.438   0.016   6.657
 2215SOL    HW1 7544   4.510   0.069   6.704
 2215SOL    HW2 7545   4.379   0.079   6.607
 2216SOL     OW 7546   0.924   6.974   5.866
 2216SOL    HW1 7547   0.837   6.930   5.842
 2216SOL    HW2 7548   0.906   0.046   5.906
 2217SOL     OW 7549   4.130   0.292   3.444
 2217SOL    HW1 7550   4.096   0.288   3.350
 2217SOL    HW2 7551   4.159   0.385   3.465
 2218SOL     OW 7552   0.454   5.184   5.927
 2218SOL    HW1 7553   0.418   5.156   6.016
 2218SOL    HW2 7554   0.475   5.103   5.872
 2219SOL     OW 7555   5.614   0.944   0.780
 2219SOL    HW1 7556   5.637   0.847   0.786
 2219SOL    HW2 7557   5.698   0.998   0.793
 2220SOL     OW 7558   0.690   5.866   5.618
 2220SOL    HW1 7559   0.644   5.941   5.667
 2220SOL    HW2 7560   0.636   5.782   5.628
 2221SOL     OW 7561   6.650   1.416   3.685
 2221SOL    HW1 7562   6.649   1.498   3.742
 2221SOL    HW2 7563   6.656   1.335   3.744
 2222SOL     OW 7564   4.712   5.892   1.480
 2222SOL    HW1 7565   4.614   5.877   1.482
 2222SOL    HW2 7566   4.741   5.916   1.387
 2223SOL     OW 7567   6.977   6.469   5.812
 2223SOL    HW1 7568   0.023   6.394   5.829
 2223SOL    HW2 7569   6.886   6.431   5.793
 2224SOL     OW 7570   5.609   3.895   0.446
 2224SOL    HW1 7571   5.650   3.936   0.365
 2224SOL    HW2 7572   5.659   3.812   0.471
 2225SOL     OW 7573   0.297   0.098   3.449
 2225SOL    HW1 7574   0.385   0.131   3.415
 2225SOL    HW2 7575   0.285   0.002   3.422
 2226SOL     OW 7576   2.416   5.109   0.695
 2226SOL    HW1 7577   2.498   5.161   0.718
 2226SOL    HW2 7578   2.360   5.161   0.631
 2227SOL     OW 7579   4.076   2.218   2.140
 2227SOL    HW1 7580   4.069   2.179   2.049
 2227SOL    HW2 7581   4.155   2.280   2.144
 2228SOL     OW 7582   5.052   5.089   0.023
 2228SOL    HW1 7583   4.987   5.135   6.982
 2228SOL    HW2 7584   5.117   5.155   0.060
 2229SOL     OW 7585   3.650   3.389   4.139
 2229SOL    HW1 7586   3.621   3.470   4.088
 2229SOL    HW2 7587   3.743   3.363   4.112
 2230SOL     OW 7588   5.414   6.493   0.699
 2230SOL    HW1 7589   5.431   6.405   0.653
 2230SOL    HW2 7590   5.471   6.564   0.657
 2231SOL     OW 7591   1.189   0.188   6.676
 2231SOL    HW1 7592   1.230   0.274   6.647
 2231SOL    HW2 7593   1.100   0.205   6.719
 2232SOL     OW 7594   1.385   0.405   5.464
 2232SOL    HW1 7595   1.477   0.377   5.436
 2232SOL    HW2 7596   1.377   0.399   5.564
 2233SOL     OW 7597   2.693   3.862   0.643
 2233SOL    HW1 7598   2.621   3.863   0.711
 2233SOL    HW2 7599   2.775   3.819   0.681
 2234SOL     OW 7600   4.223   1.316   0.728
 2234SOL    HW1 7601   4.238   1.259   0.647
 2234SOL    HW2 7602   4.307   1.366   0.750
 2235SOL     OW 7603   2.625   1.066   2.629
 2235SOL    HW1 7604   2.664   1.128   2.697
 2235SOL    HW2 7605   2.547   1.110   2.585
 2236SOL     OW 7606   2.048   4.051   5.565
 2236SOL    HW1 7607   1.975   4.090   5.509
 2236SOL    HW2 7608   2.060   4.106   5.648
 2237SOL     OW 7609   6.264   4.822   4.883
 2237SOL    HW1 7610   6.228   4.807   4.791
 2237SOL    HW2 7611   6.224   4.904   4.922
 2238SOL     OW 7612   5.271   4.203   2.336
 2238SOL    HW1 7613   5.199   4.147   2.295
 2238SOL    HW2 7614   5.332   4.238   2.265
 2239SOL     OW 7615   3.906   6.736   3.711
 2239SOL    HW1 7616   3.884   6.683   3.793
 2239SOL    HW2 7617   3.998   6.773   3.719
 2240SOL     OW 7618   4.738   5.290   3.495
 2240SOL    HW1 7619   4.681   5.208   3.493
 2240SOL    HW2 7620   4.679   5.371   3.499
 2241SOL     OW 7621   0.297   6.888   1.924
 2241SOL    HW1 7622   0.240   6.807   1.912
 2241SOL    HW2 7623   0.318   6.899   2.021
 2242SOL     OW 7624   4.914   3.285   2.968
 2242SOL    HW1 7625   4.818   3.304   2.989
 2242SOL    HW2 7626   4.936   3.318   2.876
 2243SOL     OW 7627   1.667   6.467   0.547
 2243SOL    HW1 7628   1.599   6.430   0.484
 2243SOL    HW2 7629   1.638   6.448   0.641
 2244SOL     OW 7630   2.409   0.418   0.792
 2244SOL    HW1 7631   2.422   0.490   0.861
 2244SOL    HW2 7632   2.438   0.330   0.830
 2245SOL     OW 7633   0.488   0.562   0.190
 2245SOL    HW1 7634   0.579   0.595   0.164
 2245SOL    HW2 7635   0.418   0.609   0.137
 2246SOL     OW 7636   2.080   1.147   5.368
 2246SOL    HW1 7637   2.062   1.087   5.290
 2246SOL    HW2 7638   2.144   1.219   5.341
 2247SOL     OW 7639   3.076   3.995   2.576
 2247SOL    HW1 7640   3.067   3.995   2.476
 2247SOL    HW2 7641   3.167   4.029   2.601
 2248SOL     OW 7642   5.547   4.129   5.360
 2248SOL    HW1 7643   5.565   4.033   5.339
 2248SOL    HW2 7644   5.631   4.182   5.347
 2249SOL     OW 7645   2.400   6.776   3.810
 2249SOL    HW1 7646   2.368   6.721   3.733
 2249SOL    HW2 7647   2.500   6.775   3.812
 2250SOL     OW 7648   4.233   4.551   6.287
 2250SOL    HW1 7649   4.223   4.608   6.205
 2250SOL    HW2 7650   4.216   4.605   6.368
 2251SOL     OW 7651   5.065   6.924   5.874
 2251SOL    HW1 7652   5.009   6.956   5.797
 2251SOL    HW2 7653   5.137   6.863   5.839
 2252SOL     OW 7654   4.574   1.721   2.773
 2252SOL    HW1 7655   4.489   1.669   2.764
 2252SOL    HW2 7656   4.637   1.671   2.833
 2253SOL     OW 7657   0.665   3.725   0.593
 2253SOL    HW1 7658   0.671   3.668   0.674
 2253SOL    HW2 7659   0.684   3.820   0.618
 2254SOL     OW 7660   3.876   3.621   3.046
 2254SOL    HW1 7661   3.817   3.696   3.076
 2254SOL    HW2 7662   3.831   3.533   3.064
 2255SOL     OW 7663   2.950   4.046   5.619
 2255SOL    HW1 7664   2.886   3.993   5.564
 2255SOL    HW2 7665   3.044   4.017   5.597
 2256SOL     OW 7666   5.028   6.533   1.903
 2256SOL    HW1 7667   4.945   6.503   1.951
 2256SOL    HW2 7668   5.052   6.625   1.934
 2257SOL     OW 7669   7.003   1.438   4.652
 2257SOL    HW1 7670   0.006   1.459   4.747
 2257SOL    HW2 7671   0.020   1.347   4.630
 2258SOL     OW 7672   2.199   6.576   4.362
 2258SOL    HW1 7673   2.186   6.669   4.395
 2258SOL    HW2 7674   2.110   6.535   4.340
 2259SOL     OW 7675   6.693   2.509   4.746
 2259SOL    HW1 7676   6.719   2.431   4.804
 2259SOL    HW2 7677   6.719   2.489   4.652
 2260SOL     OW 7678   1.145   4.039   1.446
 2260SOL    HW1 7679   1.071   4.075   1.390
 2260SOL    HW2 7680   1.132   3.941   1.460
 2261SOL     OW 7681   5.650   3.759   6.847
 2261SOL    HW1 7682   5.618   3.847   6.883
 2261SOL    HW2 7683   5.629   3.687   6.913
 2262SOL     OW 7684   6.529   0.612   4.517
 2262SOL    HW1 7685   6.529   0.575   4.610
 2262SOL    HW2 7686   6.566   0.544   4.454
 2263SOL     OW 7687   1.506   4.402   0.284
 2263SOL    HW1 7688   1.442   4.440   0.351
 2263SOL    HW2 7689   1.478   4.310   0.258
 2264SOL     OW 7690   1.996   6.877   6.300
 2264SOL    HW1 7691   2.015   6.789   6.255
 2264SOL    HW2 7692   1.921   6.866   6.365
 2265SOL     OW 7693   1.117   6.380   3.906
 2265SOL    HW1 7694   1.148   6.322   3.982
 2265SOL    HW2 7695   1.187   6.447   3.884
 2266SOL     OW 7696   4.899   1.386   6.669
 2266SOL    HW1 7697   4.995   1.412   6.672
 2266SOL    HW2 7698   4.875   1.359   6.575
 2267SOL     OW 7699   4.795   3.012   4.688
 2267SOL    HW1 7700   4.800   2.917   4.719
 2267SOL    HW2 7701   4.821   3.073   4.763
 2268SOL     OW 7702   6.538   4.626   6.114
 2268SOL    HW1 7703   6.463   4.651   6.053
 2268SOL    HW2 7704   6.614   4.588   6.061
 2269SOL     OW 7705   1.795   2.864   5.115
 2269SOL    HW1 7706   1.776   2.953   5.155
 2269SOL    HW2 7707   1.756   2.792   5.173
 2270SOL     OW 7708   4.892   2.387   6.352
 2270SOL    HW1 7709   4.951   2.388   6.271
 2270SOL    HW2 7710   4.847   2.298   6.360
 2271SOL     OW 7711   5.767   4.564   6.128
 2271SOL    HW1 7712   5.832   4.491   6.109
 2271SOL    HW2 7713   5.674   4.527   6.132
 2272SOL     OW 7714   6.101   1.199   6.016
 2272SOL    HW1 7715   6.098   1.267   6.090
 2272SOL    HW2 7716   6.095   1.107   6.055
 2273SOL     OW 7717   1.949   2.571   2.232
 2273SOL    HW1 7718   1.983   2.654   2.190
 2273SOL    HW2 7719   1.893   2.595   2.312
 2274SOL     OW 7720   0.843   1.009   0.395
 2274SOL    HW1 7721   0.842   0.978   0.490
 2274SOL    HW2 7722   0.772   0.961   0.343
 2275SOL     OW 7723   5.635   4.853   2.646
 2275SOL    HW1 7724   5.682   4.937   2.672
 2275SOL    HW2 7725   5.701   4.786   2.613
 2276SOL     OW 7726   1.805   1.409   1.614
 2276SOL    HW1 7727   1.778   1.494   1.569
 2276SOL    HW2 7728   1.802   1.334   1.548
 2277SOL     OW 7729   3.269   3.944   3.322
 2277SOL    HW1 7730   3.290   3.992   3.408
 2277SOL    HW2 7731   3.304   3.997   3.245
 2278SOL     OW 7732   0.838   2.087   3.593
 2278SOL    HW1 7733   0.882   2.173   3.565
 2278SOL    HW2 7734   0.901   2.011   3.580
 2279SOL     OW 7735   0.400   5.850   5.827
 2279SOL    HW1 7736   0.473   5.911   5.857
 2279SOL    HW2 7737   0.338   5.832   5.903
 2280SOL     OW 7738   4.711   1.314   5.067
 2280SOL    HW1 7739   4.705   1.243   5.138
 2280SOL    HW2 7740   4.802   1.310   5.024
 2281SOL     OW 7741   5.076   6.369   2.280
 2281SOL    HW1 7742   5.060   6.433   2.355
 2281SOL    HW2 7743   5.149   6.404   2.222
 2282SOL     OW 7744   4.240   5.670   5.518
 2282SOL    HW1 7745   4.162   5.645   5.461
 2282SOL    HW2 7746   4.240   5.769   5.532
 2283SOL     OW 7747   1.099   0.692   3.675
 2283SOL    HW1 7748   1.186   0.737   3.655
 2283SOL    HW2 7749   1.077   0.628   3.601
 2284SOL     OW 7750   1.429   3.109   6.070
 2284SOL    HW1 7751   1.507   3.136   6.126
 2284SOL    HW2 7752   1.356   3.075   6.130
 2285SOL     OW 7753   1.159   3.923   6.994
 2285SOL    HW1 7754   1.071   3.935   0.021
 2285SOL    HW2 7755   1.191   4.011   6.959
 2286SOL     OW 7756   4.795   6.214   3.822
 2286SOL    HW1 7757   4.844   6.301   3.818
 2286SOL    HW2 7758   4.786   6.185   3.917
 2287SOL     OW 7759   1.882   0.788   3.402
 2287SOL    HW1 7760   1.853   0.732   3.325
 2287SOL    HW2 7761   1.933   0.867   3.369
 2288SOL     OW 7762   0.325   5.418   3.303
 2288SOL    HW1 7763   0.347   5.326   3.334
 2288SOL    HW2 7764   0.409   5.468   3.281
 2289SOL     OW 7765   0.942   6.108   2.052
 2289SOL    HW1 7766   0.941   6.124   2.151
 2289SOL    HW2 7767   0.969   6.014   2.033
 2290SOL     OW 7768   0.761   5.199   1.453
 2290SOL    HW1 7769   0.676   5.152   1.427
 2290SOL    HW2 7770   0.789   5.260   1.379
 2291SOL     OW 7771   3.103   1.763   5.619
 2291SOL    HW1 7772   3.071   1.858   5.623
 2291SOL    HW2 7773   3.028   1.702   5.645
 2292SOL     OW 7774   1.169   0.974   4.887
 2292SOL    HW1 7775   1.178   0.890   4.941
 2292SOL    HW2 7776   1.072   0.994   4.873
 2293SOL     OW 7777   5.325   5.650   1.932
 2293SOL    HW1 7778   5.360   5.653   2.026
 2293SOL    HW2 7779   5.400   5.666   1.868
 2294SOL     OW 7780   4.169   6.459   6.935
 2294SOL    HW1 7781   4.159   6.482   6.838
 2294SOL    HW2 7782   4.107   6.515   6.989
 2295SOL     OW 7783   0.727   2.095   1.145
 2295SOL    HW1 7784   0.737   2.025   1.216
 2295SOL    HW2 7785   0.743   2.054   1.056
 2296SOL     OW 7786   3.050   0.192   0.385
 2296SOL    HW1 7787   2.954   0.210   0.406
 2296SOL    HW2 7788   3.056   0.133   0.305
 2297SOL     OW 7789   4.139   4.664   5.564
 2297SOL    HW1 7790   4.052   4.621   5.588
 2297SOL    HW2 7791   4.179   4.616   5.485
 2298SOL     OW 7792   3.693   1.994   1.509
 2298SOL    HW1 7793   3.762   1.948   1.454
 2298SOL    HW2 7794   3.736   2.034   1.590
 2299SOL     OW 7795   5.361   6.166   6.922
 2299SOL    HW1 7796   5.313   6.078   6.924
 2299SOL    HW2 7797   5.295   6.240   6.919
 2300SOL     OW 7798   1.644   5.274   1.770
 2300SOL    HW1 7799   1.597   5.338   1.708
 2300SOL    HW2 7800   1.592   5.188   1.774
 2301SOL     OW 7801   3.701   3.384   2.807
 2301SOL    HW1 7802   3.617   3.354   2.762
 2301SOL    HW2 7803   3.710   3.339   2.895
 2302SOL     OW 7804   3.168   5.728   2.795
 2302SOL    HW1 7805   3.084   5.675   2.806
 2302SOL    HW2 7806   3.146   5.826   2.800
 2303SOL     OW 7807   1.182   2.950   4.472
 2303SOL    HW1 7808   1.194   3.048   4.486
 2303SOL    HW2 7809   1.090   2.932   4.438
 2304SOL     OW 7810   2.179   0.959   3.515
 2304SOL    HW1 7811   2.136   0.980   3.603
 2304SOL    HW2 7812   2.119   0.989   3.441
 2305SOL     OW 7813   3.648   5.640   2.219
 2305SOL    HW1 7814   3.647   5.540   2.218
 2305SOL    HW2 7815   3.732   5.672   2.263
 2306SOL     OW 7816   1.838   4.366   1.616
 2306SOL    HW1 7817   1.893   4.313   1.680
 2306SOL    HW2 7818   1.843   4.324   1.525
 2307SOL     OW 7819   0.978   2.437   2.987
 2307SOL    HW1 7820   1.056   2.501   2.984
 2307SOL    HW2 7821   1.012   2.343   2.986
 2308SOL     OW 7822   0.704   0.673   6.772
 2308SOL    HW1 7823   0.621   0.723   6.751
 2308SOL    HW2 7824   0.753   0.652   6.687
 2309SOL     OW 7825   3.398   5.100   0.066
 2309SOL    HW1 7826   3.463   5.088   7.010
 2309SOL    HW2 7827   3.305   5.092   0.031
 2310SOL     OW 7828   5.804   1.101   1.718
 2310SOL    HW1 7829   5.712   1.064   1.710
 2310SOL    HW2 7830   5.842   1.077   1.808
 2311SOL     OW 7831   2.741   0.056   2.263
 2311SOL    HW1 7832   2.815   7.007   2.260
 2311SOL    HW2 7833   2.657   0.013   2.297
 2312SOL     OW 7834   4.326   0.335   2.733
 2312SOL    HW1 7835   4.287   0.243   2.733
 2312SOL    HW2 7836   4.282   0.390   2.805
 2313SOL     OW 7837   4.731   4.214   2.211
 2313SOL    HW1 7838   4.656   4.240   2.152
 2313SOL    HW2 7839   4.761   4.292   2.266
 2314SOL     OW 7840   5.987   0.789   3.752
 2314SOL    HW1 7841   5.980   0.799   3.852
 2314SOL    HW2 7842   5.896   0.775   3.714
 2315SOL     OW 7843   4.494   4.170   5.899
 2315SOL    HW1 7844   4.406   4.124   5.887
 2315SOL    HW2 7845   4.493   4.222   5.985
 2316SOL     OW 7846   2.815   1.157   6.300
 2316SOL    HW1 7847   2.750   1.109   6.240
 2316SOL    HW2 7848   2.904   1.162   6.254
 2317SOL     OW 7849   6.151   6.365   4.034
 2317SOL    HW1 7850   6.087   6.290   4.013
 2317SOL    HW2 7851   6.176   6.412   3.950
 2318SOL     OW 7852   2.189   4.130   4.480
 2318SOL    HW1 7853   2.202   4.032   4.490
 2318SOL    HW2 7854   2.271   4.178   4.510
 2319SOL     OW 7855   2.025   5.377   4.557
 2319SOL    HW1 7856   2.027   5.443   4.632
 2319SOL    HW2 7857   1.964   5.410   4.485
 2320SOL     OW 7858   1.162   3.388   5.466
 2320SOL    HW1 7859   1.243   3.444   5.482
 2320SOL    HW2 7860   1.169   3.344   5.377
 2321SOL     OW 7861   2.750   4.899   5.958
 2321SOL    HW1 7862   2.669   4.928   5.907
 2321SOL    HW2 7863   2.822   4.968   5.949
 2322SOL     OW 7864   2.112   3.619   2.166
 2322SOL    HW1 7865   2.124   3.709   2.126
 2322SOL    HW2 7866   2.142   3.549   2.101
 2323SOL     OW 7867   2.863   4.761   1.561
 2323SOL    HW1 7868   2.815   4.675   1.578
 2323SOL    HW2 7869   2.940   4.769   1.625
 2324SOL     OW 7870   0.138   5.970   2.355
 2324SOL    HW1 7871   0.140   5.870   2.356
 2324SOL    HW2 7872   0.130   6.003   2.261
 2325SOL     OW 7873   6.707   4.750   1.603
 2325SOL    HW1 7874   6.663   4.838   1.621
 2325SOL    HW2 7875   6.806   4.761   1.606
 2326SOL     OW 7876   1.568   6.638   6.713
 2326SOL    HW1 7877   1.488   6.684   6.752
 2326SOL    HW2 7878   1.541   6.548   6.677
 2327SOL     OW 7879   6.769   0.192   3.001
 2327SOL    HW1 7880   6.693   0.167   3.061
 2327SOL    HW2 7881   6.853   0.150   3.037
 2328SOL     OW 7882   1.551   1.970   2.035
 2328SOL    HW1 7883   1.491   1.900   1.997
 2328SOL    HW2 7884   1.530   1.983   2.132
 2329SOL     OW 7885   1.137   4.209   4.224
 2329SOL    HW1 7886   1.049   4.239   4.261
 2329SOL    HW2 7887   1.137   4.110   4.213
 2330SOL     OW 7888   6.655   2.718   0.199
 2330SOL    HW1 7889   6.611   2.654   0.262
 2330SOL    HW2 7890   6.719   2.775   0.249
 2331SOL     OW 7891   3.899   5.798   0.112
 2331SOL    HW1 7892   3.824   5.739   0.141
 2331SOL    HW2 7893   3.986   5.753   0.130
 2332SOL     OW 7894   6.343   6.875   5.682
 2332SOL    HW1 7895   6.386   6.873   5.592
 2332SOL    HW2 7896   6.386   6.946   5.738
 2333SOL     OW 7897   6.934   4.559   3.178
 2333SOL    HW1 7898   6.897   4.481   3.227
 2333SOL    HW2 7899   6.890   4.643   3.210
 2334SOL     OW 7900   1.365   1.183   6.241
 2334SOL    HW1 7901   1.446   1.127   6.224
 2334SOL    HW2 7902   1.374   1.229   6.329
 2335SOL     OW 7903   6.260   1.571   3.745
 2335SOL    HW1 7904   6.256   1.530   3.654
 2335SOL    HW2 7905   6.313   1.655   3.742
 2336SOL     OW 7906   2.431   1.630   3.816
 2336SOL    HW1 7907   2.524   1.665   3.833
 2336SOL    HW2 7908   2.432   1.571   3.736
 2337SOL     OW 7909   4.122   1.506   1.463
 2337SOL    HW1 7910   4.108   1.540   1.556
 2337SOL    HW2 7911   4.219   1.511   1.440
 2338SOL     OW 7912   0.915   3.638   4.098
 2338SOL    HW1 7913   0.843   3.657   4.164
 2338SOL    HW2 7914   0.992   3.594   4.144
 2339SOL     OW 7915   3.748   3.406   3.134
 2339SOL    HW1 7916   3.651   3.426   3.119
 2339SOL    HW2 7917   3.757   3.321   3.185
 2340SOL     OW 7918   1.007   5.282   6.918
 2340SOL    HW1 7919   0.989   5.186   6.940
 2340SOL    HW2 7920   0.950   5.341   6.976
 2341SOL     OW 7921   2.408   4.845   3.067
 2341SOL    HW1 7922   2.485   4.791   3.031
 2341SOL    HW2 7923   2.417   4.854   3.166
 2342SOL     OW 7924   2.664   6.621   4.114
 2342SOL    HW1 7925   2.696   6.530   4.088
 2342SOL    HW2 7926   2.568   6.617   4.142
 2343SOL     OW 7927   2.158   6.798   3.137
 2343SOL    HW1 7928   2.153   6.854   3.220
 2343SOL    HW2 7929   2.068   6.797   3.093
 2344SOL     OW 7930   6.860   5.408   0.698
 2344SOL    HW1 7931   6.907   5.321   0.711
 2344SOL    HW2 7932   6.809   5.431   0.781
 2345SOL     OW 7933   2.489   5.643   4.563
 2345SOL    HW1 7934   2.398   5.602   4.552
 2345SOL    HW2 7935   2.549   5.612   4.489
 2346SOL     OW 7936   4.277   3.255   5.819
 2346SOL    HW1 7937   4.340   3.333   5.807
 2346SOL    HW2 7938   4.232   3.262   5.908
 2347SOL     OW 7939   1.560   2.162   1.410
 2347SOL    HW1 7940   1.564   2.064   1.429
 2347SOL    HW2 7941   1.543   2.212   1.496
 2348SOL     OW 7942   1.902   5.972   3.620
 2348SOL    HW1 7943   1.991   5.933   3.644
 2348SOL    HW2 7944   1.910   6.072   3.612
 2349SOL     OW 7945   1.051   4.393   6.271
 2349SOL    HW1 7946   1.110   4.314   6.288
 2349SOL    HW2 7947   0.966   4.383   6.322
 2350SOL     OW 7948   5.745   3.439   5.697
 2350SOL    HW1 7949   5.746   3.526   5.747
 2350SOL    HW2 7950   5.667   3.437   5.635
 2351SOL     OW 7951   3.053   4.885   3.345
 2351SOL    HW1 7952   2.990   4.891   3.268
 2351SOL    HW2 7953   3.144   4.916   3.318
 2352SOL     OW 7954   6.570   3.143   3.632
 2352SOL    HW1 7955   6.613   3.151   3.722
 2352SOL    HW2 7956   6.575   3.048   3.601
 2353SOL     OW 7957   4.321   5.136   5.263
 2353SOL    HW1 7958   4.272   5.076   5.200
 2353SOL    HW2 7959   4.333   5.089   5.351
 2354SOL     OW 7960   2.690   2.424   4.435
 2354SOL    HW1 7961   2.720   2.519   4.426
 2354SOL    HW2 7962   2.591   2.419   4.418
 2355SOL     OW 7963   2.270   6.271   4.762
 2355SOL    HW1 7964   2.171   6.277   4.766
 2355SOL    HW2 7965   2.299   6.178   4.782
 2356SOL     OW 7966   1.023   2.968   6.930
 2356SOL    HW1 7967   0.927   2.995   6.941
 2356SOL    HW2 7968   1.081   3.049   6.937
 2357SOL     OW 7969   3.694   1.369   1.860
 2357SOL    HW1 7970   3.710   1.464   1.833
 2357SOL    HW2 7971   3.694   1.310   1.779
 2358SOL     OW 7972   2.402   5.215   5.589
 2358SOL    HW1 7973   2.483   5.263   5.555
 2358SOL    HW2 7974   2.399   5.222   5.689
 2359SOL     OW 7975   0.325   0.458   5.232
 2359SOL    HW1 7976   0.414   0.437   5.193
 2359SOL    HW2 7977   0.259   0.388   5.206
 2360SOL     OW 7978   6.499   3.711   0.748
 2360SOL    HW1 7979   6.509   3.805   0.778
 2360SOL    HW2 7980   6.580   3.684   0.694
 2361SOL     OW 7981   2.828   1.364   6.496
 2361SOL    HW1 7982   2.799   1.275   6.461
 2361SOL    HW2 7983   2.779   1.437   6.447
 2362SOL     OW 7984   3.146   5.516   3.744
 2362SOL    HW1 7985   3.070   5.452   3.730
 2362SOL    HW2 7986   3.203   5.484   3.820
 2363SOL     OW 7987   3.926   1.784   3.741
 2363SOL    HW1 7988   3.886   1.707   3.691
 2363SOL    HW2 7989   3.874   1.801   3.824
 2364SOL     OW 7990   1.248   2.642   1.940
 2364SOL    HW1 7991   1.244   2.593   1.853
 2364SOL    HW2 7992   1.257   2.740   1.922
 2365SOL     OW 7993   6.713   1.991   6.582
 2365SOL    HW1 7994   6.734   2.076   6.630
 2365SOL    HW2 7995   6.690   2.011   6.486
 2366SOL     OW 7996   3.229   5.075   0.614
 2366SOL    HW1 7997   3.290   5.151   0.633
 2366SOL    HW2 7998   3.250   4.999   0.675
 2367SOL     OW 7999   2.202   3.742   0.081
 2367SOL    HW1 8000   2.158   3.658   0.110
 2367SOL    HW2 8001   2.294   3.721   0.046
 2368SOL     OW 8002   5.684   6.908   4.300
 2368SOL    HW1 8003   5.649   6.920   4.393
 2368SOL    HW2 8004   5.769   6.959   4.289
 2369SOL     OW 8005   1.926   6.929   4.281
 2369SOL    HW1 8006   1.956   6.915   4.187
 2369SOL    HW2 8007   2.004   6.921   4.343
 2370SOL     OW 8008   5.741   3.389   6.796
 2370SOL    HW1 8009   5.767   3.461   6.731
 2370SOL    HW2 8010   5.818   3.368   6.856
 2371SOL     OW 8011   2.480   6.389   2.153
 2371SOL    HW1 8012   2.476   6.453   2.077
 2371SOL    HW2 8013   2.573   6.387   2.190
 2372SOL     OW 8014   0.165   2.496   1.819
 2372SOL    HW1 8015   0.091   2.455   1.766
 2372SOL    HW2 8016   0.236   2.531   1.756
 2373SOL     OW 8017   1.799   3.411   5.738
 2373SOL    HW1 8018   1.858   3.421   5.658
 2373SOL    HW2 8019   1.841   3.459   5.816
 2374SOL     OW 8020   6.388   2.332   5.161
 2374SOL    HW1 8021   6.423   2.280   5.240
 2374SOL    HW2 8022   6.426   2.424   5.162
 2375SOL     OW 8023   3.389   5.503   5.854
 2375SOL    HW1 8024   3.383   5.476   5.950
 2375SOL    HW2 8025   3.298   5.522   5.818
 2376SOL     OW 8026   5.652   3.494   3.728
 2376SOL    HW1 8027   5.609   3.465   3.814
 2376SOL    HW2 8028   5.593   3.561   3.683
 2377SOL     OW 8029   3.049   3.841   3.815
 2377SOL    HW1 8030   3.037   3.861   3.912
 2377SOL    HW2 8031   2.982   3.772   3.787
 2378SOL     OW 8032   4.924   2.245   0.003
 2378SOL    HW1 8033   4.855   2.250   0.075
 2378SOL    HW2 8034   4.946   2.337   6.989
 2379SOL     OW 8035   6.788   1.047   6.918
 2379SOL    HW1 8036   6.717   1.061   6.987
 2379SOL    HW2 8037   6.753   0.988   6.845
 2380SOL     OW 8038   0.038   2.735   0.394
 2380SOL    HW1 8039   0.038   2.791   0.478
 2380SOL    HW2 8040   0.050   2.639   0.418
 2381SOL     OW 8041   2.135   5.966   3.283
 2381SOL    HW1 8042   2.190   5.884   3.296
 2381SOL    HW2 8043   2.038   5.944   3.298
 2382SOL     OW 8044   1.711   3.630   4.470
 2382SOL    HW1 8045   1.709   3.534   4.441
 2382SOL    HW2 8046   1.655   3.642   4.552
 2383SOL     OW 8047   6.415   6.964   1.101
 2383SOL    HW1 8048   6.502   6.924   1.070
 2383SOL    HW2 8049   6.351   6.891   1.123
 2384SOL     OW 8050   4.838   2.047   2.432
 2384SOL    HW1 8051   4.755   2.096   2.405
 2384SOL    HW2 8052   4.817   1.950   2.446
 2385SOL     OW 8053   0.313   0.744   7.000
 2385SOL    HW1 8054   0.220   0.781   6.995
 2385SOL    HW2 8055   0.322   0.669   6.935
 2386SOL     OW 8056   5.290   5.997   4.618
 2386SOL    HW1 8057   5.256   6.001   4.712
 2386SOL    HW2 8058   5.221   5.958   4.558
 2387SOL     OW 8059   2.100   1.292   4.455
 2387SOL    HW1 8060   2.191   1.288   4.496
 2387SOL    HW2 8061   2.056   1.203   4.462
 2388SOL     OW 8062   6.849   2.621   4.067
 2388SOL    HW1 8063   6.772   2.563   4.095
 2388SOL    HW2 8064   6.866   2.690   4.137
 2389SOL     OW 8065   4.457   4.446   3.841
 2389SOL    HW1 8066   4.516   4.436   3.921
 2389SOL    HW2 8067   4.417   4.538   3.841
 2390SOL     OW 8068   4.044   3.125   2.621
 2390SOL    HW1 8069   4.011   3.219   2.609
 2390SOL    HW2 8070   4.026   3.073   2.538
 2391SOL     OW 8071   5.120   4.650   6.146
 2391SOL    HW1 8072   5.200   4.642   6.086
 2391SOL    HW2 8073   5.056   4.716   6.108
 2392SOL     OW 8074   2.796   6.907   6.665
 2392SOL    HW1 8075   2.727   6.873   6.728
 2392SOL    HW2 8076   2.839   6.989   6.704
 2393SOL     OW 8077   4.851   4.194   6.119
 2393SOL    HW1 8078   4.917   4.269   6.129
 2393SOL    HW2 8079   4.766   4.217   6.168
 2394SOL     OW 8080   0.110   3.711   4.848
 2394SOL    HW1 8081   0.057   3.627   4.864
 2394SOL    HW2 8082   0.119   3.725   4.749
 2395SOL     OW 8083   4.853   6.951   5.683
 2395SOL    HW1 8084   4.818   0.022   5.652
 2395SOL    HW2 8085   4.788   6.910   5.747
 2396SOL     OW 8086   3.874   5.083   0.666
 2396SOL    HW1 8087   3.812   5.081   0.588
 2396SOL    HW2 8088   3.968   5.091   0.635
 2397SOL     OW 8089   0.288   4.208   4.429
 2397SOL    HW1 8090   0.322   4.300   4.449
 2397SOL    HW2 8091   0.255   4.165   4.513
 2398SOL     OW 8092   5.010   4.076   0.137
 2398SOL    HW1 8093   4.976   4.142   0.069
 2398SOL    HW2 8094   5.073   4.012   0.093
 2399SOL     OW 8095   4.061   0.990   0.992
 2399SOL    HW1 8096   4.056   1.086   1.020
 2399SOL    HW2 8097   4.093   0.984   0.898
 2400SOL     OW 8098   2.448   4.090   0.728
 2400SOL    HW1 8099   2.451   4.045   0.639
 2400SOL    HW2 8100   2.541   4.105   0.761
 2401SOL     OW 8101   5.621   5.818   6.746
 2401SOL    HW1 8102   5.715   5.799   6.775
 2401SOL    HW2 8103   5.572   5.731   6.732
 2402SOL     OW 8104   0.921   0.171   4.652
 2402SOL    HW1 8105   0.939   0.075   4.671
 2402SOL    HW2 8106   0.928   0.188   4.554
 2403SOL     OW 8107   0.979   2.576   5.805
 2403SOL    HW1 8108   0.997   2.661   5.854
 2403SOL    HW2 8109   0.884   2.575   5.774
 2404SOL     OW 8110   2.328   1.533   1.424
 2404SOL    HW1 8111   2.409   1.542   1.367
 2404SOL    HW2 8112   2.272   1.457   1.390
 2405SOL     OW 8113   3.326   4.077   2.590
 2405SOL    HW1 8114   3.343   4.069   2.491
 2405SOL    HW2 8115   3.403   4.123   2.633
 2406SOL     OW 8116   3.630   1.333   1.577
 2406SOL    HW1 8117   3.727   1.315   1.592
 2406SOL    HW2 8118   3.576   1.260   1.619
 2407SOL     OW 8119   5.636   1.980   3.688
 2407SOL    HW1 8120   5.641   2.073   3.652
 2407SOL    HW2 8121   5.716   1.963   3.746
 2408SOL     OW 8122   4.465   4.556   2.188
 2408SOL    HW1 8123   4.406   4.526   2.263
 2408SOL    HW2 8124   4.472   4.483   2.120
 2409SOL     OW 8125   2.220   3.762   1.706
 2409SOL    HW1 8126   2.274   3.821   1.647
 2409SOL    HW2 8127   2.226   3.667   1.673
 2410SOL     OW 8128   3.941   3.331   4.130
 2410SOL    HW1 8129   3.954   3.232   4.132
 2410SOL    HW2 8130   4.001   3.371   4.061
 2411SOL     OW 8131   5.606   6.517   5.036
 2411SOL    HW1 8132   5.648   6.437   5.079
 2411SOL    HW2 8133   5.556   6.488   4.954
 2412SOL     OW 8134   5.574   3.872   1.583
 2412SOL    HW1 8135   5.531   3.881   1.493
 2412SOL    HW2 8136   5.550   3.951   1.639
 2413SOL     OW 8137   5.598   0.177   1.565
 2413SOL    HW1 8138   5.637   0.183   1.474
 2413SOL    HW2 8139   5.670   0.188   1.634
 2414SOL     OW 8140   4.850   3.738   3.718
 2414SOL    HW1 8141   4.926   3.801   3.702
 2414SOL    HW2 8142   4.769   3.790   3.744
 2415SOL     OW 8143   6.145   1.434   2.315
 2415SOL    HW1 8144   6.207   1.384   2.254
 2415SOL    HW2 8145   6.198   1.499   2.370
 2416SOL     OW 8146   5.609   1.995   5.915
 2416SOL    HW1 8147   5.639   2.068   5.855
 2416SOL    HW2 8148   5.610   2.027   6.010
 2417SOL     OW 8149   3.056   3.213   4.797
 2417SOL    HW1 8150   3.080   3.218   4.700
 2417SOL    HW2 8151   3.017   3.123   4.817
 2418SOL     OW 8152   3.469   3.199   3.953
 2418SOL    HW1 8153   3.550   3.165   3.906
 2418SOL    HW2 8154   3.479   3.298   3.968
 2419SOL     OW 8155   0.556   6.592   3.375
 2419SOL    HW1 8156   0.497   6.559   3.300
 2419SOL    HW2 8157   0.569   6.690   3.366
 2420SOL     OW 8158   3.061   0.396   1.812
 2420SOL    HW1 8159   3.144   0.363   1.859
 2420SOL    HW2 8160   3.037   0.487   1.847
 2421SOL     OW 8161   1.936   2.920   4.484
 2421SOL    HW1 8162   2.018   2.970   4.457
 2421SOL    HW2 8163   1.875   2.981   4.535
 2422SOL     OW 8164   5.182   1.745   0.951
 2422SOL    HW1 8165   5.175   1.798   0.867
 2422SOL    HW2 8166   5.278   1.728   0.972
 2423SOL     OW 8167   2.833   6.261   2.534
 2423SOL    HW1 8168   2.790   6.203   2.603
 2423SOL    HW2 8169   2.926   6.229   2.516
 2424SOL     OW 8170   5.732   1.296   0.371
 2424SOL    HW1 8171   5.660   1.356   0.408
 2424SOL    HW2 8172   5.697   1.246   0.293
 2425SOL     OW 8173   6.237   0.526   4.166
 2425SOL    HW1 8174   6.229   0.446   4.226
 2425SOL    HW2 8175   6.184   0.511   4.083
 2426SOL     OW 8176   2.426   4.957   4.856
 2426SOL    HW1 8177   2.502   4.981   4.917
 2426SOL    HW2 8178   2.361   4.900   4.905
 2427SOL     OW 8179   5.875   6.237   4.976
 2427SOL    HW1 8180   5.897   6.262   4.882
 2427SOL    HW2 8181   5.949   6.268   5.037
 2428SOL     OW 8182   0.626   0.560   1.681
 2428SOL    HW1 8183   0.527   0.550   1.674
 2428SOL    HW2 8184   0.649   0.655   1.699
 2429SOL     OW 8185   5.447   5.724   1.163
 2429SOL    HW1 8186   5.496   5.749   1.246
 2429SOL    HW2 8187   5.462   5.627   1.144
 2430SOL     OW 8188   5.979   0.705   2.585
 2430SOL    HW1 8189   5.898   0.704   2.643
 2430SOL    HW2 8190   5.959   0.654   2.501
 2431SOL     OW 8191   4.318   1.086   2.239
 2431SOL    HW1 8192   4.330   0.989   2.220
 2431SOL    HW2 8193   4.244   1.099   2.305
 2432SOL     OW 8194   4.544   6.197   1.874
 2432SOL    HW1 8195   4.557   6.242   1.962
 2432SOL    HW2 8196   4.584   6.106   1.876
 2433SOL     OW 8197   4.554   0.506   6.973
 2433SOL    HW1 8198   4.599   0.557   0.028
 2433SOL    HW2 8199   4.537   0.412   7.004
 2434SOL     OW 8200   3.746   1.071   6.205
 2434SOL    HW1 8201   3.701   0.992   6.165
 2434SOL    HW2 8202   3.771   1.136   6.132
 2435SOL     OW 8203   6.057   5.779   5.211
 2435SOL    HW1 8204   6.096   5.870   5.200
 2435SOL    HW2 8205   6.131   5.713   5.229
 2436SOL     OW 8206   2.401   5.854   0.482
 2436SOL    HW1 8207   2.390   5.843   0.581
 2436SOL    HW2 8208   2.422   5.950   0.462
 2437SOL     OW 8209   0.006   6.155   5.631
 2437SOL    HW1 8210   0.025   6.153   5.729
 2437SOL    HW2 8211   6.925   6.157   5.617
 2438SOL     OW 8212   2.896   2.424   0.840
 2438SOL    HW1 8213   2.949   2.349   0.801
 2438SOL    HW2 8214   2.798   2.405   0.832
 2439SOL     OW 8215   6.146   4.105   5.567
 2439SOL    HW1 8216   6.100   4.016   5.559
 2439SOL    HW2 8217   6.181   4.132   5.477
 2440SOL     OW 8218   5.748   5.191   5.915
 2440SOL    HW1 8219   5.662   5.152   5.883
 2440SOL    HW2 8220   5.730   5.264   5.981
 2441SOL     OW 8221   5.438   2.256   0.481
 2441SOL    HW1 8222   5.346   2.245   0.444
 2441SOL    HW2 8223   5.504   2.209   0.423
 2442SOL     OW 8224   0.853   3.735   4.892
 2442SOL    HW1 8225   0.920   3.677   4.938
 2442SOL    HW2 8226   0.894   3.775   4.810
 2443SOL     OW 8227   2.733   4.313   6.359
 2443SOL    HW1 8228   2.703   4.329   6.265
 2443SOL    HW2 8229   2.652   4.302   6.418
 2444SOL     OW 8230   2.540   3.896   6.040
 2444SOL    HW1 8231   2.472   3.829   6.068
 2444SOL    HW2 8232   2.600   3.856   5.970
 2445SOL     OW 8233   0.269   0.928   1.033
 2445SOL    HW1 8234   0.178   0.900   1.002
 2445SOL    HW2 8235   0.337   0.897   0.967
 2446SOL     OW 8236   6.248   4.743   5.149
 2446SOL    HW1 8237   6.166   4.787   5.184
 2446SOL    HW2 8238   6.261   4.769   5.053
 2447SOL     OW 8239   0.775   1.456   0.464
 2447SOL    HW1 8240   0.820   1.541   0.490
 2447SOL    HW2 8241   0.723   1.421   0.541
 2448SOL     OW 8242   1.098   0.415   4.732
 2448SOL    HW1 8243   1.092   0.356   4.812
 2448SOL    HW2 8244   1.149   0.368   4.659
 2449SOL     OW 8245   0.214   3.745   5.722
 2449SOL    HW1 8246   0.298   3.697   5.694
 2449SOL    HW2 8247   0.177   3.700   5.804
 2450SOL     OW 8248   2.081   3.719   2.953
 2450SOL    HW1 8249   2.081   3.634   2.901
 2450SOL    HW2 8250   2.079   3.698   3.051
 2451SOL     OW 8251   2.197   6.024   3.826
 2451SOL    HW1 8252   2.228   6.112   3.861
 2451SOL    HW2 8253   2.157   6.036   3.735
 2452SOL     OW 8254   1.149   2.645   4.130
 2452SOL    HW1 8255   1.192   2.624   4.043
 2452SOL    HW2 8256   1.178   2.579   4.199
 2453SOL     OW 8257   6.709   4.207   1.450
 2453SOL    HW1 8258   6.701   4.293   1.400
 2453SOL    HW2 8259   6.734   4.134   1.386
 2454SOL     OW 8260   3.146   0.956   2.282
 2454SOL    HW1 8261   3.159   0.979   2.378
 2454SOL    HW2 8262   3.111   1.037   2.233
 2455SOL     OW 8263   5.856   5.888   0.439
 2455SOL    HW1 8264   5.877   5.986   0.430
 2455SOL    HW2 8265   5.941   5.836   0.440
 2456SOL     OW 8266   4.563   6.774   1.509
 2456SOL    HW1 8267   4.478   6.792   1.558
 2456SOL    HW2 8268   4.596   6.682   1.532
 2457SOL     OW 8269   5.512   6.296   1.434
 2457SOL    HW1 8270   5.533   6.230   1.507
 2457SOL    HW2 8271   5.594   6.311   1.379
 2458SOL     OW 8272   0.540   5.651   3.586
 2458SOL    HW1 8273   0.596   5.658   3.668
 2458SOL    HW2 8274   0.445   5.630   3.612
 2459SOL     OW 8275   2.197   0.116   0.893
 2459SOL    HW1 8276   2.156   0.156   0.810
 2459SOL    HW2 8277   2.294   0.100   0.878
 2460SOL     OW 8278   3.176   5.685   1.847
 2460SOL    HW1 8279   3.129   5.773   1.857
 2460SOL    HW2 8280   3.181   5.640   1.937
 2461SOL     OW 8281   5.624   0.864   2.358
 2461SOL    HW1 8282   5.566   0.861   2.276
 2461SOL    HW2 8283   5.719   0.877   2.331
 2462SOL     OW 8284   2.181   4.944   6.412
 2462SOL    HW1 8285   2.099   4.960   6.467
 2462SOL    HW2 8286   2.220   5.032   6.384
 2463SOL     OW 8287   6.483   1.769   4.295
 2463SOL    HW1 8288   6.405   1.800   4.349
 2463SOL    HW2 8289   6.560   1.832   4.307
 2464SOL     OW 8290   1.442   3.294   0.998
 2464SOL    HW1 8291   1.375   3.325   1.066
 2464SOL    HW2 8292   1.398   3.281   0.910
 2465SOL     OW 8293   6.208   5.457   3.613
 2465SOL    HW1 8294   6.163   5.544   3.592
 2465SOL    HW2 8295   6.306   5.472   3.624
 2466SOL     OW 8296   3.815   1.569   2.651
 2466SOL    HW1 8297   3.820   1.653   2.705
 2466SOL    HW2 8298   3.774   1.589   2.561
 2467SOL     OW 8299   6.895   0.982   5.972
 2467SOL    HW1 8300   6.814   1.022   6.014
 2467SOL    HW2 8301   6.873   0.950   5.880
 2468SOL     OW 8302   0.082   4.683   0.902
 2468SOL    HW1 8303   0.022   4.640   0.835
 2468SOL    HW2 8304   0.041   4.674   0.993
 2469SOL     OW 8305   2.932   2.946   5.728
 2469SOL    HW1 8306   3.005   2.960   5.661
 2469SOL    HW2 8307   2.863   3.018   5.718
 2470SOL     OW 8308   5.656   2.965   0.253
 2470SOL    HW1 8309   5.631   2.912   0.173
 2470SOL    HW2 8310   5.573   3.000   0.297
 2471SOL     OW 8311   1.396   0.426   3.648
 2471SOL    HW1 8312   1.335   0.435   3.727
 2471SOL    HW2 8313   1.358   0.478   3.571
 2472SOL     OW 8314   6.108   1.601   3.311
 2472SOL    HW1 8315   6.040   1.568   3.245
 2472SOL    HW2 8316   6.092   1.557   3.400
 2473SOL     OW 8317   1.057   6.724   4.967
 2473SOL    HW1 8318   1.114   6.805   4.949
 2473SOL    HW2 8319   0.965   6.754   4.992
 2474SOL     OW 8320   6.061   5.424   4.814
 2474SOL    HW1 8321   6.038   5.495   4.747
 2474SOL    HW2 8322   6.114   5.352   4.769
 2475SOL     OW 8323   3.951   2.261   0.212
 2475SOL    HW1 8324   3.964   2.165   0.237
 2475SOL    HW2 8325   3.853   2.282   0.210
 2476SOL     OW 8326   0.104   2.153   4.183
 2476SOL    HW1 8327   0.073   2.060   4.205
 2476SOL    HW2 8328   0.067   2.217   4.250
 2477SOL     OW 8329   4.308   4.900   1.284
 2477SOL    HW1 8330   4.277   4.940   1.197
 2477SOL    HW2 8331   4.407   4.914   1.293
 2478SOL     OW 8332   6.621   6.755   3.394
 2478SOL    HW1 8333   6.717   6.750   3.420
 2478SOL    HW2 8334   6.586   6.847   3.412
 2479SOL     OW 8335   0.607   3.774   0.223
 2479SOL    HW1 8336   0.701   3.809   0.227
 2479SOL    HW2 8337   0.558   3.801   0.306
 2480SOL     OW 8338   0.400   3.745   1.528
 2480SOL    HW1 8339   0.302   3.761   1.527
 2480SOL    HW2 8340   0.439   3.768   1.439
 2481SOL     OW 8341   4.360   5.546   2.654
 2481SOL    HW1 8342   4.329   5.503   2.569
 2481SOL    HW2 8343   4.288   5.539   2.723
 2482SOL     OW 8344   4.425   2.428   4.143
 2482SOL    HW1 8345   4.517   2.409   4.107
 2482SOL    HW2 8346   4.388   2.509   4.097
 2483SOL     OW 8347   0.786   1.931   6.480
 2483SOL    HW1 8348   0.788   1.905   6.384
 2483SOL    HW2 8349   0.808   1.852   6.537
 2484SOL     OW 8350   3.235   2.163   6.269
 2484SOL    HW1 8351   3.260   2.095   6.201
 2484SOL    HW2 8352   3.166   2.225   6.231
 2485SOL     OW 8353   0.402   6.012   2.501
 2485SOL    HW1 8354   0.311   6.000   2.460
 2485SOL    HW2 8355   0.396   6.007   2.600
 2486SOL     OW 8356   1.076   4.938   3.281
 2486SOL    HW1 8357   1.101   5.034   3.293
 2486SOL    HW2 8358   0.985   4.932   3.240
 2487SOL     OW 8359   3.265   0.857   0.808
 2487SOL    HW1 8360   3.344   0.818   0.855
 2487SOL    HW2 8361   3.262   0.956   0.826
 2488SOL     OW 8362   3.322   6.198   6.553
 2488SOL    HW1 8363   3.394   6.151   6.603
 2488SOL    HW2 8364   3.347   6.205   6.456
 2489SOL     OW 8365   0.061   5.847   4.152
 2489SOL    HW1 8366   0.096   5.810   4.238
 2489SOL    HW2 8367   0.018   5.936   4.168
 2490SOL     OW 8368   5.045   3.609   1.591
 2490SOL    HW1 8369   5.062   3.635   1.496
 2490SOL    HW2 8370   5.106   3.533   1.616
 2491SOL     OW 8371   1.093   4.087   2.555
 2491SOL    HW1 8372   1.054   4.037   2.478
 2491SOL    HW2 8373   1.022   4.142   2.598
 2492SOL     OW 8374   4.261   2.726   5.981
 2492SOL    HW1 8375   4.182   2.669   6.004
 2492SOL    HW2 8376   4.292   2.705   5.889
 2493SOL     OW 8377   6.311   1.964   4.145
 2493SOL    HW1 8378   6.223   1.917   4.156
 2493SOL    HW2 8379   6.341   2.000   4.233
 2494SOL     OW 8380   4.807   3.813   1.404
 2494SOL    HW1 8381   4.794   3.790   1.500
 2494SOL    HW2 8382   4.891   3.769   1.371
 2495SOL     OW 8383   5.942   1.552   4.120
 2495SOL    HW1 8384   5.920   1.555   4.217
 2495SOL    HW2 8385   6.022   1.494   4.105
 2496SOL     OW 8386   0.939   6.101   6.872
 2496SOL    HW1 8387   0.845   6.091   6.905
 2496SOL    HW2 8388   0.973   6.013   6.842
 2497SOL     OW 8389   5.544   2.147   6.130
 2497SOL    HW1 8390   5.588   2.219   6.185
 2497SOL    HW2 8391   5.453   2.177   6.102
 2498SOL     OW 8392   1.031   3.950   4.710
 2498SOL    HW1 8393   1.012   3.941   4.612
 2498SOL    HW2 8394   1.096   3.880   4.739
 2499SOL     OW 8395   5.800   0.526   5.696
 2499SOL    HW1 8396   5.786   0.588   5.774
 2499SOL    HW2 8397   5.727   0.458   5.694
 2500SOL     OW 8398   4.705   3.002   6.332
 2500SOL    HW1 8399   4.622   2.958   6.365
 2500SOL    HW2 8400   4.770   3.013   6.407
 2501SOL     OW 8401   6.298   4.848   0.348
 2501SOL    HW1 8402   6.283   4.787   0.426
 2501SOL    HW2 8403   6.280   4.942   0.375
 2502SOL     OW 8404   2.046   6.930   3.386
 2502SOL    HW1 8405   1.983   7.003   3.358
 2502SOL    HW2 8406   2.002   6.872   3.453
 2503SOL     OW 8407   4.719   6.202   4.525
 2503SOL    HW1 8408   4.644   6.154   4.480
 2503SOL    HW2 8409   4.793   6.137   4.546
 2504SOL     OW 8410   1.918   4.080   3.550
 2504SOL    HW1 8411   1.849   4.010   3.533
 2504SOL    HW2 8412   1.950   4.117   3.462
 2505SOL     OW 8413   4.388   4.897   3.881
 2505SOL    HW1 8414   4.376   4.799   3.894
 2505SOL    HW2 8415   4.299   4.940   3.868
 2506SOL     OW 8416   0.226   1.286   0.445
 2506SOL    HW1 8417   0.146   1.230   0.470
 2506SOL    HW2 8418   0.205   1.382   0.462
 2507SOL     OW 8419   6.719   5.678   1.083
 2507SOL    HW1 8420   6.641   5.733   1.051
 2507SOL    HW2 8421   6.804   5.728   1.068
 2508SOL     OW 8422   2.274   2.576   1.976
 2508SOL    HW1 8423   2.277   2.671   2.006
 2508SOL    HW2 8424   2.341   2.562   1.903
 2509SOL     OW 8425   5.237   1.857   3.523
 2509SOL    HW1 8426   5.334   1.839   3.544
 2509SOL    HW2 8427   5.180   1.810   3.590
 2510SOL     OW 8428   3.467   5.686   1.111
 2510SOL    HW1 8429   3.544   5.741   1.143
 2510SOL    HW2 8430   3.391   5.695   1.176
 2511SOL     OW 8431   1.156   6.763   4.422
 2511SOL    HW1 8432   1.229   6.737   4.485
 2511SOL    HW2 8433   1.068   6.737   4.462
 2512SOL     OW 8434   4.898   3.007   4.439
 2512SOL    HW1 8435   4.859   3.019   4.530
 2512SOL    HW2 8436   4.991   3.044   4.438
 2513SOL     OW 8437   0.381   4.737   1.273
 2513SOL    HW1 8438   0.425   4.752   1.362
 2513SOL    HW2 8439   0.451   4.736   1.201
 2514SOL     OW 8440   1.217   1.560   4.320
 2514SOL    HW1 8441   1.204   1.649   4.276
 2514SOL    HW2 8442   1.313   1.550   4.345
 2515SOL     OW 8443   0.870   4.771   0.392
 2515SOL    HW1 8444   0.800   4.730   0.451
 2515SOL    HW2 8445   0.832   4.852   0.348
 2516SOL     OW 8446   4.818   6.170   4.094
 2516SOL    HW1 8447   4.761   6.097   4.133
 2516SOL    HW2 8448   4.913   6.156   4.121
 2517SOL     OW 8449   2.715   4.878   0.422
 2517SOL    HW1 8450   2.750   4.785   0.434
 2517SOL    HW2 8451   2.718   4.927   0.510
 2518SOL     OW 8452   2.534   2.032   5.983
 2518SOL    HW1 8453   2.523   2.131   5.974
 2518SOL    HW2 8454   2.471   1.998   6.053
 2519SOL     OW 8455   5.216   4.275   4.958
 2519SOL    HW1 8456   5.213   4.195   4.899
 2519SOL    HW2 8457   5.171   4.352   4.913
 2520SOL     OW 8458   2.538   4.953   2.060
 2520SOL    HW1 8459   2.612   4.904   2.015
 2520SOL    HW2 8460   2.450   4.913   2.035
 2521SOL     OW 8461   6.087   6.835   5.598
 2521SOL    HW1 8462   6.019   6.908   5.602
 2521SOL    HW2 8463   6.171   6.866   5.643
 2522SOL     OW 8464   1.233   3.232   5.232
 2522SOL    HW1 8465   1.316   3.289   5.230
 2522SOL    HW2 8466   1.256   3.139   5.203
 2523SOL     OW 8467   6.813   2.980   6.966
 2523SOL    HW1 8468   6.841   2.933   6.882
 2523SOL    HW2 8469   6.885   2.972   0.016
 2524SOL     OW 8470   0.819   0.031   4.970
 2524SOL    HW1 8471   0.863   6.995   4.899
 2524SOL    HW2 8472   0.720   0.020   4.965
 2525SOL     OW 8473   2.000   4.506   2.813
 2525SOL    HW1 8474   1.977   4.553   2.899
 2525SOL    HW2 8475   2.095   4.474   2.817
 2526SOL     OW 8476   0.530   1.916   5.666
 2526SOL    HW1 8477   0.495   1.952   5.752
 2526SOL    HW2 8478   0.598   1.979   5.629
 2527SOL     OW 8479   5.848   6.747   3.880
 2527SOL    HW1 8480   5.912   6.753   3.957
 2527SOL    HW2 8481   5.879   6.675   3.817
 2528SOL     OW 8482   5.916   5.111   0.342
 2528SOL    HW1 8483   5.995   5.104   0.281
 2528SOL    HW2 8484   5.898   5.022   0.384
 2529SOL     OW 8485   5.315   3.840   5.000
 2529SOL    HW1 8486   5.374   3.920   4.998
 2529SOL    HW2 8487   5.370   3.758   5.015
 2530SOL     OW 8488   1.217   6.891   3.962
 2530SOL    HW1 8489   1.293   6.943   3.923
 2530SOL    HW2 8490   1.131   6.922   3.922
 2531SOL     OW 8491   4.977   1.472   0.227
 2531SOL    HW1 8492   4.891   1.492   0.274
 2531SOL    HW2 8493   5.034   1.413   0.284
 2532SOL     OW 8494   1.643   4.464   5.651
 2532SOL    HW1 8495   1.707   4.534   5.681
 2532SOL    HW2 8496   1.549   4.499   5.657
 2533SOL     OW 8497   6.062   6.336   5.163
 2533SOL    HW1 8498   6.156   6.358   5.136
 2533SOL    HW2 8499   6.014   6.420   5.190
 2534SOL     OW 8500   6.752   1.950   3.570
 2534SOL    HW1 8501   6.697   1.899   3.504
 2534SOL    HW2 8502   6.806   1.887   3.625
 2535SOL     OW 8503   2.262   1.022   2.866
 2535SOL    HW1 8504   2.246   1.091   2.795
 2535SOL    HW2 8505   2.346   0.972   2.846
 2536SOL     OW 8506   6.252   1.002   3.743
 2536SOL    HW1 8507   6.326   0.935   3.748
 2536SOL    HW2 8508   6.181   0.979   3.810
 2537SOL     OW 8509   4.260   5.166   1.442
 2537SOL    HW1 8510   4.274   5.104   1.365
 2537SOL    HW2 8511   4.276   5.261   1.413
 2538SOL     OW 8512   1.595   4.622   4.893
 2538SOL    HW1 8513   1.604   4.708   4.943
 2538SOL    HW2 8514   1.681   4.599   4.849
 2539SOL     OW 8515   2.668   0.449   5.899
 2539SOL    HW1 8516   2.739   0.493   5.953
 2539SOL    HW2 8517   2.702   0.431   5.806
 2540SOL     OW 8518   5.692   1.741   2.280
 2540SOL    HW1 8519   5.712   1.644   2.269
 2540SOL    HW2 8520   5.642   1.756   2.365
 2541SOL     OW 8521   0.487   6.940   5.590
 2541SOL    HW1 8522   0.394   6.976   5.587
 2541SOL    HW2 8523   0.535   6.964   5.505
 2542SOL     OW 8524   3.412   1.676   4.179
 2542SOL    HW1 8525   3.433   1.597   4.123
 2542SOL    HW2 8526   3.465   1.755   4.148
 2543SOL     OW 8527   0.207   2.572   4.716
 2543SOL    HW1 8528   0.129   2.513   4.737
 2543SOL    HW2 8529   0.203   2.600   4.621
 2544SOL     OW 8530   6.157   5.845   2.710
 2544SOL    HW1 8531   6.207   5.764   2.681
 2544SOL    HW2 8532   6.082   5.818   2.770
 2545SOL     OW 8533   6.244   2.127   0.335
 2545SOL    HW1 8534   6.177   2.129   0.260
 2545SOL    HW2 8535   6.250   2.218   0.376
 2546SOL     OW 8536   6.143   4.137   2.661
 2546SOL    HW1 8537   6.220   4.077   2.636
 2546SOL    HW2 8538   6.063   4.112   2.607
 2547SOL     OW 8539   5.520   3.698   0.848
 2547SOL    HW1 8540   5.584   3.764   0.888
 2547SOL    HW2 8541   5.427   3.722   0.873
 2548SOL     OW 8542   0.468   6.386   5.493
 2548SOL    HW1 8543   0.552   6.439   5.478
 2548SOL    HW2 8544   0.393   6.449   5.514
 2549SOL     OW 8545   3.291   3.262   0.437
 2549SOL    HW1 8546   3.239   3.234   0.519
 2549SOL    HW2 8547   3.373   3.312   0.465
 2550SOL     OW 8548   4.013   6.102   6.343
 2550SOL    HW1 8549   4.033   6.166   6.269
 2550SOL    HW2 8550   4.000   6.152   6.429
 2551SOL     OW 8551   3.572   5.092   0.878
 2551SOL    HW1 8552   3.542   5.153   0.951
 2551SOL    HW2 8553   3.632   5.142   0.815
 2552SOL     OW 8554   2.196   5.579   1.820
 2552SOL    HW1 8555   2.249   5.636   1.757
 2552SOL    HW2 8556   2.099   5.586   1.796
 2553SOL     OW 8557   4.488   1.133   0.149
 2553SOL    HW1 8558   4.447   1.043   0.130
 2553SOL    HW2 8559   4.513   1.177   0.063
 2554SOL     OW 8560   1.468   5.900   1.607
 2554SOL    HW1 8561   1.549   5.896   1.548
 2554SOL    HW2 8562   1.491   5.863   1.697
 2555SOL     OW 8563   5.809   6.971   4.575
 2555SOL    HW1 8564   5.716   6.991   4.605
 2555SOL    HW2 8565   5.836   6.880   4.608
 2556SOL     OW 8566   3.917   0.179   0.213
 2556SOL    HW1 8567   3.983   0.131   0.270
 2556SOL    HW2 8568   3.868   0.112   0.156
 2557SOL     OW 8569   2.689   0.820   6.789
 2557SOL    HW1 8570   2.708   0.797   6.694
 2557SOL    HW2 8571   2.740   0.902   6.815
 2558SOL     OW 8572   5.083   3.273   1.146
 2558SOL    HW1 8573   5.082   3.173   1.140
 2558SOL    HW2 8574   4.993   3.309   1.123
 2559SOL     OW 8575   0.902   4.211   4.352
 2559SOL    HW1 8576   0.816   4.201   4.302
 2559SOL    HW2 8577   0.933   4.122   4.384
 2560SOL     OW 8578   4.780   2.109   3.885
 2560SOL    HW1 8579   4.802   2.150   3.797
 2560SOL    HW2 8580   4.847   2.139   3.953
 2561SOL     OW 8581   4.087   6.939   4.486
 2561SOL    HW1 8582   4.035   7.009   4.438
 2561SOL    HW2 8583   4.126   6.978   4.570
 2562SOL     OW 8584   2.295   6.244   3.973
 2562SOL    HW1 8585   2.355   6.270   4.048
 2562SOL    HW2 8586   2.333   6.276   3.887
 2563SOL     OW 8587   3.826   2.342   6.277
 2563SOL    HW1 8588   3.883   2.311   6.353
 2563SOL    HW2 8589   3.800   2.438   6.293
 2564SOL     OW 8590   1.603   1.668   0.199
 2564SOL    HW1 8591   1.669   1.668   0.124
 2564SOL    HW2 8592   1.643   1.716   0.278
 2565SOL     OW 8593   1.076   1.571   0.701
 2565SOL    HW1 8594   1.166   1.533   0.679
 2565SOL    HW2 8595   1.081   1.620   0.788
 2566SOL     OW 8596   2.705   0.818   0.993
 2566SOL    HW1 8597   2.662   0.888   0.936
 2566SOL    HW2 8598   2.698   0.845   1.089
 2567SOL     OW 8599   2.124   1.362   0.388
 2567SOL    HW1 8600   2.092   1.390   0.479
 2567SOL    HW2 8601   2.055   1.305   0.345
 2568SOL     OW 8602   3.510   6.654   0.192
 2568SOL    HW1 8603   3.544   6.745   0.214
 2568SOL    HW2 8604   3.465   6.614   0.272
 2569SOL     OW 8605   1.803   0.265   1.078
 2569SOL    HW1 8606   1.778   0.173   1.110
 2569SOL    HW2 8607   1.721   0.322   1.076
 2570SOL     OW 8608   0.213   5.937   4.903
 2570SOL    HW1 8609   0.260   5.974   4.983
 2570SOL    HW2 8610   0.115   5.927   4.923
 2571SOL     OW 8611   3.385   3.672   4.276
 2571SOL    HW1 8612   3.318   3.606   4.242
 2571SOL    HW2 8613   3.475   3.651   4.239
 2572SOL     OW 8614   1.652   5.405   2.275
 2572SOL    HW1 8615   1.568   5.441   2.315
 2572SOL    HW2 8616   1.636   5.312   2.242
 2573SOL     OW 8617   6.848   1.988   4.422
 2573SOL    HW1 8618   6.815   1.928   4.494
 2573SOL    HW2 8619   6.946   1.973   4.409
 2574SOL     OW 8620   0.744   3.745   2.171
 2574SOL    HW1 8621   0.779   3.774   2.082
 2574SOL    HW2 8622   0.735   3.645   2.173
 2575SOL     OW 8623   5.748   3.603   6.645
 2575SOL    HW1 8624   5.689   3.577   6.569
 2575SOL    HW2 8625   5.701   3.669   6.703
 2576SOL     OW 8626   2.180   6.968   3.728
 2576SOL    HW1 8627   2.158   6.872   3.713
 2576SOL    HW2 8628   2.151   6.995   3.820
 2577SOL     OW 8629   2.502   5.973   1.675
 2577SOL    HW1 8630   2.509   5.926   1.763
 2577SOL    HW2 8631   2.486   6.070   1.691
 2578SOL     OW 8632   4.826   1.714   4.036
 2578SOL    HW1 8633   4.760   1.789   4.028
 2578SOL    HW2 8634   4.916   1.752   4.058
 2579SOL     OW 8635   6.897   1.696   6.102
 2579SOL    HW1 8636   6.993   1.722   6.098
 2579SOL    HW2 8637   6.849   1.734   6.023
 2580SOL     OW 8638   1.331   2.114   5.874
 2580SOL    HW1 8639   1.349   2.074   5.785
 2580SOL    HW2 8640   1.289   2.205   5.862
 2581SOL     OW 8641   6.696   6.901   4.295
 2581SOL    HW1 8642   6.602   6.878   4.322
 2581SOL    HW2 8643   6.746   6.817   4.272
 2582SOL     OW 8644   0.374   5.200   2.671
 2582SOL    HW1 8645   0.315   5.210   2.752
 2582SOL    HW2 8646   0.470   5.206   2.699
 2583SOL     OW 8647   2.047   1.188   6.945
 2583SOL    HW1 8648   2.072   1.116   6.881
 2583SOL    HW2 8649   2.079   1.165   0.018
 2584SOL     OW 8650   5.317   7.002   2.046
 2584SOL    HW1 8651   5.410   6.967   2.037
 2584SOL    HW2 8652   5.292   0.033   1.963
 2585SOL     OW 8653   4.056   1.256   1.360
 2585SOL    HW1 8654   4.111   1.339   1.369
 2585SOL    HW2 8655   4.059   1.224   1.266
 2586SOL     OW 8656   6.441   2.268   4.284
 2586SOL    HW1 8657   6.464   2.278   4.187
 2586SOL    HW2 8658   6.492   2.191   4.322
 2587SOL     OW 8659   6.795   6.592   2.710
 2587SOL    HW1 8660   6.698   6.591   2.687
 2587SOL    HW2 8661   6.847   6.549   2.636
 2588SOL     OW 8662   5.173   0.611   1.732
 2588SOL    HW1 8663   5.103   0.543   1.754
 2588SOL    HW2 8664   5.138   0.673   1.661
 2589SOL     OW 8665   5.821   6.435   0.545
 2589SOL    HW1 8666   5.806   6.475   0.636
 2589SOL    HW2 8667   5.758   6.477   0.480
 2590SOL     OW 8668   4.028   6.133   2.710
 2590SOL    HW1 8669   4.122   6.120   2.678
 2590SOL    HW2 8670   4.022   6.108   2.807
 2591SOL     OW 8671   5.389   0.340   1.628
 2591SOL    HW1 8672   5.340   0.389   1.555
 2591SOL    HW2 8673   5.463   0.286   1.588
 2592SOL     OW 8674   3.148   5.264   1.550
 2592SOL    HW1 8675   3.089   5.318   1.610
 2592SOL    HW2 8676   3.243   5.272   1.581
 2593SOL     OW 8677   3.183   6.737   2.612
 2593SOL    HW1 8678   3.161   6.769   2.519
 2593SOL    HW2 8679   3.264   6.785   2.645
 2594SOL     OW 8680   0.932   6.278   6.356
 2594SOL    HW1 8681   1.001   6.237   6.414
 2594SOL    HW2 8682   0.955   6.374   6.338
 2595SOL     OW 8683   6.119   3.421   4.224
 2595SOL    HW1 8684   6.109   3.325   4.197
 2595SOL    HW2 8685   6.133   3.427   4.322
 2596SOL     OW 8686   4.237   1.974   2.211
 2596SOL    HW1 8687   4.180   2.050   2.179
 2596SOL    HW2 8688   4.197   1.887   2.183
 2597SOL     OW 8689   2.064   2.704   6.732
 2597SOL    HW1 8690   2.085   2.655   6.648
 2597SOL    HW2 8691   2.059   2.640   6.809
 2598SOL     OW 8692   5.808   2.745   2.918
 2598SOL    HW1 8693   5.743   2.794   2.976
 2598SOL    HW2 8694   5.766   2.660   2.886
 2599SOL     OW 8695   4.367   4.432   6.591
 2599SOL    HW1 8696   4.289   4.409   6.534
 2599SOL    HW2 8697   4.355   4.391   6.682
 2600SOL     OW 8698   6.724   3.526   3.483
 2600SOL    HW1 8699   6.712   3.572   3.395
 2600SOL    HW2 8700   6.635   3.502   3.521
 2601SOL     OW 8701   3.581   3.237   5.513
 2601SOL    HW1 8702   3.620   3.305   5.451
 2601SOL    HW2 8703   3.499   3.197   5.472
 2602SOL     OW 8704   6.032   5.634   5.456
 2602SOL    HW1 8705   5.990   5.709   5.405
 2602SOL    HW2 8706   6.111   5.669   5.507
 2603SOL     OW 8707   2.897   2.956   0.383
 2603SOL    HW1 8708   2.814   3.005   0.355
 2603SOL    HW2 8709   2.871   2.873   0.432
 2604SOL     OW 8710   5.690   1.270   1.989
 2604SOL    HW1 8711   5.741   1.355   1.978
 2604SOL    HW2 8712   5.736   1.212   2.057
 2605SOL     OW 8713   4.810   4.406   3.936
 2605SOL    HW1 8714   4.793   4.380   3.840
 2605SOL    HW2 8715   4.728   4.451   3.972
 2606SOL     OW 8716   6.946   4.582   1.941
 2606SOL    HW1 8717   6.879   4.641   1.986
 2606SOL    HW2 8718   6.968   4.505   2.001
 2607SOL     OW 8719   0.703   1.760   4.804
 2607SOL    HW1 8720   0.606   1.751   4.828
 2607SOL    HW2 8721   0.723   1.856   4.784
 2608SOL     OW 8722   4.927   0.353   0.599
 2608SOL    HW1 8723   4.892   0.286   0.664
 2608SOL    HW2 8724   4.957   0.307   0.515
 2609SOL     OW 8725   0.149   2.242   4.581
 2609SOL    HW1 8726   0.159   2.147   4.610
 2609SOL    HW2 8727   0.104   2.294   4.653
 2610SOL     OW 8728   5.990   6.061   4.571
 2610SOL    HW1 8729   5.964   6.153   4.601
 2610SOL    HW2 8730   6.082   6.064   4.531
 2611SOL     OW 8731   3.468   6.224   1.516
 2611SOL    HW1 8732   3.552   6.266   1.480
 2611SOL    HW2 8733   3.493   6.144   1.571
 2612SOL     OW 8734   6.400   6.936   4.400
 2612SOL    HW1 8735   6.383   7.009   4.467
 2612SOL    HW2 8736   6.386   6.847   4.443
 2613SOL     OW 8737   4.195   0.561   1.442
 2613SOL    HW1 8738   4.263   0.516   1.501
 2613SOL    HW2 8739   4.115   0.503   1.432
 2614SOL     OW 8740   0.068   6.344   6.386
 2614SOL    HW1 8741   0.051   6.434   6.426
 2614SOL    HW2 8742   0.078   6.276   6.458
 2615SOL     OW 8743   5.565   5.118   1.954
 2615SOL    HW1 8744   5.605   5.198   2.000
 2615SOL    HW2 8745   5.473   5.140   1.922
 2616SOL     OW 8746   3.912   3.376   2.625
 2616SOL    HW1 8747   3.856   3.376   2.708
 2616SOL    HW2 8748   3.987   3.442   2.636
 2617SOL     OW 8749   3.470   0.289   1.438
 2617SOL    HW1 8750   3.473   0.389   1.445
 2617SOL    HW2 8751   3.383   0.262   1.396
 2618SOL     OW 8752   0.852   0.533   0.923
 2618SOL    HW1 8753   0.925   0.483   0.968
 2618SOL    HW2 8754   0.764   0.490   0.943
 2619SOL     OW 8755   5.085   1.595   1.427
 2619SOL    HW1 8756   5.036   1.681   1.412
 2619SOL    HW2 8757   5.180   1.615   1.451
 2620SOL     OW 8758   1.671   4.256   4.496
 2620SOL    HW1 8759   1.757   4.223   4.457
 2620SOL    HW2 8760   1.600   4.255   4.426
 2621SOL     OW 8761   1.089   4.507   4.159
 2621SOL    HW1 8762   1.118   4.508   4.255
 2621SOL    HW2 8763   1.111   4.418   4.119
 2622SOL     OW 8764   3.171   3.502   6.167
 2622SOL    HW1 8765   3.188   3.486   6.070
 2622SOL    HW2 8766   3.153   3.599   6.182
 2623SOL     OW 8767   3.083   1.038   5.750
 2623SOL    HW1 8768   3.105   0.954   5.801
 2623SOL    HW2 8769   3.168   1.085   5.727
 2624SOL     OW 8770   6.340   2.421   3.887
 2624SOL    HW1 8771   6.379   2.463   3.804
 2624SOL    HW2 8772   6.383   2.331   3.901
 2625SOL     OW 8773   4.526   0.922   5.665
 2625SOL    HW1 8774   4.622   0.896   5.666
 2625SOL    HW2 8775   4.506   0.972   5.581
 2626SOL     OW 8776   2.478   6.331   2.461
 2626SOL    HW1 8777   2.456   6.403   2.394
 2626SOL    HW2 8778   2.527   6.371   2.538
 2627SOL     OW 8779   6.915   0.243   4.773
 2627SOL    HW1 8780   6.930   0.284   4.683
 2627SOL    HW2 8781   6.823   0.266   4.805
 2628SOL     OW 8782   3.525   5.727   5.714
 2628SOL    HW1 8783   3.598   5.741   5.780
 2628SOL    HW2 8784   3.456   5.665   5.753
 2629SOL     OW 8785   3.543   4.422   1.632
 2629SOL    HW1 8786   3.606   4.353   1.668
 2629SOL    HW2 8787   3.450   4.386   1.633
 2630SOL     OW 8788   2.831   2.285   2.471
 2630SOL    HW1 8789   2.764   2.322   2.408
 2630SOL    HW2 8790   2.906   2.244   2.419
 2631SOL     OW 8791   4.766   6.718   4.279
 2631SOL    HW1 8792   4.774   6.634   4.226
 2631SOL    HW2 8793   4.675   6.757   4.268
 2632SOL     OW 8794   5.024   1.670   0.541
 2632SOL    HW1 8795   5.042   1.574   0.561
 2632SOL    HW2 8796   5.031   1.724   0.625
 2633SOL     OW 8797   6.654   2.500   6.500
 2633SOL    HW1 8798   6.564   2.491   6.543
 2633SOL    HW2 8799   6.663   2.432   6.428
 2634SOL     OW 8800   2.346   5.491   1.237
 2634SOL    HW1 8801   2.401   5.562   1.281
 2634SOL    HW2 8802   2.314   5.426   1.306
 2635SOL     OW 8803   5.160   4.729   3.695
 2635SOL    HW1 8804   5.072   4.697   3.732
 2635SOL    HW2 8805   5.168   4.828   3.708
 2636SOL     OW 8806   6.086   0.791   5.176
 2636SOL    HW1 8807   6.177   0.795   5.135
 2636SOL    HW2 8808   6.049   0.883   5.184
 2637SOL     OW 8809   4.831   6.250   2.178
 2637SOL    HW1 8810   4.919   6.292   2.199
 2637SOL    HW2 8811   4.831   6.155   2.208
 2638SOL     OW 8812   5.704   5.607   1.177
 2638SOL    HW1 8813   5.672   5.675   1.243
 2638SOL    HW2 8814   5.804   5.604   1.178
 2639SOL     OW 8815   6.607   6.263   0.469
 2639SOL    HW1 8816   6.703   6.246   0.490
 2639SOL    HW2 8817   6.581   6.212   0.387
 2640SOL     OW 8818   6.882   6.962   6.053
 2640SOL    HW1 8819   6.903   0.041   6.048
 2640SOL    HW2 8820   6.840   6.932   5.968
 2641SOL     OW 8821   5.909   4.778   0.372
 2641SOL    HW1 8822   5.815   4.776   0.406
 2641SOL    HW2 8823   5.969   4.735   0.438
 2642SOL     OW 8824   6.145   0.130   3.921
 2642SOL    HW1 8825   6.170   0.047   3.971
 2642SOL    HW2 8826   6.229   0.177   3.890
 2643SOL     OW 8827   0.683   0.533   2.715
 2643SOL    HW1 8828   0.729   0.604   2.662
 2643SOL    HW2 8829   0.696   0.444   2.671
 2644SOL     OW 8830   0.229   4.789   6.355
 2644SOL    HW1 8831   0.322   4.807   6.322
 2644SOL    HW2 8832   0.220   4.692   6.377
 2645SOL     OW 8833   5.305   5.573   5.559
 2645SOL    HW1 8834   5.368   5.619   5.621
 2645SOL    HW2 8835   5.212   5.577   5.597
 2646SOL     OW 8836   6.321   6.479   6.769
 2646SOL    HW1 8837   6.408   6.457   6.813
 2646SOL    HW2 8838   6.271   6.546   6.824
 2647SOL     OW 8839   3.659   1.941   0.682
 2647SOL    HW1 8840   3.717   1.894   0.616
 2647SOL    HW2 8841   3.687   2.037   0.689
 2648SOL     OW 8842   3.957   0.774   2.546
 2648SOL    HW1 8843   3.981   0.693   2.492
 2648SOL    HW2 8844   3.860   0.771   2.569
 2649SOL     OW 8845   3.929   2.183   5.607
 2649SOL    HW1 8846   3.871   2.160   5.685
 2649SOL    HW2 8847   4.025   2.178   5.635
 2650SOL     OW 8848   0.315   6.272   1.835
 2650SOL    HW1 8849   0.281   6.187   1.875
 2650SOL    HW2 8850   0.409   6.289   1.867
 2651SOL     OW 8851   0.347   0.485   3.393
 2651SOL    HW1 8852   0.258   0.499   3.436
 2651SOL    HW2 8853   0.385   0.573   3.366
 2652SOL     OW 8854   3.066   3.073   2.311
 2652SOL    HW1 8855   2.966   3.076   2.312
 2652SOL    HW2 8856   3.102   3.163   2.337
 2653SOL     OW 8857   6.456   6.038   6.457
 2653SOL    HW1 8858   6.476   5.975   6.382
 2653SOL    HW2 8859   6.539   6.087   6.482
 2654SOL     OW 8860   5.842   2.600   6.207
 2654SOL    HW1 8861   5.930   2.575   6.248
 2654SOL    HW2 8862   5.796   2.518   6.174
 2655SOL     OW 8863   5.226   6.403   4.947
 2655SOL    HW1 8864   5.239   6.427   4.850
 2655SOL    HW2 8865   5.311   6.422   4.997
 2656SOL     OW 8866   5.695   3.218   3.992
 2656SOL    HW1 8867   5.664   3.311   3.974
 2656SOL    HW2 8868   5.676   3.194   4.087
 2657SOL     OW 8869   2.045   2.610   5.941
 2657SOL    HW1 8870   2.131   2.594   5.990
 2657SOL    HW2 8871   2.064   2.653   5.853
 2658SOL     OW 8872   5.592   4.523   5.815
 2658SOL    HW1 8873   5.502   4.481   5.829
 2658SOL    HW2 8874   5.651   4.500   5.893
 2659SOL     OW 8875   0.143   2.951   3.820
 2659SOL    HW1 8876   0.173   2.987   3.732
 2659SOL    HW2 8877   0.175   2.856   3.829
 2660SOL     OW 8878   6.801   2.080   3.136
 2660SOL    HW1 8879   6.797   1.989   3.177
 2660SOL    HW2 8880   6.896   2.105   3.119
 2661SOL     OW 8881   4.261   6.033   1.233
 2661SOL    HW1 8882   4.355   6.016   1.202
 2661SOL    HW2 8883   4.231   6.122   1.198
 2662SOL     OW 8884   3.154   6.593   3.794
 2662SOL    HW1 8885   3.136   6.648   3.876
 2662SOL    HW2 8886   3.249   6.606   3.766
 2663SOL     OW 8887   0.779   4.112   2.709
 2663SOL    HW1 8888   0.746   4.047   2.777
 2663SOL    HW2 8889   0.836   4.181   2.754
 2664SOL     OW 8890   4.136   3.782   2.051
 2664SOL    HW1 8891   4.168   3.707   2.108
 2664SOL    HW2 8892   4.060   3.829   2.096
 2665SOL     OW 8893   3.967   1.093   4.897
 2665SOL    HW1 8894   3.931   1.005   4.930
 2665SOL    HW2 8895   3.995   1.149   4.976
 2666SOL     OW 8896   5.398   5.924   1.771
 2666SOL    HW1 8897   5.378   5.963   1.861
 2666SOL    HW2 8898   5.313   5.905   1.723
 2667SOL     OW 8899   1.092   4.973   3.793
 2667SOL    HW1 8900   1.050   4.922   3.718
 2667SOL    HW2 8901   1.123   5.062   3.760
 2668SOL     OW 8902   0.190   2.569   5.707
 2668SOL    HW1 8903   0.170   2.489   5.763
 2668SOL    HW2 8904   0.232   2.640   5.763
 2669SOL     OW 8905   4.235   4.848   5.316
 2669SOL    HW1 8906   4.243   4.797   5.230
 2669SOL    HW2 8907   4.139   4.850   5.344
 2670SOL     OW 8908   1.497   0.647   6.707
 2670SOL    HW1 8909   1.398   0.660   6.697
 2670SOL    HW2 8910   1.544   0.734   6.692
 2671SOL     OW 8911   2.678   3.781   5.839
 2671SOL    HW1 8912   2.758   3.828   5.801
 2671SOL    HW2 8913   2.698   3.683   5.846
 2672SOL     OW 8914   1.149   4.783   0.849
 2672SOL    HW1 8915   1.064   4.731   0.854
 2672SOL    HW2 8916   1.168   4.822   0.939
 2673SOL     OW 8917   4.431   1.935   3.147
 2673SOL    HW1 8918   4.355   1.899   3.093
 2673SOL    HW2 8919   4.397   1.967   3.235
 2674SOL     OW 8920   5.032   5.238   5.334
 2674SOL    HW1 8921   5.124   5.265   5.364
 2674SOL    HW2 8922   4.993   5.174   5.399
 2675SOL     OW 8923   0.185   4.273   5.694
 2675SOL    HW1 8924   0.259   4.211   5.665
 2675SOL    HW2 8925   0.197   4.362   5.650
 2676SOL     OW 8926   4.337   0.648   1.713
 2676SOL    HW1 8927   4.382   0.687   1.793
 2676SOL    HW2 8928   4.253   0.600   1.741
 2677SOL     OW 8929   2.291   5.104   2.410
 2677SOL    HW1 8930   2.246   5.184   2.369
 2677SOL    HW2 8931   2.246   5.021   2.379
 2678SOL     OW 8932   0.854   5.142   5.831
 2678SOL    HW1 8933   0.907   5.226   5.845
 2678SOL    HW2 8934   0.783   5.136   5.901
 2679SOL     OW 8935   2.593   4.116   1.143
 2679SOL    HW1 8936   2.609   4.112   1.242
 2679SOL    HW2 8937   2.548   4.202   1.120
 2680SOL     OW 8938   1.044   2.322   1.611
 2680SOL    HW1 8939   0.947   2.349   1.617
 2680SOL    HW2 8940   1.055   2.253   1.539
 2681SOL     OW 8941   1.560   1.894   2.415
 2681SOL    HW1 8942   1.572   1.909   2.513
 2681SOL    HW2 8943   1.482   1.947   2.382
 2682SOL     OW 8944   6.063   1.833   3.615
 2682SOL    HW1 8945   6.145   1.890   3.614
 2682SOL    HW2 8946   6.000   1.867   3.686
 2683SOL     OW 8947   0.941   6.960   1.622
 2683SOL    HW1 8948   0.931   6.884   1.557
 2683SOL    HW2 8949   0.979   6.926   1.708
 2684SOL     OW 8950   2.328   6.565   3.177
 2684SOL    HW1 8951   2.314   6.475   3.134
 2684SOL    HW2 8952   2.247   6.622   3.161
 2685SOL     OW 8953   5.760   5.510   5.121
 2685SOL    HW1 8954   5.801   5.599   5.097
 2685SOL    HW2 8955   5.661   5.518   5.123
 2686SOL     OW 8956   1.899   2.711   4.310
 2686SOL    HW1 8957   1.927   2.736   4.218
 2686SOL    HW2 8958   1.899   2.793   4.368
 2687SOL     OW 8959   4.541   5.795   2.668
 2687SOL    HW1 8960   4.599   5.805   2.749
 2687SOL    HW2 8961   4.489   5.710   2.674
 2688SOL     OW 8962   3.934   4.773   6.303
 2688SOL    HW1 8963   3.835   4.761   6.295
 2688SOL    HW2 8964   3.969   4.820   6.221
 2689SOL     OW 8965   6.941   3.204   4.232
 2689SOL    HW1 8966   6.976   3.113   4.209
 2689SOL    HW2 8967   6.852   3.196   4.275
 2690SOL     OW 8968   3.457   3.530   3.448
 2690SOL    HW1 8969   3.412   3.441   3.452
 2690SOL    HW2 8970   3.426   3.586   3.525
 2691SOL     OW 8971   1.151   5.888   2.034
 2691SOL    HW1 8972   1.234   5.921   1.989
 2691SOL    HW2 8973   1.099   5.830   1.971
 2692SOL     OW 8974   0.157   6.874   3.623
 2692SOL    HW1 8975   0.137   6.789   3.573
 2692SOL    HW2 8976   0.151   6.951   3.561
 2693SOL     OW 8977   1.721   4.135   3.091
 2693SOL    HW1 8978   1.734   4.039   3.115
 2693SOL    HW2 8979   1.804   4.186   3.115
 2694SOL     OW 8980   2.262   0.227   3.359
 2694SOL    HW1 8981   2.334   0.172   3.401
 2694SOL    HW2 8982   2.177   0.216   3.411
 2695SOL     OW 8983   4.337   1.986   3.396
 2695SOL    HW1 8984   4.266   1.921   3.423
 2695SOL    HW2 8985   4.424   1.961   3.438
 2696SOL     OW 8986   3.844   3.877   5.573
 2696SOL    HW1 8987   3.768   3.816   5.599
 2696SOL    HW2 8988   3.828   3.911   5.480
 2697SOL     OW 8989   2.680   1.923   4.582
 2697SOL    HW1 8990   2.626   1.972   4.515
 2697SOL    HW2 8991   2.628   1.844   4.616
 2698SOL     OW 8992   2.330   3.285   6.931
 2698SOL    HW1 8993   2.354   3.188   6.929
 2698SOL    HW2 8994   2.276   3.308   6.850
 2699SOL     OW 8995   3.705   5.703   1.816
 2699SOL    HW1 8996   3.798   5.732   1.793
 2699SOL    HW2 8997   3.661   5.773   1.872
 2700SOL     OW 8998   2.081   3.508   2.796
 2700SOL    HW1 8999   2.122   3.421   2.824
 2700SOL    HW2 9000   2.083   3.515   2.696
 2701SOL     OW 9001   3.675   6.919   6.344
 2701SOL    HW1 9002   3.759   6.925   6.289
 2701SOL    HW2 9003   3.602   6.968   6.298
 2702SOL     OW 9004   6.992   0.472   3.565
 2702SOL    HW1 9005   7.005   0.442   3.471
 2702SOL    HW2 9006   6.915   0.423   3.606
 2703SOL     OW 9007   2.344   1.287   2.437
 2703SOL    HW1 9008   2.403   1.366   2.449
 2703SOL    HW2 9009   2.286   1.301   2.356
 2704SOL     OW 9010   2.115   5.065   1.175
 2704SOL    HW1 9011   2.069   4.992   1.125
 2704SOL    HW2 9012   2.109   5.046   1.273
 2705SOL     OW 9013   0.173   4.939   2.918
 2705SOL    HW1 9014   0.118   4.856   2.934
 2705SOL    HW2 9015   0.113   5.015   2.895
 2706SOL     OW 9016   6.959   1.655   2.039
 2706SOL    HW1 9017   6.865   1.655   2.072
 2706SOL    HW2 9018   6.984   1.747   2.010
 2707SOL     OW 9019   2.418   1.359   5.944
 2707SOL    HW1 9020   2.469   1.276   5.918
 2707SOL    HW2 9021   2.394   1.355   6.040
 2708SOL     OW 9022   2.076   2.694   1.153
 2708SOL    HW1 9023   2.165   2.722   1.118
 2708SOL    HW2 9024   2.089   2.622   1.221
 2709SOL     OW 9025   4.602   6.361   0.694
 2709SOL    HW1 9026   4.521   6.415   0.670
 2709SOL    HW2 9027   4.679   6.422   0.713
 2710SOL     OW 9028   5.744   3.798   2.867
 2710SOL    HW1 9029   5.683   3.721   2.882
 2710SOL    HW2 9030   5.706   3.880   2.910
 2711SOL     OW 9031   1.051   0.256   2.021
 2711SOL    HW1 9032   0.956   0.233   2.000
 2711SOL    HW2 9033   1.112   0.192   1.974
 2712SOL     OW 9034   2.735   4.422   0.446
 2712SOL    HW1 9035   2.792   4.504   0.442
 2712SOL    HW2 9036   2.690   4.417   0.536
 2713SOL     OW 9037   2.144   3.154   5.177
 2713SOL    HW1 9038   2.230   3.113   5.147
 2713SOL    HW2 9039   2.089   3.180   5.098
 2714SOL     OW 9040   5.465   6.941   5.330
 2714SOL    HW1 9041   5.554   6.898   5.315
 2714SOL    HW2 9042   5.397   6.898   5.270
 2715SOL     OW 9043   6.639   1.259   6.545
 2715SOL    HW1 9044   6.584   1.202   6.605
 2715SOL    HW2 9045   6.710   1.305   6.598
 2716SOL     OW 9046   0.379   0.220   2.468
 2716SOL    HW1 9047   0.302   0.175   2.424
 2716SOL    HW2 9048   0.402   0.304   2.418
 2717SOL     OW 9049   0.816   0.837   3.054
 2717SOL    HW1 9050   0.800   0.752   3.104
 2717SOL    HW2 9051   0.907   0.835   3.013
 2718SOL     OW 9052   1.911   4.632   3.686
 2718SOL    HW1 9053   1.963   4.626   3.601
 2718SOL    HW2 9054   1.930   4.551   3.742
 2719SOL     OW 9055   3.980   5.315   1.494
 2719SOL    HW1 9056   4.005   5.396   1.548
 2719SOL    HW2 9057   3.927   5.343   1.415
 2720SOL     OW 9058   1.337   5.981   3.787
 2720SOL    HW1 9059   1.404   6.053   3.804
 2720SOL    HW2 9060   1.355   5.940   3.697
 2721SOL     OW 9061   4.036   6.813   4.238
 2721SOL    HW1 9062   4.060   6.868   4.318
 2721SOL    HW2 9063   4.053   6.717   4.257
 2722SOL     OW 9064   1.394   5.909   1.892
 2722SOL    HW1 9065   1.437   5.831   1.938
 2722SOL    HW2 9066   1.450   5.991   1.906
 2723SOL     OW 9067   1.455   1.294   5.717
 2723SOL    HW1 9068   1.531   1.351   5.750
 2723SOL    HW2 9069   1.448   1.302   5.618
 2724SOL     OW 9070   3.616   5.140   5.995
 2724SOL    HW1 9071   3.521   5.137   6.024
 2724SOL    HW2 9072   3.649   5.235   5.997
 2725SOL     OW 9073   2.928   4.832   3.578
 2725SOL    HW1 9074   2.987   4.867   3.650
 2725SOL    HW2 9075   2.975   4.841   3.490
 2726SOL     OW 9076   4.999   5.595   1.621
 2726SOL    HW1 9077   5.026   5.543   1.540
 2726SOL    HW2 9078   5.054   5.565   1.699
 2727SOL     OW 9079   2.226   5.715   3.248
 2727SOL    HW1 9080   2.141   5.714   3.301
 2727SOL    HW2 9081   2.224   5.640   3.182
 2728SOL     OW 9082   3.810   0.235   5.665
 2728SOL    HW1 9083   3.847   0.295   5.736
 2728SOL    HW2 9084   3.711   0.230   5.675
 2729SOL     OW 9085   5.717   5.100   2.775
 2729SOL    HW1 9086   5.636   5.149   2.742
 2729SOL    HW2 9087   5.797   5.129   2.724
 2730SOL     OW 9088   1.972   5.550   1.679
 2730SOL    HW1 9089   1.926   5.525   1.764
 2730SOL    HW2 9090   1.920   5.621   1.633
 2731SOL     OW 9091   2.958   3.825   1.485
 2731SOL    HW1 9092   3.018   3.880   1.543
 2731SOL    HW2 9093   2.928   3.879   1.406
 2732SOL     OW 9094   6.215   1.861   2.905
 2732SOL    HW1 9095   6.160   1.944   2.914
 2732SOL    HW2 9096   6.186   1.811   2.823
 2733SOL     OW 9097   1.676   0.355   5.716
 2733SOL    HW1 9098   1.693   0.339   5.813
 2733SOL    HW2 9099   1.662   0.268   5.670
 2734SOL     OW 9100   2.167   5.628   4.008
 2734SOL    HW1 9101   2.167   5.532   4.037
 2734SOL    HW2 9102   2.256   5.650   3.969
 2735SOL     OW 9103   1.859   4.593   2.344
 2735SOL    HW1 9104   1.801   4.530   2.292
 2735SOL    HW2 9105   1.937   4.542   2.382
 2736SOL     OW 9106   4.279   0.323   5.549
 2736SOL    HW1 9107   4.314   0.357   5.636
 2736SOL    HW2 9108   4.244   0.399   5.495
 2737SOL     OW 9109   4.315   3.410   6.102
 2737SOL    HW1 9110   4.365   3.451   6.025
 2737SOL    HW2 9111   4.374   3.344   6.148
 2738SOL     OW 9112   5.832   5.076   3.897
 2738SOL    HW1 9113   5.784   4.988   3.890
 2738SOL    HW2 9114   5.782   5.136   3.959
 2739SOL     OW 9115   6.339   2.835   0.978
 2739SOL    HW1 9116   6.386   2.923   0.970
 2739SOL    HW2 9117   6.244   2.845   0.948
 2740SOL     OW 9118   6.357   2.246   3.203
 2740SOL    HW1 9119   6.345   2.335   3.158
 2740SOL    HW2 9120   6.267   2.204   3.217
 2741SOL     OW 9121   0.463   2.461   5.734
 2741SOL    HW1 9122   0.422   2.371   5.752
 2741SOL    HW2 9123   0.489   2.466   5.638
 2742SOL     OW 9124   2.265   6.673   5.990
 2742SOL    HW1 9125   2.335   6.605   6.009
 2742SOL    HW2 9126   2.271   6.747   6.057
 2743SOL     OW 9127   4.994   4.600   0.676
 2743SOL    HW1 9128   5.071   4.547   0.640
 2743SOL    HW2 9129   4.908   4.556   0.649
 2744SOL     OW 9130   3.812   1.532   6.690
 2744SOL    HW1 9131   3.797   1.573   6.600
 2744SOL    HW2 9132   3.843   1.602   6.754
 2745SOL     OW 9133   2.391   5.816   0.761
 2745SOL    HW1 9134   2.291   5.814   0.757
 2745SOL    HW2 9135   2.421   5.869   0.840
 2746SOL     OW 9136   1.733   2.000   6.250
 2746SOL    HW1 9137   1.661   2.066   6.230
 2746SOL    HW2 9138   1.704   1.909   6.219
 2747SOL     OW 9139   4.548   5.741   3.942
 2747SOL    HW1 9140   4.490   5.668   3.978
 2747SOL    HW2 9141   4.501   5.829   3.952
 2748SOL     OW 9142   3.732   1.274   4.253
 2748SOL    HW1 9143   3.731   1.197   4.317
 2748SOL    HW2 9144   3.638   1.301   4.232
 2749SOL     OW 9145   4.652   5.356   4.278
 2749SOL    HW1 9146   4.557   5.327   4.268
 2749SOL    HW2 9147   4.662   5.412   4.360
 2750SOL     OW 9148   0.671   5.913   2.429
 2750SOL    HW1 9149   0.712   5.973   2.361
 2750SOL    HW2 9150   0.572   5.929   2.433
 2751SOL     OW 9151   1.086   6.854   6.522
 2751SOL    HW1 9152   1.113   6.893   6.610
 2751SOL    HW2 9153   0.988   6.865   6.509
 2752SOL     OW 9154   6.080   6.170   5.591
 2752SOL    HW1 9155   6.179   6.173   5.588
 2752SOL    HW2 9156   6.048   6.220   5.672
 2753SOL     OW 9157   2.755   5.690   5.550
 2753SOL    HW1 9158   2.792   5.598   5.562
 2753SOL    HW2 9159   2.656   5.689   5.563
 2754SOL     OW 9160   1.166   6.220   4.152
 2754SOL    HW1 9161   1.256   6.233   4.193
 2754SOL    HW2 9162   1.133   6.128   4.172
 2755SOL     OW 9163   3.972   6.125   2.444
 2755SOL    HW1 9164   3.931   6.210   2.411
 2755SOL    HW2 9165   3.989   6.131   2.542
 2756SOL     OW 9166   0.810   2.747   5.592
 2756SOL    HW1 9167   0.827   2.841   5.619
 2756SOL    HW2 9168   0.752   2.703   5.661
 2757SOL     OW 9169   4.462   3.531   6.835
 2757SOL    HW1 9170   4.395   3.603   6.853
 2757SOL    HW2 9171   4.532   3.565   6.773
 2758SOL     OW 9172   6.608   6.448   1.902
 2758SOL    HW1 9173   6.567   6.539   1.890
 2758SOL    HW2 9174   6.536   6.379   1.898
 2759SOL     OW 9175   3.008   3.791   6.118
 2759SOL    HW1 9176   3.022   3.855   6.194
 2759SOL    HW2 9177   2.926   3.736   6.134
 2760SOL     OW 9178   5.555   6.348   3.098
 2760SOL    HW1 9179   5.542   6.350   3.197
 2760SOL    HW2 9180   5.646   6.313   3.076
 2761SOL     OW 9181   1.187   2.705   3.654
 2761SOL    HW1 9182   1.285   2.726   3.657
 2761SOL    HW2 9183   1.136   2.789   3.634
 2762SOL     OW 9184   2.414   2.384   0.411
 2762SOL    HW1 9185   2.420   2.289   0.439
 2762SOL    HW2 9186   2.503   2.414   0.375
 2763SOL     OW 9187   6.287   1.871   4.440
 2763SOL    HW1 9188   6.262   1.963   4.469
 2763SOL    HW2 9189   6.308   1.815   4.521
 2764SOL     OW 9190   0.834   3.123   2.128
 2764SOL    HW1 9191   0.879   3.055   2.187
 2764SOL    HW2 9192   0.737   3.101   2.120
 2765SOL     OW 9193   6.538   6.802   6.422
 2765SOL    HW1 9194   6.525   6.705   6.440
 2765SOL    HW2 9195   6.522   6.820   6.325
 2766SOL     OW 9196   4.784   0.567   0.156
 2766SOL    HW1 9197   4.838   0.485   0.134
 2766SOL    HW2 9198   4.831   0.648   0.121
 2767SOL     OW 9199   0.268   5.230   6.436
 2767SOL    HW1 9200   0.276   5.330   6.440
 2767SOL    HW2 9201   0.275   5.193   6.528
 2768SOL     OW 9202   3.843   0.033   1.543
 2768SOL    HW1 9203   3.870   0.082   1.626
 2768SOL    HW2 9204   3.827   0.099   1.469
 2769SOL     OW 9205   0.647   4.401   5.773
 2769SOL    HW1 9206   0.716   4.429   5.707
 2769SOL    HW2 9207   0.586   4.333   5.731
 2770SOL     OW 9208   2.726   6.144   0.704
 2770SOL    HW1 9209   2.723   6.050   0.737
 2770SOL    HW2 9210   2.659   6.199   0.755
 2771SOL     OW 9211   4.566   6.634   5.060
 2771SOL    HW1 9212   4.632   6.560   5.074
 2771SOL    HW2 9213   4.488   6.620   5.121
 2772SOL     OW 9214   4.860   0.582   3.701
 2772SOL    HW1 9215   4.869   0.484   3.714
 2772SOL    HW2 9216   4.763   0.606   3.692
 2773SOL     OW 9217   5.474   2.901   4.929
 2773SOL    HW1 9218   5.458   2.855   4.841
 2773SOL    HW2 9219   5.501   2.834   4.998
 2774SOL     OW 9220   5.926   2.054   4.491
 2774SOL    HW1 9221   6.010   2.099   4.523
 2774SOL    HW2 9222   5.938   1.955   4.496
 2775SOL     OW 9223   0.746   3.339   4.199
 2775SOL    HW1 9224   0.792   3.365   4.284
 2775SOL    HW2 9225   0.658   3.387   4.194
 2776SOL     OW 9226   5.066   5.065   6.139
 2776SOL    HW1 9227   5.026   5.049   6.048
 2776SOL    HW2 9228   5.121   4.986   6.165
 2777SOL     OW 9229   2.959   2.442   6.308
 2777SOL    HW1 9230   2.959   2.355   6.359
 2777SOL    HW2 9231   3.008   2.511   6.361
 2778SOL     OW 9232   2.861   0.362   6.338
 2778SOL    HW1 9233   2.911   0.370   6.424
 2778SOL    HW2 9234   2.797   0.286   6.343
 2779SOL     OW 9235   4.530   0.965   1.163
 2779SOL    HW1 9236   4.457   0.916   1.210
 2779SOL    HW2 9237   4.619   0.935   1.197
 2780SOL     OW 9238   0.064   1.546   4.933
 2780SOL    HW1 9239   0.153   1.515   4.901
 2780SOL    HW2 9240   0.073   1.635   4.977
 2781SOL     OW 9241   5.528   1.383   3.201
 2781SOL    HW1 9242   5.574   1.469   3.222
 2781SOL    HW2 9243   5.564   1.311   3.259
 2782SOL     OW 9244   5.309   0.352   6.009
 2782SOL    HW1 9245   5.340   0.361   5.914
 2782SOL    HW2 9246   5.301   0.443   6.050
 2783SOL     OW 9247   5.945   3.756   1.831
 2783SOL    HW1 9248   6.044   3.765   1.831
 2783SOL    HW2 9249   5.919   3.664   1.862
 2784SOL     OW 9250   1.070   2.339   1.066
 2784SOL    HW1 9251   1.155   2.392   1.063
 2784SOL    HW2 9252   0.996   2.392   1.026
 2785SOL     OW 9253   6.066   3.175   1.572
 2785SOL    HW1 9254   6.114   3.100   1.617
 2785SOL    HW2 9255   5.971   3.148   1.554
 2786SOL     OW 9256   0.338   6.001   6.765
 2786SOL    HW1 9257   0.364   5.906   6.785
 2786SOL    HW2 9258   0.408   6.043   6.708
 2787SOL     OW 9259   6.894   5.725   0.201
 2787SOL    HW1 9260   6.929   5.693   0.113
 2787SOL    HW2 9261   6.848   5.649   0.248
 2788SOL     OW 9262   3.156   6.723   6.131
 2788SOL    HW1 9263   3.075   6.773   6.162
 2788SOL    HW2 9264   3.222   6.788   6.092
 2789SOL     OW 9265   0.913   1.801   5.229
 2789SOL    HW1 9266   0.824   1.829   5.264
 2789SOL    HW2 9267   0.900   1.740   5.150
 2790SOL     OW 9268   1.161   5.554   2.315
 2790SOL    HW1 9269   1.074   5.550   2.365
 2790SOL    HW2 9270   1.174   5.470   2.264
 2791SOL     OW 9271   0.730   3.121   2.937
 2791SOL    HW1 9272   0.760   3.141   2.844
 2791SOL    HW2 9273   0.633   3.144   2.946
 2792SOL     OW 9274   3.465   0.667   5.808
 2792SOL    HW1 9275   3.450   0.617   5.893
 2792SOL    HW2 9276   3.502   0.605   5.739
 2793SOL     OW 9277   3.558   3.779   0.429
 2793SOL    HW1 9278   3.523   3.840   0.358
 2793SOL    HW2 9279   3.610   3.832   0.496
 2794SOL     OW 9280   0.891   2.571   0.026
 2794SOL    HW1 9281   0.808   2.623   0.004
 2794SOL    HW2 9282   0.971   2.624   7.016
 2795SOL     OW 9283   0.842   6.000   1.514
 2795SOL    HW1 9284   0.868   6.025   1.421
 2795SOL    HW2 9285   0.884   6.063   1.579
 2796SOL     OW 9286   1.881   5.569   6.088
 2796SOL    HW1 9287   1.860   5.487   6.035
 2796SOL    HW2 9288   1.828   5.646   6.053
 2797SOL     OW 9289   4.946   5.457   3.672
 2797SOL    HW1 9290   4.924   5.381   3.611
 2797SOL    HW2 9291   4.862   5.494   3.711
 2798SOL     OW 9292   4.945   1.102   1.421
 2798SOL    HW1 9293   4.949   1.196   1.386
 2798SOL    HW2 9294   4.853   1.084   1.455
 2799SOL     OW 9295   3.492   6.360   4.704
 2799SOL    HW1 9296   3.555   6.291   4.740
 2799SOL    HW2 9297   3.424   6.317   4.646
 2800SOL     OW 9298   5.732   0.161   5.997
 2800SOL    HW1 9299   5.662   0.182   6.065
 2800SOL    HW2 9300   5.764   0.067   6.010
 2801SOL     OW 9301   6.963   4.309   4.606
 2801SOL    HW1 9302   6.875   4.355   4.607
 2801SOL    HW2 9303   0.001   4.347   4.532
 2802SOL     OW 9304   1.687   4.880   5.065
 2802SOL    HW1 9305   1.591   4.881   5.094
 2802SOL    HW2 9306   1.746   4.873   5.145
 2803SOL     OW 9307   3.824   2.410   5.995
 2803SOL    HW1 9308   3.790   2.330   5.946
 2803SOL    HW2 9309   3.853   2.383   6.087
 2804SOL     OW 9310   0.026   2.471   3.936
 2804SOL    HW1 9311   6.992   2.544   3.980
 2804SOL    HW2 9312   6.984   2.416   3.879
 2805SOL     OW 9313   3.377   2.850   1.154
 2805SOL    HW1 9314   3.417   2.891   1.235
 2805SOL    HW2 9315   3.422   2.887   1.072
 2806SOL     OW 9316   0.301   3.490   6.113
 2806SOL    HW1 9317   0.350   3.577   6.118
 2806SOL    HW2 9318   0.331   3.430   6.187
 2807SOL     OW 9319   3.987   0.849   3.739
 2807SOL    HW1 9320   3.917   0.802   3.793
 2807SOL    HW2 9321   4.057   0.885   3.800
 2808SOL     OW 9322   0.253   4.487   5.564
 2808SOL    HW1 9323   0.309   4.503   5.645
 2808SOL    HW2 9324   0.203   4.571   5.541
 2809SOL     OW 9325   0.189   5.704   2.275
 2809SOL    HW1 9326   0.247   5.692   2.194
 2809SOL    HW2 9327   0.118   5.634   2.276
 2810SOL     OW 9328   2.371   6.923   3.026
 2810SOL    HW1 9329   2.435   6.877   2.964
 2810SOL    HW2 9330   2.329   6.856   3.087
 2811SOL     OW 9331   0.988   0.928   1.596
 2811SOL    HW1 9332   0.892   0.903   1.605
 2811SOL    HW2 9333   0.996   1.027   1.581
 2812SOL     OW 9334   1.177   1.294   1.078
 2812SOL    HW1 9335   1.180   1.231   1.155
 2812SOL    HW2 9336   1.146   1.246   0.996
 2813SOL     OW 9337   0.939   3.142   1.692
 2813SOL    HW1 9338   1.009   3.176   1.755
 2813SOL    HW2 9339   0.865   3.099   1.745
 2814SOL     OW 9340   2.512   4.253   0.365
 2814SOL    HW1 9341   2.529   4.156   0.383
 2814SOL    HW2 9342   2.599   4.303   0.372
 2815SOL     OW 9343   0.011   4.628   4.637
 2815SOL    HW1 9344   7.003   4.587   4.724
 2815SOL    HW2 9345   0.003   4.561   4.563
 2816SOL     OW 9346   0.496   5.652   5.644
 2816SOL    HW1 9347   0.487   5.563   5.687
 2816SOL    HW2 9348   0.460   5.723   5.705
 2817SOL     OW 9349   3.584   0.783   2.312
 2817SOL    HW1 9350   3.675   0.806   2.277
 2817SOL    HW2 9351   3.558   0.692   2.280
 2818SOL     OW 9352   2.140   0.296   0.595
 2818SOL    HW1 9353   2.197   0.269   0.517
 2818SOL    HW2 9354   2.102   0.387   0.580
 2819SOL     OW 9355   0.758   0.121   6.568
 2819SOL    HW1 9356   0.831   0.161   6.623
 2819SOL    HW2 9357   0.769   0.021   6.566
 2820SOL     OW 9358   1.676   2.692   6.893
 2820SOL    HW1 9359   1.627   2.752   6.957
 2820SOL    HW2 9360   1.722   2.620   6.944
 2821SOL     OW 9361   3.691   3.259   6.224
 2821SOL    HW1 9362   3.783   3.287   6.251
 2821SOL    HW2 9363   3.657   3.190   6.287
 2822SOL     OW 9364   4.472   2.887   0.305
 2822SOL    HW1 9365   4.526   2.849   0.381
 2822SOL    HW2 9366   4.513   2.860   0.218
 2823SOL     OW 9367   4.927   2.636   1.346
 2823SOL    HW1 9368   4.970   2.590   1.423
 2823SOL    HW2 9369   4.862   2.573   1.302
 2824SOL     OW 9370   1.162   3.768   4.328
 2824SOL    HW1 9371   1.216   3.781   4.411
 2824SOL    HW2 9372   1.131   3.673   4.324
 2825SOL     OW 9373   5.426   1.887   6.252
 2825SOL    HW1 9374   5.432   1.901   6.351
 2825SOL    HW2 9375   5.515   1.902   6.210
 2826SOL     OW 9376   2.703   2.561   6.329
 2826SOL    HW1 9377   2.789   2.522   6.295
 2826SOL    HW2 9378   2.710   2.661   6.328
 2827SOL     OW 9379   6.288   1.133   6.314
 2827SOL    HW1 9380   6.251   1.151   6.406
 2827SOL    HW2 9381   6.350   1.206   6.288
 2828SOL     OW 9382   1.708   3.902   1.084
 2828SOL    HW1 9383   1.806   3.915   1.099
 2828SOL    HW2 9384   1.657   3.965   1.143
 2829SOL     OW 9385   3.256   3.780   2.084
 2829SOL    HW1 9386   3.309   3.783   2.169
 2829SOL    HW2 9387   3.241   3.874   2.052
 2830SOL     OW 9388   3.336   6.013   5.093
 2830SOL    HW1 9389   3.359   5.990   5.188
 2830SOL    HW2 9390   3.266   5.950   5.059
 2831SOL     OW 9391   5.443   1.942   2.032
 2831SOL    HW1 9392   5.523   1.884   2.017
 2831SOL    HW2 9393   5.361   1.895   1.998
 2832SOL     OW 9394   0.855   3.830   1.926
 2832SOL    HW1 9395   0.933   3.769   1.943
 2832SOL    HW2 9396   0.859   3.864   1.832
 2833SOL     OW 9397   1.414   2.430   2.023
 2833SOL    HW1 9398   1.359   2.356   1.982
 2833SOL    HW2 9399   1.362   2.515   2.022
 2834SOL     OW 9400   3.852   6.318   4.636
 2834SOL    HW1 9401   3.814   6.268   4.714
 2834SOL    HW2 9402   3.927   6.377   4.667
 2835SOL     OW 9403   6.666   0.842   6.777
 2835SOL    HW1 9404   6.603   0.807   6.846
 2835SOL    HW2 9405   6.736   0.773   6.757
 2836SOL     OW 9406   2.940   5.650   2.623
 2836SOL    HW1 9407   2.869   5.641   2.554
 2836SOL    HW2 9408   3.028   5.668   2.579
 2837SOL     OW 9409   5.221   4.150   1.811
 2837SOL    HW1 9410   5.149   4.188   1.753
 2837SOL    HW2 9411   5.180   4.113   1.894
 2838SOL     OW 9412   6.321   4.548   6.488
 2838SOL    HW1 9413   6.309   4.573   6.584
 2838SOL    HW2 9414   6.240   4.498   6.456
 2839SOL     OW 9415   6.107   3.276   4.921
 2839SOL    HW1 9416   6.197   3.311   4.894
 2839SOL    HW2 9417   6.069   3.221   4.847
 2840SOL     OW 9418   0.146   6.721   4.167
 2840SOL    HW1 9419   0.053   6.687   4.153
 2840SOL    HW2 9420   0.177   6.768   4.084
 2841SOL     OW 9421   5.648   3.960   2.316
 2841SOL    HW1 9422   5.643   3.877   2.371
 2841SOL    HW2 9423   5.583   4.028   2.352
 2842SOL     OW 9424   1.232   0.465   3.867
 2842SOL    HW1 9425   1.200   0.428   3.954
 2842SOL    HW2 9426   1.194   0.557   3.854
 2843SOL     OW 9427   2.151   2.425   3.913
 2843SOL    HW1 9428   2.084   2.363   3.872
 2843SOL    HW2 9429   2.139   2.517   3.874
 2844SOL     OW 9430   5.067   3.645   0.309
 2844SOL    HW1 9431   5.041   3.619   0.216
 2844SOL    HW2 9432   5.021   3.583   0.374
 2845SOL     OW 9433   3.198   1.651   2.560
 2845SOL    HW1 9434   3.171   1.714   2.633
 2845SOL    HW2 9435   3.281   1.601   2.587
 2846SOL     OW 9436   6.669   0.416   6.711
 2846SOL    HW1 9437   6.622   0.331   6.735
 2846SOL    HW2 9438   6.604   0.480   6.671
 2847SOL     OW 9439   4.612   4.595   1.190
 2847SOL    HW1 9440   4.646   4.645   1.270
 2847SOL    HW2 9441   4.608   4.497   1.211
 2848SOL     OW 9442   0.968   4.302   5.339
 2848SOL    HW1 9443   0.926   4.235   5.401
 2848SOL    HW2 9444   0.952   4.275   5.245
 2849SOL     OW 9445   4.995   0.348   1.499
 2849SOL    HW1 9446   4.989   0.405   1.581
 2849SOL    HW2 9447   5.088   0.351   1.462
 2850SOL     OW 9448   1.643   0.711   2.209
 2850SOL    HW1 9449   1.618   0.635   2.269
 2850SOL    HW2 9450   1.600   0.795   2.241
 2851SOL     OW 9451   3.523   3.141   1.645
 2851SOL    HW1 9452   3.559   3.087   1.721
 2851SOL    HW2 9453   3.426   3.121   1.633
 2852SOL     OW 9454   6.618   4.814   5.769
 2852SOL    HW1 9455   6.525   4.782   5.785
 2852SOL    HW2 9456   6.622   4.866   5.684
 2853SOL     OW 9457   6.920   4.232   5.645
 2853SOL    HW1 9458   7.016   4.249   5.666
 2853SOL    HW2 9459   6.897   4.137   5.669
 2854SOL     OW 9460   4.387   0.680   5.665
 2854SOL    HW1 9461   4.438   0.766   5.656
 2854SOL    HW2 9462   4.358   0.649   5.575
 2855SOL     OW 9463   2.377   1.542   5.115
 2855SOL    HW1 9464   2.341   1.635   5.124
 2855SOL    HW2 9465   2.456   1.542   5.054
 2856SOL     OW 9466   1.174   5.507   3.801
 2856SOL    HW1 9467   1.186   5.444   3.724
 2856SOL    HW2 9468   1.076   5.526   3.813
 2857SOL     OW 9469   6.957   4.670   1.151
 2857SOL    HW1 9470   6.999   4.583   1.178
 2857SOL    HW2 9471   6.871   4.682   1.200
 2858SOL     OW 9472   4.634   4.663   2.364
 2858SOL    HW1 9473   4.628   4.621   2.455
 2858SOL    HW2 9474   4.552   4.642   2.311
 2859SOL     OW 9475   5.697   4.697   1.263
 2859SOL    HW1 9476   5.740   4.677   1.176
 2859SOL    HW2 9477   5.614   4.642   1.274
 2860SOL     OW 9478   0.892   0.013   2.430
 2860SOL    HW1 9479   0.805   0.062   2.420
 2860SOL    HW2 9480   0.952   0.064   2.491
 2861SOL     OW 9481   4.805   4.475   5.839
 2861SOL    HW1 9482   4.755   4.418   5.773
 2861SOL    HW2 9483   4.773   4.454   5.932
 2862SOL     OW 9484   4.620   3.125   6.807
 2862SOL    HW1 9485   4.673   3.208   6.788
 2862SOL    HW2 9486   4.611   3.113   6.906
 2863SOL     OW 9487   5.923   1.263   5.365
 2863SOL    HW1 9488   5.858   1.287   5.293
 2863SOL    HW2 9489   5.875   1.218   5.441
 2864SOL     OW 9490   3.622   4.218   0.311
 2864SOL    HW1 9491   3.595   4.281   0.239
 2864SOL    HW2 9492   3.720   4.199   0.304
 2865SOL     OW 9493   5.766   5.306   4.637
 2865SOL    HW1 9494   5.813   5.220   4.655
 2865SOL    HW2 9495   5.741   5.350   4.723
 2866SOL     OW 9496   3.881   4.065   0.241
 2866SOL    HW1 9497   3.930   3.991   0.195
 2866SOL    HW2 9498   3.938   4.099   0.317
 2867SOL     OW 9499   5.312   6.187   2.531
 2867SOL    HW1 9500   5.234   6.146   2.485
 2867SOL    HW2 9501   5.349   6.261   2.475
 2868SOL     OW 9502   0.734   0.168   5.661
 2868SOL    HW1 9503   0.695   0.076   5.650
 2868SOL    HW2 9504   0.741   0.190   5.758
 2869SOL     OW 9505   6.237   5.648   4.288
 2869SOL    HW1 9506   6.304   5.603   4.228
 2869SOL    HW2 9507   6.148   5.603   4.278
 2870SOL     OW 9508   6.479   2.266   2.501
 2870SOL    HW1 9509   6.509   2.355   2.467
 2870SOL    HW2 9510   6.531   2.243   2.584
 2871SOL     OW 9511   4.561   1.430   2.441
 2871SOL    HW1 9512   4.580   1.350   2.385
 2871SOL    HW2 9513   4.502   1.493   2.390
 2872SOL     OW 9514   2.697   1.992   2.439
 2872SOL    HW1 9515   2.785   2.027   2.471
 2872SOL    HW2 9516   2.682   2.023   2.345
 2873SOL     OW 9517   0.564   6.776   1.394
 2873SOL    HW1 9518   0.605   6.798   1.483
 2873SOL    HW2 9519   0.530   6.860   1.352
 2874SOL     OW 9520   2.506   1.241   3.248
 2874SOL    HW1 9521   2.582   1.305   3.243
 2874SOL    HW2 9522   2.539   1.148   3.231
 2875SOL     OW 9523   2.128   0.059   3.019
 2875SOL    HW1 9524   2.146   0.148   3.060
 2875SOL    HW2 9525   2.210   0.002   3.026
 2876SOL     OW 9526   1.830   0.317   2.050
 2876SOL    HW1 9527   1.734   0.334   2.030
 2876SOL    HW2 9528   1.872   0.399   2.088
 2877SOL     OW 9529   1.365   2.399   6.892
 2877SOL    HW1 9530   1.379   2.454   6.974
 2877SOL    HW2 9531   1.413   2.441   6.815
 2878SOL     OW 9532   3.924   3.022   3.924
 2878SOL    HW1 9533   3.833   3.053   3.897
 2878SOL    HW2 9534   3.991   3.092   3.900
 2879SOL     OW 9535   4.912   4.252   6.994
 2879SOL    HW1 9536   4.918   4.263   6.895
 2879SOL    HW2 9537   4.964   4.324   0.021
 2880SOL     OW 9538   2.018   1.044   3.300
 2880SOL    HW1 9539   1.948   1.108   3.329
 2880SOL    HW2 9540   2.052   1.069   3.210
 2881SOL     OW 9541   5.201   5.943   6.970
 2881SOL    HW1 9542   5.224   5.883   0.028
 2881SOL    HW2 9543   5.169   5.888   6.893
 2882SOL     OW 9544   4.445   6.067   0.177
 2882SOL    HW1 9545   4.345   6.061   0.174
 2882SOL    HW2 9546   4.474   6.156   0.142
 2883SOL     OW 9547   5.871   6.184   4.129
 2883SOL    HW1 9548   5.852   6.262   4.188
 2883SOL    HW2 9549   5.844   6.100   4.175
 2884SOL     OW 9550   5.805   5.254   4.253
 2884SOL    HW1 9551   5.802   5.338   4.307
 2884SOL    HW2 9552   5.721   5.202   4.266
 2885SOL     OW 9553   1.107   2.553   3.357
 2885SOL    HW1 9554   1.137   2.568   3.451
 2885SOL    HW2 9555   1.149   2.622   3.297
 2886SOL     OW 9556   2.177   4.430   5.358
 2886SOL    HW1 9557   2.146   4.348   5.309
 2886SOL    HW2 9558   2.277   4.434   5.354
 2887SOL     OW 9559   0.366   6.230   3.310
 2887SOL    HW1 9560   0.375   6.131   3.323
 2887SOL    HW2 9561   0.380   6.277   3.397
 2888SOL     OW 9562   6.179   0.115   6.302
 2888SOL    HW1 9563   6.251   0.176   6.337
 2888SOL    HW2 9564   6.217   0.057   6.230
 2889SOL     OW 9565   3.676   6.090   2.710
 2889SOL    HW1 9566   3.576   6.079   2.702
 2889SOL    HW2 9567   3.700   6.108   2.806
 2890SOL     OW 9568   1.147   1.892   1.280
 2890SOL    HW1 9569   1.166   1.951   1.202
 2890SOL    HW2 9570   1.075   1.827   1.256
 2891SOL     OW 9571   6.669   2.313   4.973
 2891SOL    HW1 9572   6.708   2.384   5.031
 2891SOL    HW2 9573   6.657   2.229   5.026
 2892SOL     OW 9574   5.726   3.745   2.512
 2892SOL    HW1 9575   5.732   3.757   2.611
 2892SOL    HW2 9576   5.660   3.674   2.490
 2893SOL     OW 9577   6.731   5.432   4.577
 2893SOL    HW1 9578   6.646   5.380   4.569
 2893SOL    HW2 9579   6.764   5.428   4.671
 2894SOL     OW 9580   1.980   5.404   2.674
 2894SOL    HW1 9581   1.918   5.337   2.632
 2894SOL    HW2 9582   2.016   5.366   2.759
 2895SOL     OW 9583   4.390   6.920   5.814
 2895SOL    HW1 9584   4.436   6.865   5.743
 2895SOL    HW2 9585   4.403   6.877   5.903
 2896SOL     OW 9586   5.238   0.097   4.585
 2896SOL    HW1 9587   5.327   0.089   4.630
 2896SOL    HW2 9588   5.197   0.186   4.606
 2897SOL     OW 9589   4.391   5.074   2.955
 2897SOL    HW1 9590   4.361   4.993   3.005
 2897SOL    HW2 9591   4.478   5.105   2.992
 2898SOL     OW 9592   5.327   2.812   2.602
 2898SOL    HW1 9593   5.385   2.886   2.567
 2898SOL    HW2 9594   5.314   2.744   2.529
 2899SOL     OW 9595   6.801   3.912   0.870
 2899SOL    HW1 9596   6.865   3.900   0.795
 2899SOL    HW2 9597   6.827   3.853   0.947
 2900SOL     OW 9598   2.722   3.110   5.766
 2900SOL    HW1 9599   2.647   3.073   5.711
 2900SOL    HW2 9600   2.685   3.152   5.849
 2901SOL     OW 9601   0.414   3.652   3.353
 2901SOL    HW1 9602   0.476   3.724   3.322
 2901SOL    HW2 9603   0.458   3.563   3.342
 2902SOL     OW 9604   6.831   6.317   4.107
 2902SOL    HW1 9605   6.847   6.276   4.017
 2902SOL    HW2 9606   6.734   6.316   4.129
 2903SOL     OW 9607   5.095   5.031   0.368
 2903SOL    HW1 9608   5.084   4.993   0.460
 2903SOL    HW2 9609   5.185   5.072   0.359
 2904SOL     OW 9610   2.150   3.891   5.377
 2904SOL    HW1 9611   2.119   3.960   5.442
 2904SOL    HW2 9612   2.229   3.927   5.326
 2905SOL     OW 9613   1.645   5.976   1.388
 2905SOL    HW1 9614   1.664   6.061   1.437
 2905SOL    HW2 9615   1.688   5.978   1.298
 2906SOL     OW 9616   6.122   5.998   4.204
 2906SOL    HW1 9617   6.041   6.030   4.154
 2906SOL    HW2 9618   6.122   5.898   4.205
 2907SOL     OW 9619   0.576   1.287   4.485
 2907SOL    HW1 9620   0.507   1.346   4.526
 2907SOL    HW2 9621   0.657   1.285   4.543
 2908SOL     OW 9622   4.421   6.628   2.713
 2908SOL    HW1 9623   4.444   6.570   2.792
 2908SOL    HW2 9624   4.327   6.661   2.723
 2909SOL     OW 9625   6.925   6.479   1.466
 2909SOL    HW1 9626   6.915   6.384   1.496
 2909SOL    HW2 9627   6.928   6.539   1.545
 2910SOL     OW 9628   0.285   0.902   3.913
 2910SOL    HW1 9629   0.349   0.835   3.875
 2910SOL    HW2 9630   0.336   0.970   3.966
 2911SOL     OW 9631   6.944   4.490   5.538
 2911SOL    HW1 9632   6.908   4.398   5.553
 2911SOL    HW2 9633   6.935   4.515   5.442
 2912SOL     OW 9634   1.072   1.224   1.842
 2912SOL    HW1 9635   1.096   1.315   1.875
 2912SOL    HW2 9636   1.052   1.228   1.744
 2913SOL     OW 9637   3.137   6.810   2.354
 2913SOL    HW1 9638   3.040   6.820   2.333
 2913SOL    HW2 9639   3.188   6.788   2.271
 2914SOL     OW 9640   4.363   5.560   0.838
 2914SOL    HW1 9641   4.272   5.520   0.828
 2914SOL    HW2 9642   4.364   5.620   0.918
 2915SOL     OW 9643   2.628   0.178   2.546
 2915SOL    HW1 9644   2.558   0.239   2.510
 2915SOL    HW2 9645   2.710   0.184   2.489
 2916SOL     OW 9646   1.517   6.009   0.068
 2916SOL    HW1 9647   1.598   5.952   0.083
 2916SOL    HW2 9648   1.439   5.968   0.115
 2917SOL     OW 9649   2.861   6.629   3.379
 2917SOL    HW1 9650   2.935   6.693   3.359
 2917SOL    HW2 9651   2.866   6.601   3.475
 2918SOL     OW 9652   4.771   2.617   1.720
 2918SOL    HW1 9653   4.726   2.567   1.646
 2918SOL    HW2 9654   4.829   2.689   1.682
 2919SOL     OW 9655   0.495   5.721   4.988
 2919SOL    HW1 9656   0.521   5.694   5.081
 2919SOL    HW2 9657   0.472   5.818   4.987
 2920SOL     OW 9658   1.618   2.173   2.741
 2920SOL    HW1 9659   1.615   2.074   2.726
 2920SOL    HW2 9660   1.626   2.219   2.652
 2921SOL     OW 9661   1.148   6.196   3.691
 2921SOL    HW1 9662   1.135   6.275   3.752
 2921SOL    HW2 9663   1.166   6.115   3.746
 2922SOL     OW 9664   3.784   6.230   4.219
 2922SOL    HW1 9665   3.723   6.157   4.188
 2922SOL    HW2 9666   3.742   6.319   4.198
 2923SOL     OW 9667   6.417   5.382   5.049
 2923SOL    HW1 9668   6.456   5.317   4.984
 2923SOL    HW2 9669   6.361   5.448   4.999
 2924SOL     OW 9670   6.083   1.606   5.069
 2924SOL    HW1 9671   6.135   1.563   4.995
 2924SOL    HW2 9672   6.014   1.542   5.102
 2925SOL     OW 9673   5.310   6.685   5.411
 2925SOL    HW1 9674   5.274   6.677   5.504
 2925SOL    HW2 9675   5.257   6.628   5.349
 2926SOL     OW 9676   6.506   2.979   4.567
 2926SOL    HW1 9677   6.482   2.903   4.628
 2926SOL    HW2 9678   6.546   2.944   4.483
 2927SOL     OW 9679   1.299   1.571   1.960
 2927SOL    HW1 9680   1.275   1.539   1.868
 2927SOL    HW2 9681   1.242   1.525   2.028
 2928SOL     OW 9682   6.360   3.084   0.198
 2928SOL    HW1 9683   6.402   3.014   0.140
 2928SOL    HW2 9684   6.317   3.154   0.140
 2929SOL     OW 9685   2.412   2.288   4.301
 2929SOL    HW1 9686   2.380   2.312   4.392
 2929SOL    HW2 9687   2.340   2.306   4.234
 2930SOL     OW 9688   0.734   3.961   4.314
 2930SOL    HW1 9689   0.661   4.030   4.317
 2930SOL    HW2 9690   0.737   3.919   4.224
 2931SOL     OW 9691   4.682   3.869   5.729
 2931SOL    HW1 9692   4.743   3.948   5.728
 2931SOL    HW2 9693   4.690   3.820   5.642
 2932SOL     OW 9694   6.000   5.070   1.112
 2932SOL    HW1 9695   6.099   5.056   1.107
 2932SOL    HW2 9696   5.970   5.126   1.034
 2933SOL     OW 9697   1.298   6.679   6.759
 2933SOL    HW1 9698   1.272   6.682   6.663
 2933SOL    HW2 9699   1.216   6.674   6.816
 2934SOL     OW 9700   3.676   4.303   0.831
 2934SOL    HW1 9701   3.775   4.318   0.832
 2934SOL    HW2 9702   3.657   4.205   0.837
 2935SOL     OW 9703   0.616   2.196   6.259
 2935SOL    HW1 9704   0.677   2.145   6.199
 2935SOL    HW2 9705   0.569   2.267   6.207
 2936SOL     OW 9706   4.789   5.962   1.226
 2936SOL    HW1 9707   4.791   6.062   1.230
 2936SOL    HW2 9708   4.735   5.933   1.147
 2937SOL     OW 9709   5.178   4.366   2.535
 2937SOL    HW1 9710   5.108   4.324   2.592
 2937SOL    HW2 9711   5.209   4.300   2.467
 2938SOL     OW 9712   0.092   5.060   6.330
 2938SOL    HW1 9713   0.165   5.123   6.358
 2938SOL    HW2 9714   0.132   4.972   6.305
 2939SOL     OW 9715   0.008   6.618   1.697
 2939SOL    HW1 9716   0.097   6.642   1.660
 2939SOL    HW2 9717   0.018   6.584   1.791
 2940SOL     OW 9718   4.280   6.551   3.976
 2940SOL    HW1 9719   4.197   6.498   3.994
 2940SOL    HW2 9720   4.255   6.647   3.959
 2941SOL     OW 9721   1.857   4.723   2.982
 2941SOL    HW1 9722   1.858   4.675   3.069
 2941SOL    HW2 9723   1.765   4.717   2.942
 2942SOL     OW 9724   3.284   1.644   1.345
 2942SOL    HW1 9725   3.258   1.591   1.425
 2942SOL    HW2 9726   3.337   1.587   1.282
 2943SOL     OW 9727   6.130   4.053   3.015
 2943SOL    HW1 9728   6.060   4.123   3.031
 2943SOL    HW2 9729   6.095   3.987   2.949
 2944SOL     OW 9730   1.851   5.644   2.370
 2944SOL    HW1 9731   1.886   5.733   2.398
 2944SOL    HW2 9732   1.765   5.626   2.417
 2945SOL     OW 9733   4.410   4.452   1.021
 2945SOL    HW1 9734   4.442   4.543   0.994
 2945SOL    HW2 9735   4.481   4.405   1.074
 2946SOL     OW 9736   3.888   3.715   5.205
 2946SOL    HW1 9737   3.954   3.789   5.192
 2946SOL    HW2 9738   3.812   3.748   5.261
 2947SOL     OW 9739   6.404   6.210   0.919
 2947SOL    HW1 9740   6.316   6.171   0.945
 2947SOL    HW2 9741   6.414   6.205   0.820
 2948SOL     OW 9742   0.014   3.393   2.299
 2948SOL    HW1 9743   6.980   3.325   2.249
 2948SOL    HW2 9744   0.034   3.359   2.391
 2949SOL     OW 9745   1.780   6.104   0.627
 2949SOL    HW1 9746   1.749   6.060   0.543
 2949SOL    HW2 9747   1.880   6.097   0.634
 2950SOL     OW 9748   5.975   5.241   2.702
 2950SOL    HW1 9749   5.991   5.298   2.621
 2950SOL    HW2 9750   6.039   5.165   2.702
 2951SOL     OW 9751   0.012   1.458   1.513
 2951SOL    HW1 9752   6.978   1.483   1.595
 2951SOL    HW2 9753   6.977   1.393   1.459
 2952SOL     OW 9754   6.776   1.838   5.159
 2952SOL    HW1 9755   6.724   1.761   5.122
 2952SOL    HW2 9756   6.874   1.822   5.144
 2953SOL     OW 9757   1.332   4.860   3.222
 2953SOL    HW1 9758   1.234   4.875   3.235
 2953SOL    HW2 9759   1.380   4.882   3.307
 2954SOL     OW 9760   0.088   4.402   6.105
 2954SOL    HW1 9761   0.025   4.448   6.167
 2954SOL    HW2 9762   0.056   4.309   6.088
 2955SOL     OW 9763   2.063   4.176   5.823
 2955SOL    HW1 9764   2.094   4.104   5.885
 2955SOL    HW2 9765   2.071   4.265   5.869
 2956SOL     OW 9766   5.496   4.591   3.957
 2956SOL    HW1 9767   5.442   4.535   3.894
 2956SOL    HW2 9768   5.593   4.584   3.933
 2957SOL     OW 9769   2.062   5.116   1.459
 2957SOL    HW1 9770   2.088   5.208   1.427
 2957SOL    HW2 9771   1.966   5.116   1.486
 2958SOL     OW 9772   2.380   4.692   2.604
 2958SOL    HW1 9773   2.405   4.788   2.612
 2958SOL    HW2 9774   2.280   4.683   2.604
 2959SOL     OW 9775   6.811   3.637   3.011
 2959SOL    HW1 9776   6.762   3.558   2.976
 2959SOL    HW2 9777   6.909   3.627   2.995
 2960SOL     OW 9778   5.356   6.852   0.918
 2960SOL    HW1 9779   5.332   6.803   1.002
 2960SOL    HW2 9780   5.342   6.950   0.932
 2961SOL     OW 9781   5.384   3.236   1.927
 2961SOL    HW1 9782   5.330   3.175   1.869
 2961SOL    HW2 9783   5.473   3.253   1.885
 2962SOL     OW 9784   6.835   0.385   3.279
 2962SOL    HW1 9785   6.910   0.345   3.227
 2962SOL    HW2 9786   6.757   0.402   3.218
 2963SOL     OW 9787   1.651   0.852   5.093
 2963SOL    HW1 9788   1.637   0.817   5.000
 2963SOL    HW2 9789   1.706   0.787   5.145
 2964SOL     OW 9790   1.483   1.180   6.742
 2964SOL    HW1 9791   1.559   1.228   6.699
 2964SOL    HW2 9792   1.465   1.220   6.832
 2965SOL     OW 9793   0.206   6.935   5.481
 2965SOL    HW1 9794   0.194   0.005   5.436
 2965SOL    HW2 9795   0.131   6.920   5.546
 2966SOL     OW 9796   2.989   5.748   2.158
 2966SOL    HW1 9797   3.081   5.718   2.182
 2966SOL    HW2 9798   2.924   5.674   2.171
 2967SOL     OW 9799   5.222   0.575   4.625
 2967SOL    HW1 9800   5.259   0.552   4.534
 2967SOL    HW2 9801   5.171   0.496   4.660
 2968SOL     OW 9802   1.285   3.673   1.216
 2968SOL    HW1 9803   1.235   3.697   1.133
 2968SOL    HW2 9804   1.379   3.647   1.192
 2969SOL     OW 9805   4.649   3.377   5.394
 2969SOL    HW1 9806   4.550   3.367   5.402
 2969SOL    HW2 9807   4.670   3.456   5.336
 2970SOL     OW 9808   2.877   1.772   4.947
 2970SOL    HW1 9809   2.889   1.840   4.875
 2970SOL    HW2 9810   2.964   1.757   4.994
 2971SOL     OW 9811   5.044   3.507   6.230
 2971SOL    HW1 9812   4.957   3.543   6.198
 2971SOL    HW2 9813   5.058   3.415   6.193
 2972SOL     OW 9814   6.530   5.595   6.477
 2972SOL    HW1 9815   6.474   5.675   6.498
 2972SOL    HW2 9816   6.476   5.512   6.493
 2973SOL     OW 9817   4.434   1.101   3.549
 2973SOL    HW1 9818   4.393   1.012   3.571
 2973SOL    HW2 9819   4.369   1.155   3.495
 2974SOL     OW 9820   4.445   6.808   1.993
 2974SOL    HW1 9821   4.441   6.889   2.052
 2974SOL    HW2 9822   4.514   6.745   2.028
 2975SOL     OW 9823   5.142   3.905   4.068
 2975SOL    HW1 9824   5.057   3.860   4.093
 2975SOL    HW2 9825   5.219   3.845   4.090
 2976SOL     OW 9826   4.020   1.182   2.441
 2976SOL    HW1 9827   4.009   1.281   2.444
 2976SOL    HW2 9828   4.110   1.156   2.476
 2977SOL     OW 9829   1.100   0.468   1.833
 2977SOL    HW1 9830   1.106   0.422   1.922
 2977SOL    HW2 9831   1.048   0.553   1.843
 2978SOL     OW 9832   4.754   5.229   6.456
 2978SOL    HW1 9833   4.822   5.298   6.432
 2978SOL    HW2 9834   4.663   5.270   6.457
 2979SOL     OW 9835   2.862   0.828   4.364
 2979SOL    HW1 9836   2.810   0.746   4.341
 2979SOL    HW2 9837   2.929   0.807   4.435
 2980SOL     OW 9838   3.386   3.455   4.526
 2980SOL    HW1 9839   3.306   3.509   4.551
 2980SOL    HW2 9840   3.436   3.501   4.453
 2981SOL     OW 9841   2.008   0.923   1.490
 2981SOL    HW1 9842   2.063   0.877   1.421
 2981SOL    HW2 9843   1.911   0.917   1.464
 2982SOL     OW 9844   1.831   0.009   0.912
 2982SOL    HW1 9845   1.842   0.059   0.998
 2982SOL    HW2 9846   1.882   0.056   0.840
 2983SOL     OW 9847   6.411   2.958   5.429
 2983SOL    HW1 9848   6.324   3.003   5.449
 2983SOL    HW2 9849   6.486   3.024   5.435
 2984SOL     OW 9850   0.239   5.438   1.594
 2984SOL    HW1 9851   0.326   5.481   1.620
 2984SOL    HW2 9852   0.245   5.339   1.608
 2985SOL     OW 9853   0.189   0.383   5.875
 2985SOL    HW1 9854   0.158   0.385   5.780
 2985SOL    HW2 9855   0.288   0.370   5.878
 2986SOL     OW 9856   3.562   3.548   2.166
 2986SOL    HW1 9857   3.597   3.463   2.204
 2986SOL    HW2 9858   3.536   3.533   2.070
 2987SOL     OW 9859   1.844   6.148   5.241
 2987SOL    HW1 9860   1.937   6.175   5.265
 2987SOL    HW2 9861   1.779   6.211   5.284
 2988SOL     OW 9862   0.241   1.487   6.442
 2988SOL    HW1 9863   0.245   1.444   6.533
 2988SOL    HW2 9864   0.292   1.431   6.377
 2989SOL     OW 9865   5.081   3.175   4.750
 2989SOL    HW1 9866   5.163   3.129   4.782
 2989SOL    HW2 9867   5.005   3.158   4.813
 2990SOL     OW 9868   5.630   1.938   4.275
 2990SOL    HW1 9869   5.717   1.977   4.244
 2990SOL    HW2 9870   5.567   2.012   4.300
 2991SOL     OW 9871   0.447   3.492   0.739
 2991SOL    HW1 9872   0.423   3.460   0.647
 2991SOL    HW2 9873   0.546   3.493   0.749
 2992SOL     OW 9874   0.258   3.654   5.306
 2992SOL    HW1 9875   0.252   3.751   5.329
 2992SOL    HW2 9876   0.251   3.599   5.390
 2993SOL     OW 9877   2.259   3.807   0.684
 2993SOL    HW1 9878   2.255   3.874   0.609
 2993SOL    HW2 9879   2.274   3.716   0.646
 2994SOL     OW 9880   3.769   5.392   6.029
 2994SOL    HW1 9881   3.713   5.472   6.051
 2994SOL    HW2 9882   3.864   5.420   6.017
 2995SOL     OW 9883   4.547   0.355   0.856
 2995SOL    HW1 9884   4.479   0.428   0.851
 2995SOL    HW2 9885   4.527   0.296   0.935
 2996SOL     OW 9886   6.476   0.636   4.172
 2996SOL    HW1 9887   6.455   0.726   4.210
 2996SOL    HW2 9888   6.394   0.578   4.177
 2997SOL     OW 9889   4.964   6.628   4.424
 2997SOL    HW1 9890   4.952   6.534   4.394
 2997SOL    HW2 9891   4.883   6.682   4.397
 2998SOL     OW 9892   2.911   1.284   1.755
 2998SOL    HW1 9893   2.963   1.366   1.780
 2998SOL    HW2 9894   2.825   1.283   1.806
 2999SOL     OW 9895   2.946   4.461   1.092
 2999SOL    HW1 9896   2.927   4.544   1.143
 2999SOL    HW2 9897   2.881   4.454   1.015
 3000SOL     OW 9898   2.792   3.957   5.418
 3000SOL    HW1 9899   2.706   3.997   5.386
 3000SOL    HW2 9900   2.792   3.858   5.400
 3001SOL     OW 9901   5.473   0.574   6.085
 3001SOL    HW1 9902   5.427   0.615   6.164
 3001SOL    HW2 9903   5.550   0.519   6.117
 3002SOL     OW 9904   1.728   1.949   1.771
 3002SOL    HW1 9905   1.783   1.943   1.688
 3002SOL    HW2 9906   1.778   2.003   1.840
 3003SOL     OW 9907   1.791   6.254   0.229
 3003SOL    HW1 9908   1.744   6.177   0.272
 3003SOL    HW2 9909   1.890   6.243   0.242
 3004SOL     OW 9910   2.685   6.413   3.925
 3004SOL    HW1 9911   2.731   6.328   3.898
 3004SOL    HW2 9912   2.710   6.486   3.861
 3005SOL     OW 9913   1.048   2.060   0.152
 3005SOL    HW1 9914   1.059   2.139   0.212
 3005SOL    HW2 9915   1.128   2.052   0.092
 3006SOL     OW 9916   5.378   1.896   5.800
 3006SOL    HW1 9917   5.289   1.928   5.834
 3006SOL    HW2 9918   5.450   1.952   5.839
 3007SOL     OW 9919   5.894   5.686   0.147
 3007SOL    HW1 9920   5.908   5.629   0.066
 3007SOL    HW2 9921   5.836   5.763   0.124
 3008SOL     OW 9922   4.446   3.581   5.605
 3008SOL    HW1 9923   4.543   3.601   5.603
 3008SOL    HW2 9924   4.426   3.506   5.541
 3009SOL     OW 9925   6.881   3.456   1.801
 3009SOL    HW1 9926   6.954   3.479   1.866
 3009SOL    HW2 9927   6.804   3.414   1.850
 3010SOL     OW 9928   4.365   5.716   1.068
 3010SOL    HW1 9929   4.444   5.769   1.039
 3010SOL    HW2 9930   4.379   5.684   1.162
 3011SOL     OW 9931   6.498   0.447   0.755
 3011SOL    HW1 9932   6.567   0.377   0.775
 3011SOL    HW2 9933   6.407   0.414   0.778
 3012SOL     OW 9934   2.252   2.205   5.144
 3012SOL    HW1 9935   2.287   2.274   5.081
 3012SOL    HW2 9936   2.327   2.174   5.203
 3013SOL     OW 9937   0.061   4.891   4.557
 3013SOL    HW1 9938   0.153   4.929   4.562
 3013SOL    HW2 9939   0.065   4.791   4.565
 3014SOL     OW 9940   5.556   0.175   6.213
 3014SOL    HW1 9941   5.501   0.092   6.213
 3014SOL    HW2 9942   5.503   0.251   6.250
 3015SOL     OW 9943   1.277   0.702   6.449
 3015SOL    HW1 9944   1.253   0.756   6.369
 3015SOL    HW2 9945   1.367   0.730   6.483
 3016SOL     OW 9946   2.291   6.287   4.412
 3016SOL    HW1 9947   2.357   6.349   4.368
 3016SOL    HW2 9948   2.339   6.222   4.471
 3017SOL     OW 9949   1.044   5.262   0.312
 3017SOL    HW1 9950   0.958   5.256   0.262
 3017SOL    HW2 9951   1.032   5.321   0.392
 3018SOL     OW 9952   3.565   0.794   1.297
 3018SOL    HW1 9953   3.520   0.808   1.209
 3018SOL    HW2 9954   3.567   0.881   1.347
 3019SOL     OW 9955   2.017   0.826   5.864
 3019SOL    HW1 9956   2.106   0.794   5.831
 3019SOL    HW2 9957   1.968   0.872   5.791
 3020SOL     OW 9958   6.152   4.404   6.768
 3020SOL    HW1 9959   6.101   4.412   6.683
 3020SOL    HW2 9960   6.098   4.440   6.844
 3021SOL     OW 9961   3.996   0.617   5.057
 3021SOL    HW1 9962   3.998   0.687   5.128
 3021SOL    HW2 9963   3.941   0.540   5.088
 3022SOL     OW 9964   4.116   5.901   3.169
 3022SOL    HW1 9965   4.100   5.832   3.240
 3022SOL    HW2 9966   4.126   5.856   3.081
 3023SOL     OW 9967   5.533   5.271   4.450
 3023SOL    HW1 9968   5.515   5.363   4.413
 3023SOL    HW2 9969   5.621   5.271   4.497
 3024SOL     OW 9970   0.558   0.841   0.051
 3024SOL    HW1 9971   0.605   0.857   6.983
 3024SOL    HW2 9972   0.464   0.812   0.032
 3025SOL     OW 9973   4.400   5.702   0.001
 3025SOL    HW1 9974   4.320   5.762   0.010
 3025SOL    HW2 9975   4.472   5.733   0.062
 3026SOL     OW 9976   0.004   0.804   1.980
 3026SOL    HW1 9977   0.040   0.890   2.017
 3026SOL    HW2 9978   0.031   0.795   1.884
 3027SOL     OW 9979   4.517   0.253   0.368
 3027SOL    HW1 9980   4.519   0.245   0.468
 3027SOL    HW2 9981   4.430   0.292   0.339
 3028SOL     OW 9982   3.269   3.067   5.488
 3028SOL    HW1 9983   3.306   3.054   5.581
 3028SOL    HW2 9984   3.329   3.023   5.422
 3029SOL     OW 9985   6.894   3.229   4.768
 3029SOL    HW1 9986   6.821   3.231   4.836
 3029SOL    HW2 9987   6.963   3.297   4.791
 3030SOL     OW 9988   2.238   2.627   6.297
 3030SOL    HW1 9989   2.280   2.687   6.365
 3030SOL    HW2 9990   2.150   2.664   6.269
 3031SOL     OW 9991   1.399   5.735   1.079
 3031SOL    HW1 9992   1.421   5.783   1.163
 3031SOL    HW2 9993   1.302   5.711   1.078
 3032SOL     OW 9994   2.504   0.619   3.014
 3032SOL    HW1 9995   2.595   0.624   2.973
 3032SOL    HW2 9996   2.434   0.635   2.943
 3033SOL     OW 9997   0.410   1.494   5.508
 3033SOL    HW1 9998   0.492   1.549   5.494
 3033SOL    HW2 9999   0.361   1.483   5.421
 3034SOL     OW10000   6.557   4.165   3.789
 3034SOL    HW110001   6.549   4.139   3.692
 3034SOL    HW210002   6.626   4.107   3.833
 3035SOL     OW10003   0.655   3.521   0.410
 3035SOL    HW110004   0.659   3.595   0.477
 3035SOL    HW210005   0.725   3.453   0.431
 3036SOL     OW10006   3.215   2.131   5.355
 3036SOL    HW110007   3.200   2.190   5.276
 3036SOL    HW210008   3.242   2.040   5.324
 3037SOL     OW10009   1.013   5.833   6.879
 3037SOL    HW110010   1.024   5.746   6.829
 3037SOL    HW210011   0.963   5.816   6.964
 3038SOL     OW10012   5.455   4.567   6.351
 3038SOL    HW110013   5.545   4.563   6.395
 3038SOL    HW210014   5.385   4.589   6.419
 3039SOL     OW10015   6.747   3.747   6.020
 3039SOL    HW110016   6.693   3.806   5.961
 3039SOL    HW210017   6.753   3.787   6.112
 3040SOL     OW10018   5.868   5.276   6.583
 3040SOL    HW110019   5.843   5.330   6.663
 3040SOL    HW210020   5.805   5.296   6.508
 3041SOL     OW10021   1.371   4.525   5.673
 3041SOL    HW110022   1.330   4.528   5.765
 3041SOL    HW210023   1.317   4.464   5.615
 3042SOL     OW10024   0.429   5.060   4.140
 3042SOL    HW110025   0.446   5.154   4.168
 3042SOL    HW210026   0.337   5.053   4.100
 3043SOL     OW10027   2.229   5.474   0.873
 3043SOL    HW110028   2.249   5.403   0.942
 3043SOL    HW210029   2.249   5.564   0.912
 3044SOL     OW10030   4.098   3.400   4.499
 3044SOL    HW110031   4.017   3.431   4.449
 3044SOL    HW210032   4.134   3.475   4.554
 3045SOL     OW10033   4.502   1.862   2.165
 3045SOL    HW110034   4.589   1.897   2.128
 3045SOL    HW210035   4.434   1.935   2.166
 3046SOL     OW10036   5.121   6.580   0.638
 3046SOL    HW110037   5.116   6.657   0.702
 3046SOL    HW210038   5.208   6.533   0.649
 3047SOL     OW10039   5.515   1.325   4.878
 3047SOL    HW110040   5.500   1.424   4.885
 3047SOL    HW210041   5.594   1.307   4.819
 3048SOL     OW10042   3.720   4.795   1.188
 3048SOL    HW110043   3.671   4.834   1.110
 3048SOL    HW210044   3.664   4.804   1.271
 3049SOL     OW10045   1.089   1.654   2.510
 3049SOL    HW110046   1.147   1.656   2.429
 3049SOL    HW210047   1.126   1.716   2.579
 3050SOL     OW10048   3.658   2.323   0.107
 3050SOL    HW110049   3.681   2.407   0.058
 3050SOL    HW210050   3.616   2.345   0.195
 3051SOL     OW10051   2.096   5.241   5.504
 3051SOL    HW110052   2.101   5.219   5.602
 3051SOL    HW210053   2.185   5.224   5.461
 3052SOL     OW10054   6.661   0.142   2.353
 3052SOL    HW110055   6.698   0.215   2.410
 3052SOL    HW210056   6.619   0.181   2.271
 3053SOL     OW10057   0.749   4.230   0.496
 3053SOL    HW110058   0.671   4.226   0.434
 3053SOL    HW210059   0.833   4.215   0.445
 3054SOL     OW10060   4.941   0.404   2.966
 3054SOL    HW110061   4.992   0.421   3.050
 3054SOL    HW210062   4.952   0.482   2.904
 3055SOL     OW10063   6.092   6.302   6.957
 3055SOL    HW110064   6.100   6.375   6.889
 3055SOL    HW210065   6.082   6.343   0.030
 3056SOL     OW10066   4.681   1.448   5.876
 3056SOL    HW110067   4.657   1.356   5.906
 3056SOL    HW210068   4.776   1.467   5.900
 3057SOL     OW10069   5.084   3.860   2.905
 3057SOL    HW110070   4.990   3.843   2.936
 3057SOL    HW210071   5.148   3.831   2.977
 3058SOL     OW10072   0.545   4.546   6.188
 3058SOL    HW110073   0.457   4.553   6.141
 3058SOL    HW210074   0.619   4.546   6.121
 3059SOL     OW10075   1.477   1.698   2.977
 3059SOL    HW110076   1.492   1.601   2.999
 3059SOL    HW210077   1.429   1.705   2.889
 3060SOL     OW10078   5.677   4.973   4.191
 3060SOL    HW110079   5.633   4.895   4.145
 3060SOL    HW210080   5.665   4.964   4.290
 3061SOL     OW10081   5.888   0.266   3.991
 3061SOL    HW110082   5.976   0.221   3.972
 3061SOL    HW210083   5.832   0.267   3.908
 3062SOL     OW10084   3.965   4.348   0.808
 3062SOL    HW110085   3.983   4.427   0.749
 3062SOL    HW210086   4.032   4.345   0.882
 3063SOL     OW10087   0.281   4.481   2.888
 3063SOL    HW110088   0.198   4.536   2.897
 3063SOL    HW210089   0.273   4.400   2.945
 3064SOL     OW10090   4.598   2.234   6.719
 3064SOL    HW110091   4.672   2.177   6.684
 3064SOL    HW210092   4.605   2.326   6.681
 3065SOL     OW10093   6.114   1.829   0.054
 3065SOL    HW110094   6.173   1.764   0.007
 3065SOL    HW210095   6.018   1.805   0.036
 3066SOL     OW10096   5.197   6.934   4.892
 3066SOL    HW110097   5.219   6.922   4.989
 3066SOL    HW210098   5.250   7.011   4.856
 3067SOL     OW10099   1.279   2.695   5.572
 3067SOL    HW110100   1.227   2.639   5.507
 3067SOL    HW210101   1.230   2.781   5.588
 3068SOL     OW10102   0.103   0.705   0.698
 3068SOL    HW110103   0.074   0.778   0.635
 3068SOL    HW210104   0.056   0.620   0.674
 3069SOL     OW10105   4.958   6.422   3.792
 3069SOL    HW110106   4.918   6.496   3.738
 3069SOL    HW210107   4.979   6.455   3.884
 3070SOL     OW10108   1.674   0.816   0.884
 3070SOL    HW110109   1.629   0.856   0.804
 3070SOL    HW210110   1.644   0.721   0.896
 3071SOL     OW10111   5.846   4.783   5.389
 3071SOL    HW110112   5.887   4.693   5.375
 3071SOL    HW210113   5.773   4.776   5.456
 3072SOL     OW10114   2.051   0.009   6.058
 3072SOL    HW110115   2.005   6.999   5.974
 3072SOL    HW210116   2.002   6.992   6.137
 3073SOL     OW10117   0.114   4.760   1.868
 3073SOL    HW110118   0.204   4.730   1.901
 3073SOL    HW210119   0.047   4.688   1.885
 3074SOL     OW10120   3.278   2.692   1.760
 3074SOL    HW110121   3.368   2.664   1.728
 3074SOL    HW210122   3.213   2.618   1.745
 3075SOL     OW10123   2.986   5.016   1.488
 3075SOL    HW110124   2.954   4.941   1.546
 3075SOL    HW210125   3.019   5.091   1.546
 3076SOL     OW10126   0.668   0.936   5.284
 3076SOL    HW110127   0.760   0.914   5.317
 3076SOL    HW210128   0.603   0.928   5.360
 3077SOL     OW10129   6.974   4.113   2.404
 3077SOL    HW110130   0.010   4.032   2.383
 3077SOL    HW210131   6.877   4.091   2.394
 3078SOL     OW10132   0.186   3.235   1.725
 3078SOL    HW110133   0.246   3.156   1.740
 3078SOL    HW210134   0.242   3.314   1.699
 3079SOL     OW10135   2.203   3.670   5.534
 3079SOL    HW110136   2.161   3.751   5.493
 3079SOL    HW210137   2.264   3.626   5.468
 3080SOL     OW10138   3.188   4.484   0.959
 3080SOL    HW110139   3.103   4.494   1.011
 3080SOL    HW210140   3.220   4.389   0.965
 3081SOL     OW10141   1.303   3.744   0.166
 3081SOL    HW110142   1.232   3.723   0.233
 3081SOL    HW210143   1.265   3.801   0.093
 3082SOL     OW10144   5.207   5.708   4.904
 3082SOL    HW110145   5.245   5.622   4.872
 3082SOL    HW210146   5.116   5.721   4.865
 3083SOL     OW10147   4.023   5.552   1.894
 3083SOL    HW110148   4.038   5.626   1.960
 3083SOL    HW210149   3.937   5.507   1.914
 3084SOL     OW10150   6.788   4.412   4.245
 3084SOL    HW110151   6.743   4.496   4.215
 3084SOL    HW210152   6.721   4.349   4.282
 3085SOL     OW10153   6.035   5.643   0.389
 3085SOL    HW110154   6.090   5.560   0.379
 3085SOL    HW210155   5.994   5.667   0.301
 3086SOL     OW10156   6.213   6.164   6.371
 3086SOL    HW110157   6.194   6.223   6.449
 3086SOL    HW210158   6.298   6.113   6.387
 3087SOL     OW10159   3.506   0.000   2.270
 3087SOL    HW110160   3.411   0.028   2.282
 3087SOL    HW210161   3.544   0.044   2.189
 3088SOL     OW10162   2.078   3.228   5.690
 3088SOL    HW110163   2.120   3.245   5.780
 3088SOL    HW210164   2.069   3.315   5.641
 3089SOL     OW10165   4.757   5.315   6.037
 3089SOL    HW110166   4.675   5.320   6.094
 3089SOL    HW210167   4.769   5.221   6.003
 3090SOL     OW10168   0.321   2.645   2.557
 3090SOL    HW110169   0.320   2.656   2.458
 3090SOL    HW210170   0.359   2.728   2.599
 3091SOL     OW10171   0.714   3.045   1.383
 3091SOL    HW110172   0.673   3.080   1.467
 3091SOL    HW210173   0.680   2.953   1.364
 3092SOL     OW10174   6.047   1.275   1.998
 3092SOL    HW110175   5.976   1.342   2.018
 3092SOL    HW210176   6.134   1.304   2.039
 3093SOL     OW10177   6.496   5.576   0.182
 3093SOL    HW110178   6.536   5.569   0.091
 3093SOL    HW210179   6.435   5.498   0.198
 3094SOL     OW10180   2.305   1.977   6.816
 3094SOL    HW110181   2.322   2.028   6.900
 3094SOL    HW210182   2.216   2.003   6.779
 3095SOL     OW10183   1.839   4.021   5.784
 3095SOL    HW110184   1.878   3.929   5.791
 3095SOL    HW210185   1.912   4.088   5.797
 3096SOL     OW10186   0.744   3.091   4.065
 3096SOL    HW110187   0.740   3.181   4.108
 3096SOL    HW210188   0.709   3.022   4.128
 3097SOL     OW10189   5.365   2.907   5.476
 3097SOL    HW110190   5.307   2.875   5.551
 3097SOL    HW210191   5.322   2.986   5.432
 3098SOL     OW10192   2.131   3.346   3.266
 3098SOL    HW110193   2.176   3.256   3.265
 3098SOL    HW210194   2.059   3.347   3.196
 3099SOL     OW10195   0.524   6.404   4.521
 3099SOL    HW110196   0.481   6.333   4.465
 3099SOL    HW210197   0.611   6.431   4.479
 3100SOL     OW10198   5.757   5.071   1.565
 3100SOL    HW110199   5.724   5.009   1.636
 3100SOL    HW210200   5.850   5.101   1.589
 3101SOL     OW10201   4.347   6.918   5.068
 3101SOL    HW110202   4.354   6.847   5.138
 3101SOL    HW210203   4.337   7.008   5.111
 3102SOL     OW10204   6.568   4.893   1.927
 3102SOL    HW110205   6.498   4.839   1.973
 3102SOL    HW210206   6.557   4.990   1.952
 3103SOL     OW10207   3.338   1.446   1.541
 3103SOL    HW110208   3.430   1.407   1.548
 3103SOL    HW210209   3.274   1.374   1.513
 3104SOL     OW10210   4.541   1.529   5.159
 3104SOL    HW110211   4.583   1.445   5.123
 3104SOL    HW210212   4.550   1.602   5.091
 3105SOL     OW10213   5.900   3.715   6.933
 3105SOL    HW110214   5.870   3.676   0.001
 3105SOL    HW210215   5.821   3.729   6.873
 3106SOL     OW10216   5.425   1.243   5.550
 3106SOL    HW110217   5.391   1.210   5.638
 3106SOL    HW210218   5.518   1.278   5.561
 3107SOL     OW10219   3.298   1.903   5.269
 3107SOL    HW110220   3.367   1.922   5.200
 3107SOL    HW210221   3.307   1.809   5.300
 3108SOL     OW10222   2.221   4.228   3.104
 3108SOL    HW110223   2.236   4.187   3.193
 3108SOL    HW210224   2.303   4.277   3.075
 3109SOL     OW10225   6.801   6.431   4.552
 3109SOL    HW110226   6.859   6.416   4.632
 3109SOL    HW210227   6.802   6.350   4.495
 3110SOL     OW10228   0.805   5.194   3.145
 3110SOL    HW110229   0.774   5.114   3.094
 3110SOL    HW210230   0.904   5.205   3.134
 3111SOL     OW10231   5.734   4.495   3.915
 3111SOL    HW110232   5.770   4.402   3.906
 3111SOL    HW210233   5.746   4.543   3.829
 3112SOL     OW10234   3.462   1.181   6.120
 3112SOL    HW110235   3.533   1.236   6.076
 3112SOL    HW210236   3.461   1.199   6.218
 3113SOL     OW10237   1.900   6.542   3.052
 3113SOL    HW110238   1.827   6.588   3.001
 3113SOL    HW210239   1.893   6.567   3.149
 3114SOL     OW10240   4.912   1.535   5.973
 3114SOL    HW110241   4.937   1.564   5.881
 3114SOL    HW210242   4.942   1.603   6.040
 3115SOL     OW10243   4.758   5.476   5.344
 3115SOL    HW110244   4.725   5.387   5.376
 3115SOL    HW210245   4.795   5.466   5.251
 3116SOL     OW10246   0.881   0.655   0.213
 3116SOL    HW110247   0.826   0.725   0.259
 3116SOL    HW210248   0.823   0.603   0.150
 3117SOL     OW10249   4.767   0.657   6.319
 3117SOL    HW110250   4.691   0.689   6.375
 3117SOL    HW210251   4.819   0.736   6.285
 3118SOL     OW10252   1.030   1.642   3.453
 3118SOL    HW110253   0.972   1.588   3.391
 3118SOL    HW210254   1.008   1.619   3.547
 3119SOL     OW10255   4.731   5.769   5.063
 3119SOL    HW110256   4.816   5.739   5.020
 3119SOL    HW210257   4.715   5.715   5.145
 3120SOL     OW10258   2.240   5.913   5.916
 3120SOL    HW110259   2.303   5.965   5.973
 3120SOL    HW210260   2.219   5.826   5.959
 3121SOL     OW10261   3.547   1.928   4.153
 3121SOL    HW110262   3.608   2.006   4.135
 3121SOL    HW210263   3.453   1.953   4.127
 3122SOL     OW10264   5.181   4.923   4.814
 3122SOL    HW110265   5.263   4.925   4.871
 3122SOL    HW210266   5.206   4.901   4.720
 3123SOL     OW10267   1.785   1.176   3.422
 3123SOL    HW110268   1.732   1.116   3.483
 3123SOL    HW210269   1.753   1.270   3.432
 3124SOL     OW10270   4.943   0.240   4.484
 3124SOL    HW110271   4.905   0.308   4.421
 3124SOL    HW210272   5.031   0.208   4.449
 3125SOL     OW10273   1.575   1.182   4.903
 3125SOL    HW110274   1.495   1.127   4.879
 3125SOL    HW210275   1.632   1.195   4.822
 3126SOL     OW10276   5.477   4.989   5.552
 3126SOL    HW110277   5.386   4.989   5.511
 3126SOL    HW210278   5.545   5.010   5.481
 3127SOL     OW10279   0.219   0.971   5.361
 3127SOL    HW110280   0.281   0.893   5.350
 3127SOL    HW210281   0.166   0.983   5.277
 3128SOL     OW10282   3.762   0.543   0.714
 3128SOL    HW110283   3.764   0.445   0.729
 3128SOL    HW210284   3.799   0.590   0.794
 3129SOL     OW10285   4.444   3.834   0.172
 3129SOL    HW110286   4.374   3.791   0.228
 3129SOL    HW210287   4.411   3.921   0.137
 3130SOL     OW10288   6.773   5.310   2.031
 3130SOL    HW110289   6.715   5.242   1.985
 3130SOL    HW210290   6.847   5.337   1.970
 3131SOL     OW10291   6.126   4.560   2.769
 3131SOL    HW110292   6.034   4.596   2.762
 3131SOL    HW210293   6.186   4.628   2.811
 3132SOL     OW10294   4.437   4.423   0.194
 3132SOL    HW110295   4.489   4.442   0.110
 3132SOL    HW210296   4.482   4.351   0.246
 3133SOL     OW10297   4.285   0.174   4.292
 3133SOL    HW110298   4.375   0.154   4.253
 3133SOL    HW210299   4.295   0.188   4.391
 3134SOL     OW10300   5.281   5.065   2.566
 3134SOL    HW110301   5.210   5.135   2.554
 3134SOL    HW210302   5.277   5.001   2.490
 3135SOL     OW10303   4.535   5.432   6.478
 3135SOL    HW110304   4.575   5.506   6.533
 3135SOL    HW210305   4.512   5.467   6.387
 3136SOL     OW10306   6.480   1.336   3.264
 3136SOL    HW110307   6.563   1.316   3.316
 3136SOL    HW210308   6.466   1.267   3.194
 3137SOL     OW10309   6.127   6.878   6.424
 3137SOL    HW110310   6.211   6.933   6.423
 3137SOL    HW210311   6.148   6.784   6.395
 3138SOL     OW10312   6.249   6.479   4.530
 3138SOL    HW110313   6.160   6.512   4.499
 3138SOL    HW210314   6.238   6.432   4.618
 3139SOL     OW10315   2.288   5.266   1.391
 3139SOL    HW110316   2.262   5.266   1.487
 3139SOL    HW210317   2.357   5.195   1.375
 3140SOL     OW10318   6.873   6.439   6.680
 3140SOL    HW110319   6.887   6.363   6.744
 3140SOL    HW210320   6.861   6.524   6.732
 3141SOL     OW10321   6.635   1.701   6.637
 3141SOL    HW110322   6.588   1.670   6.554
 3141SOL    HW210323   6.673   1.792   6.621
 3142SOL     OW10324   4.094   0.632   4.193
 3142SOL    HW110325   4.154   0.552   4.190
 3142SOL    HW210326   4.150   0.715   4.200
 3143SOL     OW10327   6.306   1.481   0.620
 3143SOL    HW110328   6.260   1.506   0.535
 3143SOL    HW210329   6.319   1.563   0.675
 3144SOL     OW10330   3.963   3.752   0.170
 3144SOL    HW110331   3.866   3.771   0.156
 3144SOL    HW210332   4.017   3.805   0.105
 3145SOL     OW10333   0.070   6.474   0.540
 3145SOL    HW110334   0.118   6.471   0.628
 3145SOL    HW210335   0.007   6.552   0.539
 3146SOL     OW10336   0.268   0.963   4.994
 3146SOL    HW110337   0.182   0.986   5.039
 3146SOL    HW210338   0.250   0.902   4.917
 3147SOL     OW10339   3.406   5.510   0.885
 3147SOL    HW110340   3.312   5.520   0.852
 3147SOL    HW210341   3.423   5.578   0.957
 3148SOL     OW10342   0.062   5.468   2.133
 3148SOL    HW110343   6.996   5.516   2.159
 3148SOL    HW210344   0.080   5.396   2.200
 3149SOL     OW10345   2.840   1.892   6.881
 3149SOL    HW110346   2.751   1.916   6.921
 3149SOL    HW210347   2.833   1.803   6.837
 3150SOL     OW10348   6.398   5.775   5.437
 3150SOL    HW110349   6.356   5.727   5.514
 3150SOL    HW210350   6.408   5.713   5.360
 3151SOL     OW10351   0.137   0.627   5.603
 3151SOL    HW110352   0.083   0.644   5.686
 3151SOL    HW210353   0.216   0.688   5.602
 3152SOL     OW10354   1.409   3.291   5.863
 3152SOL    HW110355   1.320   3.312   5.823
 3152SOL    HW210356   1.398   3.229   5.940
 3153SOL     OW10357   6.251   4.989   1.061
 3153SOL    HW110358   6.274   5.039   0.978
 3153SOL    HW210359   6.300   4.902   1.062
 3154SOL     OW10360   4.895   1.132   0.227
 3154SOL    HW110361   4.921   1.182   0.144
 3154SOL    HW210362   4.811   1.171   0.265
 3155SOL     OW10363   0.904   4.518   0.316
 3155SOL    HW110364   0.892   4.616   0.301
 3155SOL    HW210365   0.821   4.481   0.358
 3156SOL     OW10366   3.681   4.230   1.751
 3156SOL    HW110367   3.729   4.216   1.665
 3156SOL    HW210368   3.738   4.197   1.827
 3157SOL     OW10369   0.846   1.084   5.730
 3157SOL    HW110370   0.805   1.168   5.695
 3157SOL    HW210371   0.804   1.005   5.684
 3158SOL     OW10372   1.602   1.054   6.208
 3158SOL    HW110373   1.613   1.065   6.109
 3158SOL    HW210374   1.692   1.043   6.251
 3159SOL     OW10375   6.021   1.008   6.986
 3159SOL    HW110376   5.980   1.096   7.008
 3159SOL    HW210377   6.026   0.952   0.050
 3160SOL     OW10378   1.716   0.359   5.983
 3160SOL    HW110379   1.803   0.408   5.981
 3160SOL    HW210380   1.647   0.413   6.031
 3161SOL     OW10381   2.149   2.363   2.130
 3161SOL    HW110382   2.208   2.429   2.083
 3161SOL    HW210383   2.072   2.412   2.173
 3162SOL     OW10384   1.875   5.403   1.184
 3162SOL    HW110385   1.793   5.458   1.171
 3162SOL    HW210386   1.944   5.456   1.233
 3163SOL     OW10387   4.202   4.333   0.144
 3163SOL    HW110388   4.283   4.384   0.172
 3163SOL    HW210389   4.123   4.365   0.196
 3164SOL     OW10390   2.465   6.598   3.425
 3164SOL    HW110391   2.440   6.582   3.329
 3164SOL    HW210392   2.456   6.695   3.446
 3165SOL     OW10393   0.445   6.744   6.331
 3165SOL    HW110394   0.369   6.808   6.340
 3165SOL    HW210395   0.477   6.716   6.421
 3166SOL     OW10396   4.956   0.806   4.803
 3166SOL    HW110397   4.883   0.854   4.851
 3166SOL    HW210398   4.932   0.710   4.793
 3167SOL     OW10399   5.844   2.911   0.497
 3167SOL    HW110400   5.755   2.947   0.525
 3167SOL    HW210401   5.917   2.961   0.545
 3168SOL     OW10402   4.854   2.117   0.442
 3168SOL    HW110403   4.815   2.158   0.525
 3168SOL    HW210404   4.828   2.021   0.437
 3169SOL     OW10405   2.233   4.722   1.723
 3169SOL    HW110406   2.211   4.793   1.656
 3169SOL    HW210407   2.149   4.677   1.754
 3170SOL     OW10408   2.149   3.640   3.231
 3170SOL    HW110409   2.170   3.544   3.245
 3170SOL    HW210410   2.136   3.685   3.320
 3171SOL     OW10411   5.243   2.612   3.646
 3171SOL    HW110412   5.257   2.558   3.563
 3171SOL    HW210413   5.288   2.701   3.636
 3172SOL     OW10414   6.267   3.978   1.885
 3172SOL    HW110415   6.323   3.990   1.967
 3172SOL    HW210416   6.268   3.882   1.858
 3173SOL     OW10417   4.290   3.079   0.666
 3173SOL    HW110418   4.374   3.037   0.700
 3173SOL    HW210419   4.294   3.178   0.681
 3174SOL     OW10420   3.141   3.632   6.568
 3174SOL    HW110421   3.176   3.713   6.520
 3174SOL    HW210422   3.053   3.606   6.529
 3175SOL     OW10423   5.692   0.879   4.695
 3175SOL    HW110424   5.691   0.825   4.780
 3175SOL    HW210425   5.633   0.958   4.705
 3176SOL     OW10426   0.395   4.693   4.562
 3176SOL    HW110427   0.359   4.728   4.476
 3176SOL    HW210428   0.491   4.719   4.571
 3177SOL     OW10429   5.092   3.878   3.652
 3177SOL    HW110430   5.051   3.958   3.696
 3177SOL    HW210431   5.051   3.865   3.562
 3178SOL     OW10432   6.637   1.112   1.518
 3178SOL    HW110433   6.583   1.177   1.572
 3178SOL    HW210434   6.672   1.041   1.579
 3179SOL     OW10435   1.294   1.838   2.035
 3179SOL    HW110436   1.198   1.865   2.032
 3179SOL    HW210437   1.303   1.741   2.013
 3180SOL     OW10438   6.843   6.214   0.294
 3180SOL    HW110439   6.819   6.117   0.289
 3180SOL    HW210440   6.880   6.235   0.384
 3181SOL     OW10441   1.749   6.926   4.706
 3181SOL    HW110442   1.794   6.956   4.790
 3181SOL    HW210443   1.723   6.830   4.715
 3182SOL     OW10444   1.963   1.215   0.883
 3182SOL    HW110445   1.964   1.164   0.969
 3182SOL    HW210446   2.007   1.160   0.811
 3183SOL     OW10447   4.098   3.874   1.110
 3183SOL    HW110448   4.055   3.842   1.195
 3183SOL    HW210449   4.182   3.824   1.094
 3184SOL     OW10450   0.403   2.362   4.785
 3184SOL    HW110451   0.498   2.381   4.763
 3184SOL    HW210452   0.345   2.433   4.744
 3185SOL     OW10453   0.531   5.601   6.340
 3185SOL    HW110454   0.532   5.620   6.438
 3185SOL    HW210455   0.454   5.540   6.319
 3186SOL     OW10456   0.476   1.722   6.567
 3186SOL    HW110457   0.522   1.688   6.485
 3186SOL    HW210458   0.381   1.744   6.544
 3187SOL     OW10459   4.681   5.802   2.328
 3187SOL    HW110460   4.634   5.726   2.283
 3187SOL    HW210461   4.690   5.783   2.426
 3188SOL     OW10462   2.027   5.240   6.396
 3188SOL    HW110463   1.982   5.185   6.327
 3188SOL    HW210464   1.994   5.334   6.391
 3189SOL     OW10465   3.621   1.853   5.216
 3189SOL    HW110466   3.569   1.832   5.299
 3189SOL    HW210467   3.718   1.857   5.238
 3190SOL     OW10468   5.812   6.408   4.416
 3190SOL    HW110469   5.794   6.310   4.405
 3190SOL    HW210470   5.770   6.440   4.501
 3191SOL     OW10471   3.596   5.660   1.416
 3191SOL    HW110472   3.579   5.610   1.501
 3191SOL    HW210473   3.648   5.743   1.436
 3192SOL     OW10474   5.735   2.002   2.688
 3192SOL    HW110475   5.688   1.986   2.775
 3192SOL    HW210476   5.759   1.915   2.646
 3193SOL     OW10477   3.503   0.157   4.940
 3193SOL    HW110478   3.572   0.228   4.927
 3193SOL    HW210479   3.535   0.091   5.008
 3194SOL     OW10480   1.629   0.443   6.579
 3194SOL    HW110481   1.716   0.481   6.548
 3194SOL    HW210482   1.583   0.509   6.638
 3195SOL     OW10483   0.191   1.534   1.286
 3195SOL    HW110484   0.256   1.496   1.352
 3195SOL    HW210485   0.237   1.605   1.232
 3196SOL     OW10486   5.819   0.520   3.712
 3196SOL    HW110487   5.796   0.423   3.726
 3196SOL    HW210488   5.748   0.577   3.753
 3197SOL     OW10489   1.699   0.962   6.847
 3197SOL    HW110490   1.648   1.011   6.777
 3197SOL    HW210491   1.777   0.915   6.805
 3198SOL     OW10492   5.457   2.927   3.373
 3198SOL    HW110493   5.435   2.927   3.471
 3198SOL    HW210494   5.544   2.973   3.359
 3199SOL     OW10495   5.670   4.073   2.979
 3199SOL    HW110496   5.572   4.093   2.983
 3199SOL    HW210497   5.716   4.141   2.922
 3200SOL     OW10498   5.414   3.537   3.525
 3200SOL    HW110499   5.317   3.518   3.511
 3200SOL    HW210500   5.465   3.451   3.531
 3201SOL     OW10501   5.845   4.592   2.701
 3201SOL    HW110502   5.823   4.650   2.623
 3201SOL    HW210503   5.836   4.496   2.675
 3202SOL     OW10504   1.645   4.068   6.847
 3202SOL    HW110505   1.625   4.092   6.752
 3202SOL    HW210506   1.671   3.972   6.852
 3203SOL     OW10507   3.526   6.687   1.506
 3203SOL    HW110508   3.468   6.765   1.528
 3203SOL    HW210509   3.478   6.602   1.528
 3204SOL     OW10510   3.434   1.312   3.087
 3204SOL    HW110511   3.474   1.257   3.160
 3204SOL    HW210512   3.508   1.354   3.033
 3205SOL     OW10513   4.797   3.504   5.800
 3205SOL    HW110514   4.793   3.578   5.732
 3205SOL    HW210515   4.887   3.503   5.843
 3206SOL     OW10516   3.152   3.399   1.169
 3206SOL    HW110517   3.100   3.472   1.214
 3206SOL    HW210518   3.179   3.331   1.236
 3207SOL     OW10519   1.620   5.179   5.509
 3207SOL    HW110520   1.533   5.183   5.462
 3207SOL    HW210521   1.610   5.128   5.594
 3208SOL     OW10522   6.047   5.351   6.144
 3208SOL    HW110523   6.008   5.380   6.056
 3208SOL    HW210524   6.146   5.362   6.142
 3209SOL     OW10525   5.212   5.769   6.695
 3209SOL    HW110526   5.250   5.679   6.717
 3209SOL    HW210527   5.237   5.794   6.602
 3210SOL     OW10528   5.958   5.929   2.223
 3210SOL    HW110529   5.937   5.893   2.132
 3210SOL    HW210530   5.883   5.987   2.254
 3211SOL     OW10531   1.177   5.232   6.100
 3211SOL    HW110532   1.230   5.227   6.016
 3211SOL    HW210533   1.172   5.142   6.143
 3212SOL     OW10534   1.902   0.380   3.030
 3212SOL    HW110535   1.993   0.359   3.068
 3212SOL    HW210536   1.847   0.296   3.026
 3213SOL     OW10537   1.383   0.124   6.381
 3213SOL    HW110538   1.461   0.063   6.370
 3213SOL    HW210539   1.329   0.096   6.460
 3214SOL     OW10540   3.342   1.263   2.737
 3214SOL    HW110541   3.408   1.338   2.744
 3214SOL    HW210542   3.250   1.301   2.729
 3215SOL     OW10543   1.934   3.199   1.023
 3215SOL    HW110544   1.965   3.154   0.939
 3215SOL    HW210545   1.834   3.201   1.024
 3216SOL     OW10546   5.954   4.344   0.712
 3216SOL    HW110547   5.941   4.246   0.704
 3216SOL    HW210548   6.038   4.363   0.763
 3217SOL     OW10549   0.240   6.082   2.964
 3217SOL    HW110550   0.203   6.163   2.920
 3217SOL    HW210551   0.168   6.036   3.016
 3218SOL     OW10552   5.617   0.986   2.875
 3218SOL    HW110553   5.661   0.978   2.785
 3218SOL    HW210554   5.688   0.992   2.945
 3219SOL     OW10555   5.993   1.085   5.641
 3219SOL    HW110556   6.075   1.125   5.682
 3219SOL    HW210557   5.912   1.117   5.689
 3220SOL     OW10558   6.808   4.480   6.386
 3220SOL    HW110559   6.712   4.504   6.399
 3220SOL    HW210560   6.816   4.410   6.315
 3221SOL     OW10561   3.440   1.073   1.079
 3221SOL    HW110562   3.366   1.080   1.012
 3221SOL    HW210563   3.405   1.035   1.164
 3222SOL     OW10564   3.836   1.960   3.090
 3222SOL    HW110565   3.913   1.977   3.029
 3222SOL    HW210566   3.864   1.976   3.185
 3223SOL     OW10567   1.385   6.017   0.870
 3223SOL    HW110568   1.415   6.011   0.966
 3223SOL    HW210569   1.447   6.078   0.820
 3224SOL     OW10570   3.485   1.833   3.769
 3224SOL    HW110571   3.387   1.837   3.787
 3224SOL    HW210572   3.523   1.925   3.777
 3225SOL     OW10573   3.842   0.766   4.153
 3225SOL    HW110574   3.861   0.859   4.121
 3225SOL    HW210575   3.927   0.720   4.176
 3226SOL     OW10576   6.824   0.403   0.643
 3226SOL    HW110577   6.756   0.385   0.572
 3226SOL    HW210578   6.915   0.407   0.602
 3227SOL     OW10579   4.947   4.511   5.075
 3227SOL    HW110580   4.938   4.584   5.007
 3227SOL    HW210581   5.028   4.528   5.132
 3228SOL     OW10582   2.645   3.959   7.005
 3228SOL    HW110583   2.734   3.997   6.983
 3228SOL    HW210584   2.655   3.886   0.055
 3229SOL     OW10585   1.407   1.493   0.754
 3229SOL    HW110586   1.505   1.485   0.738
 3229SOL    HW210587   1.357   1.473   0.670
 3230SOL     OW10588   2.828   6.112   5.653
 3230SOL    HW110589   2.856   6.016   5.660
 3230SOL    HW210590   2.889   6.160   5.590
 3231SOL     OW10591   2.272   2.366   2.438
 3231SOL    HW110592   2.329   2.414   2.372
 3231SOL    HW210593   2.319   2.283   2.468
 3232SOL     OW10594   3.798   5.178   3.928
 3232SOL    HW110595   3.703   5.199   3.904
 3232SOL    HW210596   3.843   5.261   3.960
 3233SOL     OW10597   0.313   1.773   0.497
 3233SOL    HW110598   0.305   1.872   0.509
 3233SOL    HW210599   0.298   1.750   0.401
 3234SOL     OW10600   2.356   2.924   0.795
 3234SOL    HW110601   2.417   2.862   0.747
 3234SOL    HW210602   2.406   2.967   0.870
 3235SOL     OW10603   0.579   0.018   2.768
 3235SOL    HW110604   0.605   0.114   2.772
 3235SOL    HW210605   0.483   0.011   2.740
 3236SOL     OW10606   3.332   2.352   0.206
 3236SOL    HW110607   3.339   2.376   0.303
 3236SOL    HW210608   3.374   2.263   0.191
 3237SOL     OW10609   5.668   1.698   5.144
 3237SOL    HW110610   5.667   1.789   5.184
 3237SOL    HW210611   5.718   1.700   5.057
 3238SOL     OW10612   6.584   5.012   1.687
 3238SOL    HW110613   6.632   5.100   1.684
 3238SOL    HW210614   6.587   4.976   1.780
 3239SOL     OW10615   6.800   0.008   4.531
 3239SOL    HW110616   6.745   6.993   4.454
 3239SOL    HW210617   6.754   7.003   4.617
 3240SOL     OW10618   0.605   0.316   0.192
 3240SOL    HW110619   0.608   0.308   0.093
 3240SOL    HW210620   0.557   0.399   0.218
 3241SOL     OW10621   6.215   1.853   5.727
 3241SOL    HW110622   6.180   1.943   5.749
 3241SOL    HW210623   6.149   1.783   5.755
 3242SOL     OW10624   5.656   3.761   4.901
 3242SOL    HW110625   5.667   3.849   4.856
 3242SOL    HW210626   5.633   3.691   4.833
 3243SOL     OW10627   5.939   5.000   4.334
 3243SOL    HW110628   5.996   5.026   4.412
 3243SOL    HW210629   5.899   5.082   4.293
 3244SOL     OW10630   5.446   0.162   6.867
 3244SOL    HW110631   5.523   0.150   6.804
 3244SOL    HW210632   5.383   0.230   6.829
 3245SOL     OW10633   3.924   1.040   5.643
 3245SOL    HW110634   3.908   1.030   5.545
 3245SOL    HW210635   3.872   0.970   5.692
 3246SOL     OW10636   6.419   0.044   2.792
 3246SOL    HW110637   6.334   0.095   2.784
 3246SOL    HW210638   6.412   6.997   2.867
 3247SOL     OW10639   0.611   4.324   3.506
 3247SOL    HW110640   0.590   4.278   3.420
 3247SOL    HW210641   0.685   4.389   3.491
 3248SOL     OW10642   5.168   2.124   3.592
 3248SOL    HW110643   5.192   2.035   3.555
 3248SOL    HW210644   5.249   2.170   3.628
 3249SOL     OW10645   3.093   3.992   4.056
 3249SOL    HW110646   3.176   4.038   4.088
 3249SOL    HW210647   3.028   4.061   4.023
 3250SOL     OW10648   4.704   5.295   2.495
 3250SOL    HW110649   4.747   5.299   2.405
 3250SOL    HW210650   4.647   5.213   2.501
 3251SOL     OW10651   2.326   1.459   2.757
 3251SOL    HW110652   2.409   1.480   2.705
 3251SOL    HW210653   2.291   1.370   2.731
 3252SOL     OW10654   2.113   1.180   3.081
 3252SOL    HW110655   2.184   1.134   3.026
 3252SOL    HW210656   2.047   1.223   3.021
 3253SOL     OW10657   6.770   3.868   0.420
 3253SOL    HW110658   6.860   3.875   0.463
 3253SOL    HW210659   6.779   3.890   0.322
 3254SOL     OW10660   6.264   0.318   0.760
 3254SOL    HW110661   6.290   0.277   0.672
 3254SOL    HW210662   6.283   0.252   0.833
 3255SOL     OW10663   4.967   5.593   1.219
 3255SOL    HW110664   4.944   5.624   1.127
 3255SOL    HW210665   5.048   5.642   1.252
 3256SOL     OW10666   4.691   2.052   1.358
 3256SOL    HW110667   4.659   2.074   1.450
 3256SOL    HW210668   4.788   2.073   1.351
 3257SOL     OW10669   2.715   2.301   3.256
 3257SOL    HW110670   2.642   2.316   3.189
 3257SOL    HW210671   2.799   2.345   3.224
 3258SOL     OW10672   2.677   5.514   3.530
 3258SOL    HW110673   2.776   5.500   3.535
 3258SOL    HW210674   2.659   5.602   3.486
 3259SOL     OW10675   4.886   4.684   3.821
 3259SOL    HW110676   4.885   4.611   3.890
 3259SOL    HW210677   4.797   4.688   3.776
 3260SOL     OW10678   0.986   4.279   2.782
 3260SOL    HW110679   0.995   4.361   2.839
 3260SOL    HW210680   1.048   4.208   2.815
 3261SOL     OW10681   5.583   6.760   3.874
 3261SOL    HW110682   5.555   6.740   3.968
 3261SOL    HW210683   5.681   6.778   3.872
 3262SOL     OW10684   2.932   2.093   2.775
 3262SOL    HW110685   2.957   2.190   2.770
 3262SOL    HW210686   2.905   2.071   2.869
 3263SOL     OW10687   0.009   1.411   2.620
 3263SOL    HW110688   0.089   1.373   2.573
 3263SOL    HW210689   7.008   1.502   2.584
 3264SOL     OW10690   1.776   4.924   0.042
 3264SOL    HW110691   1.743   4.860   6.991
 3264SOL    HW210692   1.839   4.875   0.103
 3265SOL     OW10693   6.087   5.258   6.415
 3265SOL    HW110694   6.044   5.260   6.325
 3265SOL    HW210695   6.018   5.270   6.485
 3266SOL     OW10696   3.518   5.583   6.818
 3266SOL    HW110697   3.494   5.672   6.856
 3266SOL    HW210698   3.595   5.544   6.870
 3267SOL     OW10699   4.032   6.783   1.041
 3267SOL    HW110700   3.954   6.834   1.004
 3267SOL    HW210701   4.045   6.807   1.137
 3268SOL     OW10702   6.215   5.521   1.566
 3268SOL    HW110703   6.239   5.424   1.564
 3268SOL    HW210704   6.181   5.545   1.657
 3269SOL     OW10705   1.360   4.824   1.955
 3269SOL    HW110706   1.325   4.732   1.968
 3269SOL    HW210707   1.295   4.877   1.898
 3270SOL     OW10708   0.582   3.078   5.604
 3270SOL    HW110709   0.589   3.001   5.667
 3270SOL    HW210710   0.663   3.136   5.612
 3271SOL     OW10711   0.344   2.419   2.690
 3271SOL    HW110712   0.352   2.504   2.639
 3271SOL    HW210713   0.248   2.394   2.700
 3272SOL     OW10714   4.483   6.086   0.585
 3272SOL    HW110715   4.524   6.171   0.620
 3272SOL    HW210716   4.386   6.100   0.569
 3273SOL     OW10717   4.989   2.617   6.040
 3273SOL    HW110718   4.964   2.681   6.112
 3273SOL    HW210719   5.002   2.526   6.080
 3274SOL     OW10720   5.826   0.336   0.260
 3274SOL    HW110721   5.884   0.301   0.334
 3274SOL    HW210722   5.753   0.392   0.300
 3275SOL     OW10723   4.376   0.393   1.580
 3275SOL    HW110724   4.298   0.333   1.601
 3275SOL    HW210725   4.414   0.429   1.665
 3276SOL     OW10726   5.180   0.489   0.398
 3276SOL    HW110727   5.264   0.542   0.412
 3276SOL    HW210728   5.190   0.399   0.442
 3277SOL     OW10729   3.840   2.081   2.129
 3277SOL    HW110730   3.912   2.149   2.142
 3277SOL    HW210731   3.763   2.122   2.080
 3278SOL     OW10732   6.764   0.371   0.217
 3278SOL    HW110733   6.702   0.372   0.138
 3278SOL    HW210734   6.781   0.465   0.248
 3279SOL     OW10735   3.288   0.239   1.928
 3279SOL    HW110736   3.378   0.260   1.891
 3279SOL    HW210737   3.273   0.140   1.924
 3280SOL     OW10738   5.849   4.245   3.904
 3280SOL    HW110739   5.938   4.254   3.948
 3280SOL    HW210740   5.791   4.185   3.959
 3281SOL     OW10741   6.225   3.383   1.035
 3281SOL    HW110742   6.133   3.422   1.033
 3281SOL    HW210743   6.235   3.328   1.119
 3282SOL     OW10744   0.721   4.851   3.834
 3282SOL    HW110745   0.685   4.892   3.751
 3282SOL    HW210746   0.796   4.907   3.870
 3283SOL     OW10747   3.771   1.786   0.457
 3283SOL    HW110748   3.802   1.839   0.378
 3283SOL    HW210749   3.737   1.697   0.426
 3284SOL     OW10750   1.919   5.971   4.198
 3284SOL    HW110751   2.001   6.024   4.218
 3284SOL    HW210752   1.839   6.031   4.201
 3285SOL     OW10753   3.905   1.710   4.996
 3285SOL    HW110754   3.903   1.808   5.017
 3285SOL    HW210755   3.851   1.661   5.064
 3286SOL     OW10756   2.922   1.730   1.209
 3286SOL    HW110757   2.830   1.699   1.235
 3286SOL    HW210758   2.959   1.788   1.281
 3287SOL     OW10759   2.447   0.299   0.028
 3287SOL    HW110760   2.353   0.284   0.061
 3287SOL    HW210761   2.444   0.325   6.950
 3288SOL     OW10762   1.969   6.267   1.832
 3288SOL    HW110763   1.914   6.335   1.782
 3288SOL    HW210764   1.912   6.224   1.902
 3289SOL     OW10765   4.214   1.353   6.887
 3289SOL    HW110766   4.305   1.373   6.849
 3289SOL    HW210767   4.180   1.435   6.934
 3290SOL     OW10768   0.431   5.648   0.470
 3290SOL    HW110769   0.370   5.626   0.393
 3290SOL    HW210770   0.405   5.737   0.508
 3291SOL     OW10771   4.722   6.654   5.325
 3291SOL    HW110772   4.663   6.735   5.333
 3291SOL    HW210773   4.672   6.582   5.277
 3292SOL     OW10774   6.539   2.187   1.227
 3292SOL    HW110775   6.502   2.270   1.185
 3292SOL    HW210776   6.639   2.194   1.231
 3293SOL     OW10777   5.795   5.775   3.249
 3293SOL    HW110778   5.722   5.819   3.197
 3293SOL    HW210779   5.878   5.831   3.244
 3294SOL     OW10780   5.244   2.562   4.886
 3294SOL    HW110781   5.219   2.653   4.920
 3294SOL    HW210782   5.162   2.513   4.857
 3295SOL     OW10783   0.977   2.987   2.342
 3295SOL    HW110784   0.883   2.992   2.377
 3295SOL    HW210785   1.041   2.991   2.419
 3296SOL     OW10786   1.892   0.524   5.619
 3296SOL    HW110787   1.817   0.462   5.642
 3296SOL    HW210788   1.967   0.511   5.684
 3297SOL     OW10789   3.002   1.249   4.829
 3297SOL    HW110790   3.035   1.343   4.837
 3297SOL    HW210791   2.910   1.242   4.867
 3298SOL     OW10792   5.320   4.049   5.829
 3298SOL    HW110793   5.335   4.005   5.740
 3298SOL    HW210794   5.363   3.995   5.901
 3299SOL     OW10795   2.621   4.644   4.280
 3299SOL    HW110796   2.695   4.688   4.331
 3299SOL    HW210797   2.633   4.662   4.183
 3300SOL     OW10798   1.803   0.159   4.210
 3300SOL    HW110799   1.868   0.230   4.183
 3300SOL    HW210800   1.852   0.077   4.236
 3301SOL     OW10801   1.133   1.195   3.148
 3301SOL    HW110802   1.208   1.247   3.106
 3301SOL    HW210803   1.046   1.223   3.108
 3302SOL     OW10804   2.505   5.177   6.104
 3302SOL    HW110805   2.470   5.083   6.109
 3302SOL    HW210806   2.587   5.185   6.160
 3303SOL     OW10807   3.774   2.889   7.018
 3303SOL    HW110808   3.733   2.936   6.940
 3303SOL    HW210809   3.735   2.798   0.008
 3304SOL     OW10810   3.076   5.384   6.724
 3304SOL    HW110811   3.146   5.455   6.736
 3304SOL    HW210812   3.074   5.327   6.806
 3305SOL     OW10813   3.362   2.371   0.779
 3305SOL    HW110814   3.375   2.378   0.878
 3305SOL    HW210815   3.378   2.276   0.750
 3306SOL     OW10816   2.055   0.714   0.182
 3306SOL    HW110817   2.116   0.757   0.249
 3306SOL    HW210818   1.961   0.745   0.197
 3307SOL     OW10819   1.786   6.529   5.384
 3307SOL    HW110820   1.804   6.611   5.438
 3307SOL    HW210821   1.851   6.525   5.308
 3308SOL     OW10822   4.037   4.454   1.306
 3308SOL    HW110823   4.119   4.475   1.359
 3308SOL    HW210824   4.019   4.356   1.310
 3309SOL     OW10825   6.057   3.251   3.535
 3309SOL    HW110826   6.112   3.303   3.600
 3309SOL    HW210827   5.960   3.261   3.557
 3310SOL     OW10828   6.349   5.390   5.979
 3310SOL    HW110829   6.295   5.330   5.920
 3310SOL    HW210830   6.406   5.334   6.039
 3311SOL     OW10831   3.122   3.402   0.277
 3311SOL    HW110832   3.166   3.321   0.315
 3311SOL    HW210833   3.024   3.399   0.295
 3312SOL     OW10834   4.706   2.515   5.872
 3312SOL    HW110835   4.730   2.527   5.968
 3312SOL    HW210836   4.610   2.488   5.865
 3313SOL     OW10837   1.117   0.664   3.368
 3313SOL    HW110838   1.058   0.606   3.312
 3313SOL    HW210839   1.136   0.750   3.321
 3314SOL     OW10840   2.591   5.491   2.612
 3314SOL    HW110841   2.496   5.475   2.637
 3314SOL    HW210842   2.638   5.403   2.602
 3315SOL     OW10843   0.183   5.602   4.914
 3315SOL    HW110844   0.270   5.559   4.891
 3315SOL    HW210845   0.200   5.693   4.953
 3316SOL     OW10846   3.543   2.568   6.106
 3316SOL    HW110847   3.487   2.517   6.171
 3316SOL    HW210848   3.629   2.594   6.149
 3317SOL     OW10849   4.935   2.662   2.787
 3317SOL    HW110850   4.856   2.710   2.826
 3317SOL    HW210851   4.951   2.694   2.694
 3318SOL     OW10852   3.371   2.107   0.704
 3318SOL    HW110853   3.465   2.092   0.671
 3318SOL    HW210854   3.320   2.022   0.696
 3319SOL     OW10855   6.582   5.824   3.573
 3319SOL    HW110856   6.537   5.798   3.488
 3319SOL    HW210857   6.682   5.823   3.560
 3320SOL     OW10858   6.088   7.001   1.388
 3320SOL    HW110859   6.020   0.043   1.431
 3320SOL    HW210860   6.174   0.032   1.376
 3321SOL     OW10861   4.935   1.149   0.642
 3321SOL    HW110862   5.002   1.076   0.656
 3321SOL    HW210863   4.853   1.112   0.600
 3322SOL     OW10864   6.501   3.973   0.846
 3322SOL    HW110865   6.574   3.928   0.898
 3322SOL    HW210866   6.506   4.071   0.861
 3323SOL     OW10867   1.680   2.601   1.628
 3323SOL    HW110868   1.746   2.593   1.553
 3323SOL    HW210869   1.712   2.546   1.706
 3324SOL     OW10870   4.949   5.879   5.828
 3324SOL    HW110871   4.920   5.847   5.919
 3324SOL    HW210872   4.871   5.923   5.783
 3325SOL     OW10873   2.244   4.090   6.213
 3325SOL    HW110874   2.286   4.036   6.285
 3325SOL    HW210875   2.315   4.136   6.160
 3326SOL     OW10876   4.143   0.904   2.713
 3326SOL    HW110877   4.094   0.975   2.764
 3326SOL    HW210878   4.079   0.857   2.651
 3327SOL     OW10879   0.798   5.224   0.188
 3327SOL    HW110880   0.741   5.206   0.267
 3327SOL    HW210881   0.815   5.139   0.138
 3328SOL     OW10882   4.337   2.260   6.757
 3328SOL    HW110883   4.418   2.205   6.736
 3328SOL    HW210884   4.263   2.236   6.695
 3329SOL     OW10885   6.945   5.899   6.222
 3329SOL    HW110886   6.954   5.997   6.207
 3329SOL    HW210887   6.879   5.882   6.295
 3330SOL     OW10888   6.416   3.411   2.562
 3330SOL    HW110889   6.365   3.496   2.572
 3330SOL    HW210890   6.512   3.427   2.588
 3331SOL     OW10891   2.091   3.011   0.845
 3331SOL    HW110892   2.183   2.974   0.831
 3331SOL    HW210893   2.030   2.938   0.876
 3332SOL     OW10894   6.347   4.688   1.073
 3332SOL    HW110895   6.299   4.667   1.158
 3332SOL    HW210896   6.287   4.668   0.996
 3333SOL     OW10897   4.317   5.238   5.763
 3333SOL    HW110898   4.231   5.192   5.786
 3333SOL    HW210899   4.301   5.336   5.756
 3334SOL     OW10900   2.492   4.298   1.805
 3334SOL    HW110901   2.490   4.373   1.871
 3334SOL    HW210902   2.398   4.275   1.778
 3335SOL     OW10903   5.646   4.486   4.928
 3335SOL    HW110904   5.572   4.463   4.991
 3335SOL    HW210905   5.608   4.532   4.848
 3336SOL     OW10906   3.603   5.579   6.128
 3336SOL    HW110907   3.547   5.615   6.053
 3336SOL    HW210908   3.545   5.530   6.193
 3337SOL     OW10909   3.521   1.725   0.964
 3337SOL    HW110910   3.592   1.790   0.988
 3337SOL    HW210911   3.467   1.761   0.888
 3338SOL     OW10912   0.328   4.827   0.863
 3338SOL    HW110913   0.234   4.793   0.857
 3338SOL    HW210914   0.392   4.750   0.862
 3339SOL     OW10915   0.085   5.832   6.641
 3339SOL    HW110916   0.174   5.845   6.597
 3339SOL    HW210917   0.022   5.790   6.576
 3340SOL     OW10918   3.668   6.379   1.401
 3340SOL    HW110919   3.756   6.335   1.382
 3340SOL    HW210920   3.623   6.403   1.315
 3341SOL     OW10921   1.145   0.665   2.138
 3341SOL    HW110922   1.055   0.699   2.163
 3341SOL    HW210923   1.176   0.711   2.054
 3342SOL     OW10924   2.391   6.661   4.184
 3342SOL    HW110925   2.333   6.594   4.230
 3342SOL    HW210926   2.390   6.746   4.236
 3343SOL     OW10927   5.447   2.710   0.616
 3343SOL    HW110928   5.545   2.719   0.637
 3343SOL    HW210929   5.411   2.800   0.591
 3344SOL     OW10930   0.140   3.551   5.898
 3344SOL    HW110931   0.190   3.510   5.974
 3344SOL    HW210932   0.044   3.562   5.922
 3345SOL     OW10933   3.125   3.301   5.368
 3345SOL    HW110934   3.194   3.252   5.421
 3345SOL    HW210935   3.169   3.355   5.297
 3346SOL     OW10936   1.365   6.600   2.193
 3346SOL    HW110937   1.371   6.571   2.289
 3346SOL    HW210938   1.281   6.563   2.152
 3347SOL     OW10939   5.483   4.087   5.050
 3347SOL    HW110940   5.440   4.124   5.133
 3347SOL    HW210941   5.577   4.060   5.070
 3348SOL     OW10942   3.239   2.952   3.605
 3348SOL    HW110943   3.247   2.866   3.654
 3348SOL    HW210944   3.177   3.013   3.655
 3349SOL     OW10945   6.158   3.875   5.178
 3349SOL    HW110946   6.223   3.831   5.239
 3349SOL    HW210947   6.191   3.870   5.084
 3350SOL     OW10948   1.150   1.116   1.283
 3350SOL    HW110949   1.125   1.019   1.278
 3350SOL    HW210950   1.224   1.128   1.349
 3351SOL     OW10951   4.827   1.382   1.717
 3351SOL    HW110952   4.760   1.431   1.773
 3351SOL    HW210953   4.806   1.284   1.719
 3352SOL     OW10954   0.289   4.031   0.561
 3352SOL    HW110955   0.355   4.068   0.626
 3352SOL    HW210956   0.260   4.104   0.499
 3353SOL     OW10957   2.299   6.796   5.730
 3353SOL    HW110958   2.398   6.783   5.718
 3353SOL    HW210959   2.267   6.738   5.804
 3354SOL     OW10960   0.906   1.671   2.883
 3354SOL    HW110961   0.845   1.666   2.961
 3354SOL    HW210962   0.922   1.766   2.858
 3355SOL     OW10963   6.545   1.311   2.736
 3355SOL    HW110964   6.637   1.297   2.701
 3355SOL    HW210965   6.543   1.393   2.794
 3356SOL     OW10966   2.822   2.979   6.560
 3356SOL    HW110967   2.803   2.966   6.462
 3356SOL    HW210968   2.850   2.892   6.600
 3357SOL     OW10969   2.761   4.920   1.919
 3357SOL    HW110970   2.829   4.991   1.903
 3357SOL    HW210971   2.804   4.843   1.966
 3358SOL     OW10972   5.106   4.569   2.784
 3358SOL    HW110973   5.162   4.612   2.855
 3358SOL    HW210974   5.162   4.547   2.705
 3359SOL     OW10975   1.289   1.407   2.499
 3359SOL    HW110976   1.355   1.370   2.565
 3359SOL    HW210977   1.270   1.502   2.521
 3360SOL     OW10978   1.309   0.410   6.620
 3360SOL    HW110979   1.283   0.500   6.656
 3360SOL    HW210980   1.391   0.420   6.564
 3361SOL     OW10981   5.532   6.777   2.742
 3361SOL    HW110982   5.588   6.795   2.822
 3361SOL    HW210983   5.443   6.822   2.753
 3362SOL     OW10984   1.846   1.255   5.477
 3362SOL    HW110985   1.921   1.309   5.515
 3362SOL    HW210986   1.883   1.183   5.418
 3363SOL     OW10987   0.696   0.999   6.895
 3363SOL    HW110988   0.721   1.094   6.877
 3363SOL    HW210989   0.745   0.965   6.975
 3364SOL     OW10990   1.894   4.899   6.441
 3364SOL    HW110991   1.863   4.805   6.429
 3364SOL    HW210992   1.815   4.957   6.462
 3365SOL     OW10993   6.378   1.892   5.502
 3365SOL    HW110994   6.321   1.931   5.429
 3365SOL    HW210995   6.320   1.861   5.576
 3366SOL     OW10996   5.337   1.190   5.826
 3366SOL    HW110997   5.435   1.207   5.835
 3366SOL    HW210998   5.315   1.102   5.870
 3367SOL     OW10999   0.765   0.717   2.003
 3367SOL    HW111000   0.679   0.768   1.999
 3367SOL    HW211001   0.815   0.742   2.086
 3368SOL     OW11002   0.234   5.904   5.540
 3368SOL    HW111003   0.157   5.896   5.603
 3368SOL    HW211004   0.287   5.818   5.542
 3369SOL     OW11005   4.251   0.210   6.599
 3369SOL    HW111006   4.172   0.170   6.551
 3369SOL    HW211007   4.237   0.308   6.610
 3370SOL     OW11008   5.779   6.701   4.909
 3370SOL    HW111009   5.722   6.656   4.977
 3370SOL    HW211010   5.854   6.750   4.956
 3371SOL     OW11011   0.061   5.618   1.684
 3371SOL    HW111012   0.134   5.553   1.666
 3371SOL    HW211013   0.063   5.646   1.780
 3372SOL     OW11014   0.312   1.141   2.842
 3372SOL    HW111015   0.322   1.221   2.783
 3372SOL    HW211016   0.358   1.062   2.800
 3373SOL     OW11017   6.492   2.138   5.362
 3373SOL    HW111018   6.532   2.187   5.439
 3373SOL    HW211019   6.400   2.107   5.387
 3374SOL     OW11020   3.308   5.163   5.086
 3374SOL    HW111021   3.337   5.233   5.020
 3374SOL    HW211022   3.284   5.207   5.173
 3375SOL     OW11023   4.421   4.596   5.376
 3375SOL    HW111024   4.432   4.547   5.463
 3375SOL    HW211025   4.355   4.671   5.388
 3376SOL     OW11026   3.437   3.784   2.305
 3376SOL    HW111027   3.502   3.708   2.303
 3376SOL    HW211028   3.358   3.758   2.362
 3377SOL     OW11029   1.674   6.291   5.393
 3377SOL    HW111030   1.700   6.249   5.480
 3377SOL    HW211031   1.698   6.388   5.395
 3378SOL     OW11032   0.127   1.696   0.733
 3378SOL    HW111033   0.063   1.678   0.658
 3378SOL    HW211034   0.158   1.609   0.772
 3379SOL     OW11035   0.859   4.736   5.594
 3379SOL    HW111036   0.917   4.744   5.512
 3379SOL    HW211037   0.840   4.639   5.611
 3380SOL     OW11038   0.193   4.096   6.536
 3380SOL    HW111039   0.202   4.077   6.438
 3380SOL    HW211040   0.205   4.011   6.588
 3381SOL     OW11041   3.139   2.623   0.549
 3381SOL    HW111042   3.179   2.549   0.494
 3381SOL    HW211043   3.162   2.609   0.645
 3382SOL     OW11044   6.828   0.562   0.860
 3382SOL    HW111045   6.814   0.512   0.775
 3382SOL    HW211046   6.798   0.657   0.848
 3383SOL     OW11047   6.210   5.047   2.720
 3383SOL    HW111048   6.234   4.965   2.668
 3383SOL    HW211049   6.142   5.024   2.789
 3384SOL     OW11050   3.918   3.001   4.195
 3384SOL    HW111051   3.916   3.012   4.095
 3384SOL    HW211052   3.839   2.947   4.224
 3385SOL     OW11053   6.276   3.775   3.310
 3385SOL    HW111054   6.325   3.703   3.261
 3385SOL    HW211055   6.330   3.804   3.389
 3386SOL     OW11056   5.958   4.546   5.254
 3386SOL    HW111057   5.961   4.527   5.156
 3386SOL    HW211058   6.048   4.577   5.285
 3387SOL     OW11059   2.395   2.358   2.773
 3387SOL    HW111060   2.304   2.350   2.733
 3387SOL    HW211061   2.464   2.338   2.703
 3388SOL     OW11062   5.661   2.378   1.387
 3388SOL    HW111063   5.713   2.392   1.471
 3388SOL    HW211064   5.703   2.428   1.312
 3389SOL     OW11065   5.525   4.916   3.454
 3389SOL    HW111066   5.497   4.823   3.476
 3389SOL    HW211067   5.452   4.964   3.406
 3390SOL     OW11068   4.584   2.647   5.427
 3390SOL    HW111069   4.592   2.650   5.527
 3390SOL    HW211070   4.492   2.674   5.400
 3391SOL     OW11071   3.834   2.118   4.466
 3391SOL    HW111072   3.864   2.140   4.373
 3391SOL    HW211073   3.779   2.035   4.464
 3392SOL     OW11074   3.815   6.386   3.764
 3392SOL    HW111075   3.787   6.430   3.679
 3392SOL    HW211076   3.770   6.297   3.771
 3393SOL     OW11077   6.559   0.176   6.738
 3393SOL    HW111078   6.593   0.145   6.827
 3393SOL    HW211079   6.492   0.111   6.704
 3394SOL     OW11080   6.175   2.938   1.626
 3394SOL    HW111081   6.182   2.921   1.528
 3394SOL    HW211082   6.253   2.897   1.672
 3395SOL     OW11083   1.483   3.332   5.241
 3395SOL    HW111084   1.554   3.402   5.233
 3395SOL    HW211085   1.521   3.250   5.284
 3396SOL     OW11086   0.024   4.296   3.998
 3396SOL    HW111087   0.062   4.272   3.908
 3396SOL    HW211088   0.073   4.245   4.069
 3397SOL     OW11089   3.724   6.369   5.958
 3397SOL    HW111090   3.733   6.320   6.045
 3397SOL    HW211091   3.814   6.401   5.928
 3398SOL     OW11092   1.119   6.979   4.230
 3398SOL    HW111093   1.127   6.901   4.292
 3398SOL    HW211094   1.131   6.948   4.136
 3399SOL     OW11095   5.058   4.680   4.234
 3399SOL    HW111096   5.101   4.661   4.147
 3399SOL    HW211097   4.963   4.649   4.232
 3400SOL     OW11098   4.600   2.293   7.016
 3400SOL    HW111099   4.610   2.209   0.053
 3400SOL    HW211100   4.554   2.270   6.930
 3401SOL     OW11101   6.097   4.347   0.165
 3401SOL    HW111102   6.043   4.314   0.243
 3401SOL    HW211103   6.040   4.406   0.108
 3402SOL     OW11104   5.600   5.751   1.966
 3402SOL    HW111105   5.566   5.845   1.964
 3402SOL    HW211106   5.591   5.714   2.058
 3403SOL     OW11107   3.658   1.012   5.314
 3403SOL    HW111108   3.662   0.945   5.240
 3403SOL    HW211109   3.596   0.979   5.385
 3404SOL     OW11110   4.660   0.806   0.304
 3404SOL    HW111111   4.676   0.709   0.283
 3404SOL    HW211112   4.714   0.862   0.241
 3405SOL     OW11113   6.784   3.634   6.931
 3405SOL    HW111114   6.824   3.726   6.931
 3405SOL    HW211115   6.838   3.574   6.990
 3406SOL     OW11116   1.290   3.713   2.777
 3406SOL    HW111117   1.375   3.686   2.732
 3406SOL    HW211118   1.301   3.803   2.819
 3407SOL     OW11119   1.384   5.674   2.715
 3407SOL    HW111120   1.347   5.726   2.792
 3407SOL    HW211121   1.473   5.636   2.740
 3408SOL     OW11122   5.174   4.459   3.125
 3408SOL    HW111123   5.140   4.401   3.052
 3408SOL    HW211124   5.133   4.550   3.117
 3409SOL     OW11125   3.902   0.566   5.380
 3409SOL    HW111126   3.855   0.572   5.468
 3409SOL    HW211127   3.907   0.657   5.338
 3410SOL     OW11128   6.400   6.925   0.498
 3410SOL    HW111129   6.495   6.916   0.469
 3410SOL    HW211130   6.383   7.018   0.531
 3411SOL     OW11131   4.965   2.115   2.751
 3411SOL    HW111132   5.014   2.105   2.838
 3411SOL    HW211133   4.889   2.050   2.748
 3412SOL     OW11134   3.621   4.398   0.121
 3412SOL    HW111135   3.527   4.412   0.091
 3412SOL    HW211136   3.665   4.486   0.136
 3413SOL     OW11137   3.664   2.019   3.614
 3413SOL    HW111138   3.735   2.055   3.554
 3413SOL    HW211139   3.673   2.060   3.705
 3414SOL     OW11140   2.776   2.291   5.108
 3414SOL    HW111141   2.858   2.246   5.141
 3414SOL    HW211142   2.783   2.306   5.009
 3415SOL     OW11143   0.589   4.616   3.892
 3415SOL    HW111144   0.646   4.698   3.882
 3415SOL    HW211145   0.645   4.541   3.928
 3416SOL     OW11146   1.470   5.531   5.334
 3416SOL    HW111147   1.547   5.559   5.390
 3416SOL    HW211148   1.471   5.580   5.247
 3417SOL     OW11149   6.627   6.896   2.463
 3417SOL    HW111150   6.638   6.996   2.457
 3417SOL    HW211151   6.713   6.852   2.440
 3418SOL     OW11152   2.974   1.395   5.617
 3418SOL    HW111153   2.993   1.384   5.714
 3418SOL    HW211154   2.974   1.492   5.593
 3419SOL     OW11155   4.391   4.783   0.561
 3419SOL    HW111156   4.467   4.848   0.566
 3419SOL    HW211157   4.311   4.828   0.523
 3420SOL     OW11158   4.222   2.276   3.631
 3420SOL    HW111159   4.160   2.339   3.583
 3420SOL    HW211160   4.285   2.329   3.688
 3421SOL     OW11161   0.158   5.638   5.213
 3421SOL    HW111162   0.124   5.605   5.301
 3421SOL    HW211163   0.129   5.733   5.198
 3422SOL     OW11164   3.797   1.359   2.209
 3422SOL    HW111165   3.713   1.328   2.255
 3422SOL    HW211166   3.837   1.282   2.158
 3423SOL     OW11167   2.533   0.402   1.219
 3423SOL    HW111168   2.448   0.409   1.166
 3423SOL    HW211169   2.531   0.468   1.294
 3424SOL     OW11170   4.694   0.679   3.064
 3424SOL    HW111171   4.733   0.599   3.110
 3424SOL    HW211172   4.753   0.759   3.081
 3425SOL     OW11173   4.716   4.429   1.868
 3425SOL    HW111174   4.643   4.382   1.918
 3425SOL    HW211175   4.690   4.438   1.772
 3426SOL     OW11176   4.126   3.863   0.822
 3426SOL    HW111177   4.120   3.957   0.788
 3426SOL    HW211178   4.130   3.863   0.922
 3427SOL     OW11179   0.945   1.260   0.351
 3427SOL    HW111180   0.881   1.318   0.401
 3427SOL    HW211181   0.931   1.164   0.376
 3428SOL     OW11182   4.195   4.821   2.257
 3428SOL    HW111183   4.223   4.748   2.319
 3428SOL    HW211184   4.190   4.785   2.164
 3429SOL     OW11185   1.670   3.232   0.037
 3429SOL    HW111186   1.627   3.287   6.985
 3429SOL    HW211187   1.733   3.289   0.090
 3430SOL     OW11188   1.662   6.759   0.288
 3430SOL    HW111189   1.565   6.740   0.277
 3430SOL    HW211190   1.687   6.754   0.385
 3431SOL     OW11191   0.747   5.817   0.697
 3431SOL    HW111192   0.660   5.777   0.727
 3431SOL    HW211193   0.799   5.750   0.644
 3432SOL     OW11194   3.274   1.612   5.808
 3432SOL    HW111195   3.263   1.704   5.847
 3432SOL    HW211196   3.187   1.564   5.812
 3433SOL     OW11197   3.510   1.177   5.114
 3433SOL    HW111198   3.584   1.184   5.181
 3433SOL    HW211199   3.422   1.170   5.161
 3434SOL     OW11200   4.733   2.745   1.994
 3434SOL    HW111201   4.731   2.845   1.994
 3434SOL    HW211202   4.755   2.712   1.903
 3435SOL     OW11203   0.083   1.666   1.771
 3435SOL    HW111204   0.111   1.707   1.684
 3435SOL    HW211205   0.164   1.641   1.824
 3436SOL     OW11206   4.319   6.810   4.411
 3436SOL    HW111207   4.386   6.782   4.479
 3436SOL    HW211208   4.232   6.830   4.457
 3437SOL     OW11209   3.946   6.874   5.501
 3437SOL    HW111210   3.958   6.973   5.494
 3437SOL    HW211211   3.849   6.853   5.512
 3438SOL     OW11212   1.072   2.830   6.595
 3438SOL    HW111213   1.113   2.820   6.505
 3438SOL    HW211214   1.137   2.875   6.657
 3439SOL     OW11215   2.532   6.278   4.115
 3439SOL    HW111216   2.580   6.278   4.203
 3439SOL    HW211217   2.588   6.324   4.047
 3440SOL     OW11218   5.145   3.133   0.740
 3440SOL    HW111219   5.084   3.110   0.664
 3440SOL    HW211220   5.110   3.213   0.788
 3441SOL     OW11221   2.844   0.371   3.739
 3441SOL    HW111222   2.880   0.442   3.678
 3441SOL    HW211223   2.744   0.366   3.728
 3442SOL     OW11224   2.140   4.723   3.485
 3442SOL    HW111225   2.152   4.732   3.387
 3442SOL    HW211226   2.130   4.814   3.526
 3443SOL     OW11227   5.969   1.331   2.810
 3443SOL    HW111228   5.930   1.239   2.808
 3443SOL    HW211229   5.975   1.367   2.716
 3444SOL     OW11230   4.910   5.321   0.113
 3444SOL    HW111231   4.948   5.393   0.171
 3444SOL    HW211232   4.871   5.249   0.170
 3445SOL     OW11233   6.684   4.672   4.213
 3445SOL    HW111234   6.682   4.691   4.311
 3445SOL    HW211235   6.732   4.746   4.166
 3446SOL     OW11236   3.917   0.002   2.607
 3446SOL    HW111237   3.905   0.036   2.701
 3446SOL    HW211238   3.851   0.046   2.547
 3447SOL     OW11239   5.545   6.092   6.749
 3447SOL    HW111240   5.566   5.994   6.752
 3447SOL    HW211241   5.467   6.112   6.808
 3448SOL     OW11242   3.179   1.233   1.442
 3448SOL    HW111243   3.085   1.266   1.445
 3448SOL    HW211244   3.186   1.159   1.375
 3449SOL     OW11245   6.947   6.510   3.376
 3449SOL    HW111246   6.901   6.557   3.301
 3449SOL    HW211247   7.018   6.450   3.340
 3450SOL     OW11248   1.179   1.520   1.717
 3450SOL    HW111249   1.158   1.453   1.646
 3450SOL    HW211250   1.143   1.609   1.689
 3451SOL     OW11251   0.756   5.725   4.081
 3451SOL    HW111252   0.756   5.820   4.113
 3451SOL    HW211253   0.838   5.678   4.114
 3452SOL     OW11254   5.846   1.207   0.615
 3452SOL    HW111255   5.825   1.194   0.518
 3452SOL    HW211256   5.770   1.255   0.659
 3453SOL     OW11257   5.592   5.659   4.909
 3453SOL    HW111258   5.533   5.613   4.976
 3453SOL    HW211259   5.657   5.717   4.958
 3454SOL     OW11260   0.873   0.694   0.733
 3454SOL    HW111261   0.906   0.660   0.644
 3454SOL    HW211262   0.866   0.618   0.797
 3455SOL     OW11263   2.076   2.518   4.375
 3455SOL    HW111264   2.092   2.543   4.470
 3455SOL    HW211265   2.028   2.592   4.328
 3456SOL     OW11266   5.679   6.900   1.459
 3456SOL    HW111267   5.672   6.991   1.417
 3456SOL    HW211268   5.767   6.860   1.436
 3457SOL     OW11269   2.452   4.800   3.347
 3457SOL    HW111270   2.471   4.869   3.418
 3457SOL    HW211271   2.535   4.746   3.331
 3458SOL     OW11272   5.603   6.719   0.547
 3458SOL    HW111273   5.533   6.788   0.526
 3458SOL    HW211274   5.618   6.661   0.466
 3459SOL     OW11275   0.506   5.331   3.841
 3459SOL    HW111276   0.433   5.267   3.868
 3459SOL    HW211277   0.513   5.333   3.742
 3460SOL     OW11278   4.391   2.949   6.901
 3460SOL    HW111279   4.444   2.932   6.984
 3460SOL    HW211280   4.453   2.953   6.823
 3461SOL     OW11281   3.868   6.036   3.631
 3461SOL    HW111282   3.960   6.034   3.671
 3461SOL    HW211283   3.875   6.034   3.532
 3462SOL     OW11284   5.049   3.526   3.117
 3462SOL    HW111285   5.145   3.536   3.142
 3462SOL    HW211286   5.043   3.490   3.024
 3463SOL     OW11287   2.137   3.079   1.142
 3463SOL    HW111288   2.142   3.071   1.241
 3463SOL    HW211289   2.057   3.133   1.117
 3464SOL     OW11290   4.901   3.022   6.517
 3464SOL    HW111291   4.985   3.066   6.485
 3464SOL    HW211292   4.910   2.999   6.614
 3465SOL     OW11293   2.042   3.500   1.825
 3465SOL    HW111294   2.094   3.470   1.904
 3465SOL    HW211295   2.104   3.514   1.747
 3466SOL     OW11296   6.216   5.039   4.431
 3466SOL    HW111297   6.206   5.113   4.366
 3466SOL    HW211298   6.299   4.987   4.410
 3467SOL     OW11299   2.589   2.454   0.881
 3467SOL    HW111300   2.543   2.524   0.934
 3467SOL    HW211301   2.536   2.434   0.798
 3468SOL     OW11302   4.587   1.639   1.244
 3468SOL    HW111303   4.562   1.672   1.153
 3468SOL    HW211304   4.667   1.580   1.238
 3469SOL     OW11305   4.323   6.724   5.277
 3469SOL    HW111306   4.259   6.699   5.350
 3469SOL    HW211307   4.396   6.780   5.315
 3470SOL     OW11308   0.301   2.724   2.265
 3470SOL    HW111309   0.272   2.813   2.230
 3470SOL    HW211310   0.387   2.698   2.221
 3471SOL     OW11311   4.776   3.999   3.002
 3471SOL    HW111312   4.723   4.033   3.080
 3471SOL    HW211313   4.792   3.901   3.013
 3472SOL     OW11314   4.553   1.945   3.558
 3472SOL    HW111315   4.519   1.917   3.647
 3472SOL    HW211316   4.557   2.045   3.554
 3473SOL     OW11317   6.823   4.107   3.272
 3473SOL    HW111318   6.846   4.039   3.202
 3473SOL    HW211319   6.744   4.075   3.324
 3474SOL     OW11320   6.409   5.287   4.378
 3474SOL    HW111321   6.309   5.292   4.386
 3474SOL    HW211322   6.441   5.362   4.320
 3475SOL     OW11323   6.940   3.897   4.624
 3475SOL    HW111324   0.000   3.840   4.600
 3475SOL    HW211325   6.906   3.870   4.714
 3476SOL     OW11326   1.427   2.017   3.397
 3476SOL    HW111327   1.413   2.036   3.494
 3476SOL    HW211328   1.356   1.955   3.364
 3477SOL     OW11329   0.596   3.852   1.331
 3477SOL    HW111330   0.611   3.943   1.290
 3477SOL    HW211331   0.685   3.810   1.350
 3478SOL     OW11332   2.334   6.986   6.944
 3478SOL    HW111333   2.419   6.974   6.995
 3478SOL    HW211334   2.287   0.050   6.976
 3479SOL     OW11335   0.658   3.119   3.794
 3479SOL    HW111336   0.684   3.205   3.750
 3479SOL    HW211337   0.681   3.122   3.891
 3480SOL     OW11338   1.284   5.848   6.938
 3480SOL    HW111339   1.294   5.942   6.972
 3480SOL    HW211340   1.190   5.817   6.955
 3481SOL     OW11341   6.505   0.426   6.138
 3481SOL    HW111342   6.448   0.508   6.135
 3481SOL    HW211343   6.515   0.390   6.045
 3482SOL     OW11344   6.005   3.943   4.610
 3482SOL    HW111345   6.066   3.998   4.667
 3482SOL    HW211346   6.049   3.925   4.521
 3483SOL     OW11347   4.551   2.245   3.575
 3483SOL    HW111348   4.544   2.295   3.661
 3483SOL    HW211349   4.544   2.309   3.498
 3484SOL     OW11350   2.168   3.345   5.929
 3484SOL    HW111351   2.080   3.361   5.975
 3484SOL    HW211352   2.242   3.369   5.990
 3485SOL     OW11353   0.063   1.937   5.884
 3485SOL    HW111354   0.001   1.963   5.957
 3485SOL    HW211355   0.139   1.885   5.921
 3486SOL     OW11356   2.245   0.347   4.700
 3486SOL    HW111357   2.215   0.316   4.610
 3486SOL    HW211358   2.269   0.268   4.757
 3487SOL     OW11359   6.126   1.806   6.645
 3487SOL    HW111360   6.125   1.902   6.672
 3487SOL    HW211361   6.128   1.801   6.545
 3488SOL     OW11362   6.130   0.804   4.234
 3488SOL    HW111363   6.163   0.720   4.190
 3488SOL    HW211364   6.142   0.797   4.333
 3489SOL     OW11365   3.192   0.406   0.669
 3489SOL    HW111366   3.242   0.490   0.651
 3489SOL    HW211367   3.213   0.339   0.598
 3490SOL     OW11368   4.161   5.042   0.603
 3490SOL    HW111369   4.222   5.118   0.580
 3490SOL    HW211370   4.133   4.994   0.520
 3491SOL     OW11371   4.766   4.046   0.219
 3491SOL    HW111372   4.855   4.059   0.175
 3491SOL    HW211373   4.748   3.948   0.229
 3492SOL     OW11374   5.877   4.391   2.496
 3492SOL    HW111375   5.845   4.434   2.412
 3492SOL    HW211376   5.977   4.395   2.499
 3493SOL     OW11377   6.102   3.561   4.759
 3493SOL    HW111378   6.142   3.489   4.816
 3493SOL    HW211379   6.065   3.633   4.817
 3494SOL     OW11380   3.749   1.653   2.092
 3494SOL    HW111381   3.749   1.562   2.132
 3494SOL    HW211382   3.781   1.649   1.998
 3495SOL     OW11383   1.670   3.591   1.749
 3495SOL    HW111384   1.709   3.654   1.682
 3495SOL    HW211385   1.675   3.498   1.713
 3496SOL     OW11386   6.431   5.340   1.062
 3496SOL    HW111387   6.444   5.270   1.133
 3496SOL    HW211388   6.519   5.361   1.020
 3497SOL     OW11389   4.030   0.559   2.399
 3497SOL    HW111390   4.027   0.532   2.303
 3497SOL    HW211391   4.011   0.479   2.456
 3498SOL     OW11392   2.138   2.101   1.162
 3498SOL    HW111393   2.234   2.124   1.148
 3498SOL    HW211394   2.100   2.161   1.233
 3499SOL     OW11395   5.806   5.459   5.572
 3499SOL    HW111396   5.870   5.530   5.545
 3499SOL    HW211397   5.729   5.500   5.621
 3500SOL     OW11398   1.752   2.108   3.582
 3500SOL    HW111399   1.708   2.102   3.672
 3500SOL    HW211400   1.710   2.181   3.529
 3501SOL     OW11401   2.003   0.302   5.981
 3501SOL    HW111402   1.931   0.240   5.951
 3501SOL    HW211403   2.065   0.254   6.042
 3502SOL     OW11404   5.024   3.840   1.730
 3502SOL    HW111405   5.049   3.749   1.695
 3502SOL    HW211406   5.088   3.908   1.694
 3503SOL     OW11407   6.772   6.446   6.424
 3503SOL    HW111408   6.801   6.462   6.518
 3503SOL    HW211409   6.851   6.455   6.363
 3504SOL     OW11410   1.457   0.691   1.996
 3504SOL    HW111411   1.547   0.707   2.038
 3504SOL    HW211412   1.433   0.594   2.002
 3505SOL     OW11413   5.905   5.018   5.716
 3505SOL    HW111414   5.869   5.060   5.800
 3505SOL    HW211415   5.841   5.035   5.641
 3506SOL     OW11416   5.124   4.321   4.327
 3506SOL    HW111417   5.054   4.340   4.258
 3506SOL    HW211418   5.165   4.231   4.310
 3507SOL     OW11419   2.325   7.016   0.281
 3507SOL    HW111420   2.387   6.951   0.238
 3507SOL    HW211421   2.315   0.078   0.223
 3508SOL     OW11422   3.059   2.446   5.355
 3508SOL    HW111423   3.085   2.410   5.265
 3508SOL    HW211424   3.023   2.539   5.343
 3509SOL     OW11425   4.510   5.968   6.764
 3509SOL    HW111426   4.571   5.978   6.843
 3509SOL    HW211427   4.417   5.993   6.790
 3510SOL     OW11428   2.376   0.685   0.936
 3510SOL    HW111429   2.285   0.704   0.973
 3510SOL    HW211430   2.443   0.685   1.011
 3511SOL     OW11431   2.482   4.668   1.304
 3511SOL    HW111432   2.512   4.590   1.358
 3511SOL    HW211433   2.399   4.644   1.253
 3512SOL     OW11434   1.280   4.341   0.041
 3512SOL    HW111435   1.235   4.376   0.123
 3512SOL    HW211436   1.294   4.416   6.995
 3513SOL     OW11437   5.810   2.299   0.195
 3513SOL    HW111438   5.874   2.302   0.272
 3513SOL    HW211439   5.747   2.221   0.207
 3514SOL     OW11440   4.664   0.722   2.757
 3514SOL    HW111441   4.572   0.713   2.720
 3514SOL    HW211442   4.662   0.704   2.855
 3515SOL     OW11443   6.140   6.013   4.838
 3515SOL    HW111444   6.087   6.008   4.753
 3515SOL    HW211445   6.166   5.920   4.867
 3516SOL     OW11446   5.104   0.433   1.100
 3516SOL    HW111447   5.089   0.405   1.005
 3516SOL    HW211448   5.202   0.439   1.118
 3517SOL     OW11449   6.486   1.484   0.300
 3517SOL    HW111450   6.524   1.440   0.218
 3517SOL    HW211451   6.386   1.487   0.293
 3518SOL     OW11452   5.868   1.429   5.069
 3518SOL    HW111453   5.790   1.440   5.131
 3518SOL    HW211454   5.836   1.389   4.983
 3519SOL     OW11455   3.276   0.673   0.590
 3519SOL    HW111456   3.376   0.675   0.578
 3519SOL    HW211457   3.252   0.716   0.677
 3520SOL     OW11458   3.112   5.883   5.011
 3520SOL    HW111459   3.124   5.786   5.030
 3520SOL    HW211460   3.039   5.895   4.943
 3521SOL     OW11461   2.949   3.001   6.889
 3521SOL    HW111462   3.037   2.974   6.850
 3521SOL    HW211463   2.950   2.985   6.988
 3522SOL     OW11464   6.812   5.443   0.255
 3522SOL    HW111465   6.770   5.370   0.201
 3522SOL    HW211466   6.747   5.475   0.324
 3523SOL     OW11467   0.969   5.411   5.913
 3523SOL    HW111468   0.982   5.375   6.005
 3523SOL    HW211469   1.056   5.443   5.876
 3524SOL     OW11470   6.321   1.682   3.074
 3524SOL    HW111471   6.249   1.685   3.144
 3524SOL    HW211472   6.320   1.767   3.021
 3525SOL     OW11473   6.149   4.674   3.888
 3525SOL    HW111474   6.244   4.671   3.918
 3525SOL    HW211475   6.103   4.753   3.928
 3526SOL     OW11476   1.157   5.814   3.474
 3526SOL    HW111477   1.161   5.842   3.378
 3526SOL    HW211478   1.246   5.831   3.517
 3527SOL     OW11479   6.737   2.912   6.081
 3527SOL    HW111480   6.652   2.963   6.081
 3527SOL    HW211481   6.813   2.973   6.062
 3528SOL     OW11482   2.627   6.490   5.345
 3528SOL    HW111483   2.715   6.443   5.353
 3528SOL    HW211484   2.602   6.498   5.248
 3529SOL     OW11485   4.982   5.901   6.720
 3529SOL    HW111486   4.935   5.893   6.633
 3529SOL    HW211487   5.071   5.854   6.714
 3530SOL     OW11488   0.187   6.509   1.903
 3530SOL    HW111489   0.248   6.555   1.967
 3530SOL    HW211490   0.233   6.429   1.864
 3531SOL     OW11491   4.756   1.562   1.505
 3531SOL    HW111492   4.755   1.538   1.408
 3531SOL    HW211493   4.772   1.479   1.559
 3532SOL     OW11494   2.401   1.015   2.397
 3532SOL    HW111495   2.417   1.011   2.298
 3532SOL    HW211496   2.376   1.109   2.422
 3533SOL     OW11497   6.695   1.372   2.192
 3533SOL    HW111498   6.622   1.304   2.182
 3533SOL    HW211499   6.762   1.339   2.259
 3534SOL     OW11500   0.261   1.850   1.625
 3534SOL    HW111501   0.352   1.845   1.584
 3534SOL    HW211502   0.199   1.895   1.561
 3535SOL     OW11503   2.783   5.081   4.920
 3535SOL    HW111504   2.802   4.984   4.904
 3535SOL    HW211505   2.866   5.126   4.954
 3536SOL     OW11506   3.172   2.159   2.545
 3536SOL    HW111507   3.172   2.117   2.454
 3536SOL    HW211508   3.081   2.149   2.586
 3537SOL     OW11509   1.630   5.571   2.761
 3537SOL    HW111510   1.717   5.570   2.810
 3537SOL    HW211511   1.565   5.509   2.806
 3538SOL     OW11512   3.114   5.407   4.805
 3538SOL    HW111513   3.067   5.454   4.879
 3538SOL    HW211514   3.212   5.420   4.814
 3539SOL     OW11515   4.055   3.778   4.314
 3539SOL    HW111516   4.087   3.686   4.290
 3539SOL    HW211517   4.028   3.780   4.410
 3540SOL     OW11518   2.125   1.762   4.153
 3540SOL    HW111519   2.163   1.687   4.207
 3540SOL    HW211520   2.172   1.767   4.065
 3541SOL     OW11521   3.110   3.724   5.282
 3541SOL    HW111522   3.054   3.642   5.293
 3541SOL    HW211523   3.101   3.757   5.187
 3542SOL     OW11524   1.378   4.593   2.501
 3542SOL    HW111525   1.422   4.510   2.536
 3542SOL    HW211526   1.295   4.568   2.451
 3543SOL     OW11527   5.368   2.859   4.199
 3543SOL    HW111528   5.432   2.840   4.274
 3543SOL    HW211529   5.277   2.829   4.225
 3544SOL     OW11530   2.230   4.552   6.245
 3544SOL    HW111531   2.283   4.609   6.308
 3544SOL    HW211532   2.158   4.505   6.294
 3545SOL     OW11533   4.404   5.539   6.256
 3545SOL    HW111534   4.412   5.621   6.312
 3545SOL    HW211535   4.341   5.556   6.181
 3546SOL     OW11536   6.824   5.676   3.278
 3546SOL    HW111537   6.830   5.743   3.352
 3546SOL    HW211538   6.862   5.589   3.308
 3547SOL     OW11539   4.489   5.177   4.685
 3547SOL    HW111540   4.517   5.118   4.761
 3547SOL    HW211541   4.550   5.164   4.607
 3548SOL     OW11542   5.047   2.878   5.359
 3548SOL    HW111543   5.129   2.834   5.322
 3548SOL    HW211544   5.001   2.815   5.421
 3549SOL     OW11545   6.209   4.633   3.070
 3549SOL    HW111546   6.274   4.610   2.998
 3549SOL    HW211547   6.228   4.726   3.103
 3550SOL     OW11548   5.069   1.813   2.900
 3550SOL    HW111549   5.086   1.818   2.802
 3550SOL    HW211550   5.072   1.906   2.938
 3551SOL     OW11551   3.086   6.535   2.808
 3551SOL    HW111552   3.135   6.588   2.739
 3551SOL    HW211553   3.102   6.575   2.899
 3552SOL     OW11554   5.679   6.122   2.840
 3552SOL    HW111555   5.676   6.023   2.825
 3552SOL    HW211556   5.742   6.143   2.914
 3553SOL     OW11557   5.487   2.371   2.219
 3553SOL    HW111558   5.465   2.291   2.163
 3553SOL    HW211559   5.579   2.362   2.255
 3554SOL     OW11560   3.964   4.754   6.854
 3554SOL    HW111561   3.999   4.767   6.946
 3554SOL    HW211562   3.922   4.664   6.846
 3555SOL     OW11563   1.248   2.758   3.269
 3555SOL    HW111564   1.344   2.781   3.282
 3555SOL    HW211565   1.230   2.740   3.172
 3556SOL     OW11566   3.148   0.611   5.559
 3556SOL    HW111567   3.078   0.589   5.491
 3556SOL    HW211568   3.238   0.584   5.525
 3557SOL     OW11569   1.987   0.458   4.487
 3557SOL    HW111570   1.934   0.426   4.566
 3557SOL    HW211571   2.024   0.380   4.438
 3558SOL     OW11572   0.126   6.334   2.193
 3558SOL    HW111573   0.104   6.400   2.121
 3558SOL    HW211574   0.135   6.243   2.153
 3559SOL     OW11575   0.446   1.234   4.834
 3559SOL    HW111576   0.430   1.333   4.832
 3559SOL    HW211577   0.446   1.202   4.928
 3560SOL     OW11578   0.600   5.903   1.480
 3560SOL    HW111579   0.598   5.871   1.385
 3560SOL    HW211580   0.686   5.952   1.497
 3561SOL     OW11581   5.060   4.970   5.688
 3561SOL    HW111582   5.055   5.041   5.758
 3561SOL    HW211583   5.066   4.880   5.731
 3562SOL     OW11584   5.519   0.403   3.475
 3562SOL    HW111585   5.470   0.362   3.398
 3562SOL    HW211586   5.597   0.346   3.500
 3563SOL     OW11587   4.814   0.930   1.227
 3563SOL    HW111588   4.790   1.026   1.239
 3563SOL    HW211589   4.886   0.906   1.293
 3564SOL     OW11590   0.010   4.446   4.382
 3564SOL    HW111591   6.940   4.424   4.340
 3564SOL    HW211592   0.084   4.409   4.326
 3565SOL     OW11593   2.537   0.504   4.688
 3565SOL    HW111594   2.445   0.503   4.649
 3565SOL    HW211595   2.577   0.412   4.681
 3566SOL     OW11596   0.045   3.009   6.318
 3566SOL    HW111597   7.010   2.945   6.372
 3566SOL    HW211598   0.006   3.017   6.227
 3567SOL     OW11599   0.168   3.344   0.681
 3567SOL    HW111600   0.250   3.287   0.673
 3567SOL    HW211601   0.158   3.375   0.775
 3568SOL     OW11602   4.551   4.488   3.604
 3568SOL    HW111603   4.637   4.536   3.620
 3568SOL    HW211604   4.509   4.465   3.692
 3569SOL     OW11605   3.395   4.195   4.658
 3569SOL    HW111606   3.331   4.175   4.732
 3569SOL    HW211607   3.479   4.143   4.671
 3570SOL     OW11608   0.223   1.658   6.179
 3570SOL    HW111609   0.259   1.584   6.236
 3570SOL    HW211610   0.248   1.746   6.219
 3571SOL     OW11611   2.341   6.572   5.487
 3571SOL    HW111612   2.321   6.583   5.390
 3571SOL    HW211613   2.315   6.655   5.537
 3572SOL     OW11614   5.076   4.544   1.555
 3572SOL    HW111615   5.093   4.594   1.470
 3572SOL    HW211616   5.163   4.524   1.600
 3573SOL     OW11617   6.674   3.756   2.663
 3573SOL    HW111618   6.651   3.771   2.567
 3573SOL    HW211619   6.711   3.663   2.675
 3574SOL     OW11620   2.988   3.080   5.960
 3574SOL    HW111621   3.069   3.128   5.927
 3574SOL    HW211622   2.959   3.014   5.890
 3575SOL     OW11623   5.372   6.932   6.963
 3575SOL    HW111624   5.329   6.886   6.886
 3575SOL    HW211625   5.393   0.008   6.938
 3576SOL     OW11626   1.047   3.243   6.661
 3576SOL    HW111627   1.136   3.271   6.696
 3576SOL    HW211628   0.989   3.323   6.650
 3577SOL     OW11629   2.700   2.599   5.524
 3577SOL    HW111630   2.618   2.654   5.511
 3577SOL    HW211631   2.706   2.529   5.452
 3578SOL     OW11632   3.205   3.100   6.640
 3578SOL    HW111633   3.177   3.170   6.706
 3578SOL    HW211634   3.267   3.142   6.574
 3579SOL     OW11635   0.212   3.158   2.669
 3579SOL    HW111636   0.160   3.229   2.621
 3579SOL    HW211637   0.157   3.074   2.675
 3580SOL     OW11638   0.124   4.065   1.491
 3580SOL    HW111639   0.155   4.076   1.585
 3580SOL    HW211640   0.131   3.970   1.463
 3581SOL     OW11641   0.717   0.324   2.546
 3581SOL    HW111642   0.773   0.382   2.486
 3581SOL    HW211643   0.723   0.229   2.515
 3582SOL     OW11644   3.644   3.961   6.229
 3582SOL    HW111645   3.662   3.926   6.137
 3582SOL    HW211646   3.560   4.016   6.227
 3583SOL     OW11647   0.716   5.127   0.822
 3583SOL    HW111648   0.621   5.097   0.826
 3583SOL    HW211649   0.775   5.058   0.863
 3584SOL     OW11650   5.912   4.723   4.499
 3584SOL    HW111651   5.919   4.743   4.401
 3584SOL    HW211652   5.871   4.632   4.511
 3585SOL     OW11653   2.252   1.786   3.348
 3585SOL    HW111654   2.195   1.866   3.333
 3585SOL    HW211655   2.323   1.808   3.416
 3586SOL     OW11656   6.352   2.359   4.658
 3586SOL    HW111657   6.434   2.350   4.602
 3586SOL    HW211658   6.302   2.441   4.631
 3587SOL     OW11659   3.253   6.835   6.391
 3587SOL    HW111660   3.194   6.811   6.469
 3587SOL    HW211661   3.234   6.773   6.315
 3588SOL     OW11662   6.822   3.938   4.394
 3588SOL    HW111663   6.864   3.947   4.484
 3588SOL    HW211664   6.760   3.859   4.394
 3589SOL     OW11665   0.325   0.425   6.471
 3589SOL    HW111666   0.228   0.424   6.447
 3589SOL    HW211667   0.349   0.339   6.515
 3590SOL     OW11668   6.834   4.899   0.655
 3590SOL    HW111669   6.888   4.818   0.631
 3590SOL    HW211670   6.753   4.903   0.597
 3591SOL     OW11671   5.443   2.308   6.925
 3591SOL    HW111672   5.446   2.230   6.862
 3591SOL    HW211673   5.372   2.372   6.896
 3592SOL     OW11674   1.273   6.985   1.661
 3592SOL    HW111675   1.330   0.048   1.674
 3592SOL    HW211676   1.309   6.932   1.584
 3593SOL     OW11677   5.065   3.289   6.026
 3593SOL    HW111678   5.128   3.227   5.980
 3593SOL    HW211679   5.066   3.378   5.980
 3594SOL     OW11680   4.204   5.163   4.608
 3594SOL    HW111681   4.298   5.156   4.639
 3594SOL    HW211682   4.188   5.098   4.533
 3595SOL     OW11683   5.629   6.393   5.686
 3595SOL    HW111684   5.655   6.313   5.739
 3595SOL    HW211685   5.644   6.375   5.589
 3596SOL     OW11686   3.820   1.517   3.542
 3596SOL    HW111687   3.782   1.549   3.455
 3596SOL    HW211688   3.758   1.543   3.617
 3597SOL     OW11689   2.078   3.396   5.302
 3597SOL    HW111690   2.112   3.312   5.261
 3597SOL    HW211691   2.130   3.474   5.267
 3598SOL     OW11692   1.534   5.190   4.723
 3598SOL    HW111693   1.588   5.115   4.760
 3598SOL    HW211694   1.508   5.252   4.798
 3599SOL     OW11695   4.530   1.231   4.832
 3599SOL    HW111696   4.548   1.251   4.736
 3599SOL    HW211697   4.611   1.252   4.887
 3600SOL     OW11698   3.509   3.227   0.629
 3600SOL    HW111699   3.569   3.221   0.709
 3600SOL    HW211700   3.440   3.298   0.644
 3601SOL     OW11701   5.261   0.881   5.355
 3601SOL    HW111702   5.173   0.894   5.402
 3601SOL    HW211703   5.294   0.969   5.322
 3602SOL     OW11704   2.235   2.378   1.063
 3602SOL    HW111705   2.235   2.383   0.963
 3602SOL    HW211706   2.303   2.310   1.093
 3603SOL     OW11707   2.834   1.133   5.840
 3603SOL    HW111708   2.913   1.100   5.789
 3603SOL    HW211709   2.751   1.092   5.804
 3604SOL     OW11710   6.682   0.579   3.681
 3604SOL    HW111711   6.597   0.622   3.711
 3604SOL    HW211712   6.760   0.637   3.706
 3605SOL     OW11713   0.945   5.659   3.524
 3605SOL    HW111714   1.035   5.703   3.515
 3605SOL    HW211715   0.903   5.686   3.610
 3606SOL     OW11716   2.569   6.259   1.837
 3606SOL    HW111717   2.540   6.259   1.741
 3606SOL    HW211718   2.566   6.353   1.872
 3607SOL     OW11719   5.173   2.835   3.110
 3607SOL    HW111720   5.145   2.740   3.125
 3607SOL    HW211721   5.106   2.881   3.052
 3608SOL     OW11722   2.992   2.146   5.218
 3608SOL    HW111723   3.049   2.137   5.300
 3608SOL    HW211724   3.043   2.194   5.147
 3609SOL     OW11725   2.323   6.942   4.258
 3609SOL    HW111726   2.319   6.934   4.158
 3609SOL    HW211727   2.399   7.002   4.283
 3610SOL     OW11728   2.580   6.711   4.908
 3610SOL    HW111729   2.580   6.806   4.939
 3610SOL    HW211730   2.492   6.690   4.865
 3611SOL     OW11731   5.145   5.055   2.932
 3611SOL    HW111732   5.073   5.084   2.869
 3611SOL    HW211733   5.134   4.958   2.952
 3612SOL     OW11734   6.214   1.414   6.512
 3612SOL    HW111735   6.224   1.320   6.542
 3612SOL    HW211736   6.163   1.466   6.580
 3613SOL     OW11737   3.801   5.480   1.334
 3613SOL    HW111738   3.733   5.532   1.386
 3613SOL    HW211739   3.776   5.482   1.237
 3614SOL     OW11740   4.100   4.682   6.486
 3614SOL    HW111741   4.167   4.755   6.496
 3614SOL    HW211742   4.042   4.701   6.407
 3615SOL     OW11743   5.897   2.344   5.618
 3615SOL    HW111744   5.859   2.388   5.538
 3615SOL    HW211745   5.880   2.400   5.699
 3616SOL     OW11746   1.460   1.740   6.803
 3616SOL    HW111747   1.383   1.799   6.780
 3616SOL    HW211748   1.544   1.793   6.805
 3617SOL     OW11749   3.347   6.167   6.282
 3617SOL    HW111750   3.368   6.257   6.246
 3617SOL    HW211751   3.427   6.108   6.273
 3618SOL     OW11752   2.026   4.365   4.689
 3618SOL    HW111753   2.034   4.369   4.589
 3618SOL    HW211754   2.112   4.333   4.727
 3619SOL     OW11755   5.829   3.172   1.095
 3619SOL    HW111756   5.908   3.152   1.153
 3619SOL    HW211757   5.750   3.119   1.127
 3620SOL     OW11758   6.119   6.045   5.239
 3620SOL    HW111759   6.040   6.024   5.298
 3620SOL    HW211760   6.126   6.144   5.228
 3621SOL     OW11761   2.857   3.461   3.584
 3621SOL    HW111762   2.817   3.393   3.523
 3621SOL    HW211763   2.925   3.516   3.534
 3622SOL     OW11764   1.106   6.522   6.950
 3622SOL    HW111765   1.062   6.594   7.003
 3622SOL    HW211766   1.039   6.452   6.926
 3623SOL     OW11767   0.952   4.836   6.296
 3623SOL    HW111768   0.922   4.811   6.388
 3623SOL    HW211769   0.963   4.753   6.241
 3624SOL     OW11770   3.035   1.515   1.794
 3624SOL    HW111771   3.087   1.578   1.737
 3624SOL    HW211772   3.093   1.483   1.869
 3625SOL     OW11773   6.802   2.560   0.841
 3625SOL    HW111774   6.758   2.478   0.876
 3625SOL    HW211775   6.889   2.575   0.889
 3626SOL     OW11776   1.162   2.296   4.957
 3626SOL    HW111777   1.233   2.225   4.958
 3626SOL    HW211778   1.165   2.344   4.869
 3627SOL     OW11779   3.779   2.112   1.726
 3627SOL    HW111780   3.754   2.191   1.782
 3627SOL    HW211781   3.819   2.042   1.784
 3628SOL     OW11782   6.605   2.081   1.566
 3628SOL    HW111783   6.519   2.030   1.558
 3628SOL    HW211784   6.600   2.165   1.513
 3629SOL     OW11785   1.580   1.646   4.431
 3629SOL    HW111786   1.602   1.626   4.526
 3629SOL    HW211787   1.533   1.735   4.426
 3630SOL     OW11788   6.764   2.505   3.241
 3630SOL    HW111789   6.706   2.426   3.262
 3630SOL    HW211790   6.715   2.568   3.182
 3631SOL     OW11791   1.723   6.727   2.455
 3631SOL    HW111792   1.734   6.665   2.377
 3631SOL    HW211793   1.813   6.753   2.489
 3632SOL     OW11794   4.483   4.253   0.813
 3632SOL    HW111795   4.473   4.326   0.880
 3632SOL    HW211796   4.580   4.242   0.791
 3633SOL     OW11797   3.364   3.195   6.460
 3633SOL    HW111798   3.416   3.116   6.427
 3633SOL    HW211799   3.298   3.223   6.390
 3634SOL     OW11800   3.455   5.858   7.001
 3634SOL    HW111801   3.447   5.941   6.945
 3634SOL    HW211802   3.364   5.827   0.008
 3635SOL     OW11803   2.518   6.867   1.552
 3635SOL    HW111804   2.462   6.932   1.602
 3635SOL    HW211805   2.467   6.832   1.474
 3636SOL     OW11806   0.983   4.893   6.660
 3636SOL    HW111807   0.934   4.806   6.649
 3636SOL    HW211808   1.080   4.880   6.641
 3637SOL     OW11809   6.571   3.083   6.943
 3637SOL    HW111810   6.657   3.059   6.988
 3637SOL    HW211811   6.509   3.004   6.946
 3638SOL     OW11812   5.741   4.669   2.932
 3638SOL    HW111813   5.643   4.656   2.925
 3638SOL    HW211814   5.786   4.633   2.850
 3639SOL     OW11815   3.647   3.717   3.989
 3639SOL    HW111816   3.726   3.740   4.046
 3639SOL    HW211817   3.589   3.798   3.978
 3640SOL     OW11818   5.091   2.109   0.565
 3640SOL    HW111819   5.144   2.174   0.510
 3640SOL    HW211820   4.997   2.104   0.529
 3641SOL     OW11821   6.025   3.608   2.462
 3641SOL    HW111822   5.935   3.640   2.491
 3641SOL    HW211823   6.042   3.638   2.368
 3642SOL     OW11824   5.819   3.258   6.259
 3642SOL    HW111825   5.891   3.191   6.242
 3642SOL    HW211826   5.859   3.347   6.278
 3643SOL     OW11827   4.007   5.626   5.365
 3643SOL    HW111828   4.062   5.601   5.286
 3643SOL    HW211829   3.910   5.615   5.343
 3644SOL     OW11830   2.430   0.861   1.517
 3644SOL    HW111831   2.445   0.798   1.440
 3644SOL    HW211832   2.369   0.818   1.583
 3645SOL     OW11833   1.400   4.295   3.444
 3645SOL    HW111834   1.436   4.377   3.488
 3645SOL    HW211835   1.440   4.285   3.353
 3646SOL     OW11836   2.174   4.488   5.013
 3646SOL    HW111837   2.117   4.422   5.062
 3646SOL    HW211838   2.262   4.497   5.058
 3647SOL     OW11839   3.408   6.988   6.697
 3647SOL    HW111840   3.496   6.954   6.664
 3647SOL    HW211841   3.420   0.061   6.736
 3648SOL     OW11842   4.313   5.318   3.518
 3648SOL    HW111843   4.322   5.394   3.582
 3648SOL    HW211844   4.268   5.349   3.435
 3649SOL     OW11845   5.758   2.712   7.012
 3649SOL    HW111846   5.749   2.616   6.985
 3649SOL    HW211847   5.804   2.717   0.082
 3650SOL     OW11848   5.278   5.559   6.947
 3650SOL    HW111849   5.258   5.624   0.001
 3650SOL    HW211850   5.197   5.503   6.929
 3651SOL     OW11851   0.983   1.989   5.662
 3651SOL    HW111852   0.995   1.928   5.740
 3651SOL    HW211853   1.021   1.946   5.580
 3652SOL     OW11854   4.223   1.542   2.153
 3652SOL    HW111855   4.153   1.521   2.221
 3652SOL    HW211856   4.179   1.559   2.065
 3653SOL     OW11857   0.756   1.523   1.015
 3653SOL    HW111858   0.663   1.518   1.053
 3653SOL    HW211859   0.776   1.616   0.987
 3654SOL     OW11860   5.393   6.852   0.431
 3654SOL    HW111861   5.360   6.800   0.352
 3654SOL    HW211862   5.315   6.891   0.480
 3655SOL     OW11863   1.919   2.221   4.219
 3655SOL    HW111864   1.934   2.137   4.167
 3655SOL    HW211865   2.000   2.278   4.213
 3656SOL     OW11866   6.817   6.884   1.395
 3656SOL    HW111867   6.783   6.809   1.339
 3656SOL    HW211868   6.840   6.851   1.486
 3657SOL     OW11869   5.114   5.850   5.191
 3657SOL    HW111870   5.083   5.899   5.109
 3657SOL    HW211871   5.122   5.753   5.170
 3658SOL     OW11872   1.986   4.971   5.778
 3658SOL    HW111873   1.974   4.956   5.680
 3658SOL    HW211874   2.083   4.971   5.801
 3659SOL     OW11875   6.906   1.833   6.352
 3659SOL    HW111876   6.914   1.737   6.324
 3659SOL    HW211877   6.909   1.891   6.271
 3660SOL     OW11878   5.731   5.507   6.765
 3660SOL    HW111879   5.775   5.569   6.701
 3660SOL    HW211880   5.634   5.500   6.742
 3661SOL     OW11881   0.086   2.024   5.243
 3661SOL    HW111882   0.047   1.941   5.203
 3661SOL    HW211883   0.075   2.022   5.343
 3662SOL     OW11884   2.962   1.648   5.869
 3662SOL    HW111885   2.878   1.689   5.836
 3662SOL    HW211886   2.959   1.549   5.854
 3663SOL     OW11887   2.936   2.195   6.479
 3663SOL    HW111888   2.853   2.150   6.446
 3663SOL    HW211889   2.976   2.140   6.553
 3664SOL     OW11890   4.070   1.361   1.879
 3664SOL    HW111891   4.088   1.458   1.864
 3664SOL    HW211892   4.028   1.322   1.797
 3665SOL     OW11893   1.080   5.761   5.811
 3665SOL    HW111894   1.097   5.690   5.743
 3665SOL    HW211895   1.022   5.832   5.772
 3666SOL     OW11896   2.108   2.708   4.589
 3666SOL    HW111897   2.030   2.758   4.553
 3666SOL    HW211898   2.175   2.772   4.627
 3667SOL     OW11899   1.813   0.242   1.618
 3667SOL    HW111900   1.749   0.181   1.571
 3667SOL    HW211901   1.837   0.203   1.707
 3668SOL     OW11902   0.394   1.337   1.699
 3668SOL    HW111903   0.431   1.404   1.764
 3668SOL    HW211904   0.304   1.307   1.730
 3669SOL     OW11905   0.618   1.300   3.554
 3669SOL    HW111906   0.611   1.379   3.615
 3669SOL    HW211907   0.528   1.259   3.542
 3670SOL     OW11908   2.990   5.919   1.935
 3670SOL    HW111909   2.918   5.989   1.934
 3670SOL    HW211910   2.987   5.870   2.022
 3671SOL     OW11911   6.114   0.482   3.917
 3671SOL    HW111912   6.024   0.471   3.876
 3671SOL    HW211913   6.180   0.426   3.868
 3672SOL     OW11914   3.824   6.741   2.748
 3672SOL    HW111915   3.856   6.816   2.806
 3672SOL    HW211916   3.731   6.759   2.717
 3673SOL     OW11917   3.622   5.896   1.225
 3673SOL    HW111918   3.545   5.943   1.268
 3673SOL    HW211919   3.706   5.948   1.241
 3674SOL     OW11920   1.643   4.796   6.073
 3674SOL    HW111921   1.604   4.704   6.069
 3674SOL    HW211922   1.738   4.794   6.041
 3675SOL     OW11923   1.446   0.728   4.114
 3675SOL    HW111924   1.417   0.742   4.019
 3675SOL    HW211925   1.428   0.811   4.167
 3676SOL     OW11926   4.047   1.970   4.165
 3676SOL    HW111927   4.114   2.017   4.108
 3676SOL    HW211928   4.081   1.879   4.190
 3677SOL     OW11929   2.195   0.602   3.880
 3677SOL    HW111930   2.230   0.560   3.796
 3677SOL    HW211931   2.115   0.657   3.859
 3678SOL     OW11932   0.915   0.839   3.833
 3678SOL    HW111933   0.892   0.936   3.832
 3678SOL    HW211934   0.944   0.810   3.742
 3679SOL     OW11935   4.316   0.657   2.429
 3679SOL    HW111936   4.216   0.664   2.429
 3679SOL    HW211937   4.343   0.561   2.430
 3680SOL     OW11938   3.474   1.147   4.518
 3680SOL    HW111939   3.466   1.237   4.561
 3680SOL    HW211940   3.555   1.100   4.552
 3681SOL     OW11941   1.793   6.112   4.453
 3681SOL    HW111942   1.888   6.082   4.468
 3681SOL    HW211943   1.738   6.091   4.534
 3682SOL     OW11944   5.552   1.513   1.579
 3682SOL    HW111945   5.601   1.558   1.653
 3682SOL    HW211946   5.470   1.565   1.556
 3683SOL     OW11947   5.768   1.604   6.176
 3683SOL    HW111948   5.736   1.654   6.096
 3683SOL    HW211949   5.821   1.524   6.148
 3684SOL     OW11950   1.938   6.652   5.788
 3684SOL    HW111951   2.007   6.596   5.742
 3684SOL    HW211952   1.948   6.643   5.887
 3685SOL     OW11953   2.118   6.202   5.269
 3685SOL    HW111954   2.197   6.240   5.318
 3685SOL    HW211955   2.151   6.138   5.199
 3686SOL     OW11956   0.335   3.922   3.095
 3686SOL    HW111957   0.291   3.856   3.033
 3686SOL    HW211958   0.425   3.887   3.122
 3687SOL     OW11959   5.371   5.592   4.513
 3687SOL    HW111960   5.335   5.570   4.422
 3687SOL    HW211961   5.423   5.677   4.508
 3688SOL     OW11962   6.050   2.485   0.622
 3688SOL    HW111963   6.093   2.575   0.628
 3688SOL    HW211964   5.967   2.484   0.679
 3689SOL     OW11965   1.313   6.602   5.749
 3689SOL    HW111966   1.402   6.635   5.718
 3689SOL    HW211967   1.295   6.635   5.841
 3690SOL     OW11968   5.080   5.428   1.406
 3690SOL    HW111969   5.016   5.447   1.331
 3690SOL    HW211970   5.134   5.347   1.385
 3691SOL     OW11971   1.626   2.992   0.819
 3691SOL    HW111972   1.675   2.914   0.780
 3691SOL    HW211973   1.530   2.987   0.792
 3692SOL     OW11974   0.790   3.269   5.588
 3692SOL    HW111975   0.768   3.307   5.498
 3692SOL    HW211976   0.772   3.338   5.658
 3693SOL     OW11977   6.324   0.985   2.147
 3693SOL    HW111978   6.333   0.968   2.245
 3693SOL    HW211979   6.237   0.948   2.115
 3694SOL     OW11980   6.534   0.423   2.664
 3694SOL    HW111981   6.586   0.338   2.655
 3694SOL    HW211982   6.584   0.498   2.620
 3695SOL     OW11983   5.708   3.336   2.883
 3695SOL    HW111984   5.796   3.314   2.840
 3695SOL    HW211985   5.675   3.256   2.934
 3696SOL     OW11986   4.002   0.331   4.533
 3696SOL    HW111987   3.988   0.415   4.481
 3696SOL    HW211988   4.013   0.254   4.471
 3697SOL     OW11989   0.129   6.355   3.253
 3697SOL    HW111990   0.209   6.298   3.270
 3697SOL    HW211991   0.048   6.298   3.239
 3698SOL     OW11992   1.627   0.236   3.037
 3698SOL    HW111993   1.614   0.183   3.121
 3698SOL    HW211994   1.570   0.318   3.040
 3699SOL     OW11995   2.629   2.354   3.521
 3699SOL    HW111996   2.674   2.351   3.432
 3699SOL    HW211997   2.693   2.327   3.592
 3700SOL     OW11998   1.171   5.352   4.630
 3700SOL    HW111999   1.130   5.413   4.698
 3700SOL    HW212000   1.220   5.407   4.562
 3701SOL     OW12001   1.438   0.449   2.150
 3701SOL    HW112002   1.349   0.445   2.195
 3701SOL    HW212003   1.511   0.449   2.220
 3702SOL     OW12004   5.355   4.733   3.283
 3702SOL    HW112005   5.407   4.666   3.229
 3702SOL    HW212006   5.357   4.706   3.380
 3703SOL     OW12007   1.182   1.292   4.331
 3703SOL    HW112008   1.196   1.391   4.328
 3703SOL    HW212009   1.132   1.267   4.414
 3704SOL     OW12010   6.389   2.408   0.967
 3704SOL    HW112011   6.363   2.496   1.008
 3704SOL    HW212012   6.308   2.364   0.929
 3705SOL     OW12013   4.922   4.870   3.025
 3705SOL    HW112014   4.931   4.922   2.940
 3705SOL    HW212015   4.824   4.857   3.045
 3706SOL     OW12016   0.452   3.944   0.102
 3706SOL    HW112017   0.520   3.881   0.139
 3706SOL    HW212018   0.462   3.949   0.003
 3707SOL     OW12019   1.470   4.859   3.455
 3707SOL    HW112020   1.411   4.801   3.511
 3707SOL    HW212021   1.546   4.805   3.419
 3708SOL     OW12022   2.619   6.693   0.867
 3708SOL    HW112023   2.614   6.649   0.956
 3708SOL    HW212024   2.530   6.733   0.844
 3709SOL     OW12025   1.828   1.579   2.015
 3709SOL    HW112026   1.736   1.541   2.014
 3709SOL    HW212027   1.823   1.678   2.030
 3710SOL     OW12028   0.298   4.386   5.330
 3710SOL    HW112029   0.275   4.406   5.425
 3710SOL    HW212030   0.367   4.451   5.298
 3711SOL     OW12031   1.559   5.594   4.521
 3711SOL    HW112032   1.608   5.648   4.453
 3711SOL    HW212033   1.572   5.497   4.502
 3712SOL     OW12034   1.890   5.493   4.377
 3712SOL    HW112035   1.889   5.591   4.361
 3712SOL    HW212036   1.861   5.445   4.294
 3713SOL     OW12037   5.732   0.612   4.133
 3713SOL    HW112038   5.677   0.560   4.068
 3713SOL    HW212039   5.778   0.549   4.195
 3714SOL     OW12040   0.685   4.800   0.623
 3714SOL    HW112041   0.748   4.878   0.623
 3714SOL    HW212042   0.598   4.828   0.582
 3715SOL     OW12043   5.467   5.574   3.913
 3715SOL    HW112044   5.504   5.523   3.836
 3715SOL    HW212045   5.424   5.658   3.880
 3716SOL     OW12046   5.040   5.867   4.447
 3716SOL    HW112047   4.992   5.783   4.473
 3716SOL    HW212048   5.023   5.886   4.350
 3717SOL     OW12049   4.423   1.050   0.931
 3717SOL    HW112050   4.454   1.000   1.012
 3717SOL    HW212051   4.480   1.131   0.917
 3718SOL     OW12052   6.737   6.845   5.827
 3718SOL    HW112053   6.751   6.798   5.739
 3718SOL    HW212054   6.759   6.783   5.902
 3719SOL     OW12055   3.487   3.961   0.247
 3719SOL    HW112056   3.513   4.037   0.307
 3719SOL    HW212057   3.415   3.992   0.184
 3720SOL     OW12058   0.494   3.403   1.323
 3720SOL    HW112059   0.547   3.441   1.398
 3720SOL    HW212060   0.396   3.412   1.343
 3721SOL     OW12061   6.884   5.703   5.967
 3721SOL    HW112062   6.865   5.782   6.026
 3721SOL    HW212063   6.867   5.619   6.018
 3722SOL     OW12064   4.826   6.059   2.836
 3722SOL    HW112065   4.909   6.088   2.884
 3722SOL    HW212066   4.748   6.066   2.899
 3723SOL     OW12067   4.619   3.649   0.129
 3723SOL    HW112068   4.564   3.569   0.102
 3723SOL    HW212069   4.558   3.726   0.146
 3724SOL     OW12070   1.255   4.892   4.745
 3724SOL    HW112071   1.274   4.924   4.838
 3724SOL    HW212072   1.157   4.875   4.735
 3725SOL     OW12073   1.091   5.642   0.066
 3725SOL    HW112074   1.014   5.581   0.049
 3725SOL    HW212075   1.059   5.724   0.112
 3726SOL     OW12076   6.060   3.786   4.949
 3726SOL    HW112077   6.001   3.714   4.983
 3726SOL    HW212078   6.010   3.873   4.947
 3727SOL     OW12079   6.694   3.482   3.920
 3727SOL    HW112080   6.792   3.501   3.909
 3727SOL    HW212081   6.645   3.569   3.929
 3728SOL     OW12082   3.084   2.655   0.204
 3728SOL    HW112083   3.074   2.561   0.174
 3728SOL    HW212084   3.006   2.681   0.261
 3729SOL     OW12085   0.580   0.612   5.506
 3729SOL    HW112086   0.620   0.647   5.421
 3729SOL    HW212087   0.586   0.512   5.507
 3730SOL     OW12088   4.461   5.514   4.047
 3730SOL    HW112089   4.440   5.493   4.143
 3730SOL    HW212090   4.420   5.445   3.988
 3731SOL     OW12091   0.363   2.293   6.794
 3731SOL    HW112092   0.383   2.220   6.728
 3731SOL    HW212093   0.271   2.329   6.776
 3732SOL     OW12094   3.495   2.328   6.641
 3732SOL    HW112095   3.529   2.263   6.711
 3732SOL    HW212096   3.403   2.301   6.613
 3733SOL     OW12097   2.045   1.060   4.057
 3733SOL    HW112098   2.092   0.994   4.116
 3733SOL    HW212099   2.043   1.149   4.102
 3734SOL     OW12100   4.097   6.592   0.675
 3734SOL    HW112101   4.143   6.533   0.608
 3734SOL    HW212102   4.151   6.596   0.759
 3735SOL     OW12103   4.234   0.091   2.643
 3735SOL    HW112104   4.141   0.064   2.617
 3735SOL    HW212105   4.299   0.058   2.574
 3736SOL     OW12106   6.719   0.802   0.842
 3736SOL    HW112107   6.733   0.886   0.896
 3736SOL    HW212108   6.621   0.784   0.833
 3737SOL     OW12109   6.685   2.211   2.660
 3737SOL    HW112110   6.738   2.206   2.745
 3737SOL    HW212111   6.739   2.258   2.590
 3738SOL     OW12112   6.650   6.702   1.061
 3738SOL    HW112113   6.681   6.675   1.152
 3738SOL    HW212114   6.669   6.799   1.046
 3739SOL     OW12115   3.242   3.692   0.364
 3739SOL    HW112116   3.270   3.728   0.453
 3739SOL    HW212117   3.212   3.597   0.374
 3740SOL     OW12118   5.190   5.527   6.079
 3740SOL    HW112119   5.115   5.464   6.099
 3740SOL    HW212120   5.154   5.621   6.076
 3741SOL     OW12121   5.400   3.138   0.331
 3741SOL    HW112122   5.324   3.079   0.307
 3741SOL    HW212123   5.391   3.225   0.283
 3742SOL     OW12124   3.664   5.443   0.417
 3742SOL    HW112125   3.674   5.507   0.494
 3742SOL    HW212126   3.650   5.495   0.333
 3743SOL     OW12127   4.071   3.568   1.542
 3743SOL    HW112128   4.019   3.484   1.555
 3743SOL    HW212129   4.095   3.606   1.631
 3744SOL     OW12130   0.593   0.045   2.140
 3744SOL    HW112131   0.499   0.071   2.117
 3744SOL    HW212132   0.657   0.107   2.095
 3745SOL     OW12133   4.865   3.806   2.242
 3745SOL    HW112134   4.844   3.850   2.154
 3745SOL    HW212135   4.867   3.875   2.314
 3746SOL     OW12136   6.059   0.792   4.509
 3746SOL    HW112137   6.078   0.857   4.583
 3746SOL    HW212138   5.960   0.784   4.498
 3747SOL     OW12139   3.440   0.031   5.801
 3747SOL    HW112140   3.418   7.018   5.709
 3747SOL    HW212141   3.493   6.980   5.849
 3748SOL     OW12142   4.752   1.984   2.858
 3748SOL    HW112143   4.694   1.921   2.805
 3748SOL    HW212144   4.711   1.999   2.948
 3749SOL     OW12145   0.091   6.637   2.552
 3749SOL    HW112146   0.183   6.605   2.529
 3749SOL    HW212147   0.025   6.564   2.533
 3750SOL     OW12148   5.925   4.091   0.731
 3750SOL    HW112149   5.835   4.085   0.688
 3750SOL    HW212150   5.988   4.028   0.687
 3751SOL     OW12151   1.848   3.532   2.103
 3751SOL    HW112152   1.840   3.454   2.039
 3751SOL    HW212153   1.945   3.552   2.118
 3752SOL     OW12154   0.619   6.496   6.646
 3752SOL    HW112155   0.600   6.410   6.694
 3752SOL    HW212156   0.716   6.518   6.654
 3753SOL     OW12157   6.482   6.800   4.925
 3753SOL    HW112158   6.453   6.743   4.849
 3753SOL    HW212159   6.554   6.754   4.976
 3754SOL     OW12160   6.262   6.762   1.169
 3754SOL    HW112161   6.172   6.793   1.138
 3754SOL    HW212162   6.294   6.688   1.109
 3755SOL     OW12163   5.377   3.507   2.971
 3755SOL    HW112164   5.477   3.510   2.963
 3755SOL    HW212165   5.346   3.412   2.961
 3756SOL     OW12166   3.220   0.373   0.217
 3756SOL    HW112167   3.278   0.433   0.271
 3756SOL    HW212168   3.156   0.325   0.277
 3757SOL     OW12169   2.948   5.567   6.347
 3757SOL    HW112170   3.045   5.550   6.359
 3757SOL    HW212171   2.919   5.641   6.406
 3758SOL     OW12172   1.832   1.646   4.338
 3758SOL    HW112173   1.899   1.593   4.389
 3758SOL    HW212174   1.744   1.644   4.385
 3759SOL     OW12175   4.642   4.727   6.082
 3759SOL    HW112176   4.597   4.802   6.033
 3759SOL    HW212177   4.661   4.755   6.176
 3760SOL     OW12178   1.519   2.430   4.955
 3760SOL    HW112179   1.489   2.506   4.897
 3760SOL    HW212180   1.442   2.400   5.012
 3761SOL     OW12181   6.978   6.502   4.322
 3761SOL    HW112182   6.889   6.544   4.338
 3761SOL    HW212183   7.003   6.446   4.401
 3762SOL     OW12184   0.195   3.993   0.273
 3762SOL    HW112185   0.289   3.963   0.256
 3762SOL    HW212186   0.132   3.918   0.252
 3763SOL     OW12187   6.816   3.479   6.707
 3763SOL    HW112188   6.802   3.549   6.777
 3763SOL    HW212189   6.748   3.407   6.716
 3764SOL     OW12190   2.612   0.007   3.661
 3764SOL    HW112191   2.700   0.001   3.614
 3764SOL    HW212192   2.621   6.988   3.753
 3765SOL     OW12193   5.767   0.767   4.474
 3765SOL    HW112194   5.712   0.793   4.394
 3765SOL    HW212195   5.724   0.805   4.556
 3766SOL     OW12196   1.323   0.517   5.216
 3766SOL    HW112197   1.292   0.429   5.180
 3766SOL    HW212198   1.337   0.510   5.315
 3767SOL     OW12199   1.031   5.198   1.239
 3767SOL    HW112200   1.070   5.271   1.295
 3767SOL    HW212201   1.009   5.120   1.296
 3768SOL     OW12202   4.407   6.532   0.605
 3768SOL    HW112203   4.398   6.577   0.516
 3768SOL    HW212204   4.413   6.601   0.677
 3769SOL     OW12205   4.456   6.504   4.779
 3769SOL    HW112206   4.428   6.414   4.745
 3769SOL    HW212207   4.431   6.512   4.876
 3770SOL     OW12208   1.904   2.131   6.893
 3770SOL    HW112209   1.942   2.196   6.828
 3770SOL    HW212210   1.859   2.057   6.844
 3771SOL     OW12211   5.486   2.280   5.777
 3771SOL    HW112212   5.579   2.306   5.801
 3771SOL    HW212213   5.444   2.352   5.721
 3772SOL     OW12214   4.849   1.203   2.646
 3772SOL    HW112215   4.793   1.142   2.590
 3772SOL    HW212216   4.857   1.292   2.600
 3773SOL     OW12217   6.902   2.789   6.780
 3773SOL    HW112218   6.875   2.732   6.858
 3773SOL    HW212219   6.851   2.762   6.699
 3774SOL     OW12220   0.227   1.052   1.736
 3774SOL    HW112221   0.192   1.107   1.812
 3774SOL    HW212222   0.180   1.078   1.652
 3775SOL     OW12223   5.466   3.778   3.390
 3775SOL    HW112224   5.421   3.689   3.400
 3775SOL    HW212225   5.557   3.764   3.352
 3776SOL     OW12226   2.292   3.257   0.600
 3776SOL    HW112227   2.254   3.274   0.691
 3776SOL    HW212228   2.309   3.344   0.553
 3777SOL     OW12229   2.317   4.224   3.564
 3777SOL    HW112230   2.241   4.281   3.531
 3777SOL    HW212231   2.379   4.280   3.619
 3778SOL     OW12232   2.473   5.809   2.146
 3778SOL    HW112233   2.427   5.898   2.140
 3778SOL    HW212234   2.434   5.756   2.222
 3779SOL     OW12235   2.955   5.299   6.403
 3779SOL    HW112236   2.956   5.291   6.503
 3779SOL    HW212237   2.932   5.392   6.377
 3780SOL     OW12238   3.196   6.732   4.695
 3780SOL    HW112239   3.216   6.776   4.783
 3780SOL    HW212240   3.131   6.789   4.644
 3781SOL     OW12241   3.009   5.588   4.989
 3781SOL    HW112242   2.993   5.557   5.082
 3781SOL    HW212243   2.924   5.628   4.952
 3782SOL     OW12244   2.080   1.893   3.746
 3782SOL    HW112245   2.023   1.812   3.730
 3782SOL    HW212246   2.139   1.876   3.825
 3783SOL     OW12247   5.374   6.244   5.228
 3783SOL    HW112248   5.374   6.268   5.325
 3783SOL    HW212249   5.459   6.273   5.185
 3784SOL     OW12250   5.527   1.704   3.332
 3784SOL    HW112251   5.510   1.742   3.422
 3784SOL    HW212252   5.620   1.666   3.329
 3785SOL     OW12253   1.977   1.606   1.326
 3785SOL    HW112254   1.954   1.630   1.421
 3785SOL    HW212255   2.068   1.642   1.304
 3786SOL     OW12256   3.228   5.457   3.343
 3786SOL    HW112257   3.300   5.510   3.298
 3786SOL    HW212258   3.251   5.360   3.340
 3787SOL     OW12259   3.954   1.268   4.122
 3787SOL    HW112260   3.859   1.279   4.150
 3787SOL    HW212261   3.974   1.330   4.046
 3788SOL     OW12262   5.465   2.980   2.118
 3788SOL    HW112263   5.539   3.047   2.119
 3788SOL    HW212264   5.504   2.888   2.121
 3789SOL     OW12265   1.534   5.025   3.100
 3789SOL    HW112266   1.462   4.974   3.146
 3789SOL    HW212267   1.623   4.990   3.129
 3790SOL     OW12268   2.017   3.093   3.523
 3790SOL    HW112269   1.951   3.158   3.486
 3790SOL    HW212270   2.096   3.087   3.462
 3791SOL     OW12271   4.669   0.213   1.726
 3791SOL    HW112272   4.727   0.150   1.777
 3791SOL    HW212273   4.598   0.162   1.678
 3792SOL     OW12274   0.022   6.464   5.401
 3792SOL    HW112275   0.073   6.494   5.482
 3792SOL    HW212276   6.981   6.538   5.371
 3793SOL     OW12277   1.968   0.609   2.509
 3793SOL    HW112278   2.050   0.568   2.469
 3793SOL    HW212279   1.906   0.536   2.539
 3794SOL     OW12280   4.639   6.245   1.591
 3794SOL    HW112281   4.731   6.244   1.551
 3794SOL    HW212282   4.647   6.240   1.691
 3795SOL     OW12283   5.448   6.966   6.635
 3795SOL    HW112284   5.488   6.943   6.724
 3795SOL    HW212285   5.521   6.975   6.567
 3796SOL     OW12286   1.434   3.145   2.321
 3796SOL    HW112287   1.470   3.108   2.407
 3796SOL    HW212288   1.437   3.245   2.324
 3797SOL     OW12289   0.471   4.694   2.784
 3797SOL    HW112290   0.424   4.704   2.697
 3797SOL    HW212291   0.422   4.629   2.842
 3798SOL     OW12292   1.606   4.873   2.043
 3798SOL    HW112293   1.663   4.931   1.984
 3798SOL    HW212294   1.517   4.859   2.000
 3799SOL     OW12295   2.205   0.239   5.669
 3799SOL    HW112296   2.203   0.199   5.577
 3799SOL    HW212297   2.295   0.281   5.684
 3800SOL     OW12298   4.679   2.599   4.753
 3800SOL    HW112299   4.593   2.571   4.709
 3800SOL    HW212300   4.658   2.645   4.839
 3801SOL     OW12301   0.314   6.766   5.748
 3801SOL    HW112302   0.325   6.772   5.848
 3801SOL    HW212303   0.379   6.829   5.704
 3802SOL     OW12304   1.538   1.932   5.426
 3802SOL    HW112305   1.548   2.030   5.443
 3802SOL    HW212306   1.616   1.883   5.465
 3803SOL     OW12307   3.561   1.050   1.401
 3803SOL    HW112308   3.543   1.070   1.498
 3803SOL    HW212309   3.488   1.089   1.345
 3804SOL     OW12310   4.650   2.023   4.274
 3804SOL    HW112311   4.665   1.957   4.347
 3804SOL    HW212312   4.582   2.091   4.304
 3805SOL     OW12313   2.561   4.449   1.443
 3805SOL    HW112314   2.659   4.444   1.463
 3805SOL    HW212315   2.512   4.479   1.525
 3806SOL     OW12316   2.781   1.596   0.241
 3806SOL    HW112317   2.721   1.516   0.245
 3806SOL    HW212318   2.828   1.598   0.153
 3807SOL     OW12319   1.644   6.534   3.681
 3807SOL    HW112320   1.664   6.631   3.690
 3807SOL    HW212321   1.548   6.518   3.702
 3808SOL     OW12322   3.055   0.226   1.411
 3808SOL    HW112323   2.984   0.260   1.350
 3808SOL    HW212324   3.015   0.203   1.500
 3809SOL     OW12325   4.640   1.052   6.630
 3809SOL    HW112326   4.624   0.997   6.548
 3809SOL    HW212327   4.723   1.106   6.619
 3810SOL     OW12328   2.852   3.151   5.301
 3810SOL    HW112329   2.930   3.172   5.360
 3810SOL    HW212330   2.794   3.232   5.293
 3811SOL     OW12331   0.756   5.418   5.232
 3811SOL    HW112332   0.692   5.446   5.303
 3811SOL    HW212333   0.822   5.353   5.269
 3812SOL     OW12334   5.459   1.588   4.962
 3812SOL    HW112335   5.412   1.649   4.898
 3812SOL    HW212336   5.514   1.642   5.026
 3813SOL     OW12337   3.509   5.262   1.446
 3813SOL    HW112338   3.482   5.350   1.410
 3813SOL    HW212339   3.433   5.222   1.498
 3814SOL     OW12340   0.535   6.397   2.340
 3814SOL    HW112341   0.533   6.318   2.280
 3814SOL    HW212342   0.604   6.462   2.307
 3815SOL     OW12343   4.960   2.214   1.375
 3815SOL    HW112344   5.045   2.162   1.367
 3815SOL    HW212345   4.963   2.270   1.458
 3816SOL     OW12346   1.497   6.674   0.914
 3816SOL    HW112347   1.411   6.699   0.870
 3816SOL    HW212348   1.554   6.755   0.925
 3817SOL     OW12349   5.597   2.252   5.357
 3817SOL    HW112350   5.519   2.246   5.295
 3817SOL    HW212351   5.611   2.346   5.385
 3818SOL     OW12352   4.798   5.313   1.936
 3818SOL    HW112353   4.814   5.319   1.837
 3818SOL    HW212354   4.869   5.257   1.978
 3819SOL     OW12355   5.188   4.446   0.111
 3819SOL    HW112356   5.176   4.485   0.019
 3819SOL    HW212357   5.242   4.509   0.167
 3820SOL     OW12358   5.204   6.308   4.340
 3820SOL    HW112359   5.254   6.372   4.281
 3820SOL    HW212360   5.268   6.265   4.404
 3821SOL     OW12361   1.118   3.943   2.282
 3821SOL    HW112362   1.165   3.885   2.349
 3821SOL    HW212363   1.183   3.976   2.214
 3822SOL     OW12364   2.580   5.404   1.806
 3822SOL    HW112365   2.572   5.305   1.807
 3822SOL    HW212366   2.569   5.440   1.899
 3823SOL     OW12367   3.550   2.704   5.361
 3823SOL    HW112368   3.585   2.740   5.275
 3823SOL    HW212369   3.451   2.717   5.365
 3824SOL     OW12370   0.212   2.547   6.372
 3824SOL    HW112371   0.127   2.512   6.410
 3824SOL    HW212372   0.283   2.549   6.442
 3825SOL     OW12373   6.568   6.805   6.117
 3825SOL    HW112374   6.554   6.902   6.097
 3825SOL    HW212375   6.663   6.780   6.096
 3826SOL     OW12376   0.004   2.641   1.569
 3826SOL    HW112377   7.007   2.725   1.620
 3826SOL    HW212378   0.087   2.649   1.515
 3827SOL     OW12379   4.319   3.366   0.738
 3827SOL    HW112380   4.256   3.325   0.804
 3827SOL    HW212381   4.268   3.406   0.662
 3828SOL     OW12382   4.406   0.823   2.644
 3828SOL    HW112383   4.390   0.768   2.562
 3828SOL    HW212384   4.318   0.844   2.687
 3829SOL     OW12385   2.080   5.228   3.849
 3829SOL    HW112386   2.013   5.155   3.867
 3829SOL    HW212387   2.128   5.251   3.934
 3830SOL     OW12388   2.901   0.813   4.931
 3830SOL    HW112389   2.960   0.881   4.974
 3830SOL    HW212390   2.810   0.852   4.915
 3831SOL     OW12391   4.025   1.464   2.351
 3831SOL    HW112392   3.948   1.429   2.296
 3831SOL    HW212393   4.002   1.556   2.384
 3832SOL     OW12394   6.657   0.617   2.474
 3832SOL    HW112395   6.704   0.623   2.385
 3832SOL    HW212396   6.574   0.673   2.472
 3833SOL     OW12397   1.434   4.728   0.069
 3833SOL    HW112398   1.375   4.776   0.004
 3833SOL    HW212399   1.419   4.765   0.161
 3834SOL     OW12400   2.563   2.159   6.882
 3834SOL    HW112401   2.602   2.086   6.939
 3834SOL    HW212402   2.598   2.151   6.789
 3835SOL     OW12403   3.659   5.565   5.520
 3835SOL    HW112404   3.608   5.602   5.598
 3835SOL    HW212405   3.615   5.480   5.490
 3836SOL     OW12406   0.886   3.426   5.978
 3836SOL    HW112407   0.889   3.496   5.906
 3836SOL    HW212408   0.938   3.457   6.057
 3837SOL     OW12409   3.702   3.109   0.471
 3837SOL    HW112410   3.634   3.157   0.528
 3837SOL    HW212411   3.671   3.109   0.376
 3838SOL     OW12412   6.346   3.251   5.666
 3838SOL    HW112413   6.300   3.194   5.598
 3838SOL    HW212414   6.277   3.305   5.715
 3839SOL     OW12415   6.154   6.517   6.143
 3839SOL    HW112416   6.150   6.418   6.139
 3839SOL    HW212417   6.068   6.556   6.109
 3840SOL     OW12418   1.727   0.940   4.297
 3840SOL    HW112419   1.721   1.028   4.343
 3840SOL    HW212420   1.644   0.887   4.314
 3841SOL     OW12421   0.372   3.847   4.939
 3841SOL    HW112422   0.282   3.876   4.971
 3841SOL    HW212423   0.369   3.752   4.909
 3842SOL     OW12424   1.080   5.505   6.768
 3842SOL    HW112425   1.074   5.428   6.831
 3842SOL    HW212426   0.989   5.524   6.729
 3843SOL     OW12427   5.884   3.337   0.883
 3843SOL    HW112428   5.835   3.267   0.937
 3843SOL    HW212429   5.926   3.403   0.945
 3844SOL     OW12430   2.073   4.786   6.229
 3844SOL    HW112431   2.096   4.692   6.255
 3844SOL    HW212432   2.129   4.850   6.281
 3845SOL     OW12433   3.625   4.150   3.994
 3845SOL    HW112434   3.608   4.052   4.008
 3845SOL    HW212435   3.618   4.171   3.896
 3846SOL     OW12436   6.996   4.677   3.748
 3846SOL    HW112437   6.930   4.623   3.696
 3846SOL    HW212438   0.050   4.709   3.687
 3847SOL     OW12439   0.773   0.196   0.377
 3847SOL    HW112440   0.733   0.244   0.299
 3847SOL    HW212441   0.713   0.121   0.404
 3848SOL     OW12442   3.080   5.327   0.520
 3848SOL    HW112443   3.084   5.404   0.456
 3848SOL    HW212444   3.151   5.337   0.589
 3849SOL     OW12445   1.827   2.139   5.955
 3849SOL    HW112446   1.889   2.213   5.929
 3849SOL    HW212447   1.811   2.141   6.053
 3850SOL     OW12448   2.675   3.847   1.554
 3850SOL    HW112449   2.766   3.818   1.584
 3850SOL    HW212450   2.655   3.937   1.592
 3851SOL     OW12451   2.796   2.683   1.449
 3851SOL    HW112452   2.891   2.693   1.479
 3851SOL    HW212453   2.786   2.722   1.357
 3852SOL     OW12454   3.793   0.895   5.006
 3852SOL    HW112455   3.786   0.802   4.971
 3852SOL    HW212456   3.704   0.940   5.000
 3853SOL     OW12457   1.545   3.012   1.871
 3853SOL    HW112458   1.614   3.000   1.943
 3853SOL    HW212459   1.591   3.012   1.782
 3854SOL     OW12460   1.435   3.303   4.013
 3854SOL    HW112461   1.496   3.267   3.943
 3854SOL    HW212462   1.342   3.269   3.997
 3855SOL     OW12463   0.230   2.373   5.500
 3855SOL    HW112464   0.214   2.453   5.559
 3855SOL    HW212465   0.147   2.318   5.496
 3856SOL     OW12466   0.860   6.502   5.584
 3856SOL    HW112467   0.958   6.504   5.602
 3856SOL    HW212468   0.811   6.485   5.669
 3857SOL     OW12469   0.837   6.592   5.903
 3857SOL    HW112470   0.769   6.651   5.861
 3857SOL    HW212471   0.918   6.586   5.844
 3858SOL     OW12472   1.999   5.544   0.349
 3858SOL    HW112473   2.079   5.572   0.402
 3858SOL    HW212474   1.925   5.610   0.364
 3859SOL     OW12475   0.186   2.533   2.076
 3859SOL    HW112476   0.203   2.628   2.103
 3859SOL    HW212477   0.173   2.528   1.977
 3860SOL     OW12478   2.503   6.217   5.325
 3860SOL    HW112479   2.602   6.215   5.337
 3860SOL    HW212480   2.474   6.137   5.272
 3861SOL     OW12481   4.547   4.720   0.808
 3861SOL    HW112482   4.506   4.806   0.840
 3861SOL    HW212483   4.514   4.701   0.715
 3862SOL     OW12484   1.313   5.183   5.877
 3862SOL    HW112485   1.393   5.145   5.923
 3862SOL    HW212486   1.290   5.128   5.797
 3863SOL     OW12487   3.167   2.688   0.814
 3863SOL    HW112488   3.184   2.784   0.834
 3863SOL    HW212489   3.198   2.632   0.891
 3864SOL     OW12490   3.912   1.694   6.858
 3864SOL    HW112491   4.009   1.681   6.879
 3864SOL    HW212492   3.882   1.783   6.893
 3865SOL     OW12493   4.589   0.382   2.710
 3865SOL    HW112494   4.645   0.317   2.761
 3865SOL    HW212495   4.492   0.359   2.723
 3866SOL     OW12496   4.008   6.261   6.576
 3866SOL    HW112497   4.034   6.355   6.595
 3866SOL    HW212498   3.926   6.237   6.628
 3867SOL     OW12499   1.754   3.154   3.595
 3867SOL    HW112500   1.769   3.068   3.546
 3867SOL    HW212501   1.710   3.219   3.535
 3868SOL     OW12502   1.465   5.409   2.897
 3868SOL    HW112503   1.435   5.314   2.891
 3868SOL    HW212504   1.499   5.427   2.989
 3869SOL     OW12505   1.496   2.339   3.356
 3869SOL    HW112506   1.484   2.352   3.454
 3869SOL    HW212507   1.410   2.306   3.316
 3870SOL     OW12508   3.205   4.650   0.422
 3870SOL    HW112509   3.184   4.706   0.341
 3870SOL    HW212510   3.134   4.665   0.491
 3871SOL     OW12511   2.361   1.537   4.399
 3871SOL    HW112512   2.455   1.553   4.429
 3871SOL    HW212513   2.305   1.618   4.421
 3872SOL     OW12514   4.207   3.743   0.306
 3872SOL    HW112515   4.117   3.776   0.279
 3872SOL    HW212516   4.216   3.747   0.406
 3873SOL     OW12517   5.029   4.414   1.860
 3873SOL    HW112518   5.023   4.360   1.776
 3873SOL    HW212519   5.124   4.417   1.891
 3874SOL     OW12520   4.696   6.219   5.964
 3874SOL    HW112521   4.711   6.282   5.888
 3874SOL    HW212522   4.769   6.151   5.965
 3875SOL     OW12523   1.951   4.062   0.688
 3875SOL    HW112524   1.994   4.151   0.670
 3875SOL    HW212525   2.000   3.991   0.639
 3876SOL     OW12526   5.094   3.858   2.624
 3876SOL    HW112527   5.176   3.808   2.598
 3876SOL    HW212528   5.103   3.893   2.717
 3877SOL     OW12529   5.403   0.852   2.513
 3877SOL    HW112530   5.481   0.825   2.455
 3877SOL    HW212531   5.327   0.879   2.454
 3878SOL     OW12532   4.024   5.852   4.742
 3878SOL    HW112533   4.091   5.926   4.748
 3878SOL    HW212534   4.025   5.799   4.827
 3879SOL     OW12535   3.036   5.759   1.210
 3879SOL    HW112536   2.968   5.797   1.273
 3879SOL    HW212537   3.030   5.805   1.122
 3880SOL     OW12538   5.528   2.367   3.867
 3880SOL    HW112539   5.592   2.441   3.847
 3880SOL    HW212540   5.481   2.340   3.783
 3881SOL     OW12541   0.696   5.596   1.184
 3881SOL    HW112542   0.625   5.666   1.178
 3881SOL    HW212543   0.653   5.505   1.189
 3882SOL     OW12544   0.144   0.059   6.583
 3882SOL    HW112545   0.089   0.118   6.642
 3882SOL    HW212546   0.168   6.994   6.632
 3883SOL     OW12547   3.093   1.120   6.176
 3883SOL    HW112548   3.126   1.170   6.096
 3883SOL    HW212549   3.081   1.023   6.152
 3884SOL     OW12550   1.208   4.698   5.523
 3884SOL    HW112551   1.292   4.648   5.504
 3884SOL    HW212552   1.188   4.694   5.621
 3885SOL     OW12553   0.276   2.158   5.074
 3885SOL    HW112554   0.191   2.113   5.101
 3885SOL    HW212555   0.273   2.254   5.102
 3886SOL     OW12556   6.892   5.531   4.812
 3886SOL    HW112557   6.971   5.560   4.758
 3886SOL    HW212558   6.923   5.505   4.904
 3887SOL     OW12559   5.120   3.444   5.500
 3887SOL    HW112560   5.106   3.451   5.401
 3887SOL    HW212561   5.195   3.504   5.527
 3888SOL     OW12562   5.250   2.013   1.681
 3888SOL    HW112563   5.330   2.067   1.707
 3888SOL    HW212564   5.167   2.057   1.716
 3889SOL     OW12565   0.054   5.417   0.261
 3889SOL    HW112566   0.101   5.359   0.195
 3889SOL    HW212567   6.974   5.412   0.247
 3890SOL     OW12568   6.629   3.302   1.912
 3890SOL    HW112569   6.613   3.282   2.009
 3890SOL    HW212570   6.588   3.230   1.856
 3891SOL     OW12571   5.806   5.449   6.331
 3891SOL    HW112572   5.753   5.376   6.287
 3891SOL    HW212573   5.890   5.466   6.279
 3892SOL     OW12574   5.517   6.072   4.175
 3892SOL    HW112575   5.507   6.163   4.135
 3892SOL    HW212576   5.536   6.006   4.102
 3893SOL     OW12577   2.852   6.181   4.107
 3893SOL    HW112578   2.778   6.127   4.068
 3893SOL    HW212579   2.938   6.157   4.062
 3894SOL     OW12580   5.311   5.229   6.285
 3894SOL    HW112581   5.309   5.174   6.202
 3894SOL    HW212582   5.348   5.320   6.265
 3895SOL     OW12583   1.626   1.457   5.843
 3895SOL    HW112584   1.595   1.429   5.934
 3895SOL    HW212585   1.646   1.554   5.843
 3896SOL     OW12586   6.879   2.507   6.152
 3896SOL    HW112587   6.855   2.467   6.241
 3896SOL    HW212588   6.976   2.532   6.153
 3897SOL     OW12589   3.441   6.574   2.791
 3897SOL    HW112590   3.466   6.632   2.714
 3897SOL    HW212591   3.383   6.626   2.854
 3898SOL     OW12592   3.405   3.706   4.788
 3898SOL    HW112593   3.336   3.673   4.724
 3898SOL    HW212594   3.363   3.730   4.875
 3899SOL     OW12595   5.174   1.792   5.011
 3899SOL    HW112596   5.272   1.814   5.011
 3899SOL    HW212597   5.121   1.876   5.001
 3900SOL     OW12598   6.558   2.532   4.271
 3900SOL    HW112599   6.521   2.510   4.361
 3900SOL    HW212600   6.597   2.450   4.230
 3901SOL     OW12601   2.592   5.279   4.864
 3901SOL    HW112602   2.521   5.257   4.797
 3901SOL    HW212603   2.646   5.197   4.883
 3902SOL     OW12604   3.914   4.894   2.108
 3902SOL    HW112605   3.850   4.844   2.166
 3902SOL    HW212606   3.869   4.919   2.022
 3903SOL     OW12607   4.695   2.465   6.137
 3903SOL    HW112608   4.768   2.426   6.193
 3903SOL    HW212609   4.620   2.494   6.197
 3904SOL     OW12610   2.346   5.931   1.010
 3904SOL    HW112611   2.336   6.027   1.038
 3904SOL    HW212612   2.432   5.896   1.047
 3905SOL     OW12613   0.043   0.478   6.101
 3905SOL    HW112614   6.991   0.545   6.080
 3905SOL    HW212615   0.087   0.446   6.017
 3906SOL     OW12616   0.563   6.076   4.773
 3906SOL    HW112617   0.580   6.166   4.812
 3906SOL    HW212618   0.642   6.017   4.789
 3907SOL     OW12619   1.184   1.378   5.317
 3907SOL    HW112620   1.121   1.319   5.266
 3907SOL    HW212621   1.218   1.450   5.257
 3908SOL     OW12622   2.187   0.997   4.445
 3908SOL    HW112623   2.164   0.949   4.361
 3908SOL    HW212624   2.258   1.065   4.427
 3909SOL     OW12625   4.877   2.914   1.397
 3909SOL    HW112626   4.924   2.960   1.322
 3909SOL    HW212627   4.887   2.815   1.388
 3910SOL     OW12628   3.388   2.089   0.992
 3910SOL    HW112629   3.323   2.041   1.052
 3910SOL    HW212630   3.344   2.110   0.905
 3911SOL     OW12631   6.750   0.737   1.472
 3911SOL    HW112632   6.801   0.705   1.392
 3911SOL    HW212633   6.653   0.740   1.450
 3912SOL     OW12634   3.923   3.427   6.743
 3912SOL    HW112635   3.895   3.381   6.828
 3912SOL    HW212636   3.984   3.503   6.765
 3913SOL     OW12637   4.048   5.589   1.608
 3913SOL    HW112638   4.026   5.589   1.705
 3913SOL    HW212639   4.118   5.658   1.589
 3914SOL     OW12640   6.730   1.798   6.922
 3914SOL    HW112641   6.827   1.812   6.904
 3914SOL    HW212642   6.713   1.802   0.002
 3915SOL     OW12643   5.769   7.009   5.317
 3915SOL    HW112644   5.802   6.915   5.328
 3915SOL    HW212645   5.717   7.015   5.231
 3916SOL     OW12646   1.834   2.108   2.457
 3916SOL    HW112647   1.839   2.131   2.554
 3916SOL    HW212648   1.905   2.159   2.407
 3917SOL     OW12649   3.527   4.860   1.390
 3917SOL    HW112650   3.520   4.799   1.469
 3917SOL    HW212651   3.446   4.849   1.332
 3918SOL     OW12652   5.044   0.475   6.850
 3918SOL    HW112653   5.092   0.550   6.804
 3918SOL    HW212654   4.950   0.503   6.870
 3919SOL     OW12655   4.290   6.080   2.664
 3919SOL    HW112656   4.303   6.025   2.581
 3919SOL    HW212657   4.334   6.169   2.651
 3920SOL     OW12658   3.268   1.674   5.410
 3920SOL    HW112659   3.236   1.589   5.368
 3920SOL    HW212660   3.193   1.716   5.461
 3921SOL     OW12661   1.145   2.704   6.322
 3921SOL    HW112662   1.094   2.623   6.350
 3921SOL    HW212663   1.239   2.698   6.357
 3922SOL     OW12664   4.904   4.429   2.969
 3922SOL    HW112665   4.907   4.422   3.069
 3922SOL    HW212666   4.972   4.496   2.939
 3923SOL     OW12667   5.081   1.386   1.608
 3923SOL    HW112668   4.996   1.383   1.660
 3923SOL    HW212669   5.080   1.466   1.548
 3924SOL     OW12670   5.034   5.148   4.140
 3924SOL    HW112671   5.038   5.061   4.091
 3924SOL    HW212672   5.126   5.184   4.153
 3925SOL     OW12673   5.034   4.966   0.997
 3925SOL    HW112674   5.049   4.868   0.991
 3925SOL    HW212675   5.040   5.007   0.906
 3926SOL     OW12676   0.724   5.460   4.816
 3926SOL    HW112677   0.648   5.464   4.751
 3926SOL    HW212678   0.732   5.367   4.852
 3927SOL     OW12679   5.660   1.577   5.691
 3927SOL    HW112680   5.757   1.575   5.668
 3927SOL    HW212681   5.625   1.670   5.677
 3928SOL     OW12682   3.664   5.916   2.079
 3928SOL    HW112683   3.656   5.830   2.129
 3928SOL    HW212684   3.731   5.975   2.125
 3929SOL     OW12685   1.060   1.400   5.872
 3929SOL    HW112686   1.093   1.395   5.778
 3929SOL    HW212687   1.138   1.403   5.935
 3930SOL     OW12688   1.995   4.410   3.851
 3930SOL    HW112689   2.038   4.462   3.925
 3930SOL    HW212690   1.910   4.370   3.884
 3931SOL     OW12691   1.274   2.455   0.281
 3931SOL    HW112692   1.314   2.502   0.360
 3931SOL    HW212693   1.274   2.516   0.202
 3932SOL     OW12694   2.448   4.367   3.020
 3932SOL    HW112695   2.388   4.388   2.942
 3932SOL    HW212696   2.504   4.447   3.041
 3933SOL     OW12697   1.764   6.540   1.303
 3933SOL    HW112698   1.826   6.617   1.314
 3933SOL    HW212699   1.692   6.564   1.238
 3934SOL     OW12700   1.725   6.797   1.204
 3934SOL    HW112701   1.694   6.755   1.118
 3934SOL    HW212702   1.755   6.890   1.187
 3935SOL     OW12703   0.022   3.942   5.242
 3935SOL    HW112704   0.121   3.924   5.246
 3935SOL    HW212705   7.012   3.948   5.146
 3936SOL     OW12706   0.076   3.936   4.966
 3936SOL    HW112707   0.026   4.005   4.914
 3936SOL    HW212708   0.076   3.849   4.917
 3937SOL     OW12709   0.570   6.012   0.982
 3937SOL    HW112710   0.529   6.089   0.933
 3937SOL    HW212711   0.581   5.935   0.919
 3938SOL     OW12712   0.844   3.292   0.821
 3938SOL    HW112713   0.915   3.271   0.888
 3938SOL    HW212714   0.788   3.211   0.804
 3939SOL     OW12715   1.132   6.913   2.980
 3939SOL    HW112716   1.149   6.816   2.964
 3939SOL    HW212717   1.201   6.949   3.043
 3940SOL     OW12718   3.024   6.143   0.074
 3940SOL    HW112719   3.034   6.071   0.143
 3940SOL    HW212720   3.098   6.209   0.084
 3941SOL     OW12721   5.080   6.080   2.010
 3941SOL    HW112722   5.096   6.005   2.074
 3941SOL    HW212723   5.026   6.047   1.933
 3942SOL     OW12724   0.077   6.240   5.903
 3942SOL    HW112725   0.037   6.194   5.982
 3942SOL    HW212726   0.177   6.236   5.908
 3943SOL     OW12727   2.086   3.282   0.010
 3943SOL    HW112728   2.078   3.183   0.016
 3943SOL    HW212729   2.178   3.306   6.996
 3944SOL     OW12730   4.557   2.985   6.585
 3944SOL    HW112731   4.595   2.893   6.584
 3944SOL    HW212732   4.588   3.033   6.667
 3945SOL     OW12733   5.612   0.644   3.823
 3945SOL    HW112734   5.578   0.566   3.874
 3945SOL    HW212735   5.572   0.728   3.860
 3946SOL     OW12736   0.012   4.296   0.571
 3946SOL    HW112737   7.006   4.279   0.666
 3946SOL    HW212738   0.072   4.376   0.565
 3947SOL     OW12739   5.724   6.066   1.847
 3947SOL    HW112740   5.662   6.098   1.775
 3947SOL    HW212741   5.759   6.144   1.898
 3948SOL     OW12742   1.734   2.653   5.289
 3948SOL    HW112743   1.725   2.554   5.282
 3948SOL    HW212744   1.681   2.686   5.367
 3949SOL     OW12745   5.989   0.527   1.970
 3949SOL    HW112746   5.889   0.520   1.980
 3949SOL    HW212747   6.010   0.595   1.900
 3950SOL     OW12748   3.035   4.386   1.672
 3950SOL    HW112749   3.024   4.416   1.577
 3950SOL    HW212750   2.990   4.451   1.733
 3951SOL     OW12751   0.658   2.427   4.709
 3951SOL    HW112752   0.641   2.443   4.612
 3951SOL    HW212753   0.745   2.469   4.735
 3952SOL     OW12754   5.789   3.968   0.259
 3952SOL    HW112755   5.763   3.960   0.163
 3952SOL    HW212756   5.870   3.912   0.276
 3953SOL     OW12757   3.090   3.697   6.946
 3953SOL    HW112758   3.013   3.674   6.888
 3953SOL    HW212759   3.137   3.613   6.975
 3954SOL     OW12760   0.754   3.286   5.288
 3954SOL    HW112761   0.773   3.191   5.315
 3954SOL    HW212762   0.656   3.301   5.286
 3955SOL     OW12763   6.385   3.865   0.536
 3955SOL    HW112764   6.388   3.774   0.576
 3955SOL    HW212765   6.309   3.917   0.576
 3956SOL     OW12766   6.856   2.972   5.639
 3956SOL    HW112767   6.863   2.908   5.716
 3956SOL    HW212768   6.776   3.030   5.651
 3957SOL     OW12769   0.777   1.832   2.202
 3957SOL    HW112770   0.683   1.863   2.191
 3957SOL    HW212771   0.800   1.831   2.299
 3958SOL     OW12772   5.530   0.171   0.151
 3958SOL    HW112773   5.544   0.155   0.054
 3958SOL    HW212774   5.604   0.228   0.187
 3959SOL     OW12775   2.307   6.074   1.367
 3959SOL    HW112776   2.326   6.136   1.443
 3959SOL    HW212777   2.268   5.989   1.401
 3960SOL     OW12778   5.306   3.681   1.104
 3960SOL    HW112779   5.277   3.776   1.104
 3960SOL    HW212780   5.237   3.624   1.060
 3961SOL     OW12781   6.037   0.342   1.333
 3961SOL    HW112782   6.015   0.422   1.277
 3961SOL    HW212783   6.131   0.314   1.315
 3962SOL     OW12784   0.612   6.011   5.842
 3962SOL    HW112785   0.568   6.088   5.796
 3962SOL    HW212786   0.660   6.044   5.924
 3963SOL     OW12787   4.632   4.851   2.987
 3963SOL    HW112788   4.620   4.811   2.896
 3963SOL    HW212789   4.600   4.786   3.057
 3964SOL     OW12790   5.904   5.844   6.815
 3964SOL    HW112791   5.903   5.834   6.915
 3964SOL    HW212792   5.953   5.927   6.791
 3965SOL     OW12793   3.394   3.677   0.912
 3965SOL    HW112794   3.432   3.602   0.965
 3965SOL    HW212795   3.410   3.661   0.815
 3966SOL     OW12796   6.355   3.815   5.392
 3966SOL    HW112797   6.410   3.898   5.390
 3966SOL    HW212798   6.401   3.743   5.339
 3967SOL     OW12799   2.026   6.885   6.751
 3967SOL    HW112800   1.942   6.842   6.785
 3967SOL    HW212801   2.092   6.813   6.727
 3968SOL     OW12802   4.606   1.766   0.983
 3968SOL    HW112803   4.621   1.845   1.043
 3968SOL    HW212804   4.693   1.739   0.942
 3969SOL     OW12805   0.570   6.250   1.329
 3969SOL    HW112806   0.632   6.210   1.262
 3969SOL    HW212807   0.623   6.279   1.409
 3970SOL     OW12808   4.972   3.995   4.450
 3970SOL    HW112809   4.958   3.899   4.423
 3970SOL    HW212810   4.945   4.007   4.545
 3971SOL     OW12811   0.641   6.110   3.911
 3971SOL    HW112812   0.570   6.158   3.860
 3971SOL    HW212813   0.703   6.176   3.953
 3972SOL     OW12814   0.973   0.276   6.793
 3972SOL    HW112815   0.927   0.354   6.750
 3972SOL    HW212816   1.022   0.307   6.875
 3973SOL     OW12817   3.080   3.054   3.814
 3973SOL    HW112818   3.019   3.129   3.837
 3973SOL    HW212819   3.143   3.037   3.890
 3974SOL     OW12820   5.570   0.592   6.724
 3974SOL    HW112821   5.582   0.493   6.721
 3974SOL    HW212822   5.476   0.615   6.698
 3975SOL     OW12823   6.940   5.953   4.935
 3975SOL    HW112824   6.873   6.027   4.940
 3975SOL    HW212825   6.892   5.865   4.928
 3976SOL     OW12826   0.751   2.958   6.937
 3976SOL    HW112827   0.742   2.938   6.839
 3976SOL    HW212828   0.699   3.042   6.957
 3977SOL     OW12829   3.498   5.523   5.074
 3977SOL    HW112830   3.520   5.615   5.042
 3977SOL    HW212831   3.461   5.528   5.167
 3978SOL     OW12832   6.315   4.224   6.588
 3978SOL    HW112833   6.265   4.268   6.663
 3978SOL    HW212834   6.251   4.189   6.521
 3979SOL     OW12835   1.064   6.617   3.306
 3979SOL    HW112836   1.131   6.592   3.375
 3979SOL    HW212837   0.978   6.568   3.323
 3980SOL     OW12838   4.921   3.673   4.857
 3980SOL    HW112839   4.906   3.623   4.772
 3980SOL    HW212840   4.888   3.619   4.934
 3981SOL     OW12841   6.584   1.655   5.563
 3981SOL    HW112842   6.536   1.628   5.646
 3981SOL    HW212843   6.602   1.754   5.565
 3982SOL     OW12844   2.248   2.820   4.211
 3982SOL    HW112845   2.286   2.838   4.301
 3982SOL    HW212846   2.281   2.732   4.177
 3983SOL     OW12847   3.226   0.397   3.546
 3983SOL    HW112848   3.300   0.357   3.601
 3983SOL    HW212849   3.194   0.329   3.480
 3984SOL     OW12850   1.718   6.928   1.958
 3984SOL    HW112851   1.771   6.948   2.041
 3984SOL    HW212852   1.635   6.878   1.983
 3985SOL     OW12853   1.808   3.053   1.357
 3985SOL    HW112854   1.858   3.131   1.397
 3985SOL    HW212855   1.736   3.087   1.297
 3986SOL     OW12856   1.908   1.921   1.571
 3986SOL    HW112857   1.824   1.926   1.517
 3986SOL    HW212858   1.928   1.826   1.593
 3987SOL     OW12859   1.348   3.911   5.501
 3987SOL    HW112860   1.370   3.813   5.505
 3987SOL    HW212861   1.422   3.960   5.457
 3988SOL     OW12862   5.116   0.517   0.133
 3988SOL    HW112863   5.043   0.450   0.122
 3988SOL    HW212864   5.154   0.509   0.225
 3989SOL     OW12865   4.161   0.683   6.134
 3989SOL    HW112866   4.148   0.763   6.075
 3989SOL    HW212867   4.121   0.603   6.089
 3990SOL     OW12868   0.929   2.270   4.060
 3990SOL    HW112869   0.911   2.350   4.002
 3990SOL    HW212870   1.017   2.229   4.035
 3991SOL     OW12871   0.602   1.590   3.628
 3991SOL    HW112872   0.553   1.629   3.706
 3991SOL    HW212873   0.555   1.614   3.543
 3992SOL     OW12874   5.995   3.928   6.558
 3992SOL    HW112875   6.057   3.876   6.500
 3992SOL    HW212876   6.046   3.969   6.634
 3993SOL     OW12877   1.883   0.644   4.230
 3993SOL    HW112878   1.863   0.734   4.191
 3993SOL    HW212879   1.982   0.633   4.241
 3994SOL     OW12880   2.405   2.107   2.488
 3994SOL    HW112881   2.462   2.040   2.440
 3994SOL    HW212882   2.315   2.067   2.505
 3995SOL     OW12883   1.091   3.353   2.716
 3995SOL    HW112884   1.125   3.348   2.622
 3995SOL    HW212885   1.052   3.265   2.742
 3996SOL     OW12886   6.016   6.600   4.419
 3996SOL    HW112887   6.045   6.641   4.332
 3996SOL    HW212888   5.962   6.518   4.401
 3997SOL     OW12889   4.917   3.673   2.656
 3997SOL    HW112890   4.988   3.743   2.657
 3997SOL    HW212891   4.917   3.627   2.568
 3998SOL     OW12892   5.146   2.045   2.985
 3998SOL    HW112893   5.168   2.036   3.083
 3998SOL    HW212894   5.211   2.108   2.943
 3999SOL     OW12895   4.323   3.212   1.082
 3999SOL    HW112896   4.261   3.182   1.154
 3999SOL    HW212897   4.388   3.278   1.119
 4000SOL     OW12898   2.584   4.850   2.329
 4000SOL    HW112899   2.560   4.896   2.244
 4000SOL    HW212900   2.582   4.915   2.405
 4001SOL     OW12901   1.111   5.290   3.976
 4001SOL    HW112902   1.172   5.368   3.961
 4001SOL    HW212903   1.017   5.317   3.953
 4002SOL     OW12904   3.578   4.111   3.726
 4002SOL    HW112905   3.510   4.143   3.660
 4002SOL    HW212906   3.558   4.017   3.752
 4003SOL     OW12907   1.745   0.607   5.205
 4003SOL    HW112908   1.840   0.618   5.178
 4003SOL    HW212909   1.734   0.523   5.258
 4004SOL     OW12910   0.862   3.496   3.842
 4004SOL    HW112911   0.941   3.483   3.782
 4004SOL    HW212912   0.891   3.541   3.926
 4005SOL     OW12913   5.216   2.963   0.261
 4005SOL    HW112914   5.262   2.886   0.217
 4005SOL    HW212915   5.190   3.030   0.191
 4006SOL     OW12916   5.991   5.437   2.498
 4006SOL    HW112917   5.972   5.377   2.420
 4006SOL    HW212918   5.933   5.518   2.493
 4007SOL     OW12919   0.008   0.474   2.582
 4007SOL    HW112920   0.075   0.539   2.617
 4007SOL    HW212921   6.981   0.428   2.658
 4008SOL     OW12922   2.777   1.225   0.856
 4008SOL    HW112923   2.836   1.157   0.812
 4008SOL    HW212924   2.687   1.185   0.873
 4009SOL     OW12925   4.970   2.107   0.818
 4009SOL    HW112926   5.016   2.130   0.732
 4009SOL    HW212927   4.887   2.055   0.799
 4010SOL     OW12928   2.192   5.347   1.635
 4010SOL    HW112929   2.112   5.406   1.623
 4010SOL    HW212930   2.256   5.390   1.697
 4011SOL     OW12931   5.433   6.341   6.052
 4011SOL    HW112932   5.410   6.438   6.063
 4011SOL    HW212933   5.376   6.286   6.113
 4012SOL     OW12934   4.926   6.862   2.753
 4012SOL    HW112935   4.853   6.834   2.816
 4012SOL    HW212936   4.958   6.782   2.702
 4013SOL     OW12937   0.147   1.236   5.919
 4013SOL    HW112938   0.068   1.228   5.858
 4013SOL    HW212939   0.133   1.315   5.979
 4014SOL     OW12940   2.952   5.267   2.730
 4014SOL    HW112941   2.864   5.263   2.682
 4014SOL    HW212942   3.017   5.207   2.684
 4015SOL     OW12943   4.127   5.095   5.868
 4015SOL    HW112944   4.113   5.065   5.963
 4015SOL    HW212945   4.083   5.030   5.806
 4016SOL     OW12946   4.682   5.162   5.197
 4016SOL    HW112947   4.681   5.246   5.143
 4016SOL    HW212948   4.605   5.162   5.260
 4017SOL     OW12949   1.024   4.929   5.707
 4017SOL    HW112950   0.967   4.854   5.674
 4017SOL    HW212951   0.966   5.005   5.738
 4018SOL     OW12952   3.928   5.868   1.104
 4018SOL    HW112953   4.005   5.868   1.168
 4018SOL    HW212954   3.928   5.953   1.051
 4019SOL     OW12955   5.446   4.036   2.729
 4019SOL    HW112956   5.428   3.942   2.758
 4019SOL    HW212957   5.427   4.099   2.804
 4020SOL     OW12958   0.230   5.431   4.438
 4020SOL    HW112959   0.188   5.344   4.465
 4020SOL    HW212960   0.282   5.468   4.515
 4021SOL     OW12961   4.234   3.827   6.200
 4021SOL    HW112962   4.329   3.804   6.180
 4021SOL    HW212963   4.212   3.802   6.295
 4022SOL     OW12964   2.344   0.040   1.699
 4022SOL    HW112965   2.305   0.098   1.627
 4022SOL    HW212966   2.367   0.097   1.778
 4023SOL     OW12967   0.295   1.525   4.588
 4023SOL    HW112968   0.352   1.602   4.559
 4023SOL    HW212969   0.246   1.488   4.510
 4024SOL     OW12970   1.136   6.313   4.559
 4024SOL    HW112971   1.110   6.345   4.468
 4024SOL    HW212972   1.191   6.229   4.550
 4025SOL     OW12973   0.129   5.529   3.486
 4025SOL    HW112974   0.046   5.488   3.448
 4025SOL    HW212975   0.210   5.488   3.444
 4026SOL     OW12976   0.566   0.440   4.105
 4026SOL    HW112977   0.565   0.529   4.150
 4026SOL    HW212978   0.538   0.369   4.169
 4027SOL     OW12979   3.166   4.304   5.832
 4027SOL    HW112980   3.229   4.380   5.844
 4027SOL    HW212981   3.215   4.218   5.845
 4028SOL     OW12982   4.921   1.499   3.395
 4028SOL    HW112983   4.879   1.571   3.339
 4028SOL    HW212984   4.990   1.452   3.341
 4029SOL     OW12985   1.809   6.048   6.831
 4029SOL    HW112986   1.859   6.117   6.882
 4029SOL    HW212987   1.718   6.082   6.808
 4030SOL     OW12988   0.031   1.115   2.854
 4030SOL    HW112989   0.123   1.149   2.871
 4030SOL    HW212990   6.986   1.192   2.845
 4031SOL     OW12991   6.187   6.192   0.433
 4031SOL    HW112992   6.248   6.212   0.510
 4031SOL    HW212993   6.214   6.107   0.390
 4032SOL     OW12994   5.182   0.963   2.368
 4032SOL    HW112995   5.121   0.934   2.442
 4032SOL    HW212996   5.144   0.936   2.280
 4033SOL     OW12997   2.179   2.515   2.654
 4033SOL    HW112998   2.221   2.487   2.567
 4033SOL    HW212999   2.229   2.591   2.693
 4034SOL     OW13000   0.316   3.226   5.793
 4034SOL    HW113001   0.230   3.176   5.808
 4034SOL    HW213002   0.335   3.229   5.694
 4035SOL     OW13003   4.326   1.875   1.616
 4035SOL    HW113004   4.323   1.783   1.656
 4035SOL    HW213005   4.393   1.876   1.541
 4036SOL     OW13006   2.865   5.500   2.828
 4036SOL    HW113007   2.915   5.414   2.815
 4036SOL    HW213008   2.891   5.564   2.756
 4037SOL     OW13009   2.820   1.954   5.985
 4037SOL    HW113010   2.726   1.979   6.008
 4037SOL    HW213011   2.820   1.879   5.919
 4038SOL     OW13012   3.397   4.060   6.175
 4038SOL    HW113013   3.355   3.985   6.124
 4038SOL    HW213014   3.345   4.144   6.160
 4039SOL     OW13015   5.611   5.286   1.452
 4039SOL    HW113016   5.670   5.210   1.475
 4039SOL    HW213017   5.566   5.321   1.534
 4040SOL     OW13018   3.131   6.495   4.795
 4040SOL    HW113019   3.219   6.447   4.785
 4040SOL    HW213020   3.141   6.590   4.766
 4041SOL     OW13021   2.381   6.748   0.750
 4041SOL    HW113022   2.324   6.733   0.669
 4041SOL    HW213023   2.364   6.840   0.786
 4042SOL     OW13024   6.474   1.185   3.003
 4042SOL    HW113025   6.569   1.164   2.980
 4042SOL    HW213026   6.414   1.116   2.963
 4043SOL     OW13027   6.000   3.621   6.564
 4043SOL    HW113028   6.060   3.659   6.634
 4043SOL    HW213029   5.911   3.599   6.604
 4044SOL     OW13030   4.829   5.171   3.241
 4044SOL    HW113031   4.921   5.196   3.210
 4044SOL    HW213032   4.806   5.222   3.323
 4045SOL     OW13033   5.015   0.901   5.472
 4045SOL    HW113034   5.031   0.986   5.523
 4045SOL    HW213035   4.980   0.923   5.381
 4046SOL     OW13036   6.178   1.798   2.481
 4046SOL    HW113037   6.256   1.764   2.428
 4046SOL    HW213038   6.168   1.744   2.565
 4047SOL     OW13039   2.805   3.498   6.873
 4047SOL    HW113040   2.752   3.505   6.957
 4047SOL    HW213041   2.835   3.403   6.860
 4048SOL     OW13042   4.280   2.042   2.480
 4048SOL    HW113043   4.288   2.007   2.386
 4048SOL    HW213044   4.270   1.965   2.543
 4049SOL     OW13045   4.295   4.801   0.194
 4049SOL    HW113046   4.304   4.874   0.261
 4049SOL    HW213047   4.206   4.808   0.148
 4050SOL     OW13048   0.815   5.618   2.102
 4050SOL    HW113049   0.903   5.634   2.057
 4050SOL    HW213050   0.830   5.576   2.191
 4051SOL     OW13051   5.542   1.156   5.100
 4051SOL    HW113052   5.508   1.073   5.056
 4051SOL    HW213053   5.557   1.227   5.031
 4052SOL     OW13054   6.095   2.147   3.323
 4052SOL    HW113055   6.015   2.186   3.278
 4052SOL    HW213056   6.083   2.049   3.335
 4053SOL     OW13057   1.897   5.254   4.188
 4053SOL    HW113058   1.889   5.233   4.091
 4053SOL    HW213059   1.866   5.176   4.242
 4054SOL     OW13060   3.858   4.056   1.053
 4054SOL    HW113061   3.783   3.998   1.085
 4054SOL    HW213062   3.942   4.003   1.051
 4055SOL     OW13063   0.597   4.683   1.106
 4055SOL    HW113064   0.584   4.659   1.010
 4055SOL    HW213065   0.689   4.655   1.135
 4056SOL     OW13066   4.946   3.476   0.504
 4056SOL    HW113067   4.900   3.388   0.494
 4056SOL    HW213068   4.984   3.484   0.596
 4057SOL     OW13069   7.018   3.839   0.171
 4057SOL    HW113070   6.933   3.880   0.138
 4057SOL    HW213071   6.996   3.759   0.228
 4058SOL     OW13072   3.425   0.016   6.315
 4058SOL    HW113073   3.381   6.975   6.381
 4058SOL    HW213074   3.396   7.009   6.222
 4059SOL     OW13075   0.577   1.953   3.909
 4059SOL    HW113076   0.666   1.964   3.953
 4059SOL    HW213077   0.588   1.958   3.810
 4060SOL     OW13078   5.734   5.799   5.448
 4060SOL    HW113079   5.639   5.806   5.418
 4060SOL    HW213080   5.785   5.880   5.419
 4061SOL     OW13081   1.731   5.363   0.822
 4061SOL    HW113082   1.673   5.407   0.890
 4061SOL    HW213083   1.823   5.350   0.860
 4062SOL     OW13084   1.658   2.541   1.175
 4062SOL    HW113085   1.712   2.563   1.094
 4062SOL    HW213086   1.662   2.618   1.239
 4063SOL     OW13087   4.860   0.796   0.027
 4063SOL    HW113088   4.804   0.847   6.980
 4063SOL    HW213089   4.956   0.815   0.010
 4064SOL     OW13090   2.127   1.490   5.561
 4064SOL    HW113091   2.050   1.495   5.625
 4064SOL    HW213092   2.194   1.425   5.594
 4065SOL     OW13093   2.693   6.671   1.286
 4065SOL    HW113094   2.774   6.630   1.245
 4065SOL    HW213095   2.614   6.655   1.226
 4066SOL     OW13096   0.109   4.146   3.746
 4066SOL    HW113097   0.049   4.067   3.758
 4066SOL    HW213098   0.163   4.135   3.663
 4067SOL     OW13099   5.074   4.874   0.597
 4067SOL    HW113100   5.064   4.925   0.682
 4067SOL    HW213101   5.004   4.802   0.593
 4068SOL     OW13102   2.254   2.461   4.972
 4068SOL    HW113103   2.236   2.555   4.999
 4068SOL    HW213104   2.198   2.438   4.892
 4069SOL     OW13105   4.569   6.822   6.528
 4069SOL    HW113106   4.593   6.757   6.601
 4069SOL    HW213107   4.539   6.908   6.569
 4070SOL     OW13108   1.426   2.828   3.604
 4070SOL    HW113109   1.415   2.914   3.554
 4070SOL    HW213110   1.509   2.782   3.572
 4071SOL     OW13111   1.123   0.406   4.130
 4071SOL    HW113112   1.147   0.309   4.134
 4071SOL    HW213113   1.165   0.453   4.208
 4072SOL     OW13114   2.461   5.944   2.986
 4072SOL    HW113115   2.493   6.028   2.943
 4072SOL    HW213116   2.409   5.891   2.919
 4073SOL     OW13117   3.207   4.774   0.132
 4073SOL    HW113118   3.146   4.822   0.069
 4073SOL    HW213119   3.298   4.766   0.090
 4074SOL     OW13120   1.684   5.258   3.000
 4074SOL    HW113121   1.603   5.206   3.029
 4074SOL    HW213122   1.749   5.262   3.075
 4075SOL     OW13123   6.198   1.000   0.989
 4075SOL    HW113124   6.189   0.930   0.918
 4075SOL    HW213125   6.183   0.959   1.079
 4076SOL     OW13126   2.553   4.108   5.362
 4076SOL    HW113127   2.497   4.065   5.291
 4076SOL    HW213128   2.525   4.073   5.452
 4077SOL     OW13129   2.236   1.239   1.645
 4077SOL    HW113130   2.281   1.227   1.734
 4077SOL    HW213131   2.137   1.229   1.657
 4078SOL     OW13132   2.810   4.754   2.664
 4078SOL    HW113133   2.797   4.666   2.708
 4078SOL    HW213134   2.820   4.741   2.565
 4079SOL     OW13135   0.968   2.307   4.559
 4079SOL    HW113136   1.007   2.224   4.521
 4079SOL    HW213137   0.868   2.306   4.549
 4080SOL     OW13138   6.106   1.708   4.732
 4080SOL    HW113139   6.079   1.782   4.794
 4080SOL    HW213140   6.068   1.725   4.641
 4081SOL     OW13141   1.799   3.188   4.132
 4081SOL    HW113142   1.868   3.194   4.060
 4081SOL    HW213143   1.788   3.278   4.175
 4082SOL     OW13144   1.232   3.762   0.929
 4082SOL    HW113145   1.194   3.692   0.868
 4082SOL    HW213146   1.330   3.770   0.913
 4083SOL     OW13147   5.509   2.548   4.901
 4083SOL    HW113148   5.411   2.563   4.889
 4083SOL    HW213149   5.542   2.482   4.833
 4084SOL     OW13150   0.636   1.564   3.942
 4084SOL    HW113151   0.538   1.546   3.951
 4084SOL    HW213152   0.684   1.478   3.922
 4085SOL     OW13153   3.309   6.698   0.008
 4085SOL    HW113154   3.379   6.689   0.080
 4085SOL    HW213155   3.292   6.608   6.986
 4086SOL     OW13156   1.553   4.819   0.796
 4086SOL    HW113157   1.461   4.787   0.820
 4086SOL    HW213158   1.550   4.916   0.774
 4087SOL     OW13159   1.603   1.430   3.055
 4087SOL    HW113160   1.702   1.437   3.069
 4087SOL    HW213161   1.560   1.395   3.138
 4088SOL     OW13162   6.523   1.659   1.122
 4088SOL    HW113163   6.504   1.757   1.111
 4088SOL    HW213164   6.619   1.641   1.100
 4089SOL     OW13165   0.872   1.052   4.487
 4089SOL    HW113166   0.950   0.998   4.519
 4089SOL    HW213167   0.847   1.119   4.557
 4090SOL     OW13168   1.818   4.172   5.434
 4090SOL    HW113169   1.793   4.264   5.404
 4090SOL    HW213170   1.802   4.107   5.359
 4091SOL     OW13171   4.529   5.822   0.249
 4091SOL    HW113172   4.608   5.816   0.188
 4091SOL    HW213173   4.499   5.917   0.255
 4092SOL     OW13174   0.065   2.873   4.969
 4092SOL    HW113175   0.065   2.962   5.014
 4092SOL    HW213176   0.066   2.886   4.870
 4093SOL     OW13177   5.770   1.010   3.926
 4093SOL    HW113178   5.814   0.951   3.994
 4093SOL    HW213179   5.690   0.963   3.888
 4094SOL     OW13180   2.069   3.994   5.123
 4094SOL    HW113181   2.148   3.995   5.062
 4094SOL    HW213182   2.097   3.959   5.213
 4095SOL     OW13183   1.237   3.387   6.293
 4095SOL    HW113184   1.196   3.296   6.283
 4095SOL    HW213185   1.324   3.379   6.340
 4096SOL     OW13186   3.824   4.330   1.166
 4096SOL    HW113187   3.873   4.393   1.106
 4096SOL    HW213188   3.824   4.239   1.125
 4097SOL     OW13189   3.363   3.620   5.650
 4097SOL    HW113190   3.277   3.611   5.700
 4097SOL    HW213191   3.420   3.540   5.667
 4098SOL     OW13192   0.466   1.873   3.047
 4098SOL    HW113193   0.534   1.946   3.034
 4098SOL    HW213194   0.387   1.910   3.096
 4099SOL     OW13195   4.697   5.947   1.896
 4099SOL    HW113196   4.618   5.893   1.922
 4099SOL    HW213197   4.748   5.899   1.824
 4100SOL     OW13198   3.579   5.690   3.497
 4100SOL    HW113199   3.560   5.737   3.583
 4100SOL    HW213200   3.526   5.605   3.493
 4101SOL     OW13201   6.183   1.441   6.201
 4101SOL    HW113202   6.269   1.437   6.151
 4101SOL    HW213203   6.202   1.453   6.299
 4102SOL     OW13204   5.963   1.459   0.284
 4102SOL    HW113205   5.893   1.407   0.332
 4102SOL    HW213206   5.975   1.422   0.192
 4103SOL     OW13207   0.538   0.402   2.349
 4103SOL    HW113208   0.603   0.370   2.417
 4103SOL    HW213209   0.586   0.423   2.264
 4104SOL     OW13210   1.321   4.902   2.598
 4104SOL    HW113211   1.250   4.969   2.580
 4104SOL    HW213212   1.279   4.814   2.623
 4105SOL     OW13213   4.559   5.054   0.120
 4105SOL    HW113214   4.461   5.061   0.136
 4105SOL    HW213215   4.587   4.957   0.123
 4106SOL     OW13216   6.845   3.768   4.858
 4106SOL    HW113217   6.805   3.733   4.773
 4106SOL    HW213218   6.886   3.693   4.909
 4107SOL     OW13219   6.880   0.654   1.220
 4107SOL    HW113220   6.853   0.624   1.129
 4107SOL    HW213221   6.980   0.665   1.224
 4108SOL     OW13222   6.092   3.865   5.971
 4108SOL    HW113223   6.137   3.919   6.041
 4108SOL    HW213224   6.012   3.819   6.010
 4109SOL     OW13225   3.293   6.273   3.413
 4109SOL    HW113226   3.249   6.355   3.376
 4109SOL    HW213227   3.226   6.198   3.417
 4110SOL     OW13228   4.767   3.528   6.208
 4110SOL    HW113229   4.742   3.608   6.153
 4110SOL    HW213230   4.707   3.452   6.186
 4111SOL     OW13231   4.179   3.231   6.882
 4111SOL    HW113232   4.216   3.138   6.887
 4111SOL    HW213233   4.199   3.270   6.792
 4112SOL     OW13234   3.012   1.296   3.910
 4112SOL    HW113235   3.027   1.372   3.973
 4112SOL    HW213236   2.995   1.332   3.818
 4113SOL     OW13237   3.627   4.948   4.662
 4113SOL    HW113238   3.718   4.915   4.638
 4113SOL    HW213239   3.560   4.907   4.601
 4114SOL     OW13240   2.866   2.034   3.045
 4114SOL    HW113241   2.928   2.095   3.094
 4114SOL    HW213242   2.865   1.945   3.090
 4115SOL     OW13243   5.336   4.852   1.746
 4115SOL    HW113244   5.245   4.875   1.711
 4115SOL    HW213245   5.383   4.794   1.680
 4116SOL     OW13246   3.359   1.586   1.803
 4116SOL    HW113247   3.427   1.657   1.787
 4116SOL    HW213248   3.371   1.512   1.737
 4117SOL     OW13249   1.137   5.410   1.386
 4117SOL    HW113250   1.045   5.449   1.383
 4117SOL    HW213251   1.204   5.481   1.364
 4118SOL     OW13252   1.838   5.758   0.437
 4118SOL    HW113253   1.883   5.841   0.472
 4118SOL    HW213254   1.795   5.779   0.349
 4119SOL     OW13255   3.547   0.721   4.158
 4119SOL    HW113256   3.529   0.777   4.239
 4119SOL    HW213257   3.642   0.733   4.129
 4120SOL     OW13258   3.264   0.655   1.555
 4120SOL    HW113259   3.291   0.630   1.647
 4120SOL    HW213260   3.170   0.624   1.538
 4121SOL     OW13261   6.721   3.304   4.970
 4121SOL    HW113262   6.663   3.376   5.006
 4121SOL    HW213263   6.736   3.234   5.040
 4122SOL     OW13264   1.482   5.687   5.781
 4122SOL    HW113265   1.486   5.716   5.686
 4122SOL    HW213266   1.436   5.757   5.835
 4123SOL     OW13267   4.630   4.169   6.498
 4123SOL    HW113268   4.634   4.256   6.547
 4123SOL    HW213269   4.721   4.127   6.498
 4124SOL     OW13270   5.541   0.018   4.103
 4124SOL    HW113271   5.594   7.013   4.185
 4124SOL    HW213272   5.499   0.108   4.115
 4125SOL     OW13273   4.195   0.995   0.772
 4125SOL    HW113274   4.206   1.064   0.701
 4125SOL    HW213275   4.272   1.000   0.836
 4126SOL     OW13276   2.196   3.868   4.553
 4126SOL    HW113277   2.163   3.897   4.643
 4126SOL    HW213278   2.147   3.786   4.524
 4127SOL     OW13279   5.878   3.288   5.866
 4127SOL    HW113280   5.826   3.365   5.829
 4127SOL    HW213281   5.851   3.272   5.961
 4128SOL     OW13282   0.670   2.653   2.363
 4128SOL    HW113283   0.677   2.559   2.396
 4128SOL    HW213284   0.760   2.695   2.362
 4129SOL     OW13285   5.757   2.419   5.960
 4129SOL    HW113286   5.793   2.327   5.971
 4129SOL    HW213287   5.831   2.482   5.935
 4130SOL     OW13288   5.922   4.173   0.409
 4130SOL    HW113289   5.873   4.086   0.403
 4130SOL    HW213290   6.012   4.158   0.448
 4131SOL     OW13291   6.435   4.642   3.905
 4131SOL    HW113292   6.499   4.595   3.845
 4131SOL    HW213293   6.425   4.590   3.990
 4132SOL     OW13294   5.331   2.446   3.419
 4132SOL    HW113295   5.352   2.514   3.349
 4132SOL    HW213296   5.362   2.356   3.389
 4133SOL     OW13297   2.995   1.184   1.067
 4133SOL    HW113298   2.910   1.190   1.015
 4133SOL    HW213299   2.989   1.244   1.147
 4134SOL     OW13300   1.323   1.779   0.249
 4134SOL    HW113301   1.293   1.775   0.344
 4134SOL    HW213302   1.423   1.768   0.245
 4135SOL     OW13303   1.854   1.201   1.945
 4135SOL    HW113304   1.881   1.134   2.015
 4135SOL    HW213305   1.762   1.234   1.964
 4136SOL     OW13306   0.369   2.151   3.984
 4136SOL    HW113307   0.415   2.072   3.945
 4136SOL    HW213308   0.324   2.125   4.069
 4137SOL     OW13309   3.231   4.272   6.673
 4137SOL    HW113310   3.235   4.173   6.679
 4137SOL    HW213311   3.276   4.303   6.590
 4138SOL     OW13312   4.255   4.833   3.466
 4138SOL    HW113313   4.200   4.827   3.550
 4138SOL    HW213314   4.204   4.883   3.397
 4139SOL     OW13315   2.005   2.071   6.303
 4139SOL    HW113316   1.942   2.030   6.238
 4139SOL    HW213317   2.002   2.170   6.295
 4140SOL     OW13318   4.713   0.971   4.986
 4140SOL    HW113319   4.616   0.954   5.004
 4140SOL    HW213320   4.760   0.994   5.072
 4141SOL     OW13321   5.511   5.613   0.524
 4141SOL    HW113322   5.583   5.600   0.456
 4141SOL    HW213323   5.505   5.710   0.548
 4142SOL     OW13324   6.972   4.324   1.515
 4142SOL    HW113325   0.033   4.304   1.457
 4142SOL    HW213326   6.896   4.265   1.488
 4143SOL     OW13327   6.909   3.355   0.891
 4143SOL    HW113328   6.881   3.329   0.798
 4143SOL    HW213329   6.856   3.434   0.921
 4144SOL     OW13330   4.978   0.922   2.556
 4144SOL    HW113331   4.989   1.021   2.544
 4144SOL    HW213332   5.019   0.894   2.643
 4145SOL     OW13333   2.061   6.723   2.025
 4145SOL    HW113334   2.076   6.807   1.972
 4145SOL    HW213335   2.075   6.644   1.966
 4146SOL     OW13336   4.731   6.536   0.139
 4146SOL    HW113337   4.756   6.499   0.229
 4146SOL    HW213338   4.752   6.633   0.136
 4147SOL     OW13339   3.702   1.625   5.583
 4147SOL    HW113340   3.731   1.675   5.664
 4147SOL    HW213341   3.772   1.559   5.557
 4148SOL     OW13342   6.367   0.514   3.590
 4148SOL    HW113343   6.431   0.451   3.547
 4148SOL    HW213344   6.415   0.596   3.620
 4149SOL     OW13345   5.980   3.667   2.154
 4149SOL    HW113346   5.939   3.757   2.162
 4149SOL    HW213347   5.915   3.604   2.111
 4150SOL     OW13348   5.884   0.368   6.870
 4150SOL    HW113349   5.933   0.355   6.784
 4150SOL    HW213350   5.819   0.294   6.883
 4151SOL     OW13351   0.313   5.441   0.836
 4151SOL    HW113352   0.412   5.438   0.820
 4151SOL    HW213353   0.271   5.360   0.794
 4152SOL     OW13354   4.075   4.717   1.712
 4152SOL    HW113355   3.995   4.660   1.732
 4152SOL    HW213356   4.132   4.672   1.644
 4153SOL     OW13357   6.402   4.914   6.110
 4153SOL    HW113358   6.477   4.847   6.109
 4153SOL    HW213359   6.436   5.002   6.143
 4154SOL     OW13360   5.804   2.864   6.092
 4154SOL    HW113361   5.821   2.778   6.140
 4154SOL    HW213362   5.800   2.847   5.993
 4155SOL     OW13363   1.131   3.408   1.542
 4155SOL    HW113364   1.180   3.476   1.596
 4155SOL    HW213365   1.180   3.321   1.544
 4156SOL     OW13366   5.800   6.752   5.427
 4156SOL    HW113367   5.721   6.719   5.377
 4156SOL    HW213368   5.869   6.680   5.433
 4157SOL     OW13369   3.646   0.365   4.826
 4157SOL    HW113370   3.629   0.434   4.897
 4157SOL    HW213371   3.650   0.410   4.737
 4158SOL     OW13372   0.940   6.461   3.638
 4158SOL    HW113373   0.911   6.387   3.577
 4158SOL    HW213374   0.988   6.422   3.717
 4159SOL     OW13375   1.207   2.592   5.116
 4159SOL    HW113376   1.218   2.494   5.098
 4159SOL    HW213377   1.295   2.639   5.102
 4160SOL     OW13378   0.719   0.819   1.627
 4160SOL    HW113379   0.741   0.843   1.722
 4160SOL    HW213380   0.643   0.877   1.595
 4161SOL     OW13381   6.198   1.861   0.386
 4161SOL    HW113382   6.298   1.858   0.386
 4161SOL    HW213383   6.167   1.951   0.356
 4162SOL     OW13384   5.984   6.777   5.044
 4162SOL    HW113385   5.981   6.868   5.004
 4162SOL    HW213386   6.055   6.773   5.114
 4163SOL     OW13387   5.645   1.462   4.383
 4163SOL    HW113388   5.706   1.408   4.324
 4163SOL    HW213389   5.578   1.509   4.326
 4164SOL     OW13390   1.854   0.376   6.901
 4164SOL    HW113391   1.796   0.360   6.822
 4164SOL    HW213392   1.883   0.472   6.903
 4165SOL     OW13393   3.961   6.757   1.809
 4165SOL    HW113394   4.034   6.722   1.868
 4165SOL    HW213395   3.877   6.767   1.863
 4166SOL     OW13396   5.312   3.051   0.944
 4166SOL    HW113397   5.251   3.076   0.869
 4166SOL    HW213398   5.268   2.983   1.002
 4167SOL     OW13399   2.723   2.829   1.242
 4167SOL    HW113400   2.623   2.824   1.243
 4167SOL    HW213401   2.757   2.808   1.150
 4168SOL     OW13402   1.149   5.240   1.611
 4168SOL    HW113403   1.051   5.222   1.621
 4168SOL    HW213404   1.163   5.310   1.541
 4169SOL     OW13405   5.360   3.263   4.374
 4169SOL    HW113406   5.325   3.285   4.465
 4169SOL    HW213407   5.287   3.275   4.307
 4170SOL     OW13408   4.202   2.968   5.652
 4170SOL    HW113409   4.229   2.872   5.657
 4170SOL    HW213410   4.261   3.022   5.712
 4171SOL     OW13411   5.316   3.543   1.471
 4171SOL    HW113412   5.288   3.450   1.448
 4171SOL    HW213413   5.256   3.608   1.424
 4172SOL     OW13414   0.971   1.989   0.859
 4172SOL    HW113415   1.021   2.013   0.943
 4172SOL    HW213416   0.876   1.970   0.882
 4173SOL     OW13417   5.123   3.246   5.080
 4173SOL    HW113418   5.157   3.186   5.153
 4173SOL    HW213419   5.026   3.263   5.094
 4174SOL     OW13420   4.582   0.617   4.550
 4174SOL    HW113421   4.645   0.690   4.523
 4174SOL    HW213422   4.629   0.529   4.544
 4175SOL     OW13423   3.058   0.559   2.676
 4175SOL    HW113424   3.030   0.655   2.671
 4175SOL    HW213425   3.037   0.522   2.767
 4176SOL     OW13426   5.358   6.274   3.343
 4176SOL    HW113427   5.375   6.219   3.425
 4176SOL    HW213428   5.390   6.367   3.359
 4177SOL     OW13429   0.394   6.304   3.058
 4177SOL    HW113430   0.381   6.272   3.151
 4177SOL    HW213431   0.368   6.232   2.993
 4178SOL     OW13432   3.651   2.044   5.500
 4178SOL    HW113433   3.599   1.969   5.458
 4178SOL    HW213434   3.588   2.107   5.545
 4179SOL     OW13435   5.644   3.712   5.680
 4179SOL    HW113436   5.678   3.679   5.593
 4179SOL    HW213437   5.545   3.695   5.686
 4180SOL     OW13438   4.455   4.234   1.569
 4180SOL    HW113439   4.481   4.138   1.557
 4180SOL    HW213440   4.445   4.253   1.667
 4181SOL     OW13441   0.921   0.961   0.684
 4181SOL    HW113442   1.013   0.991   0.710
 4181SOL    HW213443   0.904   0.869   0.720
 4182SOL     OW13444   5.486   0.633   2.656
 4182SOL    HW113445   5.417   0.590   2.715
 4182SOL    HW213446   5.442   0.664   2.571
 4183SOL     OW13447   1.675   1.628   1.530
 4183SOL    HW113448   1.612   1.578   1.470
 4183SOL    HW213449   1.631   1.645   1.618
 4184SOL     OW13450   4.338   5.453   0.042
 4184SOL    HW113451   4.369   5.545   0.019
 4184SOL    HW213452   4.396   5.386   7.013
 4185SOL     OW13453   0.061   0.228   3.812
 4185SOL    HW113454   0.151   0.240   3.770
 4185SOL    HW213455   0.035   0.313   3.859
 4186SOL     OW13456   2.852   4.079   1.018
 4186SOL    HW113457   2.764   4.071   1.064
 4186SOL    HW213458   2.926   4.056   1.082
 4187SOL     OW13459   3.939   3.703   6.563
 4187SOL    HW113460   3.877   3.771   6.525
 4187SOL    HW213461   3.950   3.719   6.661
 4188SOL     OW13462   4.771   6.951   4.659
 4188SOL    HW113463   4.854   6.991   4.699
 4188SOL    HW213464   4.732   6.885   4.723
 4189SOL     OW13465   2.291   1.834   3.946
 4189SOL    HW113466   2.316   1.743   3.913
 4189SOL    HW213467   2.364   1.899   3.925
 4190SOL     OW13468   2.550   1.063   0.845
 4190SOL    HW113469   2.464   1.108   0.871
 4190SOL    HW213470   2.529   0.975   0.802
 4191SOL     OW13471   6.594   1.649   1.909
 4191SOL    HW113472   6.608   1.723   1.974
 4191SOL    HW213473   6.664   1.579   1.922
 4192SOL     OW13474   6.007   1.161   3.372
 4192SOL    HW113475   5.908   1.173   3.370
 4192SOL    HW213476   6.048   1.207   3.294
 4193SOL     OW13477   1.642   0.014   2.391
 4193SOL    HW113478   1.605   6.947   2.427
 4193SOL    HW213479   1.713   7.013   2.324
 4194SOL     OW13480   0.586   0.852   4.083
 4194SOL    HW113481   0.664   0.899   4.125
 4194SOL    HW213482   0.512   0.918   4.069
 4195SOL     OW13483   4.626   0.395   1.433
 4195SOL    HW113484   4.535   0.356   1.444
 4195SOL    HW213485   4.690   0.323   1.406
 4196SOL     OW13486   4.849   2.468   3.558
 4196SOL    HW113487   4.846   2.369   3.562
 4196SOL    HW213488   4.855   2.498   3.462
 4197SOL     OW13489   4.584   4.432   4.083
 4197SOL    HW113490   4.505   4.470   4.131
 4197SOL    HW213491   4.596   4.336   4.110
 4198SOL     OW13492   6.295   3.516   6.716
 4198SOL    HW113493   6.224   3.585   6.734
 4198SOL    HW213494   6.253   3.426   6.712
 4199SOL     OW13495   2.952   3.836   5.827
 4199SOL    HW113496   2.955   3.927   5.785
 4199SOL    HW213497   2.966   3.845   5.926
 4200SOL     OW13498   2.084   0.163   6.714
 4200SOL    HW113499   2.036   0.087   6.760
 4200SOL    HW213500   2.151   0.202   6.777
 4201SOL     OW13501   5.505   5.867   3.972
 4201SOL    HW113502   5.544   5.809   4.044
 4201SOL    HW213503   5.562   5.861   3.890
 4202SOL     OW13504   5.482   4.606   4.654
 4202SOL    HW113505   5.428   4.631   4.574
 4202SOL    HW213506   5.432   4.629   4.738
 4203SOL     OW13507   5.278   5.827   3.809
 4203SOL    HW113508   5.344   5.880   3.862
 4203SOL    HW213509   5.270   5.865   3.717
 4204SOL     OW13510   3.426   3.467   1.469
 4204SOL    HW113511   3.381   3.555   1.455
 4204SOL    HW213512   3.400   3.430   1.558
 4205SOL     OW13513   2.692   5.026   3.588
 4205SOL    HW113514   2.787   5.019   3.618
 4205SOL    HW213515   2.674   4.957   3.517
 4206SOL     OW13516   5.494   6.947   4.487
 4206SOL    HW113517   5.451   6.955   4.577
 4206SOL    HW213518   5.431   6.902   4.424
 4207SOL     OW13519   1.400   1.279   1.702
 4207SOL    HW113520   1.450   1.260   1.787
 4207SOL    HW213521   1.457   1.335   1.641
 4208SOL     OW13522   0.821   3.844   0.920
 4208SOL    HW113523   0.881   3.786   0.976
 4208SOL    HW213524   0.727   3.810   0.927
 4209SOL     OW13525   2.984   0.524   4.899
 4209SOL    HW113526   3.037   0.501   4.818
 4209SOL    HW213527   2.968   0.623   4.902
 4210SOL     OW13528   5.004   2.528   0.587
 4210SOL    HW113529   4.910   2.531   0.621
 4210SOL    HW213530   5.017   2.599   0.517
 4211SOL     OW13531   4.561   4.661   3.150
 4211SOL    HW113532   4.659   4.644   3.154
 4211SOL    HW213533   4.523   4.660   3.243
 4212SOL     OW13534   6.106   0.431   3.082
 4212SOL    HW113535   6.055   0.462   3.163
 4212SOL    HW213536   6.204   0.436   3.101
 4213SOL     OW13537   1.285   0.655   2.681
 4213SOL    HW113538   1.229   0.634   2.761
 4213SOL    HW213539   1.284   0.754   2.664
 4214SOL     OW13540   1.405   2.878   4.636
 4214SOL    HW113541   1.314   2.895   4.599
 4214SOL    HW213542   1.418   2.932   4.719
 4215SOL     OW13543   1.055   5.620   4.613
 4215SOL    HW113544   1.129   5.592   4.551
 4215SOL    HW213545   0.983   5.665   4.560
 4216SOL     OW13546   1.570   3.164   5.472
 4216SOL    HW113547   1.612   3.176   5.562
 4216SOL    HW213548   1.470   3.169   5.481
 4217SOL     OW13549   0.121   0.377   3.216
 4217SOL    HW113550   0.210   0.366   3.260
 4217SOL    HW213551   0.106   0.474   3.194
 4218SOL     OW13552   4.102   6.929   2.122
 4218SOL    HW113553   4.119   6.838   2.084
 4218SOL    HW213554   4.008   6.956   2.102
 4219SOL     OW13555   4.543   6.513   3.219
 4219SOL    HW113556   4.451   6.553   3.214
 4219SOL    HW213557   4.610   6.586   3.233
 4220SOL     OW13558   6.727   2.940   3.112
 4220SOL    HW113559   6.810   2.888   3.097
 4220SOL    HW213560   6.695   2.925   3.206
 4221SOL     OW13561   5.178   5.900   5.673
 4221SOL    HW113562   5.101   5.887   5.736
 4221SOL    HW213563   5.145   5.888   5.579
 4222SOL     OW13564   4.495   2.368   0.706
 4222SOL    HW113565   4.428   2.435   0.673
 4222SOL    HW213566   4.497   2.370   0.806
 4223SOL     OW13567   3.517   4.169   2.733
 4223SOL    HW113568   3.554   4.256   2.702
 4223SOL    HW213569   3.592   4.110   2.764
 4224SOL     OW13570   4.370   2.376   4.819
 4224SOL    HW113571   4.307   2.297   4.818
 4224SOL    HW213572   4.358   2.426   4.904
 4225SOL     OW13573   5.886   0.613   4.741
 4225SOL    HW113574   5.849   0.687   4.684
 4225SOL    HW213575   5.835   0.529   4.723
 4226SOL     OW13576   1.214   1.375   3.992
 4226SOL    HW113577   1.286   1.369   4.060
 4226SOL    HW213578   1.151   1.298   4.003
 4227SOL     OW13579   5.881   4.255   6.863
 4227SOL    HW113580   5.912   4.172   6.910
 4227SOL    HW213581   5.888   4.333   6.925
 4228SOL     OW13582   6.118   5.187   2.210
 4228SOL    HW113583   6.152   5.183   2.304
 4228SOL    HW213584   6.049   5.116   2.197
 4229SOL     OW13585   5.065   4.698   5.759
 4229SOL    HW113586   5.160   4.667   5.768
 4229SOL    HW213587   5.007   4.621   5.731
 4230SOL     OW13588   3.079   0.098   4.420
 4230SOL    HW113589   3.121   0.023   4.472
 4230SOL    HW213590   3.142   0.131   4.350
 4231SOL     OW13591   4.221   6.840   5.513
 4231SOL    HW113592   4.121   6.846   5.513
 4231SOL    HW213593   4.259   6.926   5.548
 4232SOL     OW13594   2.237   4.215   1.768
 4232SOL    HW113595   2.265   4.138   1.825
 4232SOL    HW213596   2.139   4.211   1.753
 4233SOL     OW13597   5.898   0.054   0.702
 4233SOL    HW113598   5.834   0.111   0.652
 4233SOL    HW213599   5.891   6.978   0.670
 4234SOL     OW13600   2.835   4.478   5.603
 4234SOL    HW113601   2.784   4.392   5.604
 4234SOL    HW213602   2.813   4.531   5.686
 4235SOL     OW13603   6.434   3.717   5.720
 4235SOL    HW113604   6.345   3.702   5.764
 4235SOL    HW213605   6.460   3.635   5.668
 4236SOL     OW13606   1.305   3.494   4.633
 4236SOL    HW113607   1.335   3.583   4.600
 4236SOL    HW213608   1.215   3.502   4.676
 4237SOL     OW13609   5.410   3.575   4.966
 4237SOL    HW113610   5.402   3.579   5.065
 4237SOL    HW213611   5.319   3.558   4.926
 4238SOL     OW13612   4.312   5.114   4.106
 4238SOL    HW113613   4.240   5.067   4.056
 4238SOL    HW213614   4.369   5.047   4.154
 4239SOL     OW13615   4.841   5.400   5.697
 4239SOL    HW113616   4.783   5.322   5.720
 4239SOL    HW213617   4.819   5.430   5.604
 4240SOL     OW13618   2.832   4.852   6.447
 4240SOL    HW113619   2.763   4.879   6.514
 4240SOL    HW213620   2.796   4.867   6.355
 4241SOL     OW13621   3.701   0.991   6.830
 4241SOL    HW113622   3.789   0.992   6.783
 4241SOL    HW213623   3.651   0.907   6.807
 4242SOL     OW13624   1.597   0.457   2.367
 4242SOL    HW113625   1.658   0.412   2.432
 4242SOL    HW213626   1.506   0.468   2.408
 4243SOL     OW13627   1.509   2.648   2.899
 4243SOL    HW113628   1.429   2.705   2.886
 4243SOL    HW213629   1.498   2.592   2.981
 4244SOL     OW13630   3.990   6.439   1.826
 4244SOL    HW113631   3.950   6.427   1.736
 4244SOL    HW213632   4.084   6.473   1.817
 4245SOL     OW13633   6.572   3.716   1.413
 4245SOL    HW113634   6.487   3.746   1.456
 4245SOL    HW213635   6.634   3.679   1.483
 4246SOL     OW13636   4.550   1.828   3.790
 4246SOL    HW113637   4.568   1.734   3.761
 4246SOL    HW213638   4.599   1.846   3.876
 4247SOL     OW13639   1.433   5.016   6.122
 4247SOL    HW113640   1.336   5.006   6.143
 4247SOL    HW213641   1.469   4.930   6.086
 4248SOL     OW13642   1.720   0.847   3.624
 4248SOL    HW113643   1.768   0.838   3.537
 4248SOL    HW213644   1.714   0.944   3.649
 4249SOL     OW13645   6.260   6.787   5.107
 4249SOL    HW113646   6.254   6.882   5.138
 4249SOL    HW213647   6.332   6.779   5.038
 4250SOL     OW13648   0.116   5.513   3.950
 4250SOL    HW113649   0.142   5.421   3.921
 4250SOL    HW213650   0.092   5.512   4.047
 4251SOL     OW13651   6.159   2.384   5.589
 4251SOL    HW113652   6.059   2.373   5.592
 4251SOL    HW213653   6.190   2.426   5.674
 4252SOL     OW13654   6.932   6.820   6.987
 4252SOL    HW113655   6.863   6.753   6.960
 4252SOL    HW213656   6.932   6.896   6.921
 4253SOL     OW13657   4.925   5.341   2.656
 4253SOL    HW113658   4.848   5.333   2.593
 4253SOL    HW213659   4.954   5.436   2.662
 4254SOL     OW13660   1.637   2.967   6.677
 4254SOL    HW113661   1.580   2.911   6.737
 4254SOL    HW213662   1.726   2.982   6.721
 4255SOL     OW13663   1.332   3.353   3.421
 4255SOL    HW113664   1.251   3.373   3.365
 4255SOL    HW213665   1.408   3.327   3.362
 4256SOL     OW13666   0.524   6.328   1.974
 4256SOL    HW113667   0.576   6.273   2.039
 4256SOL    HW213668   0.532   6.425   1.999
 4257SOL     OW13669   6.249   0.266   4.279
 4257SOL    HW113670   6.232   0.179   4.232
 4257SOL    HW213671   6.275   0.247   4.374
 4258SOL     OW13672   3.279   5.892   0.891
 4258SOL    HW113673   3.305   5.925   0.800
 4258SOL    HW213674   3.355   5.840   0.930
 4259SOL     OW13675   1.085   0.178   1.547
 4259SOL    HW113676   0.998   0.200   1.502
 4259SOL    HW213677   1.078   0.089   1.593
 4260SOL     OW13678   5.214   1.262   4.858
 4260SOL    HW113679   5.285   1.286   4.923
 4260SOL    HW213680   5.253   1.258   4.766
 4261SOL     OW13681   2.643   5.993   4.294
 4261SOL    HW113682   2.639   6.092   4.303
 4261SOL    HW213683   2.679   5.968   4.204
 4262SOL     OW13684   2.351   4.224   6.619
 4262SOL    HW113685   2.419   4.255   6.685
 4262SOL    HW213686   2.395   4.202   6.532
 4263SOL     OW13687   2.118   1.034   3.804
 4263SOL    HW113688   2.218   1.031   3.800
 4263SOL    HW213689   2.089   1.037   3.900
 4264SOL     OW13690   5.069   1.629   5.472
 4264SOL    HW113691   5.102   1.681   5.392
 4264SOL    HW213692   5.048   1.536   5.444
 4265SOL     OW13693   2.438   7.012   6.704
 4265SOL    HW113694   2.381   7.002   6.785
 4265SOL    HW213695   2.385   6.987   6.622
 4266SOL     OW13696   1.647   5.697   1.384
 4266SOL    HW113697   1.691   5.658   1.303
 4266SOL    HW213698   1.640   5.797   1.374
 4267SOL     OW13699   1.589   4.364   4.942
 4267SOL    HW113700   1.557   4.313   4.861
 4267SOL    HW213701   1.601   4.460   4.918
 4268SOL     OW13702   1.302   4.216   6.598
 4268SOL    HW113703   1.330   4.121   6.582
 4268SOL    HW213704   1.383   4.272   6.614
 4269SOL     OW13705   2.896   1.191   5.185
 4269SOL    HW113706   2.882   1.258   5.258
 4269SOL    HW213707   2.842   1.217   5.106
 4270SOL     OW13708   3.364   3.225   1.018
 4270SOL    HW113709   3.350   3.275   0.932
 4270SOL    HW213710   3.286   3.165   1.035
 4271SOL     OW13711   6.957   1.109   1.718
 4271SOL    HW113712   6.956   1.026   1.662
 4271SOL    HW213713   6.874   1.113   1.773
 4272SOL     OW13714   0.592   1.312   6.845
 4272SOL    HW113715   0.498   1.329   6.873
 4272SOL    HW213716   0.655   1.344   6.915
 4273SOL     OW13717   3.146   6.034   4.458
 4273SOL    HW113718   3.051   6.024   4.488
 4273SOL    HW213719   3.149   6.039   4.358
 4274SOL     OW13720   6.777   1.419   1.942
 4274SOL    HW113721   6.734   1.429   2.031
 4274SOL    HW213722   6.799   1.322   1.926
 4275SOL     OW13723   0.057   2.346   3.455
 4275SOL    HW113724   0.031   2.441   3.471
 4275SOL    HW213725   6.994   2.288   3.452
 4276SOL     OW13726   2.228   6.098   3.539
 4276SOL    HW113727   2.292   6.026   3.515
 4276SOL    HW213728   2.157   6.105   3.469
 4277SOL     OW13729   6.197   5.566   2.694
 4277SOL    HW113730   6.119   5.521   2.650
 4277SOL    HW213731   6.278   5.555   2.636
 4278SOL     OW13732   1.428   6.818   2.047
 4278SOL    HW113733   1.376   6.747   2.094
 4278SOL    HW213734   1.418   6.905   2.096
 4279SOL     OW13735   1.298   1.632   3.624
 4279SOL    HW113736   1.381   1.578   3.614
 4279SOL    HW213737   1.291   1.697   3.549
 4280SOL     OW13738   1.463   6.788   6.392
 4280SOL    HW113739   1.509   6.719   6.337
 4280SOL    HW213740   1.371   6.804   6.356
 4281SOL     OW13741   5.279   5.881   3.511
 4281SOL    HW113742   5.197   5.937   3.513
 4281SOL    HW213743   5.300   5.855   3.417
 4282SOL     OW13744   3.947   4.537   1.029
 4282SOL    HW113745   4.047   4.535   1.035
 4282SOL    HW213746   3.917   4.498   0.942
 4283SOL     OW13747   4.788   1.190   4.670
 4283SOL    HW113748   4.768   1.092   4.676
 4283SOL    HW213749   4.792   1.217   4.574
 4284SOL     OW13750   5.013   5.318   6.147
 4284SOL    HW113751   4.924   5.319   6.101
 4284SOL    HW213752   5.041   5.224   6.165
 4285SOL     OW13753   3.436   0.665   5.444
 4285SOL    HW113754   3.499   0.615   5.504
 4285SOL    HW213755   3.483   0.688   5.359
 4286SOL     OW13756   5.961   0.510   6.085
 4286SOL    HW113757   6.013   0.426   6.102
 4286SOL    HW213758   5.864   0.488   6.076
 4287SOL     OW13759   3.817   6.995   0.712
 4287SOL    HW113760   3.778   0.039   0.645
 4287SOL    HW213761   3.863   6.920   0.665
 4288SOL     OW13762   0.144   6.860   2.718
 4288SOL    HW113763   0.112   6.794   2.650
 4288SOL    HW213764   0.065   6.905   2.759
 4289SOL     OW13765   0.467   4.298   4.082
 4289SOL    HW113766   0.403   4.285   4.007
 4289SOL    HW213767   0.421   4.343   4.159
 4290SOL     OW13768   0.858   1.397   3.463
 4290SOL    HW113769   0.877   1.451   3.545
 4290SOL    HW213770   0.782   1.335   3.481
 4291SOL     OW13771   4.423   3.558   5.870
 4291SOL    HW113772   4.427   3.646   5.917
 4291SOL    HW213773   4.414   3.573   5.772
 4292SOL     OW13774   5.998   2.417   1.466
 4292SOL    HW113775   5.990   2.494   1.530
 4292SOL    HW213776   6.084   2.369   1.482
 4293SOL     OW13777   4.218   3.518   0.162
 4293SOL    HW113778   4.125   3.519   0.123
 4293SOL    HW213779   4.236   3.606   0.206
 4294SOL     OW13780   2.180   2.248   6.489
 4294SOL    HW113781   2.277   2.267   6.504
 4294SOL    HW213782   2.169   2.195   6.405
 4295SOL     OW13783   3.955   6.071   2.972
 4295SOL    HW113784   4.008   6.014   3.036
 4295SOL    HW213785   3.872   6.103   3.016
 4296SOL     OW13786   3.123   6.859   3.153
 4296SOL    HW113787   3.091   6.764   3.145
 4296SOL    HW213788   3.194   6.876   3.084
 4297SOL     OW13789   5.582   4.942   0.531
 4297SOL    HW113790   5.618   4.902   0.615
 4297SOL    HW213791   5.602   4.881   0.454
 4298SOL     OW13792   1.921   6.757   0.802
 4298SOL    HW113793   2.021   6.762   0.803
 4298SOL    HW213794   1.883   6.835   0.852
 4299SOL     OW13795   0.632   2.673   6.932
 4299SOL    HW113796   0.552   2.635   6.884
 4299SOL    HW213797   0.605   2.757   6.979
 4300SOL     OW13798   2.580   0.886   1.253
 4300SOL    HW113799   2.576   0.918   1.348
 4300SOL    HW213800   2.502   0.923   1.202
 4301SOL     OW13801   2.723   6.306   0.263
 4301SOL    HW113802   2.633   6.350   0.265
 4301SOL    HW213803   2.713   6.213   0.228
 4302SOL     OW13804   2.255   5.386   5.807
 4302SOL    HW113805   2.243   5.481   5.777
 4302SOL    HW213806   2.168   5.338   5.802
 4303SOL     OW13807   5.819   5.596   2.868
 4303SOL    HW113808   5.774   5.510   2.891
 4303SOL    HW213809   5.917   5.579   2.853
 4304SOL     OW13810   3.564   3.651   1.238
 4304SOL    HW113811   3.546   3.601   1.153
 4304SOL    HW213812   3.478   3.660   1.289
 4305SOL     OW13813   1.128   6.649   5.510
 4305SOL    HW113814   1.218   6.691   5.522
 4305SOL    HW213815   1.134   6.573   5.446
 4306SOL     OW13816   5.780   4.290   5.322
 4306SOL    HW113817   5.764   4.274   5.224
 4306SOL    HW213818   5.845   4.365   5.333
 4307SOL     OW13819   0.380   1.315   6.218
 4307SOL    HW113820   0.433   1.384   6.168
 4307SOL    HW213821   0.431   1.229   6.220
 4308SOL     OW13822   4.840   5.908   6.494
 4308SOL    HW113823   4.848   5.977   6.422
 4308SOL    HW213824   4.744   5.883   6.505
 4309SOL     OW13825   0.721   1.851   0.664
 4309SOL    HW113826   0.705   1.923   0.596
 4309SOL    HW213827   0.781   1.781   0.625
 4310SOL     OW13828   6.808   2.352   2.469
 4310SOL    HW113829   6.805   2.450   2.448
 4310SOL    HW213830   6.800   2.299   2.385
 4311SOL     OW13831   0.427   0.070   1.770
 4311SOL    HW113832   0.497   0.017   1.723
 4311SOL    HW213833   0.380   0.011   1.836
 4312SOL     OW13834   6.988   4.987   2.434
 4312SOL    HW113835   0.059   5.021   2.461
 4312SOL    HW213836   6.925   4.990   2.512
 4313SOL     OW13837   0.316   2.809   6.631
 4313SOL    HW113838   0.352   2.720   6.602
 4313SOL    HW213839   0.383   2.854   6.690
 4314SOL     OW13840   0.652   1.176   5.943
 4314SOL    HW113841   0.748   1.159   5.966
 4314SOL    HW213842   0.630   1.131   5.856
 4315SOL     OW13843   2.811   1.055   4.498
 4315SOL    HW113844   2.788   0.960   4.474
 4315SOL    HW213845   2.735   1.115   4.472
 4316SOL     OW13846   5.071   5.962   1.195
 4316SOL    HW113847   5.064   5.995   1.289
 4316SOL    HW213848   4.979   5.948   1.157
 4317SOL     OW13849   4.778   0.842   5.885
 4317SOL    HW113850   4.799   0.834   5.788
 4317SOL    HW213851   4.684   0.815   5.901
 4318SOL     OW13852   0.951   0.138   4.327
 4318SOL    HW113853   1.023   0.084   4.283
 4318SOL    HW213854   0.904   0.194   4.259
 4319SOL     OW13855   1.635   4.686   2.817
 4319SOL    HW113856   1.677   4.631   2.745
 4319SOL    HW213857   1.602   4.772   2.777
 4320SOL     OW13858   3.359   6.928   1.223
 4320SOL    HW113859   3.447   6.882   1.231
 4320SOL    HW213860   3.286   6.861   1.209
 4321SOL     OW13861   6.702   6.804   2.879
 4321SOL    HW113862   6.778   6.869   2.883
 4321SOL    HW213863   6.725   6.730   2.816
 4322SOL     OW13864   1.561   2.805   4.924
 4322SOL    HW113865   1.655   2.772   4.913
 4322SOL    HW213866   1.558   2.904   4.911
 4323SOL     OW13867   4.321   5.037   0.342
 4323SOL    HW113868   4.382   5.107   0.379
 4323SOL    HW213869   4.287   5.067   0.252
 4324SOL     OW13870   0.723   4.564   5.983
 4324SOL    HW113871   0.686   4.491   5.925
 4324SOL    HW213872   0.752   4.640   5.926
 4325SOL     OW13873   2.270   0.652   2.768
 4325SOL    HW113874   2.342   0.675   2.702
 4325SOL    HW213875   2.202   0.726   2.770
 4326SOL     OW13876   5.166   1.819   2.609
 4326SOL    HW113877   5.134   1.752   2.542
 4326SOL    HW213878   5.140   1.911   2.579
 4327SOL     OW13879   2.704   6.191   3.534
 4327SOL    HW113880   2.704   6.153   3.442
 4327SOL    HW213881   2.694   6.291   3.529
 4328SOL     OW13882   6.789   0.161   4.263
 4328SOL    HW113883   6.795   0.070   4.223
 4328SOL    HW213884   6.694   0.192   4.260
 4329SOL     OW13885   0.193   1.725   6.531
 4329SOL    HW113886   0.201   1.631   6.498
 4329SOL    HW213887   0.101   1.741   6.567
 4330SOL     OW13888   3.101   4.913   4.459
 4330SOL    HW113889   3.075   5.001   4.420
 4330SOL    HW213890   3.134   4.926   4.553
 4331SOL     OW13891   5.863   1.337   2.428
 4331SOL    HW113892   5.814   1.313   2.345
 4331SOL    HW213893   5.953   1.374   2.403
 4332SOL     OW13894   0.628   5.372   2.080
 4332SOL    HW113895   0.680   5.446   2.037
 4332SOL    HW213896   0.688   5.293   2.091
 4333SOL     OW13897   4.147   2.050   5.885
 4333SOL    HW113898   4.137   2.109   5.804
 4333SOL    HW213899   4.082   2.079   5.955
 4334SOL     OW13900   0.228   2.986   4.635
 4334SOL    HW113901   0.255   3.076   4.670
 4334SOL    HW213902   0.130   2.972   4.652
 4335SOL     OW13903   2.622   3.745   1.312
 4335SOL    HW113904   2.525   3.739   1.287
 4335SOL    HW213905   2.630   3.779   1.405
 4336SOL     OW13906   2.493   5.719   5.644
 4336SOL    HW113907   2.425   5.693   5.713
 4336SOL    HW213908   2.450   5.716   5.553
 4337SOL     OW13909   1.090   5.245   3.690
 4337SOL    HW113910   1.013   5.287   3.642
 4337SOL    HW213911   1.081   5.261   3.789
 4338SOL     OW13912   3.638   1.127   5.807
 4338SOL    HW113913   3.702   1.189   5.760
 4338SOL    HW213914   3.580   1.081   5.739
 4339SOL     OW13915   3.921   3.937   6.172
 4339SOL    HW113916   3.833   3.974   6.200
 4339SOL    HW213917   3.917   3.837   6.172
 4340SOL     OW13918   6.262   4.072   1.141
 4340SOL    HW113919   6.249   3.973   1.140
 4340SOL    HW213920   6.206   4.114   1.070
 4341SOL     OW13921   6.338   6.908   2.414
 4341SOL    HW113922   6.298   6.838   2.473
 4341SOL    HW213923   6.413   6.867   2.361
 4342SOL     OW13924   4.923   3.984   2.423
 4342SOL    HW113925   4.966   3.939   2.501
 4342SOL    HW213926   4.866   4.060   2.455
 4343SOL     OW13927   4.013   6.835   5.869
 4343SOL    HW113928   4.002   6.832   5.968
 4343SOL    HW213929   4.058   6.921   5.843
 4344SOL     OW13930   6.919   3.446   3.724
 4344SOL    HW113931   6.835   3.493   3.697
 4344SOL    HW213932   6.922   3.355   3.684
 4345SOL     OW13933   3.052   3.066   2.677
 4345SOL    HW113934   2.998   3.150   2.684
 4345SOL    HW213935   3.010   3.004   2.610
 4346SOL     OW13936   1.333   3.161   2.725
 4346SOL    HW113937   1.316   3.161   2.824
 4346SOL    HW213938   1.395   3.236   2.703
 4347SOL     OW13939   6.136   5.922   0.331
 4347SOL    HW113940   6.124   5.856   0.405
 4347SOL    HW213941   6.128   5.876   0.243
 4348SOL     OW13942   5.491   5.041   3.813
 4348SOL    HW113943   5.558   5.082   3.751
 4348SOL    HW213944   5.485   5.096   3.896
 4349SOL     OW13945   0.255   3.538   4.032
 4349SOL    HW113946   0.160   3.517   4.008
 4349SOL    HW213947   0.304   3.453   4.052
 4350SOL     OW13948   3.830   1.558   4.780
 4350SOL    HW113949   3.862   1.602   4.864
 4350SOL    HW213950   3.909   1.533   4.723
 4351SOL     OW13951   1.098   5.995   0.669
 4351SOL    HW113952   1.165   6.068   0.655
 4351SOL    HW213953   1.139   5.922   0.723
 4352SOL     OW13954   3.540   4.342   1.075
 4352SOL    HW113955   3.633   4.332   1.111
 4352SOL    HW213956   3.540   4.319   0.977
 4353SOL     OW13957   2.746   2.751   0.973
 4353SOL    HW113958   2.693   2.678   1.016
 4353SOL    HW213959   2.769   2.724   0.879
 4354SOL     OW13960   5.854   6.935   3.196
 4354SOL    HW113961   5.914   7.005   3.235
 4354SOL    HW213962   5.774   6.923   3.255
 4355SOL     OW13963   1.857   5.599   2.879
 4355SOL    HW113964   1.869   5.572   2.974
 4355SOL    HW213965   1.923   5.550   2.821
 4356SOL     OW13966   5.632   2.514   5.486
 4356SOL    HW113967   5.555   2.572   5.515
 4356SOL    HW213968   5.672   2.551   5.402
 4357SOL     OW13969   5.788   0.514   2.170
 4357SOL    HW113970   5.691   0.502   2.146
 4357SOL    HW213971   5.824   0.427   2.205
 4358SOL     OW13972   2.661   0.174   0.128
 4358SOL    HW113973   2.584   0.222   0.087
 4358SOL    HW213974   2.646   0.075   0.121
 4359SOL     OW13975   2.677   1.835   0.325
 4359SOL    HW113976   2.715   1.748   0.294
 4359SOL    HW213977   2.595   1.857   0.270
 4360SOL     OW13978   1.970   4.129   3.981
 4360SOL    HW113979   1.942   4.051   4.037
 4360SOL    HW213980   2.040   4.100   3.916
 4361SOL     OW13981   6.482   1.832   0.780
 4361SOL    HW113982   6.449   1.739   0.791
 4361SOL    HW213983   6.574   1.840   0.819
 4362SOL     OW13984   0.984   5.464   3.316
 4362SOL    HW113985   0.955   5.377   3.356
 4362SOL    HW213986   0.968   5.538   3.383
 4363SOL     OW13987   4.657   0.957   2.577
 4363SOL    HW113988   4.720   0.899   2.630
 4363SOL    HW213989   4.565   0.917   2.579
 4364SOL     OW13990   4.126   3.691   2.585
 4364SOL    HW113991   4.214   3.669   2.627
 4364SOL    HW213992   4.060   3.717   2.656
 4365SOL     OW13993   2.398   1.978   1.525
 4365SOL    HW113994   2.338   1.980   1.445
 4365SOL    HW213995   2.494   1.979   1.495
 4366SOL     OW13996   4.357   6.265   4.691
 4366SOL    HW113997   4.288   6.193   4.682
 4366SOL    HW213998   4.374   6.305   4.601
 4367SOL     OW13999   2.639   5.787   3.155
 4367SOL    HW114000   2.707   5.754   3.090
 4367SOL    HW214001   2.562   5.827   3.105
 4368SOL     OW14002   4.879   4.078   3.458
 4368SOL    HW114003   4.951   4.147   3.468
 4368SOL    HW214004   4.791   4.123   3.444
 4369SOL     OW14005   4.771   4.797   3.357
 4369SOL    HW114006   4.865   4.793   3.325
 4369SOL    HW214007   4.758   4.731   3.431
 4370SOL     OW14008   3.829   4.576   1.716
 4370SOL    HW114009   3.807   4.479   1.708
 4370SOL    HW214010   3.761   4.622   1.773
 4371SOL     OW14011   2.946   1.765   0.750
 4371SOL    HW114012   2.940   1.686   0.690
 4371SOL    HW214013   3.004   1.743   0.829
 4372SOL     OW14014   1.768   3.303   4.778
 4372SOL    HW114015   1.809   3.232   4.722
 4372SOL    HW214016   1.687   3.340   4.733
 4373SOL     OW14017   3.553   1.018   6.506
 4373SOL    HW114018   3.499   1.101   6.523
 4373SOL    HW214019   3.642   1.026   6.552
 4374SOL     OW14020   2.258   0.191   1.499
 4374SOL    HW114021   2.221   0.267   1.552
 4374SOL    HW214022   2.211   0.186   1.411
 4375SOL     OW14023   4.391   1.807   4.365
 4375SOL    HW114024   4.468   1.752   4.398
 4375SOL    HW214025   4.323   1.815   4.438
 4376SOL     OW14026   1.818   6.357   6.804
 4376SOL    HW114027   1.764   6.390   6.726
 4376SOL    HW214028   1.757   6.328   6.877
 4377SOL     OW14029   5.618   6.922   6.429
 4377SOL    HW114030   5.707   6.932   6.385
 4377SOL    HW214031   5.546   6.927   6.359
 4378SOL     OW14032   2.798   5.561   2.210
 4378SOL    HW114033   2.739   5.612   2.272
 4378SOL    HW214034   2.829   5.477   2.254
 4379SOL     OW14035   1.345   0.386   1.701
 4379SOL    HW114036   1.262   0.425   1.740
 4379SOL    HW214037   1.420   0.451   1.708
 4380SOL     OW14038   2.130   5.121   4.555
 4380SOL    HW114039   2.117   5.075   4.643
 4380SOL    HW214040   2.086   5.211   4.558
 4381SOL     OW14041   4.624   6.162   5.569
 4381SOL    HW114042   4.657   6.115   5.487
 4381SOL    HW214043   4.600   6.256   5.547
 4382SOL     OW14044   4.913   3.597   3.465
 4382SOL    HW114045   4.869   3.605   3.555
 4382SOL    HW214046   4.939   3.688   3.433
 4383SOL     OW14047   1.518   2.319   0.130
 4383SOL    HW114048   1.546   2.226   0.152
 4383SOL    HW214049   1.450   2.350   0.198
 4384SOL     OW14050   3.715   6.150   1.040
 4384SOL    HW114051   3.661   6.067   1.056
 4384SOL    HW214052   3.668   6.229   1.079
 4385SOL     OW14053   6.970   1.681   2.568
 4385SOL    HW114054   6.939   1.748   2.502
 4385SOL    HW214055   6.997   1.727   2.653
 4386SOL     OW14056   1.306   3.925   6.573
 4386SOL    HW114057   1.331   3.887   6.662
 4386SOL    HW214058   1.208   3.909   6.557
 4387SOL     OW14059   6.908   3.225   2.099
 4387SOL    HW114060   6.899   3.134   2.057
 4387SOL    HW214061   6.821   3.273   2.091
 4388SOL     OW14062   2.940   1.467   5.284
 4388SOL    HW114063   2.963   1.490   5.379
 4388SOL    HW214064   2.841   1.473   5.272
 4389SOL     OW14065   4.722   2.339   2.560
 4389SOL    HW114066   4.671   2.262   2.521
 4389SOL    HW214067   4.772   2.308   2.641
 4390SOL     OW14068   4.531   2.433   1.955
 4390SOL    HW114069   4.557   2.352   2.006
 4390SOL    HW214070   4.578   2.513   1.992
 4391SOL     OW14071   0.987   5.942   1.014
 4391SOL    HW114072   1.030   6.019   1.060
 4391SOL    HW214073   0.963   5.968   0.920
 4392SOL     OW14074   5.523   3.539   4.736
 4392SOL    HW114075   5.475   3.463   4.691
 4392SOL    HW214076   5.479   3.560   4.823
 4393SOL     OW14077   4.902   6.690   3.423
 4393SOL    HW114078   4.978   6.633   3.390
 4393SOL    HW214079   4.885   6.670   3.520
 4394SOL     OW14080   5.047   0.995   2.000
 4394SOL    HW114081   4.965   1.016   2.053
 4394SOL    HW214082   5.061   0.896   1.999
 4395SOL     OW14083   4.593   1.534   1.788
 4395SOL    HW114084   4.586   1.629   1.758
 4395SOL    HW214085   4.520   1.481   1.745
 4396SOL     OW14086   1.393   0.966   3.924
 4396SOL    HW114087   1.468   0.902   3.912
 4396SOL    HW214088   1.308   0.916   3.942
 4397SOL     OW14089   6.405   0.669   6.162
 4397SOL    HW114090   6.458   0.723   6.097
 4397SOL    HW214091   6.308   0.686   6.149
 4398SOL     OW14092   6.248   4.656   4.219
 4398SOL    HW114093   6.217   4.629   4.310
 4398SOL    HW214094   6.315   4.589   4.186
 4399SOL     OW14095   2.410   1.710   1.965
 4399SOL    HW114096   2.419   1.640   1.895
 4399SOL    HW214097   2.314   1.724   1.987
 4400SOL     OW14098   3.398   5.921   4.518
 4400SOL    HW114099   3.313   5.973   4.527
 4400SOL    HW214100   3.449   5.955   4.439
 4401SOL     OW14101   5.219   6.632   4.484
 4401SOL    HW114102   5.250   6.577   4.407
 4401SOL    HW214103   5.123   6.659   4.470
 4402SOL     OW14104   6.641   0.586   3.419
 4402SOL    HW114105   6.651   0.590   3.519
 4402SOL    HW214106   6.702   0.515   3.383
 4403SOL     OW14107   0.707   6.803   2.779
 4403SOL    HW114108   0.665   6.881   2.824
 4403SOL    HW214109   0.656   6.780   2.696
 4404SOL     OW14110   1.550   4.083   3.569
 4404SOL    HW114111   1.510   4.120   3.485
 4404SOL    HW214112   1.543   3.984   3.568
 4405SOL     OW14113   3.920   4.277   5.722
 4405SOL    HW114114   3.884   4.318   5.805
 4405SOL    HW214115   3.938   4.180   5.737
 4406SOL     OW14116   5.126   3.695   1.349
 4406SOL    HW114117   5.122   3.794   1.333
 4406SOL    HW214118   5.096   3.646   1.267
 4407SOL     OW14119   6.735   6.635   6.822
 4407SOL    HW114120   6.651   6.589   6.849
 4407SOL    HW214121   6.713   6.719   6.773
 4408SOL     OW14122   5.012   6.173   0.073
 4408SOL    HW114123   4.927   6.179   0.126
 4408SOL    HW214124   5.076   6.111   0.119
 4409SOL     OW14125   3.163   1.570   2.324
 4409SOL    HW114126   3.202   1.632   2.257
 4409SOL    HW214127   3.162   1.614   2.414
 4410SOL     OW14128   2.239   5.386   2.002
 4410SOL    HW114129   2.254   5.451   1.928
 4410SOL    HW214130   2.244   5.292   1.967
 4411SOL     OW14131   3.892   3.323   2.301
 4411SOL    HW114132   3.896   3.234   2.347
 4411SOL    HW214133   3.966   3.381   2.335
 4412SOL     OW14134   3.729   1.747   6.249
 4412SOL    HW114135   3.642   1.715   6.213
 4412SOL    HW214136   3.712   1.804   6.330
 4413SOL     OW14137   3.577   5.453   4.315
 4413SOL    HW114138   3.638   5.506   4.256
 4413SOL    HW214139   3.513   5.515   4.361
 4414SOL     OW14140   3.731   5.094   2.273
 4414SOL    HW114141   3.663   5.021   2.275
 4414SOL    HW214142   3.684   5.182   2.276
 4415SOL     OW14143   4.798   2.335   0.285
 4415SOL    HW114144   4.833   2.262   0.345
 4415SOL    HW214145   4.698   2.334   0.285
 4416SOL     OW14146   4.083   0.982   3.517
 4416SOL    HW114147   4.058   0.922   3.594
 4416SOL    HW214148   4.051   1.075   3.537
 4417SOL     OW14149   0.380   0.452   1.285
 4417SOL    HW114150   0.376   0.503   1.199
 4417SOL    HW214151   0.405   0.514   1.360
 4418SOL     OW14152   3.769   0.330   3.358
 4418SOL    HW114153   3.786   0.240   3.398
 4418SOL    HW214154   3.856   0.374   3.335
 4419SOL     OW14155   0.136   5.215   0.094
 4419SOL    HW114156   0.099   5.180   0.008
 4419SOL    HW214157   0.232   5.189   0.102
 4420SOL     OW14158   4.890   1.283   6.417
 4420SOL    HW114159   4.865   1.367   6.370
 4420SOL    HW214160   4.851   1.204   6.369
 4421SOL     OW14161   1.990   1.463   3.564
 4421SOL    HW114162   1.987   1.363   3.572
 4421SOL    HW214163   2.056   1.489   3.494
 4422SOL     OW14164   2.211   3.734   5.896
 4422SOL    HW114165   2.282   3.723   5.828
 4422SOL    HW214166   2.232   3.679   5.977
 4423SOL     OW14167   0.854   1.687   6.589
 4423SOL    HW114168   0.886   1.671   6.682
 4423SOL    HW214169   0.798   1.609   6.559
 4424SOL     OW14170   0.145   6.631   3.493
 4424SOL    HW114171   0.171   6.640   3.396
 4424SOL    HW214172   0.067   6.570   3.501
 4425SOL     OW14173   4.604   4.510   6.982
 4425SOL    HW114174   4.621   4.446   6.906
 4425SOL    HW214175   4.507   4.533   6.984
 4426SOL     OW14176   0.909   0.820   5.410
 4426SOL    HW114177   0.865   0.829   5.499
 4426SOL    HW214178   0.992   0.876   5.409
 4427SOL     OW14179   0.898   6.989   3.575
 4427SOL    HW114180   0.917   6.909   3.632
 4427SOL    HW214181   0.817   0.018   3.611
 4428SOL     OW14182   2.881   5.758   3.430
 4428SOL    HW114183   2.854   5.784   3.337
 4428SOL    HW214184   2.932   5.673   3.428
 4429SOL     OW14185   4.166   0.044   3.134
 4429SOL    HW114186   4.224   7.010   3.196
 4429SOL    HW214187   4.203   0.037   3.041
 4430SOL     OW14188   1.291   0.984   1.751
 4430SOL    HW114189   1.298   1.081   1.728
 4430SOL    HW214190   1.196   0.955   1.744
 4431SOL     OW14191   1.665   1.891   2.965
 4431SOL    HW114192   1.605   1.822   3.006
 4431SOL    HW214193   1.718   1.935   3.037
 4432SOL     OW14194   3.024   3.473   2.943
 4432SOL    HW114195   3.094   3.520   2.891
 4432SOL    HW214196   3.029   3.500   3.039
 4433SOL     OW14197   6.354   0.519   3.137
 4433SOL    HW114198   6.450   0.495   3.123
 4433SOL    HW214199   6.346   0.579   3.216
 4434SOL     OW14200   5.311   2.217   4.164
 4434SOL    HW114201   5.217   2.186   4.151
 4434SOL    HW214202   5.314   2.283   4.239
 4435SOL     OW14203   3.649   2.912   1.834
 4435SOL    HW114204   3.622   2.831   1.783
 4435SOL    HW214205   3.609   2.910   1.925
 4436SOL     OW14206   5.145   0.767   6.992
 4436SOL    HW114207   5.113   0.682   0.017
 4436SOL    HW214208   5.245   0.766   6.984
 4437SOL     OW14209   3.676   6.943   4.501
 4437SOL    HW114210   3.649   0.020   4.484
 4437SOL    HW214211   3.736   6.939   4.581
 4438SOL     OW14212   3.874   3.670   6.182
 4438SOL    HW114213   3.874   3.582   6.135
 4438SOL    HW214214   3.786   3.683   6.229
 4439SOL     OW14215   2.169   5.289   2.266
 4439SOL    HW114216   2.130   5.372   2.306
 4439SOL    HW214217   2.201   5.308   2.173
 4440SOL     OW14218   0.178   0.727   6.162
 4440SOL    HW114219   0.138   0.728   6.254
 4440SOL    HW214220   0.154   0.641   6.117
 4441SOL     OW14221   5.545   2.581   2.865
 4441SOL    HW114222   5.458   2.628   2.852
 4441SOL    HW214223   5.562   2.520   2.788
 4442SOL     OW14224   2.588   6.429   2.685
 4442SOL    HW114225   2.656   6.424   2.758
 4442SOL    HW214226   2.497   6.444   2.725
 4443SOL     OW14227   2.357   1.561   5.416
 4443SOL    HW114228   2.332   1.647   5.373
 4443SOL    HW214229   2.286   1.534   5.481
 4444SOL     OW14230   5.086   0.512   2.478
 4444SOL    HW114231   5.046   0.423   2.501
 4444SOL    HW214232   5.014   0.579   2.466
 4445SOL     OW14233   1.658   1.397   6.480
 4445SOL    HW114234   1.697   1.391   6.572
 4445SOL    HW214235   1.561   1.422   6.486
 4446SOL     OW14236   6.423   6.011   4.091
 4446SOL    HW114237   6.338   5.982   4.135
 4446SOL    HW214238   6.403   6.081   4.022
 4447SOL     OW14239   4.867   3.285   5.131
 4447SOL    HW114240   4.841   3.281   5.228
 4447SOL    HW214241   4.856   3.379   5.097
 4448SOL     OW14242   2.978   2.864   6.113
 4448SOL    HW114243   3.070   2.857   6.151
 4448SOL    HW214244   2.970   2.948   6.060
 4449SOL     OW14245   0.919   1.590   5.009
 4449SOL    HW114246   0.833   1.554   5.043
 4449SOL    HW214247   0.918   1.592   4.909
 4450SOL     OW14248   3.758   3.808   3.376
 4450SOL    HW114249   3.745   3.907   3.376
 4450SOL    HW214250   3.733   3.771   3.287
 4451SOL     OW14251   6.145   4.392   2.220
 4451SOL    HW114252   6.198   4.424   2.298
 4451SOL    HW214253   6.204   4.383   2.140
 4452SOL     OW14254   6.294   5.554   6.265
 4452SOL    HW114255   6.299   5.502   6.350
 4452SOL    HW214256   6.381   5.546   6.216
 4453SOL     OW14257   5.541   1.971   1.418
 4453SOL    HW114258   5.583   1.905   1.357
 4453SOL    HW214259   5.474   2.026   1.367
 4454SOL     OW14260   4.912   3.405   1.473
 4454SOL    HW114261   4.945   3.316   1.504
 4454SOL    HW214262   4.942   3.476   1.536
 4455SOL     OW14263   4.273   1.607   1.716
 4455SOL    HW114264   4.300   1.515   1.690
 4455SOL    HW214265   4.240   1.607   1.810
 4456SOL     OW14266   0.770   5.618   3.158
 4456SOL    HW114267   0.721   5.653   3.239
 4456SOL    HW214268   0.856   5.576   3.187
 4457SOL     OW14269   5.110   2.133   6.370
 4457SOL    HW114270   5.106   2.144   6.469
 4457SOL    HW214271   5.057   2.205   6.326
 4458SOL     OW14272   3.816   1.550   6.402
 4458SOL    HW114273   3.778   1.457   6.397
 4458SOL    HW214274   3.773   1.608   6.333
 4459SOL     OW14275   4.920   6.263   5.541
 4459SOL    HW114276   4.836   6.215   5.516
 4459SOL    HW214277   4.988   6.252   5.469
 4460SOL     OW14278   1.811   1.539   6.336
 4460SOL    HW114279   1.835   1.475   6.262
 4460SOL    HW214280   1.759   1.490   6.406
 4461SOL     OW14281   2.254   0.040   2.104
 4461SOL    HW114282   2.344   0.027   2.062
 4461SOL    HW214283   2.210   0.120   2.062
 4462SOL     OW14284   6.745   5.792   1.831
 4462SOL    HW114285   6.776   5.713   1.778
 4462SOL    HW214286   6.801   5.802   1.913
 4463SOL     OW14287   1.528   3.508   6.064
 4463SOL    HW114288   1.436   3.519   6.103
 4463SOL    HW214289   1.520   3.484   5.967
 4464SOL     OW14290   6.163   3.396   6.483
 4464SOL    HW114291   6.091   3.463   6.462
 4464SOL    HW214292   6.125   3.304   6.482
 4465SOL     OW14293   1.249   5.886   2.530
 4465SOL    HW114294   1.218   5.852   2.442
 4465SOL    HW214295   1.308   5.817   2.574
 4466SOL     OW14296   0.668   2.304   3.773
 4466SOL    HW114297   0.708   2.213   3.759
 4466SOL    HW214298   0.569   2.295   3.782
 4467SOL     OW14299   0.866   6.949   3.033
 4467SOL    HW114300   0.812   6.883   2.980
 4467SOL    HW214301   0.962   6.941   3.009
 4468SOL     OW14302   1.650   2.860   0.268
 4468SOL    HW114303   1.694   2.785   0.318
 4468SOL    HW214304   1.686   2.947   0.302
 4469SOL     OW14305   4.667   0.212   6.833
 4469SOL    HW114306   4.610   0.224   6.914
 4469SOL    HW214307   4.709   0.121   6.836
 4470SOL     OW14308   4.670   4.687   1.445
 4470SOL    HW114309   4.679   4.635   1.530
 4470SOL    HW214310   4.596   4.753   1.455
 4471SOL     OW14311   6.646   3.611   0.447
 4471SOL    HW114312   6.701   3.694   0.436
 4471SOL    HW214313   6.582   3.603   0.371
 4472SOL     OW14314   1.515   5.006   1.687
 4472SOL    HW114315   1.508   4.991   1.588
 4472SOL    HW214316   1.550   4.923   1.731
 4473SOL     OW14317   0.700   6.629   5.366
 4473SOL    HW114318   0.740   6.708   5.412
 4473SOL    HW214319   0.760   6.550   5.376
 4474SOL     OW14320   5.317   0.850   3.612
 4474SOL    HW114321   5.268   0.767   3.587
 4474SOL    HW214322   5.412   0.842   3.584
 4475SOL     OW14323   1.676   4.142   0.246
 4475SOL    HW114324   1.677   4.165   0.343
 4475SOL    HW214325   1.581   4.130   0.216
 4476SOL     OW14326   4.693   6.643   2.096
 4476SOL    HW114327   4.614   6.584   2.115
 4476SOL    HW214328   4.713   6.640   1.999
 4477SOL     OW14329   1.275   1.034   0.333
 4477SOL    HW114330   1.364   1.068   0.363
 4477SOL    HW214331   1.281   1.005   0.237
 4478SOL     OW14332   1.408   5.472   2.404
 4478SOL    HW114333   1.388   5.380   2.438
 4478SOL    HW214334   1.330   5.505   2.351
 4479SOL     OW14335   0.456   0.136   4.949
 4479SOL    HW114336   0.440   0.058   5.008
 4479SOL    HW214337   0.437   0.110   4.854
 4480SOL     OW14338   0.785   4.555   3.502
 4480SOL    HW114339   0.871   4.594   3.535
 4480SOL    HW214340   0.708   4.601   3.546
 4481SOL     OW14341   1.181   0.271   4.466
 4481SOL    HW114342   1.249   0.199   4.481
 4481SOL    HW214343   1.094   0.229   4.441
 4482SOL     OW14344   6.921   3.675   3.951
 4482SOL    HW114345   6.969   3.587   3.945
 4482SOL    HW214346   6.968   3.734   4.017
 4483SOL     OW14347   5.382   2.570   1.980
 4483SOL    HW114348   5.372   2.547   2.077
 4483SOL    HW214349   5.293   2.592   1.941
 4484SOL     OW14350   4.038   2.511   5.635
 4484SOL    HW114351   3.956   2.560   5.666
 4484SOL    HW214352   4.038   2.505   5.535
 4485SOL     OW14353   5.166   1.439   6.588
 4485SOL    HW114354   5.248   1.458   6.642
 4485SOL    HW214355   5.153   1.511   6.521
 4486SOL     OW14356   6.257   2.474   4.291
 4486SOL    HW114357   6.316   2.395   4.305
 4486SOL    HW214358   6.273   2.512   4.199
 4487SOL     OW14359   2.980   3.288   6.433
 4487SOL    HW114360   2.967   3.210   6.494
 4487SOL    HW214361   3.041   3.263   6.358
 4488SOL     OW14362   0.690   1.470   5.046
 4488SOL    HW114363   0.619   1.540   5.053
 4488SOL    HW214364   0.673   1.398   5.113
 4489SOL     OW14365   6.275   0.328   3.775
 4489SOL    HW114366   6.344   0.264   3.807
 4489SOL    HW214367   6.319   0.402   3.723
 4490SOL     OW14368   6.863   2.343   3.741
 4490SOL    HW114369   6.944   2.289   3.722
 4490SOL    HW214370   6.781   2.286   3.731
 4491SOL     OW14371   1.309   3.183   3.005
 4491SOL    HW114372   1.343   3.260   3.058
 4491SOL    HW214373   1.234   3.139   3.054
 4492SOL     OW14374   4.595   3.776   6.484
 4492SOL    HW114375   4.650   3.695   6.463
 4492SOL    HW214376   4.651   3.843   6.533
 4493SOL     OW14377   6.101   5.367   3.862
 4493SOL    HW114378   6.008   5.382   3.828
 4493SOL    HW214379   6.167   5.387   3.789
 4494SOL     OW14380   5.874   3.651   3.853
 4494SOL    HW114381   5.791   3.627   3.802
 4494SOL    HW214382   5.921   3.567   3.880
 4495SOL     OW14383   4.813   6.304   1.298
 4495SOL    HW114384   4.774   6.396   1.306
 4495SOL    HW214385   4.814   6.276   1.202
 4496SOL     OW14386   4.942   4.412   5.504
 4496SOL    HW114387   4.934   4.314   5.487
 4496SOL    HW214388   4.989   4.427   5.591
 4497SOL     OW14389   5.978   4.969   0.653
 4497SOL    HW114390   5.963   4.905   0.578
 4497SOL    HW214391   6.075   4.996   0.655
 4498SOL     OW14392   0.290   4.238   6.913
 4498SOL    HW114393   0.308   4.141   6.894
 4498SOL    HW214394   0.364   4.293   6.874
 4499SOL     OW14395   6.913   3.158   6.741
 4499SOL    HW114396   6.907   3.150   6.840
 4499SOL    HW214397   6.935   3.069   6.701
 4500SOL     OW14398   3.806   4.010   4.478
 4500SOL    HW114399   3.859   3.940   4.429
 4500SOL    HW214400   3.746   4.057   4.413
 4501SOL     OW14401   0.645   4.245   4.977
 4501SOL    HW114402   0.576   4.281   4.914
 4501SOL    HW214403   0.648   4.145   4.968
 4502SOL     OW14404   0.072   3.403   0.441
 4502SOL    HW114405   0.103   3.401   0.536
 4502SOL    HW214406   0.126   3.338   0.387
 4503SOL     OW14407   1.659   1.856   3.333
 4503SOL    HW114408   1.587   1.916   3.369
 4503SOL    HW214409   1.731   1.845   3.401
 4504SOL     OW14410   4.998   2.449   4.805
 4504SOL    HW114411   4.980   2.481   4.898
 4504SOL    HW214412   4.913   2.421   4.762
 4505SOL     OW14413   1.767   5.110   5.865
 4505SOL    HW114414   1.682   5.072   5.829
 4505SOL    HW214415   1.844   5.051   5.837
 4506SOL     OW14416   4.048   0.341   5.366
 4506SOL    HW114417   3.980   0.412   5.383
 4506SOL    HW214418   4.112   0.372   5.295
 4507SOL     OW14419   6.518   4.236   0.909
 4507SOL    HW114420   6.516   4.227   1.009
 4507SOL    HW214421   6.595   4.293   0.882
 4508SOL     OW14422   1.622   3.668   0.446
 4508SOL    HW114423   1.577   3.590   0.489
 4508SOL    HW214424   1.713   3.681   0.487
 4509SOL     OW14425   1.389   2.049   3.671
 4509SOL    HW114426   1.481   2.059   3.707
 4509SOL    HW214427   1.322   2.068   3.743
 4510SOL     OW14428   4.003   6.507   4.956
 4510SOL    HW114429   4.008   6.538   4.861
 4510SOL    HW214430   3.909   6.511   4.987
 4511SOL     OW14431   5.688   2.467   7.006
 4511SOL    HW114432   5.608   2.417   6.974
 4511SOL    HW214433   5.742   2.409   0.048
 4512SOL     OW14434   2.885   5.168   6.955
 4512SOL    HW114435   2.896   5.085   6.900
 4512SOL    HW214436   2.829   5.148   0.017
 4513SOL     OW14437   5.036   0.705   2.010
 4513SOL    HW114438   5.074   0.637   2.073
 4513SOL    HW214439   5.067   0.685   1.917
 4514SOL     OW14440   3.440   1.462   4.937
 4514SOL    HW114441   3.470   1.550   4.973
 4514SOL    HW214442   3.425   1.399   5.013
 4515SOL     OW14443   0.486   5.004   1.100
 4515SOL    HW114444   0.396   5.020   1.142
 4515SOL    HW214445   0.478   4.933   1.030
 4516SOL     OW14446   0.908   0.460   5.088
 4516SOL    HW114447   0.892   0.522   5.011
 4516SOL    HW214448   0.984   0.399   5.067
 4517SOL     OW14449   3.475   6.691   5.114
 4517SOL    HW114450   3.472   6.631   5.034
 4517SOL    HW214451   3.385   6.695   5.156
 4518SOL     OW14452   1.042   1.637   4.518
 4518SOL    HW114453   1.069   1.608   4.426
 4518SOL    HW214454   1.018   1.734   4.516
 4519SOL     OW14455   6.151   2.763   4.312
 4519SOL    HW114456   6.112   2.820   4.241
 4519SOL    HW214457   6.248   2.745   4.291
 4520SOL     OW14458   6.884   3.911   3.037
 4520SOL    HW114459   6.984   3.910   3.041
 4520SOL    HW214460   6.852   3.824   3.000
 4521SOL     OW14461   6.305   2.048   6.450
 4521SOL    HW114462   6.220   2.101   6.447
 4521SOL    HW214463   6.318   2.012   6.542
 4522SOL     OW14464   5.919   0.816   4.063
 4522SOL    HW114465   5.850   0.749   4.092
 4522SOL    HW214466   5.997   0.812   4.126
 4523SOL     OW14467   3.907   3.460   0.011
 4523SOL    HW114468   3.817   3.496   0.034
 4523SOL    HW214469   3.936   3.395   0.081
 4524SOL     OW14470   5.984   0.009   4.928
 4524SOL    HW114471   5.956   0.101   4.903
 4524SOL    HW214472   6.063   7.000   4.875
 4525SOL     OW14473   6.516   1.616   5.294
 4525SOL    HW114474   6.478   1.524   5.299
 4525SOL    HW214475   6.543   1.647   5.385
 4526SOL     OW14476   4.250   0.733   0.974
 4526SOL    HW114477   4.210   0.822   0.996
 4526SOL    HW214478   4.176   0.668   0.953
 4527SOL     OW14479   4.429   0.791   3.046
 4527SOL    HW114480   4.418   0.883   3.007
 4527SOL    HW214481   4.525   0.764   3.040
 4528SOL     OW14482   6.155   0.780   6.523
 4528SOL    HW114483   6.080   0.732   6.476
 4528SOL    HW214484   6.117   0.846   6.587
 4529SOL     OW14485   3.736   6.462   2.903
 4529SOL    HW114486   3.767   6.413   2.822
 4529SOL    HW214487   3.672   6.534   2.876
 4530SOL     OW14488   0.531   3.593   5.555
 4530SOL    HW114489   0.452   3.532   5.557
 4530SOL    HW214490   0.598   3.562   5.622
 4531SOL     OW14491   0.366   3.813   3.905
 4531SOL    HW114492   0.393   3.782   3.814
 4531SOL    HW214493   0.373   3.738   3.970
 4532SOL     OW14494   5.833   2.063   1.276
 4532SOL    HW114495   5.788   2.119   1.346
 4532SOL    HW214496   5.883   2.123   1.213
 4533SOL     OW14497   2.487   6.122   2.714
 4533SOL    HW114498   2.480   6.149   2.618
 4533SOL    HW214499   2.577   6.149   2.750
 4534SOL     OW14500   5.651   4.181   5.642
 4534SOL    HW114501   5.598   4.264   5.659
 4534SOL    HW214502   5.748   4.204   5.637
 4535SOL     OW14503   4.933   3.058   1.824
 4535SOL    HW114504   5.010   3.055   1.888
 4535SOL    HW214505   4.849   3.032   1.871
 4536SOL     OW14506   6.463   1.296   4.304
 4536SOL    HW114507   6.437   1.202   4.326
 4536SOL    HW214508   6.424   1.358   4.372
 4537SOL     OW14509   3.624   3.104   5.982
 4537SOL    HW114510   3.693   3.175   5.994
 4537SOL    HW214511   3.670   3.016   5.970
 4538SOL     OW14512   2.937   1.032   2.825
 4538SOL    HW114513   2.871   1.103   2.799
 4538SOL    HW214514   2.969   1.048   2.918
 4539SOL     OW14515   1.605   1.524   2.519
 4539SOL    HW114516   1.663   1.585   2.571
 4539SOL    HW214517   1.594   1.558   2.425
 4540SOL     OW14518   3.313   2.921   4.593
 4540SOL    HW114519   3.239   2.876   4.644
 4540SOL    HW214520   3.401   2.885   4.623
 4541SOL     OW14521   5.186   1.396   1.273
 4541SOL    HW114522   5.228   1.334   1.340
 4541SOL    HW214523   5.145   1.474   1.321
 4542SOL     OW14524   4.579   0.586   3.655
 4542SOL    HW114525   4.505   0.581   3.587
 4542SOL    HW214526   4.556   0.654   3.724
 4543SOL     OW14527   5.254   1.808   1.856
 4543SOL    HW114528   5.299   1.723   1.827
 4543SOL    HW214529   5.248   1.870   1.778
 4544SOL     OW14530   3.671   4.800   6.235
 4544SOL    HW114531   3.644   4.788   6.139
 4544SOL    HW214532   3.629   4.883   6.271
 4545SOL     OW14533   4.395   2.337   5.506
 4545SOL    HW114534   4.470   2.403   5.500
 4545SOL    HW214535   4.358   2.321   5.415
 4546SOL     OW14536   1.581   6.709   5.967
 4546SOL    HW114537   1.601   6.793   5.917
 4546SOL    HW214538   1.487   6.712   6.002
 4547SOL     OW14539   4.683   2.227   2.089
 4547SOL    HW114540   4.707   2.131   2.103
 4547SOL    HW214541   4.736   2.284   2.152
 4548SOL     OW14542   1.079   3.461   3.657
 4548SOL    HW114543   1.051   3.374   3.616
 4548SOL    HW214544   1.172   3.451   3.694
 4549SOL     OW14545   5.944   2.520   2.576
 4549SOL    HW114546   5.882   2.470   2.516
 4549SOL    HW214547   6.037   2.514   2.540
 4550SOL     OW14548   1.294   5.944   4.241
 4550SOL    HW114549   1.355   5.880   4.194
 4550SOL    HW214550   1.248   5.897   4.316
 4551SOL     OW14551   0.864   3.000   5.662
 4551SOL    HW114552   0.946   3.019   5.717
 4551SOL    HW214553   0.829   3.086   5.625
 4552SOL     OW14554   0.079   3.447   4.580
 4552SOL    HW114555   0.117   3.403   4.499
 4552SOL    HW214556   0.080   3.546   4.568
 4553SOL     OW14557   4.853   4.796   0.394
 4553SOL    HW114558   4.765   4.804   0.439
 4553SOL    HW214559   4.877   4.699   0.383
 4554SOL     OW14560   5.310   6.891   2.572
 4554SOL    HW114561   5.405   6.881   2.603
 4554SOL    HW214562   5.310   6.929   2.479
 4555SOL     OW14563   5.269   1.748   0.090
 4555SOL    HW114564   5.218   1.763   0.006
 4555SOL    HW214565   5.205   1.741   0.167
 4556SOL     OW14566   4.739   1.181   3.956
 4556SOL    HW114567   4.661   1.235   3.987
 4556SOL    HW214568   4.808   1.178   4.029
 4557SOL     OW14569   5.195   0.230   5.572
 4557SOL    HW114570   5.118   0.218   5.511
 4557SOL    HW214571   5.235   0.141   5.594
 4558SOL     OW14572   6.335   3.195   6.203
 4558SOL    HW114573   6.279   3.131   6.255
 4558SOL    HW214574   6.333   3.285   6.248
 4559SOL     OW14575   0.944   6.949   0.843
 4559SOL    HW114576   0.928   6.873   0.905
 4559SOL    HW214577   0.888   0.009   0.871
 4560SOL     OW14578   4.935   3.414   2.733
 4560SOL    HW114579   4.883   3.486   2.687
 4560SOL    HW214580   5.020   3.397   2.684
 4561SOL     OW14581   2.903   0.101   6.788
 4561SOL    HW114582   2.989   0.050   6.786
 4561SOL    HW214583   2.907   0.172   6.858
 4562SOL     OW14584   3.118   5.161   6.220
 4562SOL    HW114585   3.080   5.108   6.145
 4562SOL    HW214586   3.045   5.211   6.266
 4563SOL     OW14587   6.109   2.254   6.396
 4563SOL    HW114588   6.030   2.290   6.445
 4563SOL    HW214589   6.090   2.256   6.298
 4564SOL     OW14590   1.319   5.535   0.345
 4564SOL    HW114591   1.322   5.435   0.357
 4564SOL    HW214592   1.252   5.558   0.275
 4565SOL     OW14593   2.302   0.461   5.152
 4565SOL    HW114594   2.261   0.524   5.086
 4565SOL    HW214595   2.350   0.514   5.222
 4566SOL     OW14596   0.215   1.747   6.875
 4566SOL    HW114597   0.184   1.665   6.827
 4566SOL    HW214598   0.259   1.809   6.809
 4567SOL     OW14599   0.013   1.197   0.591
 4567SOL    HW114600   6.939   1.230   0.608
 4567SOL    HW214601   0.076   1.236   0.658
 4568SOL     OW14602   3.571   4.696   5.300
 4568SOL    HW114603   3.474   4.670   5.302
 4568SOL    HW214604   3.579   4.795   5.289
 4569SOL     OW14605   0.316   2.005   4.863
 4569SOL    HW114606   0.296   2.073   4.934
 4569SOL    HW214607   0.408   2.021   4.827
 4570SOL     OW14608   0.154   5.050   4.039
 4570SOL    HW114609   0.110   5.031   4.127
 4570SOL    HW214610   0.087   5.036   3.965
 4571SOL     OW14611   3.568   2.931   4.677
 4571SOL    HW114612   3.650   2.935   4.735
 4571SOL    HW214613   3.569   3.009   4.613
 4572SOL     OW14614   1.856   5.808   0.992
 4572SOL    HW114615   1.809   5.857   0.918
 4572SOL    HW214616   1.937   5.762   0.956
 4573SOL     OW14617   5.306   0.112   0.886
 4573SOL    HW114618   5.232   0.171   0.854
 4573SOL    HW214619   5.391   0.165   0.889
 4574SOL     OW14620   0.254   4.301   2.627
 4574SOL    HW114621   0.271   4.381   2.685
 4574SOL    HW214622   0.340   4.256   2.606
 4575SOL     OW14623   6.209   0.204   2.776
 4575SOL    HW114624   6.242   0.296   2.798
 4575SOL    HW214625   6.118   0.192   2.815
 4576SOL     OW14626   2.988   5.985   5.352
 4576SOL    HW114627   3.070   5.994   5.409
 4576SOL    HW214628   3.003   6.029   5.264
 4577SOL     OW14629   0.710   2.887   3.624
 4577SOL    HW114630   0.724   2.951   3.699
 4577SOL    HW214631   0.795   2.838   3.606
 4578SOL     OW14632   6.672   3.768   4.048
 4578SOL    HW114633   6.771   3.777   4.037
 4578SOL    HW214634   6.652   3.734   4.140
 4579SOL     OW14635   5.546   1.825   4.009
 4579SOL    HW114636   5.520   1.912   3.968
 4579SOL    HW214637   5.580   1.841   4.102
 4580SOL     OW14638   6.846   5.605   0.521
 4580SOL    HW114639   6.943   5.628   0.509
 4580SOL    HW214640   6.839   5.522   0.576
 4581SOL     OW14641   3.415   5.708   2.898
 4581SOL    HW114642   3.458   5.741   2.813
 4581SOL    HW214643   3.316   5.718   2.890
 4582SOL     OW14644   4.450   6.525   2.183
 4582SOL    HW114645   4.455   6.615   2.227
 4582SOL    HW214646   4.354   6.500   2.170
 4583SOL     OW14647   4.669   1.573   5.408
 4583SOL    HW114648   4.624   1.554   5.321
 4583SOL    HW214649   4.627   1.519   5.480
 4584SOL     OW14650   0.361   5.087   5.163
 4584SOL    HW114651   0.271   5.114   5.127
 4584SOL    HW214652   0.431   5.143   5.120
 4585SOL     OW14653   4.084   6.571   2.404
 4585SOL    HW114654   4.076   6.662   2.445
 4585SOL    HW214655   4.104   6.504   2.476
 4586SOL     OW14656   3.553   5.364   2.298
 4586SOL    HW114657   3.460   5.363   2.261
 4586SOL    HW214658   3.556   5.424   2.379
 4587SOL     OW14659   2.239   4.164   1.349
 4587SOL    HW114660   2.322   4.177   1.402
 4587SOL    HW214661   2.231   4.237   1.281
 4588SOL     OW14662   4.250   3.660   5.142
 4588SOL    HW114663   4.235   3.614   5.054
 4588SOL    HW214664   4.181   3.732   5.154
 4589SOL     OW14665   6.542   2.016   4.387
 4589SOL    HW114666   6.505   2.004   4.480
 4589SOL    HW214667   6.642   2.018   4.391
 4590SOL     OW14668   4.980   5.597   2.583
 4590SOL    HW114669   5.017   5.618   2.493
 4590SOL    HW214670   4.981   5.679   2.640
 4591SOL     OW14671   5.469   5.779   5.394
 4591SOL    HW114672   5.414   5.697   5.382
 4591SOL    HW214673   5.457   5.840   5.316
 4592SOL     OW14674   3.995   2.160   6.098
 4592SOL    HW114675   3.916   2.099   6.088
 4592SOL    HW214676   4.036   2.148   6.188
 4593SOL     OW14677   3.846   5.847   2.779
 4593SOL    HW114678   3.840   5.932   2.726
 4593SOL    HW214679   3.789   5.856   2.861
 4594SOL     OW14680   2.738   1.040   2.053
 4594SOL    HW114681   2.762   0.944   2.043
 4594SOL    HW214682   2.679   1.068   1.977
 4595SOL     OW14683   4.173   2.264   5.700
 4595SOL    HW114684   4.121   2.344   5.671
 4595SOL    HW214685   4.262   2.262   5.653
 4596SOL     OW14686   5.964   0.159   1.546
 4596SOL    HW114687   5.897   0.198   1.609
 4596SOL    HW214688   6.007   0.232   1.493
 4597SOL     OW14689   6.357   4.673   6.740
 4597SOL    HW114690   6.328   4.683   6.835
 4597SOL    HW214691   6.433   4.735   6.721
 4598SOL     OW14692   2.988   4.879   6.978
 4598SOL    HW114693   2.926   4.895   0.036
 4598SOL    HW214694   2.936   4.883   6.892
 4599SOL     OW14695   1.330   4.560   0.446
 4599SOL    HW114696   1.373   4.633   0.393
 4599SOL    HW214697   1.333   4.583   0.543
 4600SOL     OW14698   2.900   5.477   1.237
 4600SOL    HW114699   2.944   5.565   1.258
 4600SOL    HW214700   2.812   5.471   1.284
 4601SOL     OW14701   1.994   6.393   4.821
 4601SOL    HW114702   1.949   6.352   4.742
 4601SOL    HW214703   2.001   6.492   4.808
 4602SOL     OW14704   1.595   0.423   1.124
 4602SOL    HW114705   1.651   0.493   1.169
 4602SOL    HW214706   1.529   0.468   1.063
 4603SOL     OW14707   3.299   6.975   1.936
 4603SOL    HW114708   3.316   6.918   1.856
 4603SOL    HW214709   3.250   6.922   2.005
 4604SOL     OW14710   3.587   6.779   2.179
 4604SOL    HW114711   3.557   6.874   2.189
 4604SOL    HW214712   3.613   6.742   2.268
 4605SOL     OW14713   4.973   0.261   5.405
 4605SOL    HW114714   4.974   0.161   5.402
 4605SOL    HW214715   4.892   0.295   5.357
 4606SOL     OW14716   0.050   6.220   5.344
 4606SOL    HW114717   0.013   6.311   5.361
 4606SOL    HW214718   0.082   6.180   5.430
 4607SOL     OW14719   2.652   2.301   1.235
 4607SOL    HW114720   2.743   2.340   1.220
 4607SOL    HW214721   2.627   2.309   1.331
 4608SOL     OW14722   1.546   3.541   5.659
 4608SOL    HW114723   1.575   3.612   5.724
 4608SOL    HW214724   1.621   3.477   5.643
 4609SOL     OW14725   4.413   6.840   6.075
 4609SOL    HW114726   4.325   6.836   6.121
 4609SOL    HW214727   4.487   6.828   6.142
 4610SOL     OW14728   0.798   3.166   6.337
 4610SOL    HW114729   0.811   3.107   6.257
 4610SOL    HW214730   0.766   3.112   6.414
 4611SOL     OW14731   0.893   3.974   0.074
 4611SOL    HW114732   0.813   3.991   0.017
 4611SOL    HW214733   0.869   3.989   0.170
 4612SOL     OW14734   2.148   0.375   6.498
 4612SOL    HW114735   2.148   0.293   6.555
 4612SOL    HW214736   2.241   0.394   6.467
 4613SOL     OW14737   3.025   5.264   2.093
 4613SOL    HW114738   3.075   5.243   2.009
 4613SOL    HW214739   2.953   5.196   2.108
 4614SOL     OW14740   2.165   5.618   0.089
 4614SOL    HW114741   2.149   5.675   0.170
 4614SOL    HW214742   2.079   5.574   0.063
 4615SOL     OW14743   0.154   2.448   0.472
 4615SOL    HW114744   0.186   2.473   0.380
 4615SOL    HW214745   0.124   2.353   0.472
 4616SOL     OW14746   5.853   1.020   6.516
 4616SOL    HW114747   5.805   0.939   6.485
 4616SOL    HW214748   5.873   1.080   6.438
 4617SOL     OW14749   0.228   2.949   2.111
 4617SOL    HW114750   0.230   3.031   2.167
 4617SOL    HW214751   0.145   2.950   2.054
 4618SOL     OW14752   0.805   2.034   6.124
 4618SOL    HW114753   0.807   2.124   6.080
 4618SOL    HW214754   0.822   1.963   6.056
 4619SOL     OW14755   3.487   0.675   3.709
 4619SOL    HW114756   3.436   0.734   3.772
 4619SOL    HW214757   3.585   0.691   3.720
 4620SOL     OW14758   2.307   3.916   6.426
 4620SOL    HW114759   2.327   3.969   6.509
 4620SOL    HW214760   2.370   3.838   6.421
 4621SOL     OW14761   0.322   5.994   6.198
 4621SOL    HW114762   0.411   5.949   6.190
 4621SOL    HW214763   0.324   6.080   6.147
 4622SOL     OW14764   2.313   3.478   1.111
 4622SOL    HW114765   2.217   3.452   1.097
 4622SOL    HW214766   2.317   3.564   1.162
 4623SOL     OW14767   5.890   4.485   2.064
 4623SOL    HW114768   5.983   4.451   2.071
 4623SOL    HW214769   5.892   4.584   2.050
 4624SOL     OW14770   4.587   0.126   5.359
 4624SOL    HW114771   4.490   0.108   5.340
 4624SOL    HW214772   4.632   0.158   5.275
 4625SOL     OW14773   0.790   3.351   6.953
 4625SOL    HW114774   0.777   3.376   6.857
 4625SOL    HW214775   0.726   3.277   6.977
 4626SOL     OW14776   6.344   4.935   1.577
 4626SOL    HW114777   6.356   4.950   1.479
 4626SOL    HW214778   6.411   4.990   1.628
 4627SOL     OW14779   2.642   0.173   6.776
 4627SOL    HW114780   2.594   0.090   6.748
 4627SOL    HW214781   2.739   0.154   6.787
 4628SOL     OW14782   0.294   3.868   1.932
 4628SOL    HW114783   0.388   3.883   1.903
 4628SOL    HW214784   0.258   3.951   1.976
 4629SOL     OW14785   2.638   4.830   5.535
 4629SOL    HW114786   2.654   4.871   5.625
 4629SOL    HW214787   2.581   4.748   5.545
 4630SOL     OW14788   1.884   6.958   2.906
 4630SOL    HW114789   1.874   6.899   2.986
 4630SOL    HW214790   1.976   6.997   2.905
 4631SOL     OW14791   2.857   6.823   2.249
 4631SOL    HW114792   2.771   6.831   2.300
 4631SOL    HW214793   2.857   6.736   2.199
 4632SOL     OW14794   4.977   5.610   4.400
 4632SOL    HW114795   4.939   5.522   4.427
 4632SOL    HW214796   5.034   5.598   4.319
 4633SOL     OW14797   6.247   2.029   5.033
 4633SOL    HW114798   6.256   2.023   5.133
 4633SOL    HW214799   6.304   2.103   4.998
 4634SOL     OW14800   2.991   4.418   0.701
 4634SOL    HW114801   3.014   4.387   0.609
 4634SOL    HW214802   3.073   4.452   0.746
 4635SOL     OW14803   5.326   3.925   1.340
 4635SOL    HW114804   5.402   3.881   1.291
 4635SOL    HW214805   5.297   4.006   1.290
 4636SOL     OW14806   2.008   5.062   0.821
 4636SOL    HW114807   2.008   5.145   0.878
 4636SOL    HW214808   2.070   4.995   0.861
 4637SOL     OW14809   1.497   1.083   5.145
 4637SOL    HW114810   1.572   1.020   5.122
 4637SOL    HW214811   1.498   1.160   5.081
 4638SOL     OW14812   5.063   3.506   5.849
 4638SOL    HW114813   5.041   3.603   5.845
 4638SOL    HW214814   5.160   3.493   5.825
 4639SOL     OW14815   6.793   3.706   5.237
 4639SOL    HW114816   6.785   3.795   5.192
 4639SOL    HW214817   6.750   3.710   5.327
 4640SOL     OW14818   5.784   4.253   2.834
 4640SOL    HW114819   5.756   4.238   2.739
 4640SOL    HW214820   5.881   4.279   2.836
 4641SOL     OW14821   2.228   4.777   5.750
 4641SOL    HW114822   2.240   4.844   5.677
 4641SOL    HW214823   2.179   4.697   5.713
 4642SOL     OW14824   5.686   6.140   4.382
 4642SOL    HW114825   5.621   6.110   4.313
 4642SOL    HW214826   5.711   6.062   4.440
 4643SOL     OW14827   4.095   2.542   1.220
 4643SOL    HW114828   4.005   2.586   1.228
 4643SOL    HW214829   4.106   2.477   1.295
 4644SOL     OW14830   2.248   5.389   4.901
 4644SOL    HW114831   2.326   5.349   4.852
 4644SOL    HW214832   2.281   5.443   4.978
 4645SOL     OW14833   1.621   6.004   4.645
 4645SOL    HW114834   1.532   6.000   4.691
 4645SOL    HW214835   1.685   5.942   4.690
 4646SOL     OW14836   3.502   0.570   1.424
 4646SOL    HW114837   3.407   0.584   1.452
 4646SOL    HW214838   3.532   0.647   1.367
 4647SOL     OW14839   6.595   0.251   4.832
 4647SOL    HW114840   6.502   0.244   4.869
 4647SOL    HW214841   6.615   0.170   4.777
 4648SOL     OW14842   2.112   5.647   2.686
 4648SOL    HW114843   2.064   5.728   2.653
 4648SOL    HW214844   2.053   5.567   2.674
 4649SOL     OW14845   5.524   0.004   5.818
 4649SOL    HW114846   5.611   0.024   5.863
 4649SOL    HW214847   5.449   0.026   5.880
 4650SOL     OW14848   6.779   4.600   2.226
 4650SOL    HW114849   6.839   4.628   2.301
 4650SOL    HW214850   6.781   4.669   2.153
 4651SOL     OW14851   0.107   2.050   1.258
 4651SOL    HW114852   0.162   2.077   1.336
 4651SOL    HW214853   0.165   2.002   1.191
 4652SOL     OW14854   6.984   6.174   6.201
 4652SOL    HW114855   6.908   6.231   6.171
 4652SOL    HW214856   0.019   6.223   6.270
 4653SOL     OW14857   0.259   5.795   0.045
 4653SOL    HW114858   0.255   5.716   0.107
 4653SOL    HW214859   0.184   5.857   0.065
 4654SOL     OW14860   1.113   1.230   6.887
 4654SOL    HW114861   1.143   1.269   6.974
 4654SOL    HW214862   1.117   1.130   6.891
 4655SOL     OW14863   0.355   5.095   3.644
 4655SOL    HW114864   0.257   5.108   3.661
 4655SOL    HW214865   0.373   5.106   3.546
 4656SOL     OW14866   1.876   6.594   3.362
 4656SOL    HW114867   1.939   6.517   3.368
 4656SOL    HW214868   1.895   6.659   3.436
 4657SOL     OW14869   6.187   0.264   6.923
 4657SOL    HW114870   6.125   0.323   6.974
 4657SOL    HW214871   6.281   0.280   6.953
 4658SOL     OW14872   5.508   0.697   3.168
 4658SOL    HW114873   5.534   0.727   3.260
 4658SOL    HW214874   5.586   0.710   3.106
 4659SOL     OW14875   2.280   2.241   4.735
 4659SOL    HW114876   2.245   2.335   4.734
 4659SOL    HW214877   2.206   2.178   4.760
 4660SOL     OW14878   0.026   0.680   5.842
 4660SOL    HW114879   0.002   0.685   5.938
 4660SOL    HW214880   6.982   0.737   5.788
 4661SOL     OW14881   4.080   3.478   3.372
 4661SOL    HW114882   4.081   3.517   3.280
 4661SOL    HW214883   4.014   3.526   3.429
 4662SOL     OW14884   4.791   0.583   4.828
 4662SOL    HW114885   4.785   0.499   4.774
 4662SOL    HW214886   4.699   0.617   4.847
 4663SOL     OW14887   0.189   2.232   2.480
 4663SOL    HW114888   0.123   2.258   2.551
 4663SOL    HW214889   0.214   2.136   2.491
 4664SOL     OW14890   3.349   2.047   6.519
 4664SOL    HW114891   3.346   2.055   6.420
 4664SOL    HW214892   3.283   2.111   6.560
 4665SOL     OW14893   5.792   0.703   0.139
 4665SOL    HW114894   5.872   0.763   0.141
 4665SOL    HW214895   5.777   0.670   0.046
 4666SOL     OW14896   1.738   1.365   0.824
 4666SOL    HW114897   1.663   1.364   0.890
 4666SOL    HW214898   1.808   1.299   0.852
 4667SOL     OW14899   0.782   5.572   5.802
 4667SOL    HW114900   0.834   5.593   5.720
 4667SOL    HW214901   0.838   5.517   5.864
 4668SOL     OW14902   6.076   1.830   4.128
 4668SOL    HW114903   5.987   1.872   4.146
 4668SOL    HW214904   6.071   1.732   4.149
 4669SOL     OW14905   2.580   0.548   0.609
 4669SOL    HW114906   2.499   0.534   0.667
 4669SOL    HW214907   2.637   0.467   0.611
 4670SOL     OW14908   2.321   1.389   4.183
 4670SOL    HW114909   2.287   1.448   4.110
 4670SOL    HW214910   2.318   1.439   4.270
 4671SOL     OW14911   5.489   3.702   1.283
 4671SOL    HW114912   5.469   3.645   1.363
 4671SOL    HW214913   5.427   3.677   1.209
 4672SOL     OW14914   2.445   3.702   5.655
 4672SOL    HW114915   2.517   3.640   5.686
 4672SOL    HW214916   2.368   3.650   5.621
 4673SOL     OW14917   3.714   0.667   2.629
 4673SOL    HW114918   3.736   0.572   2.604
 4673SOL    HW214919   3.615   0.678   2.636
 4674SOL     OW14920   4.603   6.289   6.202
 4674SOL    HW114921   4.640   6.261   6.113
 4674SOL    HW214922   4.641   6.232   6.274
 4675SOL     OW14923   1.197   4.165   6.864
 4675SOL    HW114924   1.233   4.232   6.929
 4675SOL    HW214925   1.205   4.201   6.771
 4676SOL     OW14926   0.805   5.391   4.214
 4676SOL    HW114927   0.737   5.398   4.287
 4676SOL    HW214928   0.760   5.363   4.129
 4677SOL     OW14929   1.392   3.131   0.291
 4677SOL    HW114930   1.372   3.219   0.333
 4677SOL    HW214931   1.472   3.091   0.334
 4678SOL     OW14932   2.578   4.625   2.166
 4678SOL    HW114933   2.659   4.621   2.107
 4678SOL    HW214934   2.578   4.710   2.218
 4679SOL     OW14935   5.059   0.034   1.308
 4679SOL    HW114936   5.067   0.019   1.406
 4679SOL    HW214937   5.009   0.119   1.291
 4680SOL     OW14938   2.135   1.156   1.419
 4680SOL    HW114939   2.186   1.198   1.494
 4680SOL    HW214940   2.099   1.067   1.448
 4681SOL     OW14941   4.738   5.095   1.495
 4681SOL    HW114942   4.792   5.160   1.547
 4681SOL    HW214943   4.727   5.127   1.401
 4682SOL     OW14944   3.749   3.832   6.876
 4682SOL    HW114945   3.733   3.826   6.974
 4682SOL    HW214946   3.755   3.929   6.849
 4683SOL     OW14947   6.440   4.524   3.634
 4683SOL    HW114948   6.494   4.454   3.586
 4683SOL    HW214949   6.438   4.607   3.578
 4684SOL     OW14950   5.325   6.745   0.170
 4684SOL    HW114951   5.325   6.645   0.164
 4684SOL    HW214952   5.341   6.783   0.079
 4685SOL     OW14953   3.087   3.616   5.761
 4685SOL    HW114954   3.064   3.593   5.666
 4685SOL    HW214955   3.031   3.694   5.790
 4686SOL     OW14956   3.025   5.577   0.308
 4686SOL    HW114957   3.080   5.624   0.376
 4686SOL    HW214958   3.077   5.567   0.223
 4687SOL     OW14959   2.737   0.619   2.879
 4687SOL    HW114960   2.724   0.713   2.847
 4687SOL    HW214961   2.745   0.558   2.800
 4688SOL     OW14962   6.076   2.938   5.731
 4688SOL    HW114963   5.990   2.927   5.782
 4688SOL    HW214964   6.105   2.849   5.696
 4689SOL     OW14965   5.846   0.987   2.309
 4689SOL    HW114966   5.930   0.968   2.360
 4689SOL    HW214967   5.820   1.083   2.323
 4690SOL     OW14968   2.416   2.115   0.486
 4690SOL    HW114969   2.488   2.051   0.512
 4690SOL    HW214970   2.340   2.107   0.549
 4691SOL     OW14971   7.016   4.290   2.202
 4691SOL    HW114972   0.008   4.283   2.301
 4691SOL    HW214973   6.932   4.243   2.175
 4692SOL     OW14974   5.531   3.731   2.076
 4692SOL    HW114975   5.472   3.778   2.141
 4692SOL    HW214976   5.494   3.740   1.984
 4693SOL     OW14977   1.623   1.268   4.051
 4693SOL    HW114978   1.688   1.210   4.003
 4693SOL    HW214979   1.542   1.214   4.075
 4694SOL     OW14980   1.772   1.081   0.067
 4694SOL    HW114981   1.857   1.104   0.020
 4694SOL    HW214982   1.696   1.084   0.003
 4695SOL     OW14983   1.325   6.131   1.706
 4695SOL    HW114984   1.334   6.151   1.608
 4695SOL    HW214985   1.381   6.051   1.729
 4696SOL     OW14986   1.397   5.442   5.600
 4696SOL    HW114987   1.424   5.502   5.675
 4696SOL    HW214988   1.421   5.485   5.513
 4697SOL     OW14989   3.743   4.694   0.583
 4697SOL    HW114990   3.666   4.667   0.641
 4697SOL    HW214991   3.790   4.773   0.623
 4698SOL     OW14992   5.345   1.170   3.412
 4698SOL    HW114993   5.262   1.126   3.448
 4698SOL    HW214994   5.367   1.250   3.468
 4699SOL     OW14995   1.183   0.103   2.820
 4699SOL    HW114996   1.126   0.033   2.863
 4699SOL    HW214997   1.280   0.080   2.832
 4700SOL     OW14998   6.134   2.170   2.628
 4700SOL    HW114999   6.176   2.250   2.671
 4700SOL    HW215000   6.091   2.113   2.698
 4701SOL     OW15001   3.272   2.268   1.793
 4701SOL    HW115002   3.209   2.298   1.722
 4701SOL    HW215003   3.365   2.297   1.770
 4702SOL     OW15004   5.133   4.621   6.430
 4702SOL    HW115005   5.156   4.714   6.458
 4702SOL    HW215006   5.146   4.611   6.331
 4703SOL     OW15007   0.565   5.343   3.557
 4703SOL    HW115008   0.531   5.437   3.568
 4703SOL    HW215009   0.497   5.288   3.509
 4704SOL     OW15010   1.084   4.826   5.043
 4704SOL    HW115011   1.036   4.738   5.051
 4704SOL    HW215012   1.072   4.862   4.950
 4705SOL     OW15013   3.575   2.296   1.624
 4705SOL    HW115014   3.629   2.325   1.703
 4705SOL    HW215015   3.540   2.203   1.639
 4706SOL     OW15016   2.055   0.793   0.719
 4706SOL    HW115017   2.078   0.705   0.761
 4706SOL    HW215018   1.961   0.791   0.685
 4707SOL     OW15019   1.784   6.056   1.696
 4707SOL    HW115020   1.823   5.997   1.766
 4707SOL    HW215021   1.697   6.095   1.729
 4708SOL     OW15022   0.929   2.908   4.344
 4708SOL    HW115023   0.844   2.937   4.388
 4708SOL    HW215024   0.913   2.823   4.293
 4709SOL     OW15025   4.791   3.862   5.245
 4709SOL    HW115026   4.850   3.873   5.165
 4709SOL    HW215027   4.740   3.776   5.237
 4710SOL     OW15028   6.541   6.245   4.385
 4710SOL    HW115029   6.468   6.291   4.335
 4710SOL    HW215030   6.510   6.223   4.477
 4711SOL     OW15031   5.529   3.386   3.222
 4711SOL    HW115032   5.571   3.460   3.169
 4711SOL    HW215033   5.429   3.397   3.220
 4712SOL     OW15034   4.694   4.053   5.389
 4712SOL    HW115035   4.610   4.055   5.443
 4712SOL    HW215036   4.694   3.971   5.331
 4713SOL     OW15037   6.076   4.333   1.271
 4713SOL    HW115038   6.105   4.250   1.224
 4713SOL    HW215039   5.996   4.313   1.327
 4714SOL     OW15040   5.586   1.511   6.395
 4714SOL    HW115041   5.675   1.522   6.351
 4714SOL    HW215042   5.514   1.524   6.327
 4715SOL     OW15043   6.528   1.166   2.122
 4715SOL    HW115044   6.572   1.162   2.033
 4715SOL    HW215045   6.445   1.111   2.121
 4716SOL     OW15046   4.216   4.697   6.066
 4716SOL    HW115047   4.120   4.726   6.059
 4716SOL    HW215048   4.248   4.667   5.977
 4717SOL     OW15049   2.590   5.345   5.409
 4717SOL    HW115050   2.627   5.328   5.317
 4717SOL    HW215051   2.496   5.378   5.402
 4718SOL     OW15052   4.325   4.229   0.550
 4718SOL    HW115053   4.404   4.249   0.607
 4718SOL    HW215054   4.303   4.309   0.494
 4719SOL     OW15055   0.286   4.063   3.943
 4719SOL    HW115056   0.228   4.089   3.866
 4719SOL    HW215057   0.306   3.965   3.938
 4720SOL     OW15058   2.450   3.687   7.011
 4720SOL    HW115059   2.514   3.611   7.018
 4720SOL    HW215060   2.462   3.733   6.923
 4721SOL     OW15061   6.185   2.990   3.571
 4721SOL    HW115062   6.118   3.063   3.582
 4721SOL    HW215063   6.141   2.908   3.535
 4722SOL     OW15064   1.323   4.905   6.927
 4722SOL    HW115065   1.385   4.928   6.852
 4722SOL    HW215066   1.240   4.960   6.919
 4723SOL     OW15067   3.952   4.122   6.890
 4723SOL    HW115068   3.861   4.140   6.929
 4723SOL    HW215069   3.991   4.040   6.932
 4724SOL     OW15070   1.109   6.412   4.801
 4724SOL    HW115071   1.121   6.397   4.703
 4724SOL    HW215072   1.015   6.440   4.819
 4725SOL     OW15073   5.177   6.032   0.254
 4725SOL    HW115074   5.121   5.979   0.318
 4725SOL    HW215075   5.270   5.998   0.255
 4726SOL     OW15076   1.170   3.326   5.766
 4726SOL    HW115077   1.105   3.272   5.819
 4726SOL    HW215078   1.142   3.327   5.670
 4727SOL     OW15079   0.870   5.815   1.267
 4727SOL    HW115080   0.893   5.718   1.259
 4727SOL    HW215081   0.902   5.864   1.186
 4728SOL     OW15082   6.471   2.031   4.666
 4728SOL    HW115083   6.431   1.944   4.695
 4728SOL    HW215084   6.508   2.080   4.745
 4729SOL     OW15085   5.865   1.478   1.999
 4729SOL    HW115086   5.909   1.525   2.076
 4729SOL    HW215087   5.884   1.527   1.914
 4730SOL     OW15088   3.382   0.053   4.493
 4730SOL    HW115089   3.355   0.039   4.588
 4730SOL    HW215090   3.436   6.994   4.462
 4731SOL     OW15091   3.333   0.094   0.299
 4731SOL    HW115092   3.243   0.113   0.258
 4731SOL    HW215093   3.400   0.158   0.262
 4732SOL     OW15094   0.456   4.780   4.103
 4732SOL    HW115095   0.457   4.742   4.011
 4732SOL    HW215096   0.463   4.880   4.097
 4733SOL     OW15097   1.919   3.652   3.608
 4733SOL    HW115098   1.876   3.629   3.695
 4733SOL    HW215099   1.967   3.572   3.573
 4734SOL     OW15100   4.782   3.240   0.197
 4734SOL    HW115101   4.855   3.178   0.169
 4734SOL    HW215102   4.695   3.209   0.158
 4735SOL     OW15103   0.109   0.336   5.148
 4735SOL    HW115104   0.012   0.343   5.171
 4735SOL    HW215105   0.119   0.318   5.050
 4736SOL     OW15106   6.517   2.305   3.506
 4736SOL    HW115107   6.419   2.285   3.512
 4736SOL    HW215108   6.545   2.301   3.410
 4737SOL     OW15109   2.062   4.789   0.877
 4737SOL    HW115110   2.060   4.710   0.815
 4737SOL    HW215111   1.970   4.812   0.906
 4738SOL     OW15112   1.782   6.356   3.783
 4738SOL    HW115113   1.763   6.357   3.882
 4738SOL    HW215114   1.736   6.433   3.740
 4739SOL     OW15115   5.804   3.305   3.570
 4739SOL    HW115116   5.758   3.362   3.639
 4739SOL    HW215117   5.743   3.231   3.543
 4740SOL     OW15118   0.942   1.185   1.601
 4740SOL    HW115119   0.849   1.215   1.579
 4740SOL    HW215120   1.007   1.230   1.540
 4741SOL     OW15121   4.370   4.497   1.787
 4741SOL    HW115122   4.368   4.403   1.822
 4741SOL    HW215123   4.344   4.560   1.860
 4742SOL     OW15124   2.773   6.116   1.991
 4742SOL    HW115125   2.714   6.150   1.917
 4742SOL    HW215126   2.741   6.153   2.078
 4743SOL     OW15127   2.700   2.289   0.118
 4743SOL    HW115128   2.634   2.267   0.047
 4743SOL    HW215129   2.671   2.373   0.165
 4744SOL     OW15130   1.716   3.065   5.269
 4744SOL    HW115131   1.666   3.060   5.355
 4744SOL    HW215132   1.716   3.159   5.236
 4745SOL     OW15133   2.913   5.665   4.648
 4745SOL    HW115134   2.884   5.755   4.616
 4745SOL    HW215135   2.915   5.664   4.748
 4746SOL     OW15136   6.188   0.744   0.585
 4746SOL    HW115137   6.243   0.686   0.526
 4746SOL    HW215138   6.224   0.838   0.582
 4747SOL     OW15139   6.082   2.552   1.228
 4747SOL    HW115140   6.035   2.485   1.285
 4747SOL    HW215141   6.067   2.530   1.131
 4748SOL     OW15142   1.486   0.620   1.722
 4748SOL    HW115143   1.486   0.688   1.795
 4748SOL    HW215144   1.406   0.633   1.663
 4749SOL     OW15145   1.778   6.780   6.831
 4749SOL    HW115146   1.716   6.726   6.775
 4749SOL    HW215147   1.731   6.810   6.914
 4750SOL     OW15148   0.132   1.108   4.369
 4750SOL    HW115149   0.076   1.054   4.432
 4750SOL    HW215150   0.226   1.113   4.405
 4751SOL     OW15151   0.784   3.799   6.603
 4751SOL    HW115152   0.880   3.782   6.578
 4751SOL    HW215153   0.724   3.766   6.530
 4752SOL     OW15154   2.496   5.660   1.397
 4752SOL    HW115155   2.555   5.723   1.449
 4752SOL    HW215156   2.541   5.572   1.388
 4753SOL     OW15157   6.653   6.624   5.082
 4753SOL    HW115158   6.747   6.616   5.048
 4753SOL    HW215159   6.612   6.533   5.087
 4754SOL     OW15160   1.060   0.345   5.707
 4754SOL    HW115161   0.997   0.380   5.637
 4754SOL    HW215162   1.011   0.329   5.792
 4755SOL     OW15163   2.611   1.907   0.001
 4755SOL    HW115164   2.562   1.940   0.082
 4755SOL    HW215165   2.565   1.826   6.984
 4756SOL     OW15166   5.365   2.904   1.318
 4756SOL    HW115167   5.351   2.960   1.400
 4756SOL    HW215168   5.327   2.813   1.333
 4757SOL     OW15169   1.940   2.409   1.006
 4757SOL    HW115170   2.006   2.448   1.070
 4757SOL    HW215171   1.943   2.309   1.012
 4758SOL     OW15172   5.351   4.745   5.260
 4758SOL    HW115173   5.350   4.842   5.286
 4758SOL    HW215174   5.266   4.722   5.214
 4759SOL     OW15175   5.684   5.059   5.337
 4759SOL    HW115176   5.754   5.128   5.359
 4759SOL    HW215177   5.714   5.004   5.259
 4760SOL     OW15178   1.483   2.057   0.862
 4760SOL    HW115179   1.567   2.006   0.842
 4760SOL    HW215180   1.418   2.044   0.788
 4761SOL     OW15181   0.882   6.243   5.773
 4761SOL    HW115182   0.968   6.293   5.760
 4761SOL    HW215183   0.844   6.266   5.863
 4762SOL     OW15184   2.917   5.961   2.604
 4762SOL    HW115185   2.885   5.913   2.685
 4762SOL    HW215186   2.851   5.949   2.529
 4763SOL     OW15187   5.743   5.485   4.375
 4763SOL    HW115188   5.693   5.520   4.295
 4763SOL    HW215189   5.714   5.534   4.457
 4764SOL     OW15190   3.528   3.500   3.871
 4764SOL    HW115191   3.435   3.526   3.845
 4764SOL    HW215192   3.580   3.582   3.895
 4765SOL     OW15193   5.649   5.294   4.919
 4765SOL    HW115194   5.563   5.253   4.950
 4765SOL    HW215195   5.649   5.392   4.941
 4766SOL     OW15196   3.297   0.673   2.803
 4766SOL    HW115197   3.268   0.608   2.733
 4766SOL    HW215198   3.367   0.733   2.766
 4767SOL     OW15199   4.193   5.631   6.558
 4767SOL    HW115200   4.159   5.699   6.493
 4767SOL    HW215201   4.282   5.661   6.594
 4768SOL     OW15202   6.993   0.678   5.135
 4768SOL    HW115203   0.021   0.625   5.064
 4768SOL    HW215204   0.021   0.665   5.222
 4769SOL     OW15205   3.560   0.098   1.618
 4769SOL    HW115206   3.523   0.161   1.549
 4769SOL    HW215207   3.652   0.071   1.591
 4770SOL     OW15208   2.512   0.036   3.305
 4770SOL    HW115209   2.530   0.120   3.358
 4770SOL    HW215210   2.496   0.060   3.209
 4771SOL     OW15211   3.776   4.183   5.308
 4771SOL    HW115212   3.705   4.186   5.379
 4771SOL    HW215213   3.866   4.184   5.351
 4772SOL     OW15214   2.654   2.453   1.503
 4772SOL    HW115215   2.671   2.455   1.601
 4772SOL    HW215216   2.662   2.545   1.465
 4773SOL     OW15217   7.010   6.221   3.826
 4773SOL    HW115218   6.958   6.139   3.803
 4773SOL    HW215219   0.035   6.209   3.916
 4774SOL     OW15220   0.615   4.391   1.466
 4774SOL    HW115221   0.590   4.481   1.502
 4774SOL    HW215222   0.597   4.388   1.368
 4775SOL     OW15223   3.510   1.098   1.670
 4775SOL    HW115224   3.416   1.065   1.685
 4775SOL    HW215225   3.571   1.051   1.733
 4776SOL     OW15226   3.211   5.511   2.053
 4776SOL    HW115227   3.150   5.436   2.078
 4776SOL    HW215228   3.304   5.491   2.084
 4777SOL     OW15229   3.049   4.273   1.282
 4777SOL    HW115230   3.111   4.336   1.329
 4777SOL    HW215231   3.013   4.316   1.199
 4778SOL     OW15232   4.851   3.924   1.925
 4778SOL    HW115233   4.878   4.018   1.944
 4778SOL    HW215234   4.916   3.883   1.861
 4779SOL     OW15235   5.222   0.515   2.721
 4779SOL    HW115236   5.193   0.500   2.626
 4779SOL    HW215237   5.160   0.579   2.765
 4780SOL     OW15238   1.616   6.601   6.211
 4780SOL    HW115239   1.644   6.505   6.209
 4780SOL    HW215240   1.612   6.637   6.117
 4781SOL     OW15241   1.810   5.628   2.097
 4781SOL    HW115242   1.770   5.606   2.186
 4781SOL    HW215243   1.906   5.653   2.108
 4782SOL     OW15244   5.868   6.148   6.513
 4782SOL    HW115245   5.860   6.239   6.470
 4782SOL    HW215246   5.787   6.094   6.491
 4783SOL     OW15247   5.999   4.646   1.630
 4783SOL    HW115248   6.011   4.745   1.619
 4783SOL    HW215249   5.904   4.621   1.615
 4784SOL     OW15250   5.483   4.988   4.677
 4784SOL    HW115251   5.527   4.994   4.766
 4784SOL    HW215252   5.434   5.073   4.658
 4785SOL     OW15253   6.456   0.733   0.819
 4785SOL    HW115254   6.357   0.744   0.822
 4785SOL    HW215255   6.479   0.639   0.794
 4786SOL     OW15256   1.731   2.912   2.042
 4786SOL    HW115257   1.662   2.851   2.081
 4786SOL    HW215258   1.821   2.869   2.047
 4787SOL     OW15259   3.664   2.119   2.717
 4787SOL    HW115260   3.649   2.069   2.802
 4787SOL    HW215261   3.579   2.120   2.664
 4788SOL     OW15262   1.276   5.124   4.145
 4788SOL    HW115263   1.264   5.029   4.177
 4788SOL    HW215264   1.189   5.157   4.108
 4789SOL     OW15265   6.140   0.654   0.836
 4789SOL    HW115266   6.141   0.692   0.744
 4789SOL    HW215267   6.073   0.580   0.841
 4790SOL     OW15268   5.504   1.701   6.586
 4790SOL    HW115269   5.547   1.628   6.533
 4790SOL    HW215270   5.559   1.785   6.579
 4791SOL     OW15271   5.084   6.692   2.440
 4791SOL    HW115272   5.001   6.700   2.383
 4791SOL    HW215273   5.140   6.773   2.427
 4792SOL     OW15274   2.464   2.627   1.761
 4792SOL    HW115275   2.470   2.726   1.766
 4792SOL    HW215276   2.555   2.587   1.753
 4793SOL     OW15277   1.291   6.736   6.026
 4793SOL    HW115278   1.248   6.726   6.115
 4793SOL    HW215279   1.223   6.767   5.959
 4794SOL     OW15280   3.171   0.964   1.953
 4794SOL    HW115281   3.243   0.929   2.012
 4794SOL    HW215282   3.110   1.024   2.006
 4795SOL     OW15283   6.359   3.222   4.236
 4795SOL    HW115284   6.286   3.211   4.303
 4795SOL    HW215285   6.448   3.219   4.283
 4796SOL     OW15286   5.903   4.091   1.209
 4796SOL    HW115287   5.938   4.002   1.236
 4796SOL    HW215288   5.945   4.119   1.123
 4797SOL     OW15289   0.147   5.076   4.920
 4797SOL    HW115290   0.090   5.133   4.860
 4797SOL    HW215291   0.218   5.032   4.866
 4798SOL     OW15292   6.919   3.917   4.133
 4798SOL    HW115293   6.989   3.987   4.124
 4798SOL    HW215294   6.868   3.931   4.218
 4799SOL     OW15295   3.590   1.712   4.783
 4799SOL    HW115296   3.624   1.795   4.738
 4799SOL    HW215297   3.661   1.641   4.778
 4800SOL     OW15298   1.873   1.941   4.611
 4800SOL    HW115299   1.779   1.961   4.636
 4800SOL    HW215300   1.886   1.955   4.513
 4801SOL     OW15301   0.972   2.623   0.947
 4801SOL    HW115302   0.922   2.595   0.865
 4801SOL    HW215303   0.907   2.646   1.020
 4802SOL     OW15304   2.784   0.769   2.060
 4802SOL    HW115305   2.741   0.679   2.053
 4802SOL    HW215306   2.810   0.787   2.155
 4803SOL     OW15307   0.946   6.747   0.305
 4803SOL    HW115308   0.984   6.655   0.296
 4803SOL    HW215309   1.001   6.800   0.370
 4804SOL     OW15310   4.222   5.162   6.345
 4804SOL    HW115311   4.315   5.126   6.333
 4804SOL    HW215312   4.224   5.236   6.412
 4805SOL     OW15313   0.291   1.897   0.820
 4805SOL    HW115314   0.238   1.841   0.757
 4805SOL    HW215315   0.350   1.959   0.767
 4806SOL     OW15316   0.820   2.482   2.755
 4806SOL    HW115317   0.731   2.525   2.775
 4806SOL    HW215318   0.865   2.460   2.842
 4807SOL     OW15319   7.009   6.692   1.234
 4807SOL    HW115320   0.048   6.651   1.306
 4807SOL    HW215321   6.913   6.689   1.263
 4808SOL     OW15322   4.725   3.322   1.257
 4808SOL    HW115323   4.697   3.227   1.267
 4808SOL    HW215324   4.792   3.345   1.327
 4809SOL     OW15325   3.951   5.568   6.953
 4809SOL    HW115326   3.978   5.570   6.857
 4809SOL    HW215327   4.033   5.574   7.011
 4810SOL     OW15328   0.868   0.238   1.425
 4810SOL    HW115329   0.823   0.195   1.347
 4810SOL    HW215330   0.800   0.281   1.484
 4811SOL     OW15331   4.269   5.871   2.130
 4811SOL    HW115332   4.352   5.921   2.157
 4811SOL    HW215333   4.271   5.779   2.169
 4812SOL     OW15334   6.787   5.842   4.422
 4812SOL    HW115335   6.763   5.936   4.396
 4812SOL    HW215336   6.828   5.842   4.514
 4813SOL     OW15337   5.963   2.724   3.377
 4813SOL    HW115338   6.013   2.758   3.297
 4813SOL    HW215339   5.865   2.735   3.362
 4814SOL     OW15340   0.159   3.230   2.003
 4814SOL    HW115341   0.145   3.224   1.904
 4814SOL    HW215342   0.071   3.245   2.048
 4815SOL     OW15343   4.438   6.094   1.482
 4815SOL    HW115344   4.520   6.138   1.518
 4815SOL    HW215345   4.448   6.080   1.384
 4816SOL     OW15346   5.597   5.376   3.441
 4816SOL    HW115347   5.660   5.442   3.399
 4816SOL    HW215348   5.586   5.298   3.379
 4817SOL     OW15349   0.291   1.366   6.671
 4817SOL    HW115350   0.242   1.294   6.719
 4817SOL    HW215351   0.346   1.418   6.736
 4818SOL     OW15352   0.817   0.596   4.437
 4818SOL    HW115353   0.826   0.579   4.339
 4818SOL    HW215354   0.908   0.594   4.480
 4819SOL     OW15355   1.799   3.368   0.520
 4819SOL    HW115356   1.895   3.394   0.530
 4819SOL    HW215357   1.767   3.325   0.603
 4820SOL     OW15358   6.877   2.976   1.960
 4820SOL    HW115359   6.926   2.957   1.875
 4820SOL    HW215360   6.781   2.949   1.950
 4821SOL     OW15361   0.022   5.712   2.785
 4821SOL    HW115362   0.057   5.686   2.695
 4821SOL    HW215363   6.941   5.697   2.788
 4822SOL     OW15364   1.786   4.012   4.271
 4822SOL    HW115365   1.699   4.057   4.249
 4822SOL    HW215366   1.842   4.074   4.326
 4823SOL     OW15367   1.655   3.390   1.311
 4823SOL    HW115368   1.586   3.368   1.379
 4823SOL    HW215369   1.674   3.310   1.255
 4824SOL     OW15370   6.655   1.573   6.002
 4824SOL    HW115371   6.678   1.647   5.939
 4824SOL    HW215372   6.721   1.498   5.990
 4825SOL     OW15373   1.691   0.017   3.999
 4825SOL    HW115374   1.698   6.939   4.023
 4825SOL    HW215375   1.716   0.073   4.077
 4826SOL     OW15376   3.605   0.570   1.695
 4826SOL    HW115377   3.619   0.663   1.727
 4826SOL    HW215378   3.601   0.570   1.595
 4827SOL     OW15379   6.453   1.913   1.211
 4827SOL    HW115380   6.430   1.912   1.309
 4827SOL    HW215381   6.512   1.992   1.192
 4828SOL     OW15382   4.954   1.012   4.067
 4828SOL    HW115383   4.914   0.922   4.085
 4828SOL    HW215384   5.044   1.017   4.109
 4829SOL     OW15385   4.505   6.756   4.675
 4829SOL    HW115386   4.478   6.659   4.676
 4829SOL    HW215387   4.599   6.764   4.707
 4830SOL     OW15388   3.011   6.203   2.994
 4830SOL    HW115389   3.062   6.288   3.012
 4830SOL    HW215390   2.993   6.157   3.080
 4831SOL     OW15391   2.945   4.658   5.432
 4831SOL    HW115392   2.950   4.619   5.340
 4831SOL    HW215393   2.914   4.587   5.496
 4832SOL     OW15394   3.780   3.118   4.564
 4832SOL    HW115395   3.734   3.196   4.519
 4832SOL    HW215396   3.872   3.109   4.527
 4833SOL     OW15397   6.776   3.279   4.510
 4833SOL    HW115398   6.809   3.255   4.601
 4833SOL    HW215399   6.810   3.370   4.485
 4834SOL     OW15400   0.878   5.505   1.373
 4834SOL    HW115401   0.810   5.507   1.299
 4834SOL    HW215402   0.832   5.515   1.461
 4835SOL     OW15403   6.740   2.500   5.295
 4835SOL    HW115404   6.668   2.498   5.226
 4835SOL    HW215405   6.773   2.407   5.312
 4836SOL     OW15406   5.097   1.302   5.772
 4836SOL    HW115407   5.062   1.302   5.865
 4836SOL    HW215408   5.192   1.270   5.772
 4837SOL     OW15409   0.552   4.097   3.864
 4837SOL    HW115410   0.512   4.135   3.780
 4837SOL    HW215411   0.482   4.088   3.934
 4838SOL     OW15412   2.431   4.310   6.199
 4838SOL    HW115413   2.494   4.342   6.128
 4838SOL    HW215414   2.366   4.382   6.220
 4839SOL     OW15415   2.440   1.390   0.562
 4839SOL    HW115416   2.419   1.429   0.651
 4839SOL    HW215417   2.384   1.435   0.491
 4840SOL     OW15418   5.761   3.880   3.961
 4840SOL    HW115419   5.824   3.827   3.904
 4840SOL    HW215420   5.678   3.827   3.977
 4841SOL     OW15421   3.229   6.309   2.727
 4841SOL    HW115422   3.310   6.311   2.785
 4841SOL    HW215423   3.175   6.392   2.742
 4842SOL     OW15424   3.229   5.467   2.702
 4842SOL    HW115425   3.251   5.555   2.743
 4842SOL    HW215426   3.226   5.396   2.772
 4843SOL     OW15427   0.230   2.291   1.031
 4843SOL    HW115428   0.174   2.232   1.090
 4843SOL    HW215429   0.170   2.342   0.969
 4844SOL     OW15430   1.777   5.236   5.262
 4844SOL    HW115431   1.719   5.220   5.342
 4844SOL    HW215432   1.722   5.226   5.179
 4845SOL     OW15433   4.973   3.858   5.052
 4845SOL    HW115434   5.032   3.932   5.020
 4845SOL    HW215435   4.957   3.794   4.978
 4846SOL     OW15436   6.743   3.637   4.630
 4846SOL    HW115437   6.670   3.598   4.686
 4846SOL    HW215438   6.704   3.700   4.563
 4847SOL     OW15439   2.872   5.969   6.250
 4847SOL    HW115440   2.901   6.061   6.276
 4847SOL    HW215441   2.802   5.937   6.313
 4848SOL     OW15442   3.611   0.651   4.723
 4848SOL    HW115443   3.600   0.668   4.625
 4848SOL    HW215444   3.705   0.670   4.751
 4849SOL     OW15445   2.098   6.682   1.696
 4849SOL    HW115446   2.010   6.639   1.674
 4849SOL    HW215447   2.086   6.781   1.701
 4850SOL     OW15448   4.384   0.003   0.625
 4850SOL    HW115449   4.459   0.069   0.625
 4850SOL    HW215450   4.298   0.050   0.645
 4851SOL     OW15451   3.941   4.474   6.586
 4851SOL    HW115452   3.989   4.553   6.546
 4851SOL    HW215453   3.929   4.489   6.684
 4852SOL     OW15454   5.396   5.230   4.981
 4852SOL    HW115455   5.363   5.237   4.887
 4852SOL    HW215456   5.410   5.134   5.005
 4853SOL     OW15457   4.057   6.820   2.511
 4853SOL    HW115458   4.126   6.881   2.471
 4853SOL    HW215459   3.995   6.874   2.567
 4854SOL     OW15460   5.118   6.675   1.428
 4854SOL    HW115461   5.102   6.771   1.448
 4854SOL    HW215462   5.062   6.618   1.488
 4855SOL     OW15463   5.334   4.648   5.951
 4855SOL    HW115464   5.387   4.578   5.999
 4855SOL    HW215465   5.384   4.678   5.869
 4856SOL     OW15466   0.452   3.167   2.981
 4856SOL    HW115467   0.368   3.126   2.946
 4856SOL    HW215468   0.434   3.260   3.013
 4857SOL     OW15469   2.528   1.939   4.988
 4857SOL    HW115470   2.627   1.930   5.004
 4857SOL    HW215471   2.511   2.020   4.933
 4858SOL     OW15472   0.789   5.945   4.825
 4858SOL    HW115473   0.863   5.899   4.875
 4858SOL    HW215474   0.828   6.009   4.759
 4859SOL     OW15475   0.367   6.553   2.685
 4859SOL    HW115476   0.409   6.615   2.618
 4859SOL    HW215477   0.340   6.604   2.765
 4860SOL     OW15478   4.739   5.281   1.272
 4860SOL    HW115479   4.772   5.374   1.285
 4860SOL    HW215480   4.788   5.237   1.197
 4861SOL     OW15481   0.247   4.157   6.228
 4861SOL    HW115482   0.313   4.212   6.176
 4861SOL    HW215483   0.160   4.156   6.180
 4862SOL     OW15484   2.438   5.516   5.065
 4862SOL    HW115485   2.462   5.510   4.968
 4862SOL    HW215486   2.500   5.581   5.110
 4863SOL     OW15487   4.753   2.418   3.072
 4863SOL    HW115488   4.713   2.367   2.996
 4863SOL    HW215489   4.850   2.396   3.080
 4864SOL     OW15490   1.798   1.206   1.416
 4864SOL    HW115491   1.710   1.195   1.369
 4864SOL    HW215492   1.864   1.248   1.353
 4865SOL     OW15493   3.927   6.140   5.442
 4865SOL    HW115494   3.940   6.197   5.523
 4865SOL    HW215495   3.887   6.053   5.468
 4866SOL     OW15496   0.251   4.409   2.111
 4866SOL    HW115497   0.156   4.378   2.114
 4866SOL    HW215498   0.285   4.420   2.205
 4867SOL     OW15499   4.589   5.525   3.520
 4867SOL    HW115500   4.650   5.558   3.592
 4867SOL    HW215501   4.494   5.549   3.544
 4868SOL     OW15502   1.257   6.462   1.445
 4868SOL    HW115503   1.231   6.446   1.541
 4868SOL    HW215504   1.225   6.553   1.418
 4869SOL     OW15505   6.416   1.195   0.957
 4869SOL    HW115506   6.382   1.105   0.986
 4869SOL    HW215507   6.354   1.234   0.889
 4870SOL     OW15508   6.816   0.133   1.328
 4870SOL    HW115509   6.729   0.152   1.374
 4870SOL    HW215510   6.851   0.044   1.357
 4871SOL     OW15511   1.098   3.259   4.236
 4871SOL    HW115512   1.150   3.186   4.192
 4871SOL    HW215513   1.001   3.251   4.210
 4872SOL     OW15514   0.810   0.641   3.634
 4872SOL    HW115515   0.893   0.597   3.667
 4872SOL    HW215516   0.767   0.692   3.709
 4873SOL     OW15517   0.993   6.313   5.106
 4873SOL    HW115518   0.949   6.343   5.022
 4873SOL    HW215519   1.092   6.309   5.092
 4874SOL     OW15520   5.155   3.463   3.526
 4874SOL    HW115521   5.067   3.491   3.488
 4874SOL    HW215522   5.142   3.383   3.586
 4875SOL     OW15523   6.172   3.194   6.737
 4875SOL    HW115524   6.083   3.222   6.771
 4875SOL    HW215525   6.162   3.152   6.647
 4876SOL     OW15526   0.592   1.673   6.797
 4876SOL    HW115527   0.566   1.678   6.701
 4876SOL    HW215528   0.556   1.589   6.837
 4877SOL     OW15529   6.412   1.592   0.863
 4877SOL    HW115530   6.453   1.599   0.954
 4877SOL    HW215531   6.345   1.518   0.863
 4878SOL     OW15532   6.491   2.377   1.488
 4878SOL    HW115533   6.550   2.371   1.569
 4878SOL    HW215534   6.400   2.343   1.510
 4879SOL     OW15535   4.186   6.254   3.165
 4879SOL    HW115536   4.171   6.324   3.235
 4879SOL    HW215537   4.142   6.281   3.080
 4880SOL     OW15538   5.812   2.063   6.412
 4880SOL    HW115539   5.786   2.006   6.333
 4880SOL    HW215540   5.861   2.006   6.479
 4881SOL     OW15541   2.956   5.953   6.715
 4881SOL    HW115542   2.884   6.022   6.720
 4881SOL    HW215543   2.970   5.913   6.806
 4882SOL     OW15544   4.985   0.742   6.017
 4882SOL    HW115545   4.998   0.645   5.997
 4882SOL    HW215546   4.913   0.779   5.959
 4883SOL     OW15547   6.800   6.235   0.796
 4883SOL    HW115548   6.829   6.242   0.892
 4883SOL    HW215549   6.738   6.157   0.785
 4884SOL     OW15550   3.579   6.593   1.820
 4884SOL    HW115551   3.637   6.551   1.751
 4884SOL    HW215552   3.510   6.650   1.775
 4885SOL     OW15553   2.102   6.994   2.318
 4885SOL    HW115554   2.125   0.050   2.381
 4885SOL    HW215555   2.153   7.005   2.233
 4886SOL     OW15556   6.138   0.709   6.099
 4886SOL    HW115557   6.064   0.643   6.109
 4886SOL    HW215558   6.179   0.700   6.009
 4887SOL     OW15559   0.527   2.109   5.135
 4887SOL    HW115560   0.582   2.165   5.074
 4887SOL    HW215561   0.430   2.130   5.122
 4888SOL     OW15562   2.856   5.642   1.735
 4888SOL    HW115563   2.931   5.668   1.796
 4888SOL    HW215564   2.879   5.557   1.688
 4889SOL     OW15565   1.388   2.808   6.811
 4889SOL    HW115566   1.360   2.903   6.796
 4889SOL    HW215567   1.409   2.795   6.908
 4890SOL     OW15568   1.273   0.234   5.131
 4890SOL    HW115569   1.230   0.218   5.220
 4890SOL    HW215570   1.209   0.208   5.058
 4891SOL     OW15571   1.077   3.928   0.749
 4891SOL    HW115572   1.031   3.988   0.815
 4891SOL    HW215573   1.171   3.913   0.777
 4892SOL     OW15574   1.819   6.009   1.175
 4892SOL    HW115575   1.818   5.945   1.098
 4892SOL    HW215576   1.907   6.002   1.223
 4893SOL     OW15577   1.018   3.571   6.377
 4893SOL    HW115578   1.090   3.510   6.344
 4893SOL    HW215579   0.961   3.600   6.300
 4894SOL     OW15580   1.933   1.228   3.747
 4894SOL    HW115581   2.000   1.154   3.740
 4894SOL    HW215582   1.844   1.197   3.714
 4895SOL     OW15583   5.941   3.985   6.969
 4895SOL    HW115584   5.998   3.976   0.032
 4895SOL    HW215585   5.916   3.893   6.936
 4896SOL     OW15586   4.579   5.970   3.424
 4896SOL    HW115587   4.520   6.021   3.361
 4896SOL    HW215588   4.590   5.876   3.391
 4897SOL     OW15589   2.964   5.853   5.633
 4897SOL    HW115590   2.889   5.802   5.591
 4897SOL    HW215591   3.030   5.881   5.563
 4898SOL     OW15592   5.559   2.705   5.111
 4898SOL    HW115593   5.639   2.682   5.166
 4898SOL    HW215594   5.554   2.644   5.032
 4899SOL     OW15595   5.519   4.341   4.601
 4899SOL    HW115596   5.475   4.297   4.522
 4899SOL    HW215597   5.498   4.438   4.602
 4900SOL     OW15598   1.185   6.800   5.233
 4900SOL    HW115599   1.134   6.865   5.291
 4900SOL    HW215600   1.123   6.760   5.166
 4901SOL     OW15601   1.405   6.390   3.222
 4901SOL    HW115602   1.457   6.327   3.165
 4901SOL    HW215603   1.467   6.436   3.286
 4902SOL     OW15604   3.048   4.752   1.762
 4902SOL    HW115605   3.096   4.805   1.832
 4902SOL    HW215606   2.993   4.680   1.806
 4903SOL     OW15607   5.308   6.239   6.250
 4903SOL    HW115608   5.310   6.220   6.348
 4903SOL    HW215609   5.242   6.312   6.231
 4904SOL     OW15610   3.543   6.186   3.238
 4904SOL    HW115611   3.504   6.239   3.313
 4904SOL    HW215612   3.624   6.232   3.202
 4905SOL     OW15613   6.464   3.336   3.253
 4905SOL    HW115614   6.421   3.261   3.302
 4905SOL    HW215615   6.561   3.316   3.240
 4906SOL     OW15616   5.522   1.040   1.680
 4906SOL    HW115617   5.469   0.959   1.654
 4906SOL    HW215618   5.463   1.106   1.726
 4907SOL     OW15619   2.765   1.503   2.651
 4907SOL    HW115620   2.678   1.485   2.604
 4907SOL    HW215621   2.806   1.586   2.615
 4908SOL     OW15622   3.688   5.623   0.167
 4908SOL    HW115623   3.713   5.593   0.075
 4908SOL    HW215624   3.604   5.677   0.163
 4909SOL     OW15625   6.506   6.760   5.464
 4909SOL    HW115626   6.510   6.819   5.383
 4909SOL    HW215627   6.474   6.669   5.437
 4910SOL     OW15628   6.057   0.463   5.729
 4910SOL    HW115629   6.074   0.417   5.641
 4910SOL    HW215630   5.969   0.510   5.725
 4911SOL     OW15631   0.489   2.915   6.166
 4911SOL    HW115632   0.509   3.000   6.118
 4911SOL    HW215633   0.420   2.932   6.237
 4912SOL     OW15634   2.669   2.351   2.233
 4912SOL    HW115635   2.744   2.349   2.166
 4912SOL    HW215636   2.625   2.261   2.236
 4913SOL     OW15637   2.865   3.336   2.417
 4913SOL    HW115638   2.870   3.348   2.516
 4913SOL    HW215639   2.773   3.305   2.392
 4914SOL     OW15640   1.562   6.512   3.407
 4914SOL    HW115641   1.579   6.501   3.505
 4914SOL    HW215642   1.649   6.529   3.360
 4915SOL     OW15643   3.176   5.932   3.095
 4915SOL    HW115644   3.170   5.977   3.006
 4915SOL    HW215645   3.107   5.969   3.157
 4916SOL     OW15646   2.113   1.607   2.556
 4916SOL    HW115647   2.049   1.538   2.522
 4916SOL    HW215648   2.164   1.570   2.634
 4917SOL     OW15649   1.981   5.181   0.133
 4917SOL    HW115650   1.902   5.141   0.087
 4917SOL    HW215651   1.991   5.277   0.107
 4918SOL     OW15652   2.423   0.347   2.219
 4918SOL    HW115653   2.400   0.300   2.304
 4918SOL    HW215654   2.509   0.313   2.183
 4919SOL     OW15655   2.743   3.081   1.330
 4919SOL    HW115656   2.707   2.992   1.302
 4919SOL    HW215657   2.750   3.084   1.429
 4920SOL     OW15658   4.393   0.831   0.228
 4920SOL    HW115659   4.487   0.808   0.251
 4920SOL    HW215660   4.332   0.758   0.258
 4921SOL     OW15661   1.452   4.678   1.678
 4921SOL    HW115662   1.467   4.593   1.628
 4921SOL    HW215663   1.366   4.673   1.729
 4922SOL     OW15664   1.091   2.972   5.832
 4922SOL    HW115665   1.072   3.061   5.874
 4922SOL    HW215666   1.068   2.900   5.897
 4923SOL     OW15667   3.684   1.565   0.783
 4923SOL    HW115668   3.620   1.617   0.841
 4923SOL    HW215669   3.756   1.626   0.751
 4924SOL     OW15670   0.372   3.835   4.623
 4924SOL    HW115671   0.346   3.915   4.676
 4924SOL    HW215672   0.468   3.842   4.597
 4925SOL     OW15673   4.671   5.642   6.245
 4925SOL    HW115674   4.581   5.622   6.285
 4925SOL    HW215675   4.673   5.737   6.214
 4926SOL     OW15676   4.447   2.351   1.710
 4926SOL    HW115677   4.427   2.254   1.713
 4926SOL    HW215678   4.473   2.383   1.801
 4927SOL     OW15679   3.726   4.063   2.835
 4927SOL    HW115680   3.760   4.129   2.902
 4927SOL    HW215681   3.801   4.038   2.773
 4928SOL     OW15682   0.392   6.263   1.069
 4928SOL    HW115683   0.297   6.293   1.070
 4928SOL    HW215684   0.419   6.233   1.160
 4929SOL     OW15685   0.743   4.868   4.287
 4929SOL    HW115686   0.838   4.851   4.262
 4929SOL    HW215687   0.684   4.847   4.208
 4930SOL     OW15688   6.649   2.325   0.907
 4930SOL    HW115689   6.558   2.351   0.937
 4930SOL    HW215690   6.647   2.235   0.865
 4931SOL     OW15691   0.380   0.659   1.482
 4931SOL    HW115692   0.423   0.717   1.551
 4931SOL    HW215693   0.332   0.715   1.415
 4932SOL     OW15694   3.659   2.113   0.926
 4932SOL    HW115695   3.564   2.121   0.957
 4932SOL    HW215696   3.686   2.198   0.881
 4933SOL     OW15697   2.736   0.770   5.173
 4933SOL    HW115698   2.820   0.742   5.126
 4933SOL    HW215699   2.657   0.735   5.123
 4934SOL     OW15700   1.431   6.247   5.309
 4934SOL    HW115701   1.383   6.244   5.396
 4934SOL    HW215702   1.529   6.256   5.326
 4935SOL     OW15703   1.446   1.063   0.901
 4935SOL    HW115704   1.477   1.024   0.814
 4935SOL    HW215705   1.522   1.062   0.966
 4936SOL     OW15706   4.087   5.744   0.753
 4936SOL    HW115707   4.031   5.685   0.812
 4936SOL    HW215708   4.170   5.696   0.728
 4937SOL     OW15709   1.267   2.975   6.242
 4937SOL    HW115710   1.231   2.881   6.245
 4937SOL    HW215711   1.227   3.028   6.316
 4938SOL     OW15712   3.211   4.900   1.400
 4938SOL    HW115713   3.195   4.806   1.431
 4938SOL    HW215714   3.129   4.955   1.418
 4939SOL     OW15715   1.343   1.701   2.369
 4939SOL    HW115716   1.378   1.794   2.379
 4939SOL    HW215717   1.413   1.643   2.326
 4940SOL     OW15718   6.859   2.251   5.222
 4940SOL    HW115719   6.909   2.304   5.153
 4940SOL    HW215720   6.814   2.173   5.179
 4941SOL     OW15721   4.389   1.636   5.369
 4941SOL    HW115722   4.397   1.733   5.347
 4941SOL    HW215723   4.455   1.584   5.314
 4942SOL     OW15724   0.572   1.440   3.316
 4942SOL    HW115725   0.656   1.429   3.264
 4942SOL    HW215726   0.576   1.383   3.398
 4943SOL     OW15727   4.871   2.792   6.906
 4943SOL    HW115728   4.934   2.761   6.977
 4943SOL    HW215729   4.910   2.872   6.860
 4944SOL     OW15730   0.795   4.930   0.167
 4944SOL    HW115731   0.751   4.892   0.085
 4944SOL    HW215732   0.725   4.967   0.228
 4945SOL     OW15733   2.366   0.860   5.252
 4945SOL    HW115734   2.327   0.927   5.315
 4945SOL    HW215735   2.395   0.779   5.302
 4946SOL     OW15736   3.116   5.210   0.119
 4946SOL    HW115737   3.053   5.163   0.056
 4946SOL    HW215738   3.121   5.159   0.205
 4947SOL     OW15739   1.251   0.870   2.004
 4947SOL    HW115740   1.279   0.910   1.916
 4947SOL    HW215741   1.327   0.816   2.041
 4948SOL     OW15742   1.872   2.493   1.938
 4948SOL    HW115743   1.955   2.525   1.892
 4948SOL    HW215744   1.871   2.527   2.032
 4949SOL     OW15745   0.162   4.786   6.663
 4949SOL    HW115746   0.134   4.751   6.574
 4949SOL    HW215747   0.098   4.753   6.733
 4950SOL     OW15748   3.241   3.841   6.000
 4950SOL    HW115749   3.156   3.801   6.034
 4950SOL    HW215750   3.318   3.783   6.026
 4951SOL     OW15751   5.203   5.379   3.540
 4951SOL    HW115752   5.193   5.279   3.534
 4951SOL    HW215753   5.118   5.419   3.575
 4952SOL     OW15754   0.325   7.005   6.355
 4952SOL    HW115755   0.272   7.003   6.270
 4952SOL    HW215756   0.263   7.002   6.433
 4953SOL     OW15757   0.826   2.052   4.771
 4953SOL    HW115758   0.802   2.029   4.865
 4953SOL    HW215759   0.830   2.152   4.761
 4954SOL     OW15760   3.268   4.029   4.849
 4954SOL    HW115761   3.183   4.060   4.891
 4954SOL    HW215762   3.331   3.998   4.921
 4955SOL     OW15763   4.135   5.472   5.710
 4955SOL    HW115764   4.163   5.549   5.653
 4955SOL    HW215765   4.104   5.397   5.651
 4956SOL     OW15766   2.730   0.244   4.873
 4956SOL    HW115767   2.637   0.259   4.907
 4956SOL    HW215768   2.748   0.307   4.797
 4957SOL     OW15769   5.721   4.508   6.439
 4957SOL    HW115770   5.798   4.550   6.392
 4957SOL    HW215771   5.741   4.412   6.456
 4958SOL     OW15772   3.494   6.451   0.493
 4958SOL    HW115773   3.410   6.421   0.447
 4958SOL    HW215774   3.571   6.397   0.460
 4959SOL     OW15775   0.812   1.983   2.746
 4959SOL    HW115776   0.783   2.016   2.836
 4959SOL    HW215777   0.897   2.028   2.719
 4960SOL     OW15778   4.370   4.600   4.211
 4960SOL    HW115779   4.280   4.608   4.254
 4960SOL    HW215780   4.426   4.679   4.237
 4961SOL     OW15781   3.620   1.270   1.114
 4961SOL    HW115782   3.576   1.183   1.089
 4961SOL    HW215783   3.553   1.344   1.109
 4962SOL     OW15784   1.325   4.046   0.882
 4962SOL    HW115785   1.361   3.954   0.897
 4962SOL    HW215786   1.400   4.112   0.882
 4963SOL     OW15787   1.048   3.834   6.494
 4963SOL    HW115788   1.019   3.910   6.436
 4963SOL    HW215789   1.060   3.752   6.438
 4964SOL     OW15790   2.597   6.926   4.514
 4964SOL    HW115791   2.655   6.956   4.439
 4964SOL    HW215792   2.573   6.830   4.502
 4965SOL     OW15793   1.576   6.132   3.383
 4965SOL    HW115794   1.576   6.041   3.342
 4965SOL    HW215795   1.491   6.147   3.432
 4966SOL     OW15796   2.840   6.983   4.318
 4966SOL    HW115797   2.871   6.892   4.289
 4966SOL    HW215798   2.919   0.019   4.345
 4967SOL     OW15799   4.313   4.769   5.081
 4967SOL    HW115800   4.400   4.804   5.116
 4967SOL    HW215801   4.330   4.704   5.007
 4968SOL     OW15802   6.611   2.681   2.959
 4968SOL    HW115803   6.642   2.765   2.915
 4968SOL    HW215804   6.587   2.700   3.054
 4969SOL     OW15805   0.965   6.235   3.426
 4969SOL    HW115806   0.899   6.160   3.434
 4969SOL    HW215807   1.058   6.198   3.439
 4970SOL     OW15808   0.952   1.558   1.345
 4970SOL    HW115809   1.046   1.529   1.363
 4970SOL    HW215810   0.893   1.477   1.336
 4971SOL     OW15811   6.887   6.196   2.630
 4971SOL    HW115812   6.981   6.199   2.594
 4971SOL    HW215813   6.886   6.145   2.716
 4972SOL     OW15814   0.543   4.648   0.836
 4972SOL    HW115815   0.592   4.679   0.754
 4972SOL    HW215816   0.526   4.550   0.830
 4973SOL     OW15817   6.800   0.856   0.581
 4973SOL    HW115818   6.893   0.891   0.592
 4973SOL    HW215819   6.751   0.860   0.668
 4974SOL     OW15820   3.884   5.865   5.188
 4974SOL    HW115821   3.823   5.789   5.166
 4974SOL    HW215822   3.904   5.864   5.287
 4975SOL     OW15823   5.580   4.504   0.912
 4975SOL    HW115824   5.485   4.508   0.943
 4975SOL    HW215825   5.631   4.440   0.969
 4976SOL     OW15826   1.854   6.814   3.130
 4976SOL    HW115827   1.872   6.768   3.217
 4976SOL    HW215828   1.756   6.811   3.110
 4977SOL     OW15829   1.811   4.557   5.872
 4977SOL    HW115830   1.736   4.549   5.937
 4977SOL    HW215831   1.859   4.644   5.887
 4978SOL     OW15832   5.136   4.495   4.777
 4978SOL    HW115833   5.047   4.531   4.808
 4978SOL    HW215834   5.137   4.491   4.677
 4979SOL     OW15835   2.522   6.861   5.996
 4979SOL    HW115836   2.423   6.865   6.006
 4979SOL    HW215837   2.558   6.954   5.989
 4980SOL     OW15838   5.320   3.749   3.716
 4980SOL    HW115839   5.237   3.800   3.694
 4980SOL    HW215840   5.348   3.695   3.636
 4981SOL     OW15841   3.276   4.872   2.376
 4981SOL    HW115842   3.178   4.889   2.368
 4981SOL    HW215843   3.301   4.863   2.472
 4982SOL     OW15844   3.909   1.556   5.809
 4982SOL    HW115845   3.971   1.524   5.881
 4982SOL    HW215846   3.903   1.656   5.812
 4983SOL     OW15847   5.644   5.807   2.882
 4983SOL    HW115848   5.621   5.833   2.976
 4983SOL    HW215849   5.685   5.716   2.882
 4984SOL     OW15850   4.678   4.266   3.453
 4984SOL    HW115851   4.592   4.296   3.494
 4984SOL    HW215852   4.662   4.241   3.357
 4985SOL     OW15853   5.303   6.470   2.138
 4985SOL    HW115854   5.260   6.438   2.053
 4985SOL    HW215855   5.325   6.567   2.129
 4986SOL     OW15856   0.416   5.266   2.198
 4986SOL    HW115857   0.432   5.292   2.294
 4986SOL    HW215858   0.497   5.290   2.144
 4987SOL     OW15859   0.928   0.820   2.231
 4987SOL    HW115860   0.842   0.797   2.276
 4987SOL    HW215861   0.980   0.884   2.288
 4988SOL     OW15862   6.167   6.457   3.511
 4988SOL    HW115863   6.151   6.371   3.463
 4988SOL    HW215864   6.248   6.502   3.474
 4989SOL     OW15865   4.674   0.027   3.027
 4989SOL    HW115866   4.576   0.042   3.011
 4989SOL    HW215867   4.699   0.062   3.117
 4990SOL     OW15868   4.983   2.398   5.116
 4990SOL    HW115869   4.902   2.364   5.164
 4990SOL    HW215870   4.963   2.487   5.076
 4991SOL     OW15871   1.482   4.852   5.274
 4991SOL    HW115872   1.400   4.907   5.287
 4991SOL    HW215873   1.547   4.871   5.346
 4992SOL     OW15874   0.751   2.700   3.965
 4992SOL    HW115875   0.663   2.660   3.991
 4992SOL    HW215876   0.812   2.629   3.931
 4993SOL     OW15877   3.317   6.130   3.940
 4993SOL    HW115878   3.294   6.227   3.953
 4993SOL    HW215879   3.400   6.108   3.991
 4994SOL     OW15880   3.360   4.323   5.384
 4994SOL    HW115881   3.294   4.353   5.453
 4994SOL    HW215882   3.339   4.229   5.357
 4995SOL     OW15883   0.849   0.231   5.922
 4995SOL    HW115884   0.913   0.286   5.976
 4995SOL    HW215885   0.759   0.275   5.923
 4996SOL     OW15886   6.794   1.251   4.408
 4996SOL    HW115887   6.824   1.309   4.483
 4996SOL    HW215888   6.699   1.271   4.385
 4997SOL     OW15889   3.845   1.899   1.300
 4997SOL    HW115890   3.815   1.883   1.205
 4997SOL    HW215891   3.874   1.813   1.340
 4998SOL     OW15892   0.185   3.575   3.576
 4998SOL    HW115893   0.248   3.653   3.584
 4998SOL    HW215894   0.094   3.603   3.605
 4999SOL     OW15895   0.951   3.349   4.522
 4999SOL    HW115896   1.016   3.349   4.446
 4999SOL    HW215897   0.957   3.263   4.572
 5000SOL     OW15898   3.188   5.424   2.417
 5000SOL    HW115899   3.162   5.513   2.379
 5000SOL    HW215900   3.194   5.431   2.516
 5001SOL     OW15901   0.411   5.973   3.365
 5001SOL    HW115902   0.505   5.942   3.349
 5001SOL    HW215903   0.384   5.951   3.459
 5002SOL     OW15904   0.613   3.215   3.380
 5002SOL    HW115905   0.675   3.225   3.458
 5002SOL    HW215906   0.605   3.118   3.356
 5003SOL     OW15907   4.230   0.400   4.159
 5003SOL    HW115908   4.252   0.372   4.065
 5003SOL    HW215909   4.249   0.324   4.221
 5004SOL     OW15910   2.677   5.722   6.655
 5004SOL    HW115911   2.625   5.648   6.612
 5004SOL    HW215912   2.732   5.768   6.586
 5005SOL     OW15913   3.293   2.388   0.478
 5005SOL    HW115914   3.317   2.408   0.572
 5005SOL    HW215915   3.247   2.299   0.473
 5006SOL     OW15916   4.863   1.270   1.994
 5006SOL    HW115917   4.799   1.346   1.995
 5006SOL    HW215918   4.936   1.286   2.061
 5007SOL     OW15919   6.075   6.545   2.110
 5007SOL    HW115920   6.156   6.487   2.107
 5007SOL    HW215921   6.058   6.583   2.019
 5008SOL     OW15922   5.446   6.708   2.239
 5008SOL    HW115923   5.502   6.711   2.156
 5008SOL    HW215924   5.503   6.730   2.318
 5009SOL     OW15925   6.981   2.592   1.062
 5009SOL    HW115926   6.980   2.492   1.059
 5009SOL    HW215927   6.953   2.622   1.153
 5010SOL     OW15928   3.692   3.659   0.792
 5010SOL    HW115929   3.784   3.689   0.767
 5010SOL    HW215930   3.696   3.611   0.880
 5011SOL     OW15931   2.383   3.095   6.466
 5011SOL    HW115932   2.333   3.181   6.451
 5011SOL    HW215933   2.477   3.116   6.492
 5012SOL     OW15934   6.172   1.972   5.319
 5012SOL    HW115935   6.129   2.013   5.399
 5012SOL    HW215936   6.144   1.876   5.311
 5013SOL     OW15937   6.010   0.038   5.908
 5013SOL    HW115938   5.985   0.113   5.848
 5013SOL    HW215939   5.982   6.970   5.866
 5014SOL     OW15940   6.635   3.664   1.925
 5014SOL    HW115941   6.586   3.579   1.907
 5014SOL    HW215942   6.689   3.655   2.008
 5015SOL     OW15943   5.523   6.328   4.017
 5015SOL    HW115944   5.551   6.314   3.922
 5015SOL    HW215945   5.431   6.367   4.019
 5016SOL     OW15946   1.916   3.801   5.567
 5016SOL    HW115947   1.894   3.765   5.477
 5016SOL    HW215948   1.949   3.895   5.558
 5017SOL     OW15949   0.338   3.476   1.713
 5017SOL    HW115950   0.353   3.505   1.807
 5017SOL    HW215951   0.425   3.477   1.663
 5018SOL     OW15952   0.747   0.124   1.193
 5018SOL    HW115953   0.777   0.119   1.098
 5018SOL    HW215954   0.652   0.155   1.196
 5019SOL     OW15955   0.891   5.215   5.362
 5019SOL    HW115956   0.876   5.120   5.334
 5019SOL    HW215957   0.841   5.233   5.447
 5020SOL     OW15958   2.132   6.925   4.450
 5020SOL    HW115959   2.200   6.915   4.378
 5020SOL    HW215960   2.177   6.931   4.539
 5021SOL     OW15961   1.502   1.343   0.980
 5021SOL    HW115962   1.469   1.258   0.940
 5021SOL    HW215963   1.444   1.419   0.951
 5022SOL     OW15964   6.980   3.307   1.613
 5022SOL    HW115965   0.023   3.245   1.661
 5022SOL    HW215966   6.940   3.372   1.678
 5023SOL     OW15967   6.677   4.808   2.822
 5023SOL    HW115968   6.699   4.869   2.898
 5023SOL    HW215969   6.667   4.715   2.856
 5024SOL     OW15970   4.552   3.719   1.279
 5024SOL    HW115971   4.479   3.717   1.347
 5024SOL    HW215972   4.620   3.787   1.305
 5025SOL     OW15973   3.901   1.010   4.030
 5025SOL    HW115974   3.977   0.969   3.979
 5025SOL    HW215975   3.929   1.100   4.065
 5026SOL     OW15976   4.141   0.037   4.708
 5026SOL    HW115977   4.207   6.999   4.756
 5026SOL    HW215978   4.081   0.083   4.774
 5027SOL     OW15979   5.257   0.172   0.212
 5027SOL    HW115980   5.352   0.177   0.181
 5027SOL    HW215981   5.197   0.212   0.143
 5028SOL     OW15982   0.337   1.991   2.800
 5028SOL    HW115983   0.355   1.953   2.890
 5028SOL    HW215984   0.357   2.089   2.800
 5029SOL     OW15985   6.106   1.667   2.712
 5029SOL    HW115986   6.045   1.673   2.790
 5029SOL    HW215987   6.146   1.575   2.709
 5030SOL     OW15988   0.050   4.581   6.431
 5030SOL    HW115989   6.971   4.581   6.451
 5030SOL    HW215990   0.095   4.508   6.483
 5031SOL     OW15991   6.796   0.351   6.448
 5031SOL    HW115992   6.843   0.344   6.536
 5031SOL    HW215993   6.697   0.356   6.463
 5032SOL     OW15994   2.992   3.503   5.512
 5032SOL    HW115995   2.975   3.573   5.443
 5032SOL    HW215996   3.043   3.427   5.471
 5033SOL     OW15997   1.786   0.853   0.221
 5033SOL    HW115998   1.772   0.931   0.160
 5033SOL    HW215999   1.698   0.813   0.245
 5034SOL     OW16000   4.189   6.436   3.702
 5034SOL    HW116001   4.122   6.464   3.771
 5034SOL    HW216002   4.274   6.486   3.718
 5035SOL     OW16003   1.696   4.319   3.642
 5035SOL    HW116004   1.770   4.326   3.576
 5035SOL    HW216005   1.654   4.228   3.635
 5036SOL     OW16006   6.008   2.738   5.151
 5036SOL    HW116007   6.093   2.707   5.109
 5036SOL    HW216008   5.988   2.831   5.119
 5037SOL     OW16009   4.171   4.117   0.744
 5037SOL    HW116010   4.238   4.145   0.675
 5037SOL    HW216011   4.162   4.189   0.813
 5038SOL     OW16012   3.474   3.937   4.017
 5038SOL    HW116013   3.424   3.995   4.081
 5038SOL    HW216014   3.425   3.932   3.930
 5039SOL     OW16015   0.675   3.394   6.675
 5039SOL    HW116016   0.753   3.435   6.627
 5039SOL    HW216017   0.609   3.465   6.699
 5040SOL     OW16018   0.649   6.357   6.294
 5040SOL    HW116019   0.566   6.358   6.350
 5040SOL    HW216020   0.721   6.306   6.343
 5041SOL     OW16021   0.189   3.581   2.221
 5041SOL    HW116022   0.278   3.547   2.192
 5041SOL    HW216023   0.134   3.505   2.255
 5042SOL     OW16024   0.637   2.701   6.125
 5042SOL    HW116025   0.730   2.705   6.162
 5042SOL    HW216026   0.584   2.778   6.160
 5043SOL     OW16027   3.813   6.549   0.799
 5043SOL    HW116028   3.861   6.632   0.827
 5043SOL    HW216029   3.840   6.473   0.858
 5044SOL     OW16030   5.926   5.190   0.854
 5044SOL    HW116031   5.827   5.178   0.849
 5044SOL    HW216032   5.970   5.135   0.783
 5045SOL     OW16033   6.755   3.536   6.200
 5045SOL    HW116034   6.735   3.624   6.157
 5045SOL    HW216035   6.739   3.543   6.299
 5046SOL     OW16036   3.331   3.295   3.451
 5046SOL    HW116037   3.377   3.211   3.481
 5046SOL    HW216038   3.299   3.284   3.357
 5047SOL     OW16039   1.041   3.652   3.143
 5047SOL    HW116040   1.100   3.589   3.093
 5047SOL    HW216041   1.092   3.691   3.220
 5048SOL     OW16042   1.373   1.045   5.770
 5048SOL    HW116043   1.396   1.138   5.743
 5048SOL    HW216044   1.330   0.998   5.693
 5049SOL     OW16045   5.782   0.782   6.151
 5049SOL    HW116046   5.768   0.878   6.178
 5049SOL    HW216047   5.793   0.777   6.051
 5050SOL     OW16048   1.396   0.607   1.321
 5050SOL    HW116049   1.393   0.700   1.284
 5050SOL    HW216050   1.366   0.542   1.251
 5051SOL     OW16051   4.000   5.096   1.195
 5051SOL    HW116052   4.064   5.032   1.153
 5051SOL    HW216053   3.925   5.045   1.238
 5052SOL     OW16054   2.708   1.064   6.058
 5052SOL    HW116055   2.767   1.088   5.981
 5052SOL    HW216056   2.715   0.965   6.075
 5053SOL     OW16057   0.410   6.638   2.057
 5053SOL    HW116058   0.501   6.624   2.019
 5053SOL    HW216059   0.416   6.693   2.140
 5054SOL     OW16060   4.067   4.767   4.196
 5054SOL    HW116061   3.971   4.763   4.224
 5054SOL    HW216062   4.108   4.853   4.227
 5055SOL     OW16063   6.286   2.977   6.405
 5055SOL    HW116064   6.383   2.962   6.423
 5055SOL    HW216065   6.234   2.900   6.442
 5056SOL     OW16066   5.264   4.198   5.213
 5056SOL    HW116067   5.248   4.222   5.117
 5056SOL    HW216068   5.237   4.103   5.229
 5057SOL     OW16069   1.063   6.521   2.767
 5057SOL    HW116070   1.030   6.546   2.858
 5057SOL    HW216071   1.121   6.594   2.730
 5058SOL     OW16072   2.890   4.644   5.864
 5058SOL    HW116073   2.950   4.635   5.943
 5058SOL    HW216074   2.809   4.698   5.890
 5059SOL     OW16075   0.626   0.820   2.250
 5059SOL    HW116076   0.623   0.832   2.350
 5059SOL    HW216077   0.660   0.903   2.208
 5060SOL     OW16078   6.532   2.419   5.802
 5060SOL    HW116079   6.543   2.497   5.863
 5060SOL    HW216080   6.599   2.348   5.825
 5061SOL     OW16081   5.580   3.980   0.018
 5061SOL    HW116082   5.557   4.071   7.001
 5061SOL    HW216083   5.508   3.950   0.080
 5062SOL     OW16084   0.444   6.871   0.914
 5062SOL    HW116085   0.360   6.832   0.876
 5062SOL    HW216086   0.434   6.970   0.920
 5063SOL     OW16087   1.143   6.467   1.688
 5063SOL    HW116088   1.156   6.557   1.729
 5063SOL    HW216089   1.121   6.400   1.759
 5064SOL     OW16090   4.575   3.135   0.049
 5064SOL    HW116091   4.519   3.214   0.075
 5064SOL    HW216092   4.531   3.051   0.081
 5065SOL     OW16093   2.128   6.441   5.717
 5065SOL    HW116094   2.145   6.374   5.646
 5065SOL    HW216095   2.188   6.423   5.796
 5066SOL     OW16096   5.745   4.972   1.192
 5066SOL    HW116097   5.724   4.883   1.232
 5066SOL    HW216098   5.845   4.985   1.189
 5067SOL     OW16099   5.111   1.274   0.378
 5067SOL    HW116100   5.056   1.190   0.384
 5067SOL    HW216101   5.207   1.252   0.395
 5068SOL     OW16102   2.573   4.972   0.932
 5068SOL    HW116103   2.569   4.987   0.833
 5068SOL    HW216104   2.668   4.961   0.960
 5069SOL     OW16105   0.734   4.659   3.262
 5069SOL    HW116106   0.726   4.626   3.356
 5069SOL    HW216107   0.655   4.626   3.208
 5070SOL     OW16108   5.322   2.894   3.599
 5070SOL    HW116109   5.282   2.954   3.530
 5070SOL    HW216110   5.313   2.937   3.689
 5071SOL     OW16111   4.360   1.704   0.160
 5071SOL    HW116112   4.446   1.653   0.153
 5071SOL    HW216113   4.370   1.791   0.110
 5072SOL     OW16114   1.197   4.336   1.661
 5072SOL    HW116115   1.129   4.265   1.681
 5072SOL    HW216116   1.284   4.312   1.705
 5073SOL     OW16117   4.557   0.795   3.373
 5073SOL    HW116118   4.496   0.828   3.445
 5073SOL    HW216119   4.553   0.856   3.295
 5074SOL     OW16120   2.480   4.143   6.404
 5074SOL    HW116121   2.537   4.062   6.388
 5074SOL    HW216122   2.466   4.192   6.318
 5075SOL     OW16123   0.551   5.886   4.541
 5075SOL    HW116124   0.580   5.800   4.500
 5075SOL    HW216125   0.519   5.869   4.634
 5076SOL     OW16126   3.298   0.181   1.248
 5076SOL    HW116127   3.309   0.086   1.220
 5076SOL    HW216128   3.216   0.190   1.305
 5077SOL     OW16129   0.170   2.320   2.982
 5077SOL    HW116130   0.260   2.364   2.982
 5077SOL    HW216131   0.123   2.338   2.895
 5078SOL     OW16132   1.012   1.779   4.000
 5078SOL    HW116133   1.067   1.715   3.946
 5078SOL    HW216134   0.944   1.729   4.053
 5079SOL     OW16135   3.596   5.318   5.424
 5079SOL    HW116136   3.662   5.275   5.363
 5079SOL    HW216137   3.574   5.255   5.499
 5080SOL     OW16138   6.119   6.702   5.364
 5080SOL    HW116139   6.119   6.763   5.444
 5080SOL    HW216140   6.212   6.669   5.348
 5081SOL     OW16141   3.804   3.499   3.484
 5081SOL    HW116142   3.717   3.484   3.437
 5081SOL    HW216143   3.791   3.565   3.558
 5082SOL     OW16144   5.764   5.975   4.913
 5082SOL    HW116145   5.806   6.064   4.930
 5082SOL    HW216146   5.666   5.988   4.898
 5083SOL     OW16147   1.886   5.987   1.936
 5083SOL    HW116148   1.985   6.000   1.935
 5083SOL    HW216149   1.851   6.000   2.029
 5084SOL     OW16150   1.602   5.910   3.236
 5084SOL    HW116151   1.673   5.901   3.167
 5084SOL    HW216152   1.549   5.824   3.241
 5085SOL     OW16153   6.356   2.590   6.391
 5085SOL    HW116154   6.414   2.660   6.348
 5085SOL    HW216155   6.409   2.542   6.461
 5086SOL     OW16156   6.634   5.295   3.240
 5086SOL    HW116157   6.575   5.226   3.281
 5086SOL    HW216158   6.634   5.284   3.141
 5087SOL     OW16159   0.199   5.514   5.933
 5087SOL    HW116160   0.297   5.498   5.921
 5087SOL    HW216161   0.182   5.611   5.951
 5088SOL     OW16162   5.550   0.367   6.564
 5088SOL    HW116163   5.469   0.309   6.570
 5088SOL    HW216164   5.573   0.383   6.468
 5089SOL     OW16165   5.275   3.759   3.092
 5089SOL    HW116166   5.355   3.785   3.147
 5089SOL    HW216167   5.288   3.668   3.054
 5090SOL     OW16168   1.301   4.953   1.075
 5090SOL    HW116169   1.333   5.018   1.005
 5090SOL    HW216170   1.305   4.996   1.165
 5091SOL     OW16171   1.613   5.914   2.868
 5091SOL    HW116172   1.674   5.922   2.947
 5091SOL    HW216173   1.537   5.854   2.891
 5092SOL     OW16174   4.061   2.644   1.511
 5092SOL    HW116175   3.983   2.705   1.527
 5092SOL    HW216176   4.137   2.671   1.570
 5093SOL     OW16177   0.773   1.949   1.370
 5093SOL    HW116178   0.723   1.888   1.431
 5093SOL    HW216179   0.868   1.956   1.400
 5094SOL     OW16180   0.565   0.036   5.943
 5094SOL    HW116181   0.561   0.052   6.042
 5094SOL    HW216182   0.557   6.956   5.925
 5095SOL     OW16183   2.890   6.873   5.068
 5095SOL    HW116184   2.801   6.831   5.051
 5095SOL    HW216185   2.918   6.927   4.989
 5096SOL     OW16186   4.202   4.612   1.103
 5096SOL    HW116187   4.280   4.560   1.069
 5096SOL    HW216188   4.184   4.587   1.198
 5097SOL     OW16189   1.544   0.132   6.087
 5097SOL    HW116190   1.580   0.090   6.170
 5097SOL    HW216191   1.592   0.219   6.070
 5098SOL     OW16192   0.259   1.975   2.520
 5098SOL    HW116193   0.276   1.883   2.485
 5098SOL    HW216194   0.270   1.975   2.620
 5099SOL     OW16195   1.014   0.405   5.358
 5099SOL    HW116196   1.068   0.321   5.360
 5099SOL    HW216197   0.976   0.419   5.267
 5100SOL     OW16198   4.994   6.929   6.117
 5100SOL    HW116199   5.015   6.919   6.020
 5100SOL    HW216200   4.973   0.006   6.137
 5101SOL     OW16201   4.060   5.974   0.426
 5101SOL    HW116202   3.960   5.974   0.419
 5101SOL    HW216203   4.088   6.037   0.498
 5102SOL     OW16204   3.498   6.474   4.962
 5102SOL    HW116205   3.513   6.427   4.875
 5102SOL    HW216206   3.472   6.408   5.032
 5103SOL     OW16207   0.826   0.934   4.214
 5103SOL    HW116208   0.913   0.886   4.202
 5103SOL    HW216209   0.801   0.934   4.311
 5104SOL     OW16210   1.492   0.191   1.230
 5104SOL    HW116211   1.471   0.199   1.328
 5104SOL    HW216212   1.556   0.263   1.204
 5105SOL     OW16213   2.972   3.927   6.659
 5105SOL    HW116214   2.938   3.834   6.643
 5105SOL    HW216215   2.930   3.989   6.592
 5106SOL     OW16216   3.143   0.282   2.150
 5106SOL    HW116217   3.196   0.313   2.229
 5106SOL    HW216218   3.203   0.270   2.071
 5107SOL     OW16219   1.545   6.651   5.644
 5107SOL    HW116220   1.637   6.688   5.634
 5107SOL    HW216221   1.499   6.651   5.555
 5108SOL     OW16222   3.209   3.444   4.238
 5108SOL    HW116223   3.184   3.434   4.142
 5108SOL    HW216224   3.248   3.358   4.271
 5109SOL     OW16225   6.853   1.270   1.409
 5109SOL    HW116226   6.816   1.197   1.466
 5109SOL    HW216227   6.797   1.281   1.327
 5110SOL     OW16228   2.217   5.686   5.700
 5110SOL    HW116229   2.134   5.685   5.644
 5110SOL    HW216230   2.194   5.715   5.793
 5111SOL     OW16231   1.141   0.865   1.017
 5111SOL    HW116232   1.089   0.922   0.955
 5111SOL    HW216233   1.080   0.825   1.086
 5112SOL     OW16234   0.154   6.211   4.036
 5112SOL    HW116235   0.200   6.272   4.100
 5112SOL    HW216236   0.200   6.122   4.034
 5113SOL     OW16237   1.312   6.758   0.042
 5113SOL    HW116238   1.334   6.795   6.971
 5113SOL    HW216239   1.219   6.786   0.068
 5114SOL     OW16240   3.973   5.023   0.357
 5114SOL    HW116241   3.913   4.951   0.322
 5114SOL    HW216242   3.931   5.112   0.340
 5115SOL     OW16243   2.003   3.466   5.555
 5115SOL    HW116244   2.042   3.559   5.560
 5115SOL    HW216245   2.011   3.433   5.461
 5116SOL     OW16246   6.867   4.112   1.049
 5116SOL    HW116247   6.830   4.203   1.065
 5116SOL    HW216248   6.818   4.069   0.972
 5117SOL     OW16249   2.435   4.414   4.455
 5117SOL    HW116250   2.475   4.442   4.367
 5117SOL    HW216251   2.470   4.473   4.528
 5118SOL     OW16252   4.532   6.429   1.051
 5118SOL    HW116253   4.453   6.440   1.110
 5118SOL    HW216254   4.542   6.511   0.994
 5119SOL     OW16255   5.719   0.056   2.247
 5119SOL    HW116256   5.772   0.025   2.327
 5119SOL    HW216257   5.701   0.154   2.256
 5120SOL     OW16258   4.961   1.402   2.842
 5120SOL    HW116259   5.014   1.335   2.893
 5120SOL    HW216260   4.901   1.354   2.777
 5121SOL     OW16261   0.286   3.942   5.326
 5121SOL    HW116262   0.340   3.907   5.404
 5121SOL    HW216263   0.328   4.026   5.292
 5122SOL     OW16264   1.954   6.243   3.605
 5122SOL    HW116265   1.883   6.287   3.661
 5122SOL    HW216266   2.001   6.312   3.551
 5123SOL     OW16267   5.474   4.817   2.421
 5123SOL    HW116268   5.464   4.720   2.399
 5123SOL    HW216269   5.532   4.828   2.501
 5124SOL     OW16270   2.955   6.368   6.935
 5124SOL    HW116271   2.976   6.280   6.977
 5124SOL    HW216272   2.947   6.438   7.007
 5125SOL     OW16273   0.130   2.908   5.553
 5125SOL    HW116274   0.230   2.905   5.558
 5125SOL    HW216275   0.094   2.816   5.542
 5126SOL     OW16276   5.085   3.414   6.479
 5126SOL    HW116277   5.058   3.455   6.391
 5126SOL    HW216278   5.012   3.354   6.511
 5127SOL     OW16279   6.030   3.144   6.495
 5127SOL    HW116280   5.943   3.112   6.531
 5127SOL    HW216281   6.088   3.065   6.474
 5128SOL     OW16282   0.495   0.853   6.733
 5128SOL    HW116283   0.540   0.927   6.784
 5128SOL    HW216284   0.492   0.877   6.636
 5129SOL     OW16285   4.205   2.242   2.649
 5129SOL    HW116286   4.201   2.159   2.593
 5129SOL    HW216287   4.118   2.255   2.696
 5130SOL     OW16288   0.902   6.193   4.678
 5130SOL    HW116289   0.957   6.179   4.759
 5130SOL    HW216290   0.953   6.248   4.611
 5131SOL     OW16291   3.450   4.910   3.548
 5131SOL    HW116292   3.428   4.825   3.500
 5131SOL    HW216293   3.405   4.987   3.502
 5132SOL     OW16294   3.288   1.153   6.908
 5132SOL    HW116295   3.224   1.117   6.841
 5132SOL    HW216296   3.379   1.161   6.867
 5133SOL     OW16297   4.890   4.305   6.733
 5133SOL    HW116298   4.794   4.315   6.710
 5133SOL    HW216299   4.936   4.394   6.727
 5134SOL     OW16300   6.184   6.318   1.133
 5134SOL    HW116301   6.284   6.322   1.143
 5134SOL    HW216302   6.154   6.385   1.065
 5135SOL     OW16303   6.372   2.932   2.202
 5135SOL    HW116304   6.295   2.869   2.215
 5135SOL    HW216305   6.375   2.997   2.278
 5136SOL     OW16306   1.176   0.958   5.953
 5136SOL    HW116307   1.212   1.013   5.878
 5136SOL    HW216308   1.111   1.013   6.006
 5137SOL     OW16309   6.231   1.140   4.613
 5137SOL    HW116310   6.192   1.232   4.612
 5137SOL    HW216311   6.167   1.077   4.658
 5138SOL     OW16312   3.007   3.346   3.793
 5138SOL    HW116313   2.966   3.389   3.874
 5138SOL    HW216314   2.963   3.382   3.711
 5139SOL     OW16315   2.751   0.151   5.800
 5139SOL    HW116316   2.737   0.231   5.859
 5139SOL    HW216317   2.714   0.070   5.845
 5140SOL     OW16318   3.795   3.141   6.665
 5140SOL    HW116319   3.852   3.144   6.583
 5140SOL    HW216320   3.724   3.210   6.659
 5141SOL     OW16321   6.692   2.778   1.737
 5141SOL    HW116322   6.598   2.808   1.716
 5141SOL    HW216323   6.689   2.697   1.796
 5142SOL     OW16324   0.159   0.119   2.347
 5142SOL    HW116325   0.085   0.085   2.406
 5142SOL    HW216326   0.143   0.215   2.325
 5143SOL     OW16327   6.997   6.554   2.958
 5143SOL    HW116328   6.970   6.603   2.875
 5143SOL    HW216329   0.005   6.461   2.935
 5144SOL     OW16330   2.300   2.999   5.410
 5144SOL    HW116331   2.350   3.005   5.324
 5144SOL    HW216332   2.202   2.996   5.392
 5145SOL     OW16333   2.250   5.601   6.431
 5145SOL    HW116334   2.335   5.646   6.403
 5145SOL    HW216335   2.266   5.503   6.443
 5146SOL     OW16336   5.315   5.444   6.573
 5146SOL    HW116337   5.220   5.438   6.604
 5146SOL    HW216338   5.325   5.393   6.488
 5147SOL     OW16339   4.655   2.752   3.310
 5147SOL    HW116340   4.608   2.746   3.221
 5147SOL    HW216341   4.727   2.821   3.305
 5148SOL     OW16342   0.813   0.135   6.309
 5148SOL    HW116343   0.760   0.202   6.256
 5148SOL    HW216344   0.806   0.157   6.406
 5149SOL     OW16345   4.771   5.120   3.951
 5149SOL    HW116346   4.804   5.044   4.007
 5149SOL    HW216347   4.716   5.085   3.876
 5150SOL     OW16348   0.231   6.419   4.284
 5150SOL    HW116349   0.297   6.489   4.310
 5150SOL    HW216350   0.141   6.460   4.273
 5151SOL     OW16351   5.886   5.824   1.993
 5151SOL    HW116352   5.828   5.865   1.922
 5151SOL    HW216353   5.843   5.740   2.027
 5152SOL     OW16354   1.553   0.960   0.674
 5152SOL    HW116355   1.554   1.057   0.648
 5152SOL    HW216356   1.532   0.904   0.594
 5153SOL     OW16357   1.115   1.726   0.968
 5153SOL    HW116358   1.121   1.807   0.910
 5153SOL    HW216359   1.050   1.743   1.043
 5154SOL     OW16360   6.988   2.892   0.638
 5154SOL    HW116361   7.005   2.915   0.734
 5154SOL    HW216362   7.001   2.973   0.581
 5155SOL     OW16363   1.665   1.233   0.582
 5155SOL    HW116364   1.621   1.304   0.527
 5155SOL    HW216365   1.706   1.274   0.663
 5156SOL     OW16366   5.358   6.327   5.480
 5156SOL    HW116367   5.363   6.408   5.538
 5156SOL    HW216368   5.299   6.259   5.523
 5157SOL     OW16369   3.117   0.023   1.653
 5157SOL    HW116370   3.059   6.990   1.715
 5157SOL    HW216371   3.099   0.121   1.662
 5158SOL     OW16372   1.946   2.209   1.322
 5158SOL    HW116373   1.862   2.204   1.268
 5158SOL    HW216374   1.924   2.227   1.418
 5159SOL     OW16375   6.458   2.940   5.981
 5159SOL    HW116376   6.362   2.962   5.962
 5159SOL    HW216377   6.510   2.941   5.896
 5160SOL     OW16378   6.187   6.816   3.778
 5160SOL    HW116379   6.143   6.848   3.862
 5160SOL    HW216380   6.175   6.885   3.707
 5161SOL     OW16381   1.298   3.426   0.342
 5161SOL    HW116382   1.281   3.521   0.368
 5161SOL    HW216383   1.325   3.422   0.246
 5162SOL     OW16384   6.749   0.298   3.690
 5162SOL    HW116385   6.753   0.270   3.786
 5162SOL    HW216386   6.718   0.393   3.685
 5163SOL     OW16387   2.835   0.722   1.667
 5163SOL    HW116388   2.861   0.811   1.629
 5163SOL    HW216389   2.833   0.654   1.594
 5164SOL     OW16390   2.709   3.505   0.109
 5164SOL    HW116391   2.702   3.573   0.183
 5164SOL    HW216392   2.748   3.420   0.146
 5165SOL     OW16393   1.821   4.248   6.234
 5165SOL    HW116394   1.743   4.271   6.176
 5165SOL    HW216395   1.803   4.279   6.328
 5166SOL     OW16396   1.287   5.279   0.906
 5166SOL    HW116397   1.332   5.343   0.843
 5166SOL    HW216398   1.199   5.316   0.935
 5167SOL     OW16399   5.495   3.155   5.215
 5167SOL    HW116400   5.507   3.065   5.256
 5167SOL    HW216401   5.574   3.178   5.159
 5168SOL     OW16402   4.441   2.437   2.981
 5168SOL    HW116403   4.496   2.380   3.041
 5168SOL    HW216404   4.379   2.380   2.927
 5169SOL     OW16405   3.863   5.664   4.384
 5169SOL    HW116406   3.782   5.627   4.338
 5169SOL    HW216407   3.945   5.624   4.343
 5170SOL     OW16408   2.283   3.346   6.423
 5170SOL    HW116409   2.368   3.398   6.419
 5170SOL    HW216410   2.214   3.391   6.366
 5171SOL     OW16411   1.778   5.827   5.646
 5171SOL    HW116412   1.805   5.839   5.742
 5171SOL    HW216413   1.696   5.882   5.628
 5172SOL     OW16414   6.024   5.458   5.079
 5172SOL    HW116415   6.029   5.430   4.982
 5172SOL    HW216416   5.929   5.470   5.106
 5173SOL     OW16417   4.099   4.588   5.815
 5173SOL    HW116418   4.128   4.499   5.779
 5173SOL    HW216419   4.140   4.660   5.759
 5174SOL     OW16420   2.400   6.250   3.723
 5174SOL    HW116421   2.497   6.231   3.711
 5174SOL    HW216422   2.347   6.192   3.661
 5175SOL     OW16423   3.191   3.189   6.955
 5175SOL    HW116424   3.187   3.287   6.976
 5175SOL    HW216425   3.133   3.139   0.000
 5176SOL     OW16426   6.258   6.680   6.944
 5176SOL    HW116427   6.333   6.745   6.937
 5176SOL    HW216428   6.171   6.729   6.945
 5177SOL     OW16429   6.441   0.007   0.186
 5177SOL    HW116430   6.469   6.930   0.189
 5177SOL    HW216431   6.354   0.018   0.234
 5178SOL     OW16432   0.814   4.281   1.862
 5178SOL    HW116433   0.837   4.369   1.905
 5178SOL    HW216434   0.771   4.221   1.930
 5179SOL     OW16435   4.976   6.221   2.656
 5179SOL    HW116436   4.918   6.175   2.724
 5179SOL    HW216437   4.975   6.319   2.674
 5180SOL     OW16438   2.129   6.201   2.759
 5180SOL    HW116439   2.063   6.207   2.684
 5180SOL    HW216440   2.137   6.107   2.790
 5181SOL     OW16441   6.973   0.204   6.100
 5181SOL    HW116442   6.907   0.181   6.171
 5181SOL    HW216443   0.005   0.287   6.126
 5182SOL     OW16444   2.884   6.374   3.294
 5182SOL    HW116445   2.799   6.321   3.288
 5182SOL    HW216446   2.863   6.468   3.322
 5183SOL     OW16447   4.135   1.461   3.943
 5183SOL    HW116448   4.226   1.503   3.939
 5183SOL    HW216449   4.066   1.533   3.943
 5184SOL     OW16450   2.994   1.400   3.672
 5184SOL    HW116451   2.990   1.338   3.593
 5184SOL    HW216452   2.961   1.490   3.645
 5185SOL     OW16453   6.554   0.276   1.363
 5185SOL    HW116454   6.585   0.342   1.431
 5185SOL    HW216455   6.480   0.316   1.309
 5186SOL     OW16456   0.083   3.466   6.766
 5186SOL    HW116457   0.117   3.372   6.754
 5186SOL    HW216458   7.004   3.468   6.744
 5187SOL     OW16459   1.348   4.433   5.051
 5187SOL    HW116460   1.321   4.525   5.023
 5187SOL    HW216461   1.427   4.403   4.998
 5188SOL     OW16462   5.726   0.031   2.570
 5188SOL    HW116463   5.801   6.985   2.559
 5188SOL    HW216464   5.761   0.118   2.603
 5189SOL     OW16465   5.424   6.950   6.227
 5189SOL    HW116466   5.379   6.891   6.293
 5189SOL    HW216467   5.355   6.992   6.168
 5190SOL     OW16468   1.709   4.181   0.509
 5190SOL    HW116469   1.781   4.118   0.540
 5190SOL    HW216470   1.672   4.230   0.588
 5191SOL     OW16471   2.925   5.110   1.836
 5191SOL    HW116472   3.022   5.092   1.851
 5191SOL    HW216473   2.915   5.195   1.784
 5192SOL     OW16474   1.908   5.058   2.552
 5192SOL    HW116475   1.920   5.107   2.466
 5192SOL    HW216476   1.822   5.086   2.595
 5193SOL     OW16477   5.288   0.150   5.218
 5193SOL    HW116478   5.195   0.119   5.238
 5193SOL    HW216479   5.352   0.109   5.282
 5194SOL     OW16480   5.422   1.607   6.180
 5194SOL    HW116481   5.431   1.590   6.082
 5194SOL    HW216482   5.419   1.705   6.197
 5195SOL     OW16483   0.199   0.763   4.797
 5195SOL    HW116484   0.278   0.728   4.746
 5195SOL    HW216485   0.136   0.688   4.817
 5196SOL     OW16486   6.048   6.708   3.330
 5196SOL    HW116487   6.073   6.636   3.395
 5196SOL    HW216488   5.954   6.693   3.300
 5197SOL     OW16489   0.890   3.366   4.874
 5197SOL    HW116490   0.934   3.348   4.962
 5197SOL    HW216491   0.881   3.280   4.823
 5198SOL     OW16492   5.809   5.496   3.326
 5198SOL    HW116493   5.855   5.419   3.283
 5198SOL    HW216494   5.815   5.577   3.268
 5199SOL     OW16495   0.519   4.517   1.915
 5199SOL    HW116496   0.590   4.499   1.984
 5199SOL    HW216497   0.442   4.564   1.959
 5200SOL     OW16498   0.126   3.754   4.564
 5200SOL    HW116499   0.210   3.807   4.578
 5200SOL    HW216500   0.131   3.707   4.476
 5201SOL     OW16501   0.928   5.133   4.218
 5201SOL    HW116502   0.990   5.121   4.295
 5201SOL    HW216503   0.879   5.220   4.228
 5202SOL     OW16504   1.009   4.894   2.031
 5202SOL    HW116505   0.917   4.869   2.061
 5202SOL    HW216506   1.033   4.842   1.949
 5203SOL     OW16507   0.567   3.080   0.240
 5203SOL    HW116508   0.630   3.002   0.241
 5203SOL    HW216509   0.566   3.124   0.329
 5204SOL     OW16510   4.892   4.562   0.047
 5204SOL    HW116511   4.797   4.558   0.017
 5204SOL    HW216512   4.897   4.546   0.146
 5205SOL     OW16513   1.427   6.916   1.186
 5205SOL    HW116514   1.500   6.893   1.122
 5205SOL    HW216515   1.424   7.015   1.200
 5206SOL     OW16516   0.265   4.181   5.003
 5206SOL    HW116517   0.351   4.208   5.047
 5206SOL    HW216518   0.188   4.212   5.058
 5207SOL     OW16519   1.805   4.587   4.136
 5207SOL    HW116520   1.796   4.641   4.220
 5207SOL    HW216521   1.893   4.540   4.137
 5208SOL     OW16522   4.571   1.330   6.965
 5208SOL    HW116523   4.666   1.304   6.949
 5208SOL    HW216524   4.524   1.341   6.878
 5209SOL     OW16525   5.242   6.172   3.141
 5209SOL    HW116526   5.311   6.169   3.069
 5209SOL    HW216527   5.279   6.220   3.221
 5210SOL     OW16528   4.525   4.948   3.280
 5210SOL    HW116529   4.574   4.880   3.336
 5210SOL    HW216530   4.588   4.988   3.214
 5211SOL     OW16531   3.850   3.836   2.483
 5211SOL    HW116532   3.807   3.746   2.482
 5211SOL    HW216533   3.780   3.907   2.483
 5212SOL     OW16534   0.894   1.672   0.525
 5212SOL    HW116535   0.935   1.731   0.455
 5212SOL    HW216536   0.965   1.640   0.588
 5213SOL     OW16537   4.045   1.696   6.431
 5213SOL    HW116538   4.109   1.679   6.506
 5213SOL    HW216539   3.960   1.646   6.448
 5214SOL     OW16540   5.756   1.700   5.919
 5214SOL    HW116541   5.743   1.621   5.860
 5214SOL    HW216542   5.717   1.782   5.876
 5215SOL     OW16543   5.111   5.315   2.471
 5215SOL    HW116544   5.047   5.309   2.547
 5215SOL    HW216545   5.118   5.410   2.439
 5216SOL     OW16546   4.658   5.853   1.008
 5216SOL    HW116547   4.616   5.858   0.918
 5216SOL    HW216548   4.747   5.808   1.001
 5217SOL     OW16549   2.508   4.604   3.980
 5217SOL    HW116550   2.465   4.690   3.952
 5217SOL    HW216551   2.439   4.543   4.019
 5218SOL     OW16552   1.688   0.359   4.651
 5218SOL    HW116553   1.634   0.427   4.700
 5218SOL    HW216554   1.637   0.327   4.572
 5219SOL     OW16555   2.449   5.554   0.178
 5219SOL    HW116556   2.398   5.584   0.097
 5219SOL    HW216557   2.547   5.563   0.161
 5220SOL     OW16558   0.492   6.825   2.238
 5220SOL    HW116559   0.537   6.908   2.204
 5220SOL    HW216560   0.560   6.769   2.286
 5221SOL     OW16561   4.765   1.134   5.271
 5221SOL    HW116562   4.715   1.147   5.357
 5221SOL    HW216563   4.841   1.071   5.287
 5222SOL     OW16564   1.063   0.429   2.534
 5222SOL    HW116565   1.137   0.438   2.468
 5222SOL    HW216566   1.055   0.334   2.563
 5223SOL     OW16567   5.371   6.792   1.191
 5223SOL    HW116568   5.346   6.878   1.237
 5223SOL    HW216569   5.470   6.778   1.198
 5224SOL     OW16570   5.791   1.751   2.586
 5224SOL    HW116571   5.868   1.692   2.564
 5224SOL    HW216572   5.745   1.717   2.668
 5225SOL     OW16573   5.358   5.965   5.236
 5225SOL    HW116574   5.354   6.065   5.235
 5225SOL    HW216575   5.269   5.928   5.208
 5226SOL     OW16576   1.405   6.391   4.267
 5226SOL    HW116577   1.419   6.486   4.239
 5226SOL    HW216578   1.434   6.381   4.363
 5227SOL     OW16579   6.231   4.914   3.155
 5227SOL    HW116580   6.180   4.909   3.242
 5227SOL    HW216581   6.256   5.010   3.137
 5228SOL     OW16582   5.589   1.073   0.993
 5228SOL    HW116583   5.588   1.018   0.909
 5228SOL    HW216584   5.626   1.018   1.068
 5229SOL     OW16585   1.047   4.453   4.813
 5229SOL    HW116586   0.971   4.400   4.775
 5229SOL    HW216587   1.122   4.455   4.747
 5230SOL     OW16588   0.807   6.671   6.824
 5230SOL    HW116589   0.870   6.696   6.898
 5230SOL    HW216590   0.716   6.654   6.862
 5231SOL     OW16591   3.818   2.928   3.375
 5231SOL    HW116592   3.885   2.947   3.304
 5231SOL    HW216593   3.726   2.930   3.336
 5232SOL     OW16594   4.999   2.835   6.271
 5232SOL    HW116595   5.047   2.909   6.318
 5232SOL    HW216596   4.901   2.844   6.287
 5233SOL     OW16597   0.491   0.786   2.501
 5233SOL    HW116598   0.399   0.747   2.511
 5233SOL    HW216599   0.511   0.844   2.579
 5234SOL     OW16600   3.704   6.792   1.325
 5234SOL    HW116601   3.791   6.761   1.363
 5234SOL    HW216602   3.629   6.757   1.381
 5235SOL     OW16603   0.735   3.476   1.157
 5235SOL    HW116604   0.798   3.454   1.232
 5235SOL    HW216605   0.645   3.438   1.178
 5236SOL     OW16606   4.906   2.836   0.985
 5236SOL    HW116607   4.991   2.787   1.005
 5236SOL    HW216608   4.832   2.771   0.970
 5237SOL     OW16609   2.568   1.632   4.935
 5237SOL    HW116610   2.580   1.730   4.950
 5237SOL    HW216611   2.656   1.589   4.917
 5238SOL     OW16612   1.912   4.438   0.968
 5238SOL    HW116613   1.914   4.420   1.066
 5238SOL    HW216614   1.832   4.495   0.947
 5239SOL     OW16615   3.007   3.442   4.903
 5239SOL    HW116616   3.033   3.350   4.873
 5239SOL    HW216617   2.912   3.460   4.877
 5240SOL     OW16618   3.194   2.065   4.888
 5240SOL    HW116619   3.140   2.132   4.940
 5240SOL    HW216620   3.178   1.973   4.924
 5241SOL     OW16621   2.158   5.686   6.000
 5241SOL    HW116622   2.220   5.623   6.047
 5241SOL    HW216623   2.066   5.647   5.997
 5242SOL     OW16624   5.664   1.052   5.952
 5242SOL    HW116625   5.680   1.066   6.049
 5242SOL    HW216626   5.568   1.032   5.936
 5243SOL     OW16627   0.990   4.569   1.321
 5243SOL    HW116628   0.945   4.546   1.235
 5243SOL    HW216629   0.984   4.492   1.385
 5244SOL     OW16630   5.318   3.888   6.339
 5244SOL    HW116631   5.358   3.872   6.249
 5244SOL    HW216632   5.356   3.972   6.377
 5245SOL     OW16633   4.731   4.020   6.733
 5245SOL    HW116634   4.754   3.951   6.801
 5245SOL    HW216635   4.808   4.034   6.671
 5246SOL     OW16636   1.019   3.107   2.811
 5246SOL    HW116637   1.116   3.089   2.826
 5246SOL    HW216638   0.965   3.030   2.845
 5247SOL     OW16639   0.623   5.317   1.251
 5247SOL    HW116640   0.568   5.296   1.332
 5247SOL    HW216641   0.612   5.244   1.183
 5248SOL     OW16642   4.968   0.824   6.258
 5248SOL    HW116643   4.994   0.811   6.162
 5248SOL    HW216644   5.049   0.817   6.316
 5249SOL     OW16645   1.034   5.502   4.868
 5249SOL    HW116646   0.943   5.462   4.882
 5249SOL    HW216647   1.032   5.560   4.786
 5250SOL     OW16648   0.784   0.866   6.262
 5250SOL    HW116649   0.745   0.853   6.170
 5250SOL    HW216650   0.734   0.938   6.309
 5251SOL     OW16651   0.145   3.138   1.327
 5251SOL    HW116652   0.240   3.124   1.297
 5251SOL    HW216653   0.140   3.220   1.383
 5252SOL     OW16654   4.252   5.771   0.366
 5252SOL    HW116655   4.203   5.847   0.409
 5252SOL    HW216656   4.348   5.795   0.355
 5253SOL     OW16657   5.497   3.268   3.481
 5253SOL    HW116658   5.533   3.175   3.494
 5253SOL    HW216659   5.485   3.285   3.383
 5254SOL     OW16660   4.670   0.784   4.134
 5254SOL    HW116661   4.647   0.766   4.038
 5254SOL    HW216662   4.766   0.761   4.150
 5255SOL     OW16663   3.526   6.642   4.695
 5255SOL    HW116664   3.496   6.547   4.709
 5255SOL    HW216665   3.549   6.683   4.784
 5256SOL     OW16666   5.959   6.544   3.721
 5256SOL    HW116667   6.024   6.530   3.646
 5256SOL    HW216668   5.947   6.459   3.771
 5257SOL     OW16669   3.299   0.939   1.285
 5257SOL    HW116670   3.309   0.931   1.384
 5257SOL    HW216671   3.205   0.917   1.259
 5258SOL     OW16672   6.092   2.953   2.383
 5258SOL    HW116673   6.012   2.946   2.442
 5258SOL    HW216674   6.091   2.879   2.316
 5259SOL     OW16675   4.806   4.877   2.362
 5259SOL    HW116676   4.823   4.935   2.282
 5259SOL    HW216677   4.738   4.807   2.339
 5260SOL     OW16678   5.246   3.277   1.398
 5260SOL    HW116679   5.175   3.243   1.459
 5260SOL    HW216680   5.205   3.303   1.310
 5261SOL     OW16681   1.625   2.711   4.615
 5261SOL    HW116682   1.546   2.769   4.633
 5261SOL    HW216683   1.701   2.740   4.673
 5262SOL     OW16684   2.697   6.576   2.465
 5262SOL    HW116685   2.662   6.534   2.549
 5262SOL    HW216686   2.620   6.602   2.406
 5263SOL     OW16687   0.900   6.194   0.198
 5263SOL    HW116688   0.805   6.174   0.223
 5263SOL    HW216689   0.918   6.292   0.209
 5264SOL     OW16690   0.442   2.491   1.038
 5264SOL    HW116691   0.375   2.419   1.052
 5264SOL    HW216692   0.534   2.452   1.036
 5265SOL     OW16693   5.339   4.714   1.984
 5265SOL    HW116694   5.262   4.746   2.040
 5265SOL    HW216695   5.335   4.760   1.895
 5266SOL     OW16696   1.830   6.589   1.020
 5266SOL    HW116697   1.878   6.566   1.105
 5266SOL    HW216698   1.890   6.642   0.960
 5267SOL     OW16699   4.923   4.701   4.599
 5267SOL    HW116700   4.925   4.780   4.537
 5267SOL    HW216701   4.968   4.623   4.555
 5268SOL     OW16702   5.949   4.745   4.234
 5268SOL    HW116703   6.001   4.744   4.148
 5268SOL    HW216704   5.927   4.839   4.258
 5269SOL     OW16705   1.647   5.845   3.946
 5269SOL    HW116706   1.746   5.850   3.937
 5269SOL    HW216707   1.610   5.788   3.872
 5270SOL     OW16708   6.165   2.528   2.394
 5270SOL    HW116709   6.142   2.488   2.306
 5270SOL    HW216710   6.242   2.590   2.384
 5271SOL     OW16711   4.894   4.706   4.897
 5271SOL    HW116712   4.825   4.773   4.924
 5271SOL    HW216713   4.945   4.740   4.818
 5272SOL     OW16714   1.639   0.823   4.817
 5272SOL    HW116715   1.556   0.879   4.822
 5272SOL    HW216716   1.692   0.850   4.737
 5273SOL     OW16717   0.427   1.092   4.064
 5273SOL    HW116718   0.454   1.133   3.977
 5273SOL    HW216719   0.430   1.161   4.136
 5274SOL     OW16720   6.378   5.090   3.845
 5274SOL    HW116721   6.422   5.174   3.875
 5274SOL    HW216722   6.414   5.013   3.898
 5275SOL     OW16723   2.000   6.950   0.046
 5275SOL    HW116724   1.991   6.904   6.977
 5275SOL    HW216725   1.998   6.882   0.120
 5276SOL     OW16726   0.375   6.608   1.483
 5276SOL    HW116727   0.433   6.662   1.421
 5276SOL    HW216728   0.293   6.578   1.434
 5277SOL     OW16729   1.190   1.857   3.025
 5277SOL    HW116730   1.230   1.826   2.938
 5277SOL    HW216731   1.243   1.820   3.101
 5278SOL     OW16732   1.296   5.201   5.500
 5278SOL    HW116733   1.348   5.250   5.571
 5278SOL    HW216734   1.254   5.267   5.439
 5279SOL     OW16735   1.893   5.907   6.377
 5279SOL    HW116736   1.867   5.950   6.463
 5279SOL    HW216737   1.822   5.842   6.349
 5280SOL     OW16738   4.075   6.217   5.052
 5280SOL    HW116739   4.086   6.313   5.028
 5280SOL    HW216740   4.159   6.184   5.097
 5281SOL     OW16741   2.299   1.296   4.658
 5281SOL    HW116742   2.295   1.386   4.702
 5281SOL    HW216743   2.227   1.238   4.697
 5282SOL     OW16744   1.451   0.138   1.741
 5282SOL    HW116745   1.407   0.226   1.721
 5282SOL    HW216746   1.478   0.136   1.837
 5283SOL     OW16747   0.514   1.288   4.219
 5283SOL    HW116748   0.515   1.384   4.192
 5283SOL    HW216749   0.551   1.279   4.312
 5284SOL     OW16750   4.619   2.466   1.530
 5284SOL    HW116751   4.559   2.408   1.585
 5284SOL    HW216752   4.566   2.538   1.486
 5285SOL     OW16753   1.272   2.195   4.409
 5285SOL    HW116754   1.204   2.129   4.441
 5285SOL    HW216755   1.231   2.285   4.401
 5286SOL     OW16756   6.101   3.220   0.807
 5286SOL    HW116757   6.165   3.234   0.882
 5286SOL    HW216758   6.009   3.250   0.834
 5287SOL     OW16759   2.468   5.075   1.408
 5287SOL    HW116760   2.478   5.031   1.319
 5287SOL    HW216761   2.471   5.006   1.480
 5288SOL     OW16762   4.387   0.812   2.223
 5288SOL    HW116763   4.346   0.747   2.287
 5288SOL    HW216764   4.375   0.780   2.129
 5289SOL     OW16765   2.321   4.689   6.453
 5289SOL    HW116766   2.326   4.653   6.547
 5289SOL    HW216767   2.265   4.772   6.452
 5290SOL     OW16768   1.541   2.721   5.484
 5290SOL    HW116769   1.590   2.766   5.559
 5290SOL    HW216770   1.443   2.724   5.501
 5291SOL     OW16771   2.859   4.807   4.831
 5291SOL    HW116772   2.829   4.749   4.755
 5291SOL    HW216773   2.855   4.756   4.916
 5292SOL     OW16774   6.731   4.179   5.993
 5292SOL    HW116775   6.645   4.145   5.954
 5292SOL    HW216776   6.712   4.244   6.066
 5293SOL     OW16777   2.062   5.729   4.273
 5293SOL    HW116778   2.057   5.828   4.255
 5293SOL    HW216779   2.102   5.683   4.194
 5294SOL     OW16780   3.762   0.476   5.165
 5294SOL    HW116781   3.687   0.499   5.103
 5294SOL    HW216782   3.759   0.537   5.244
 5295SOL     OW16783   2.995   1.357   2.262
 5295SOL    HW116784   2.909   1.403   2.240
 5295SOL    HW216785   3.063   1.424   2.290
 5296SOL     OW16786   4.580   4.931   1.286
 5296SOL    HW116787   4.591   5.008   1.350
 5296SOL    HW216788   4.658   4.929   1.223
 5297SOL     OW16789   2.489   4.669   0.590
 5297SOL    HW116790   2.487   4.625   0.680
 5297SOL    HW216791   2.478   4.599   0.519
 5298SOL     OW16792   2.073   0.527   0.844
 5298SOL    HW116793   1.985   0.481   0.836
 5298SOL    HW216794   2.136   0.493   0.774
 5299SOL     OW16795   2.903   1.576   0.524
 5299SOL    HW116796   2.926   1.621   0.438
 5299SOL    HW216797   2.806   1.591   0.545
 5300SOL     OW16798   2.132   4.177   0.072
 5300SOL    HW116799   2.196   4.101   0.062
 5300SOL    HW216800   2.038   4.143   0.064
 5301SOL     OW16801   5.030   0.448   5.717
 5301SOL    HW116802   5.039   0.545   5.695
 5301SOL    HW216803   5.088   0.394   5.657
 5302SOL     OW16804   5.577   5.897   3.143
 5302SOL    HW116805   5.524   5.820   3.178
 5302SOL    HW216806   5.530   5.983   3.165
 5303SOL     OW16807   0.138   4.975   5.750
 5303SOL    HW116808   0.203   5.045   5.777
 5303SOL    HW216809   0.049   4.994   5.791
 5304SOL     OW16810   6.611   0.918   1.167
 5304SOL    HW116811   6.559   0.985   1.219
 5304SOL    HW216812   6.572   0.827   1.179
 5305SOL     OW16813   1.375   5.137   2.893
 5305SOL    HW116814   1.287   5.089   2.897
 5305SOL    HW216815   1.433   5.107   2.969
 5306SOL     OW16816   6.641   3.893   5.582
 5306SOL    HW116817   6.575   3.841   5.637
 5306SOL    HW216818   6.593   3.953   5.519
 5307SOL     OW16819   5.638   2.573   1.092
 5307SOL    HW116820   5.700   2.628   1.037
 5307SOL    HW216821   5.582   2.516   1.033
 5308SOL     OW16822   1.334   4.244   2.824
 5308SOL    HW116823   1.283   4.330   2.835
 5308SOL    HW216824   1.347   4.225   2.727
 5309SOL     OW16825   5.370   6.506   2.969
 5309SOL    HW116826   5.348   6.444   2.894
 5309SOL    HW216827   5.443   6.468   3.025
 5310SOL     OW16828   6.134   2.918   3.190
 5310SOL    HW116829   6.144   2.832   3.141
 5310SOL    HW216830   6.101   2.989   3.127
 5311SOL     OW16831   5.960   0.203   0.442
 5311SOL    HW116832   5.875   0.151   0.451
 5311SOL    HW216833   5.972   0.260   0.524
 5312SOL     OW16834   6.835   6.322   1.138
 5312SOL    HW116835   6.737   6.302   1.133
 5312SOL    HW216836   6.862   6.330   1.234
 5313SOL     OW16837   6.923   5.004   5.399
 5313SOL    HW116838   6.865   4.998   5.317
 5313SOL    HW216839   6.979   5.086   5.393
 5314SOL     OW16840   6.250   0.545   1.426
 5314SOL    HW116841   6.324   0.523   1.363
 5314SOL    HW216842   6.284   0.607   1.497
 5315SOL     OW16843   4.268   1.194   3.836
 5315SOL    HW116844   4.341   1.260   3.821
 5315SOL    HW216845   4.180   1.237   3.815
 5316SOL     OW16846   0.798   2.743   4.909
 5316SOL    HW116847   0.762   2.658   4.870
 5316SOL    HW216848   0.858   2.721   4.987
 5317SOL     OW16849   6.844   2.039   5.774
 5317SOL    HW116850   6.804   2.035   5.682
 5317SOL    HW216851   6.941   2.014   5.770
 5318SOL     OW16852   6.426   2.855   0.087
 5318SOL    HW116853   6.498   2.791   0.114
 5318SOL    HW216854   6.353   2.805   0.041
 5319SOL     OW16855   4.110   6.851   1.302
 5319SOL    HW116856   4.200   6.807   1.305
 5319SOL    HW216857   4.054   6.818   1.379
 5320SOL     OW16858   3.262   5.785   1.346
 5320SOL    HW116859   3.174   5.790   1.298
 5320SOL    HW216860   3.316   5.866   1.325
 5321SOL     OW16861   1.884   4.587   4.791
 5321SOL    HW116862   1.894   4.555   4.885
 5321SOL    HW216863   1.927   4.522   4.729
 5322SOL     OW16864   5.586   6.610   1.732
 5322SOL    HW116865   5.560   6.518   1.701
 5322SOL    HW216866   5.605   6.608   1.830
 5323SOL     OW16867   4.895   1.410   5.354
 5323SOL    HW116868   4.892   1.427   5.255
 5323SOL    HW216869   4.811   1.443   5.396
 5324SOL     OW16870   2.116   2.095   0.449
 5324SOL    HW116871   2.051   2.022   0.470
 5324SOL    HW216872   2.123   2.105   0.350
 5325SOL     OW16873   2.701   2.199   4.736
 5325SOL    HW116874   2.637   2.186   4.811
 5325SOL    HW216875   2.693   2.121   4.673
 5326SOL     OW16876   6.037   6.721   2.822
 5326SOL    HW116877   6.057   6.807   2.776
 5326SOL    HW216878   6.026   6.649   2.754
 5327SOL     OW16879   5.263   2.724   5.206
 5327SOL    HW116880   5.217   2.754   5.122
 5327SOL    HW216881   5.361   2.714   5.189
 5328SOL     OW16882   4.106   4.375   6.910
 5328SOL    HW116883   4.121   4.307   6.838
 5328SOL    HW216884   4.145   4.341   6.996
 5329SOL     OW16885   1.396   6.182   6.512
 5329SOL    HW116886   1.432   6.257   6.457
 5329SOL    HW216887   1.372   6.105   6.453
 5330SOL     OW16888   2.735   3.398   0.532
 5330SOL    HW116889   2.748   3.404   0.631
 5330SOL    HW216890   2.715   3.489   0.495
 5331SOL     OW16891   0.080   0.727   6.834
 5331SOL    HW116892   7.005   0.699   6.810
 5331SOL    HW216893   0.134   0.734   6.750
 5332SOL     OW16894   0.981   4.439   2.203
 5332SOL    HW116895   1.033   4.362   2.163
 5332SOL    HW216896   1.037   4.485   2.272
 5333SOL     OW16897   1.128   6.624   4.186
 5333SOL    HW116898   1.152   6.694   4.253
 5333SOL    HW216899   1.208   6.603   4.130
 5334SOL     OW16900   3.007   0.161   4.055
 5334SOL    HW116901   2.998   0.259   4.075
 5334SOL    HW216902   3.093   0.127   4.094
 5335SOL     OW16903   6.689   5.425   0.947
 5335SOL    HW116904   6.697   5.511   0.996
 5335SOL    HW216905   6.756   5.360   0.984
 5336SOL     OW16906   1.698   3.714   1.979
 5336SOL    HW116907   1.665   3.662   1.900
 5336SOL    HW216908   1.752   3.654   2.038
 5337SOL     OW16909   4.862   4.432   1.258
 5337SOL    HW116910   4.813   4.512   1.291
 5337SOL    HW216911   4.818   4.349   1.292
 5338SOL     OW16912   6.791   2.245   6.725
 5338SOL    HW116913   6.717   2.252   6.792
 5338SOL    HW216914   6.878   2.228   6.772
 5339SOL     OW16915   6.628   2.155   3.713
 5339SOL    HW116916   6.598   2.218   3.641
 5339SOL    HW216917   6.656   2.068   3.672
 5340SOL     OW16918   5.300   2.837   6.889
 5340SOL    HW116919   5.293   2.932   6.919
 5340SOL    HW216920   5.360   2.831   6.809
 5341SOL     OW16921   5.006   0.542   6.456
 5341SOL    HW116922   4.967   0.487   6.529
 5341SOL    HW216923   4.933   0.587   6.405
 5342SOL     OW16924   4.420   1.179   5.710
 5342SOL    HW116925   4.321   1.193   5.707
 5342SOL    HW216926   4.440   1.082   5.693
 5343SOL     OW16927   4.127   3.471   2.435
 5343SOL    HW116928   4.138   3.510   2.344
 5343SOL    HW216929   4.129   3.543   2.504
 5344SOL     OW16930   1.735   2.753   3.020
 5344SOL    HW116931   1.649   2.756   2.969
 5344SOL    HW216932   1.745   2.663   3.063
 5345SOL     OW16933   4.397   6.716   1.294
 5345SOL    HW116934   4.409   6.776   1.215
 5345SOL    HW216935   4.472   6.730   1.358
 5346SOL     OW16936   2.949   6.083   3.234
 5346SOL    HW116937   2.852   6.103   3.250
 5346SOL    HW216938   2.990   6.051   3.319
 5347SOL     OW16939   6.986   1.893   0.880
 5347SOL    HW116940   0.021   1.816   0.847
 5347SOL    HW216941   6.996   1.901   0.979
 5348SOL     OW16942   1.182   1.272   0.207
 5348SOL    HW116943   1.220   1.190   0.252
 5348SOL    HW216944   1.085   1.280   0.232
 5349SOL     OW16945   6.824   1.002   1.009
 5349SOL    HW116946   6.778   1.082   0.970
 5349SOL    HW216947   6.760   0.952   1.068
 5350SOL     OW16948   2.344   1.337   6.228
 5350SOL    HW116949   2.341   1.437   6.231
 5350SOL    HW216950   2.265   1.300   6.276
 5351SOL     OW16951   4.731   6.818   1.143
 5351SOL    HW116952   4.707   6.897   1.199
 5351SOL    HW216953   4.810   6.840   1.086
 5352SOL     OW16954   3.096   6.031   3.479
 5352SOL    HW116955   3.172   5.966   3.470
 5352SOL    HW216956   3.048   6.014   3.566
 5353SOL     OW16957   5.169   5.577   5.261
 5353SOL    HW116958   5.079   5.534   5.268
 5353SOL    HW216959   5.218   5.564   5.347
 5354SOL     OW16960   1.193   4.612   1.705
 5354SOL    HW116961   1.213   4.514   1.697
 5354SOL    HW216962   1.124   4.637   1.637
 5355SOL     OW16963   4.206   1.717   4.166
 5355SOL    HW116964   4.282   1.740   4.226
 5355SOL    HW216965   4.226   1.748   4.073
 5356SOL     OW16966   6.325   3.808   1.558
 5356SOL    HW116967   6.308   3.882   1.492
 5356SOL    HW216968   6.278   3.829   1.644
 5357SOL     OW16969   3.739   0.040   0.076
 5357SOL    HW116970   3.765   6.964   0.057
 5357SOL    HW216971   3.761   0.097   7.015
 5358SOL     OW16972   4.505   2.931   0.752
 5358SOL    HW116973   4.598   2.964   0.771
 5358SOL    HW216974   4.509   2.834   0.729
 5359SOL     OW16975   1.897   1.696   0.564
 5359SOL    HW116976   1.921   1.756   0.641
 5359SOL    HW216977   1.869   1.751   0.486
 5360SOL     OW16978   3.655   6.443   6.429
 5360SOL    HW116979   3.655   6.541   6.406
 5360SOL    HW216980   3.589   6.426   6.502
 5361SOL     OW16981   2.036   0.985   5.153
 5361SOL    HW116982   2.097   0.939   5.089
 5361SOL    HW216983   1.973   1.045   5.104
 5362SOL     OW16984   4.915   5.075   2.773
 5362SOL    HW116985   4.841   5.036   2.719
 5362SOL    HW216986   4.930   5.171   2.745
 5363SOL     OW16987   0.603   5.056   6.505
 5363SOL    HW116988   0.656   5.039   6.422
 5363SOL    HW216989   0.647   5.127   6.559
 5364SOL     OW16990   6.996   6.851   0.456
 5364SOL    HW116991   6.942   6.768   0.467
 5364SOL    HW216992   0.019   6.876   0.543
 5365SOL     OW16993   4.739   1.775   5.584
 5365SOL    HW116994   4.836   1.761   5.607
 5365SOL    HW216995   4.710   1.705   5.519
 5366SOL     OW16996   4.569   4.232   0.316
 5366SOL    HW116997   4.508   4.174   0.369
 5366SOL    HW216998   4.638   4.175   0.271
 5367SOL     OW16999   0.339   4.505   1.600
 5367SOL    HW117000   0.310   4.600   1.609
 5367SOL    HW217001   0.286   4.448   1.664
 5368SOL     OW17002   5.481   2.160   3.064
 5368SOL    HW117003   5.396   2.176   3.014
 5368SOL    HW217004   5.536   2.091   3.016
 5369SOL     OW17005   2.121   4.178   2.838
 5369SOL    HW117006   2.176   4.170   2.755
 5369SOL    HW217007   2.181   4.181   2.918
 5370SOL     OW17008   3.691   2.476   1.234
 5370SOL    HW117009   3.719   2.413   1.306
 5370SOL    HW217010   3.691   2.569   1.268
 5371SOL     OW17011   1.237   4.179   4.686
 5371SOL    HW117012   1.173   4.103   4.676
 5371SOL    HW217013   1.202   4.260   4.638
 5372SOL     OW17014   2.651   5.331   2.948
 5372SOL    HW117015   2.719   5.389   2.903
 5372SOL    HW217016   2.633   5.251   2.892
 5373SOL     OW17017   2.948   4.901   3.859
 5373SOL    HW117018   2.857   4.871   3.887
 5373SOL    HW217019   3.006   4.912   3.939
 5374SOL     OW17020   2.457   2.268   6.429
 5374SOL    HW117021   2.552   2.242   6.448
 5374SOL    HW217022   2.455   2.344   6.364
 5375SOL     OW17023   1.577   4.591   4.553
 5375SOL    HW117024   1.562   4.496   4.524
 5375SOL    HW217025   1.508   4.616   4.621
 5376SOL     OW17026   1.488   3.722   1.477
 5376SOL    HW117027   1.457   3.651   1.414
 5376SOL    HW217028   1.588   3.727   1.476
 5377SOL     OW17029   0.248   0.817   1.297
 5377SOL    HW117030   0.249   0.864   1.209
 5377SOL    HW217031   0.226   0.720   1.283
 5378SOL     OW17032   5.645   1.151   0.163
 5378SOL    HW117033   5.620   1.054   0.155
 5378SOL    HW217034   5.705   1.176   0.087
 5379SOL     OW17035   0.511   5.317   2.462
 5379SOL    HW117036   0.446   5.279   2.528
 5379SOL    HW217037   0.555   5.397   2.502
 5380SOL     OW17038   2.687   6.849   3.288
 5380SOL    HW117039   2.611   6.910   3.312
 5380SOL    HW217040   2.726   6.810   3.371
 5381SOL     OW17041   5.871   3.906   1.618
 5381SOL    HW117042   5.771   3.912   1.610
 5381SOL    HW217043   5.895   3.845   1.693
 5382SOL     OW17044   2.731   1.362   1.188
 5382SOL    HW117045   2.728   1.448   1.238
 5382SOL    HW217046   2.746   1.381   1.091
 5383SOL     OW17047   2.305   1.814   5.079
 5383SOL    HW117048   2.384   1.869   5.051
 5383SOL    HW217049   2.222   1.854   5.041
 5384SOL     OW17050   6.271   7.017   4.143
 5384SOL    HW117051   6.218   6.933   4.130
 5384SOL    HW217052   6.342   7.001   4.212
 5385SOL     OW17053   3.623   4.009   2.466
 5385SOL    HW117054   3.593   4.060   2.386
 5385SOL    HW217055   3.553   3.941   2.490
 5386SOL     OW17056   5.418   6.186   4.468
 5386SOL    HW117057   5.373   6.102   4.498
 5386SOL    HW217058   5.515   6.168   4.452
 5387SOL     OW17059   2.837   5.054   2.157
 5387SOL    HW117060   2.875   4.962   2.144
 5387SOL    HW217061   2.747   5.058   2.113
 5388SOL     OW17062   5.294   6.359   2.759
 5388SOL    HW117063   5.293   6.271   2.711
 5388SOL    HW217064   5.229   6.421   2.715
 5389SOL     OW17065   4.501   1.204   1.248
 5389SOL    HW117066   4.500   1.112   1.209
 5389SOL    HW217067   4.457   1.267   1.185
 5390SOL     OW17068   6.109   5.143   5.575
 5390SOL    HW117069   6.047   5.182   5.506
 5390SOL    HW217070   6.065   5.066   5.619
 5391SOL     OW17071   2.676   3.093   0.320
 5391SOL    HW117072   2.643   3.109   0.227
 5391SOL    HW217073   2.610   3.130   0.386
 5392SOL     OW17074   6.084   3.375   1.845
 5392SOL    HW117075   6.092   3.286   1.800
 5392SOL    HW217076   6.151   3.438   1.807
 5393SOL     OW17077   6.663   0.037   6.964
 5393SOL    HW117078   6.753   0.073   6.941
 5393SOL    HW217079   6.664   7.017   0.038
 5394SOL     OW17080   0.769   3.811   5.721
 5394SOL    HW117081   0.847   3.770   5.767
 5394SOL    HW217082   0.801   3.867   5.644
 5395SOL     OW17083   3.906   0.549   0.483
 5395SOL    HW117084   3.888   0.644   0.457
 5395SOL    HW217085   3.849   0.524   0.561
 5396SOL     OW17086   5.678   3.514   2.176
 5396SOL    HW117087   5.638   3.596   2.134
 5396SOL    HW217088   5.737   3.468   2.110
 5397SOL     OW17089   0.102   3.607   1.197
 5397SOL    HW117090   0.147   3.568   1.117
 5397SOL    HW217091   0.019   3.555   1.218
 5398SOL     OW17092   3.089   2.509   1.689
 5398SOL    HW117093   3.101   2.420   1.643
 5398SOL    HW217094   3.021   2.500   1.762
 5399SOL     OW17095   1.943   6.109   1.450
 5399SOL    HW117096   1.963   6.202   1.418
 5399SOL    HW217097   1.871   6.112   1.519
 5400SOL     OW17098   2.860   4.554   6.866
 5400SOL    HW117099   2.829   4.522   6.776
 5400SOL    HW217100   2.791   4.614   6.906
 5401SOL     OW17101   5.797   3.123   1.556
 5401SOL    HW117102   5.772   3.210   1.512
 5401SOL    HW217103   5.751   3.117   1.644
 5402SOL     OW17104   1.480   5.925   2.188
 5402SOL    HW117105   1.555   5.914   2.253
 5402SOL    HW217106   1.393   5.910   2.234
 5403SOL     OW17107   0.232   3.724   6.425
 5403SOL    HW117108   0.275   3.634   6.427
 5403SOL    HW217109   0.293   3.789   6.377
 5404SOL     OW17110   1.875   2.769   4.031
 5404SOL    HW117111   1.919   2.720   3.955
 5404SOL    HW217112   1.832   2.852   3.995
 5405SOL     OW17113   6.495   5.047   5.555
 5405SOL    HW117114   6.420   4.995   5.514
 5405SOL    HW217115   6.482   5.051   5.654
 5406SOL     OW17116   1.268   1.016   6.821
 5406SOL    HW117117   1.243   1.002   6.726
 5406SOL    HW217118   1.363   1.049   6.827
 5407SOL     OW17119   3.857   2.957   0.628
 5407SOL    HW117120   3.788   3.015   0.584
 5407SOL    HW217121   3.846   2.962   0.727
 5408SOL     OW17122   2.254   0.862   6.945
 5408SOL    HW117123   2.300   0.903   0.006
 5408SOL    HW217124   2.175   0.809   6.977
 5409SOL     OW17125   4.529   0.232   3.460
 5409SOL    HW117126   4.537   0.329   3.436
 5409SOL    HW217127   4.587   0.213   3.539
 5410SOL     OW17128   3.124   2.135   1.959
 5410SOL    HW117129   3.101   2.183   2.044
 5410SOL    HW217130   3.188   2.190   1.906
 5411SOL     OW17131   0.258   5.321   5.358
 5411SOL    HW117132   0.172   5.371   5.357
 5411SOL    HW217133   0.325   5.368   5.301
 5412SOL     OW17134   6.160   2.739   0.643
 5412SOL    HW117135   6.138   2.809   0.576
 5412SOL    HW217136   6.116   2.760   0.730
 5413SOL     OW17137   2.637   1.829   2.077
 5413SOL    HW117138   2.555   1.779   2.050
 5413SOL    HW217139   2.675   1.875   1.997
 5414SOL     OW17140   4.162   1.628   5.047
 5414SOL    HW117141   4.135   1.603   4.954
 5414SOL    HW217142   4.099   1.696   5.083
 5415SOL     OW17143   6.819   5.596   1.645
 5415SOL    HW117144   6.776   5.516   1.603
 5415SOL    HW217145   6.917   5.594   1.626
 5416SOL     OW17146   4.121   4.884   4.888
 5416SOL    HW117147   4.189   4.894   4.816
 5416SOL    HW217148   4.165   4.843   4.969
 5417SOL     OW17149   3.456   6.784   4.472
 5417SOL    HW117150   3.545   6.827   4.483
 5417SOL    HW217151   3.447   6.708   4.536
 5418SOL     OW17152   3.826   0.233   2.787
 5418SOL    HW117153   3.737   0.208   2.824
 5418SOL    HW217154   3.861   0.314   2.834
 5419SOL     OW17155   3.554   5.042   6.354
 5419SOL    HW117156   3.462   5.056   6.389
 5419SOL    HW217157   3.619   5.100   6.405
 5420SOL     OW17158   1.789   1.690   2.650
 5420SOL    HW117159   1.865   1.631   2.679
 5420SOL    HW217160   1.816   1.740   2.568
 5421SOL     OW17161   2.114   3.796   1.956
 5421SOL    HW117162   2.057   3.714   1.967
 5421SOL    HW217163   2.155   3.795   1.865
 5422SOL     OW17164   2.022   3.900   1.581
 5422SOL    HW117165   2.050   3.995   1.599
 5422SOL    HW217166   2.080   3.839   1.634
 5423SOL     OW17167   5.834   3.024   6.649
 5423SOL    HW117168   5.832   2.970   6.733
 5423SOL    HW217169   5.754   3.084   6.647
 5424SOL     OW17170   4.873   3.541   4.623
 5424SOL    HW117171   4.880   3.602   4.543
 5424SOL    HW217172   4.856   3.447   4.592
 5425SOL     OW17173   4.570   0.824   5.332
 5425SOL    HW117174   4.660   0.824   5.376
 5425SOL    HW217175   4.525   0.912   5.347
 5426SOL     OW17176   6.113   6.665   4.845
 5426SOL    HW117177   6.176   6.590   4.863
 5426SOL    HW217178   6.067   6.690   4.930
 5427SOL     OW17179   4.364   6.007   6.474
 5427SOL    HW117180   4.372   6.103   6.446
 5427SOL    HW217181   4.353   6.002   6.573
 5428SOL     OW17182   1.073   0.360   0.985
 5428SOL    HW117183   1.096   0.313   1.069
 5428SOL    HW217184   1.088   0.299   0.907
 5429SOL     OW17185   1.064   2.107   6.812
 5429SOL    HW117186   1.057   2.187   6.872
 5429SOL    HW217187   0.982   2.051   6.821
 5430SOL     OW17188   1.173   2.389   6.273
 5430SOL    HW117189   1.245   2.390   6.343
 5430SOL    HW217190   1.202   2.444   6.195
 5431SOL     OW17191   3.997   6.432   5.838
 5431SOL    HW117192   3.977   6.442   5.741
 5431SOL    HW217193   4.092   6.459   5.856
 5432SOL     OW17194   4.821   6.444   0.377
 5432SOL    HW117195   4.787   6.467   0.468
 5432SOL    HW217196   4.919   6.462   0.372
 5433SOL     OW17197   0.115   1.741   5.094
 5433SOL    HW117198   0.212   1.755   5.074
 5433SOL    HW217199   0.105   1.684   5.175
 5434SOL     OW17200   2.948   0.309   6.617
 5434SOL    HW117201   2.916   0.223   6.657
 5434SOL    HW217202   2.946   0.380   6.686
 5435SOL     OW17203   4.105   0.483   1.738
 5435SOL    HW117204   4.036   0.530   1.793
 5435SOL    HW217205   4.076   0.482   1.642
 5436SOL     OW17206   4.685   4.210   3.181
 5436SOL    HW117207   4.782   4.235   3.177
 5436SOL    HW217208   4.643   4.228   3.092
 5437SOL     OW17209   2.916   4.331   0.179
 5437SOL    HW117210   2.837   4.392   0.177
 5437SOL    HW217211   2.996   4.378   0.141
 5438SOL     OW17212   6.029   1.874   1.699
 5438SOL    HW117213   5.995   1.783   1.675
 5438SOL    HW217214   5.959   1.923   1.750
 5439SOL     OW17215   1.044   2.793   1.370
 5439SOL    HW117216   1.004   2.781   1.460
 5439SOL    HW217217   1.098   2.713   1.346
 5440SOL     OW17218   1.325   2.236   1.280
 5440SOL    HW117219   1.338   2.310   1.214
 5440SOL    HW217220   1.413   2.202   1.311
 5441SOL     OW17221   3.188   1.727   3.811
 5441SOL    HW117222   3.236   1.768   3.889
 5441SOL    HW217223   3.115   1.787   3.781
 5442SOL     OW17224   3.345   0.550   1.784
 5442SOL    HW117225   3.330   0.468   1.839
 5442SOL    HW217226   3.441   0.554   1.756
 5443SOL     OW17227   2.941   6.927   5.337
 5443SOL    HW117228   2.889   7.005   5.371
 5443SOL    HW217229   2.919   6.911   5.240
 5444SOL     OW17230   0.397   6.685   4.271
 5444SOL    HW117231   0.304   6.713   4.245
 5444SOL    HW217232   0.412   6.708   4.367
 5445SOL     OW17233   6.013   3.465   2.768
 5445SOL    HW117234   6.005   3.556   2.807
 5445SOL    HW217235   6.089   3.463   2.703
 5446SOL     OW17236   6.101   5.374   5.327
 5446SOL    HW117237   6.078   5.382   5.230
 5446SOL    HW217238   6.078   5.459   5.374
 5447SOL     OW17239   3.613   2.296   0.374
 5447SOL    HW117240   3.573   2.209   0.403
 5447SOL    HW217241   3.588   2.368   0.438
 5448SOL     OW17242   5.161   2.356   5.328
 5448SOL    HW117243   5.196   2.445   5.358
 5448SOL    HW217244   5.099   2.369   5.251
 5449SOL     OW17245   0.656   3.615   6.984
 5449SOL    HW117246   0.699   3.658   0.045
 5449SOL    HW217247   0.697   3.525   6.969
 5450SOL     OW17248   1.938   6.936   1.494
 5450SOL    HW117249   1.986   6.944   1.581
 5450SOL    HW217250   1.998   6.891   1.427
 5451SOL     OW17251   0.957   5.853   3.184
 5451SOL    HW117252   0.869   5.826   3.223
 5451SOL    HW217253   0.955   5.952   3.166
 5452SOL     OW17254   2.522   4.361   6.801
 5452SOL    HW117255   2.433   4.351   6.846
 5452SOL    HW217256   2.591   4.313   6.855
 5453SOL     OW17257   5.815   4.433   0.411
 5453SOL    HW117258   5.830   4.336   0.430
 5453SOL    HW217259   5.899   4.484   0.429
 5454SOL     OW17260   7.008   4.693   6.898
 5454SOL    HW117261   6.991   4.657   6.989
 5454SOL    HW217262   6.932   4.670   6.838
 5455SOL     OW17263   6.866   3.504   1.262
 5455SOL    HW117264   6.772   3.495   1.227
 5455SOL    HW217265   6.869   3.475   1.358
 5456SOL     OW17266   3.105   0.073   0.123
 5456SOL    HW117267   3.154   0.028   0.048
 5456SOL    HW217268   3.035   0.132   0.084
 5457SOL     OW17269   5.848   3.010   0.828
 5457SOL    HW117270   5.773   3.028   0.764
 5457SOL    HW217271   5.905   3.092   0.835
 5458SOL     OW17272   1.789   4.265   6.507
 5458SOL    HW117273   1.876   4.295   6.546
 5458SOL    HW217274   1.781   4.165   6.517
 5459SOL     OW17275   1.877   4.404   6.962
 5459SOL    HW117276   1.878   4.305   6.957
 5459SOL    HW217277   1.784   4.437   6.977
 5460SOL     OW17278   2.725   0.430   0.971
 5460SOL    HW117279   2.739   0.331   0.969
 5460SOL    HW217280   2.644   0.451   1.027
 5461SOL     OW17281   4.592   6.980   4.938
 5461SOL    HW117282   4.509   6.951   4.986
 5461SOL    HW217283   4.646   6.899   4.912
 5462SOL     OW17284   1.513   7.010   0.684
 5462SOL    HW117285   1.542   0.074   0.635
 5462SOL    HW217286   1.453   0.016   0.760
 5463SOL     OW17287   6.436   2.766   0.590
 5463SOL    HW117288   6.349   2.751   0.637
 5463SOL    HW217289   6.470   2.858   0.612
 5464SOL     OW17290   2.146   0.574   4.154
 5464SOL    HW117291   2.162   0.585   4.056
 5464SOL    HW217292   2.234   0.574   4.202
 5465SOL     OW17293   3.141   0.375   4.728
 5465SOL    HW117294   3.221   0.386   4.668
 5465SOL    HW217295   3.059   0.364   4.672
 5466SOL     OW17296   5.062   4.231   4.582
 5466SOL    HW117297   5.062   4.275   4.493
 5466SOL    HW217298   5.155   4.201   4.605
 5467SOL     OW17299   5.170   1.484   2.610
 5467SOL    HW117300   5.080   1.463   2.648
 5467SOL    HW217301   5.233   1.507   2.684
 5468SOL     OW17302   4.742   2.069   4.905
 5468SOL    HW117303   4.742   2.168   4.889
 5468SOL    HW217304   4.677   2.025   4.844
 5469SOL     OW17305   3.579   4.495   5.672
 5469SOL    HW117306   3.612   4.477   5.765
 5469SOL    HW217307   3.604   4.588   5.645
 5470SOL     OW17308   1.886   5.019   3.882
 5470SOL    HW117309   1.884   4.961   3.964
 5470SOL    HW217310   1.827   5.099   3.896
 5471SOL     OW17311   0.092   6.109   2.043
 5471SOL    HW117312   0.009   6.098   1.988
 5471SOL    HW217313   0.151   6.029   2.031
 5472SOL     OW17314   4.221   4.320   5.772
 5472SOL    HW117315   4.257   4.256   5.840
 5472SOL    HW217316   4.140   4.280   5.729
 5473SOL     OW17317   1.615   3.414   3.515
 5473SOL    HW117318   1.629   3.460   3.603
 5473SOL    HW217319   1.527   3.442   3.477
 5474SOL     OW17320   1.733   5.525   4.127
 5474SOL    HW117321   1.674   5.451   4.160
 5474SOL    HW217322   1.771   5.499   4.038
 5475SOL     OW17323   3.009   2.079   0.999
 5475SOL    HW117324   3.087   2.056   1.058
 5475SOL    HW217325   2.950   2.144   1.047
 5476SOL     OW17326   1.522   2.985   6.430
 5476SOL    HW117327   1.568   2.977   6.518
 5476SOL    HW217328   1.481   2.897   6.406
 5477SOL     OW17329   1.869   2.990   3.031
 5477SOL    HW117330   1.819   2.904   3.022
 5477SOL    HW217331   1.961   2.972   3.064
 5478SOL     OW17332   5.423   6.007   5.572
 5478SOL    HW117333   5.407   5.949   5.492
 5478SOL    HW217334   5.368   5.973   5.648
 5479SOL     OW17335   4.856   0.484   4.326
 5479SOL    HW117336   4.776   0.472   4.267
 5479SOL    HW217337   4.919   0.549   4.284
 5480SOL     OW17338   1.117   3.524   4.254
 5480SOL    HW117339   1.202   3.556   4.212
 5480SOL    HW217340   1.115   3.424   4.252
 5481SOL     OW17341   3.601   6.870   3.949
 5481SOL    HW117342   3.513   6.859   3.996
 5481SOL    HW217343   3.589   6.933   3.871
 5482SOL     OW17344   2.456   4.922   1.646
 5482SOL    HW117345   2.484   4.827   1.659
 5482SOL    HW217346   2.360   4.933   1.671
 5483SOL     OW17347   0.102   2.715   6.191
 5483SOL    HW117348   0.170   2.721   6.118
 5483SOL    HW217349   0.141   2.665   6.269
 5484SOL     OW17350   4.387   0.767   4.704
 5484SOL    HW117351   4.447   0.715   4.643
 5484SOL    HW217352   4.405   0.865   4.693
 5485SOL     OW17353   3.278   6.998   6.075
 5485SOL    HW117354   3.184   0.002   6.050
 5485SOL    HW217355   3.341   0.019   6.008
 5486SOL     OW17356   2.759   6.293   5.103
 5486SOL    HW117357   2.688   6.361   5.122
 5486SOL    HW217358   2.817   6.324   5.029
 5487SOL     OW17359   3.081   4.881   5.505
 5487SOL    HW117360   3.021   4.812   5.464
 5487SOL    HW217361   3.139   4.922   5.435
 5488SOL     OW17362   6.177   1.452   0.908
 5488SOL    HW117363   6.094   1.447   0.853
 5488SOL    HW217364   6.166   1.396   0.990
 5489SOL     OW17365   6.404   3.941   2.739
 5489SOL    HW117366   6.420   3.940   2.640
 5489SOL    HW217367   6.490   3.956   2.787
 5490SOL     OW17368   1.589   6.752   3.066
 5490SOL    HW117369   1.575   6.758   2.968
 5490SOL    HW217370   1.503   6.769   3.114
 5491SOL     OW17371   6.396   4.464   0.465
 5491SOL    HW117372   6.386   4.481   0.367
 5491SOL    HW217373   6.477   4.407   0.481
 5492SOL     OW17374   0.148   1.786   5.396
 5492SOL    HW117375   0.104   1.783   5.486
 5492SOL    HW217376   0.216   1.859   5.394
 5493SOL     OW17377   3.965   3.764   1.334
 5493SOL    HW117378   3.866   3.763   1.319
 5493SOL    HW217379   3.991   3.683   1.388
 5494SOL     OW17380   6.443   4.194   5.146
 5494SOL    HW117381   6.493   4.281   5.142
 5494SOL    HW217382   6.350   4.210   5.177
 5495SOL     OW17383   5.701   0.683   0.787
 5495SOL    HW117384   5.776   0.676   0.721
 5495SOL    HW217385   5.737   0.714   0.875
 5496SOL     OW17386   3.699   0.483   4.481
 5496SOL    HW117387   3.790   0.520   4.462
 5496SOL    HW217388   3.643   0.490   4.398
 5497SOL     OW17389   1.283   0.369   5.962
 5497SOL    HW117390   1.344   0.431   6.011
 5497SOL    HW217391   1.276   0.283   6.013
 5498SOL     OW17392   0.464   5.293   1.750
 5498SOL    HW117393   0.424   5.356   1.816
 5498SOL    HW217394   0.506   5.216   1.798
 5499SOL     OW17395   1.594   0.554   4.802
 5499SOL    HW117396   1.573   0.528   4.896
 5499SOL    HW217397   1.618   0.651   4.798
 5500SOL     OW17398   2.719   0.760   0.512
 5500SOL    HW117399   2.797   0.702   0.488
 5500SOL    HW217400   2.642   0.703   0.540
 5501SOL     OW17401   3.591   3.356   6.606
 5501SOL    HW117402   3.564   3.277   6.551
 5501SOL    HW217403   3.521   3.374   6.675
 5502SOL     OW17404   4.168   2.518   6.808
 5502SOL    HW117405   4.109   2.565   6.873
 5502SOL    HW217406   4.127   2.429   6.785
 5503SOL     OW17407   6.621   4.277   0.555
 5503SOL    HW117408   6.609   4.186   0.517
 5503SOL    HW217409   6.716   4.290   0.583
 5504SOL     OW17410   3.403   1.736   6.146
 5504SOL    HW117411   3.320   1.714   6.197
 5504SOL    HW217412   3.381   1.803   6.075
 5505SOL     OW17413   2.239   4.841   4.094
 5505SOL    HW117414   2.152   4.885   4.076
 5505SOL    HW217415   2.235   4.745   4.065
 5506SOL     OW17416   0.639   3.392   6.224
 5506SOL    HW117417   0.671   3.392   6.130
 5506SOL    HW217418   0.705   3.344   6.282
 5507SOL     OW17419   2.514   6.608   6.986
 5507SOL    HW117420   2.526   6.509   6.978
 5507SOL    HW217421   2.420   6.628   7.014
 5508SOL     OW17422   0.134   0.780   6.428
 5508SOL    HW117423   0.082   0.860   6.458
 5508SOL    HW217424   0.186   0.743   6.505
 5509SOL     OW17425   0.251   5.237   0.696
 5509SOL    HW117426   0.172   5.196   0.742
 5509SOL    HW217427   0.219   5.293   0.620
 5510SOL     OW17428   3.989   5.096   7.015
 5510SOL    HW117429   3.985   5.133   6.922
 5510SOL    HW217430   3.897   5.072   0.027
 5511SOL     OW17431   0.636   1.629   5.461
 5511SOL    HW117432   0.717   1.574   5.442
 5511SOL    HW217433   0.653   1.724   5.436
 5512SOL     OW17434   3.528   1.009   2.485
 5512SOL    HW117435   3.524   0.929   2.426
 5512SOL    HW217436   3.558   1.089   2.433
 5513SOL     OW17437   3.723   4.148   7.008
 5513SOL    HW117438   3.772   4.112   0.069
 5513SOL    HW217439   3.659   4.219   0.019
 5514SOL     OW17440   3.101   0.737   0.267
 5514SOL    HW117441   3.196   0.742   0.236
 5514SOL    HW217442   3.075   0.642   0.280
 5515SOL     OW17443   2.734   6.197   2.294
 5515SOL    HW117444   2.755   6.100   2.309
 5515SOL    HW217445   2.720   6.242   2.382
 5516SOL     OW17446   2.435   2.525   5.324
 5516SOL    HW117447   2.340   2.543   5.300
 5516SOL    HW217448   2.477   2.608   5.361
 5517SOL     OW17449   1.420   3.011   3.408
 5517SOL    HW117450   1.467   2.941   3.355
 5517SOL    HW217451   1.363   3.067   3.348
 5518SOL     OW17452   4.421   4.385   6.090
 5518SOL    HW117453   4.422   4.457   6.021
 5518SOL    HW217454   4.342   4.397   6.150
 5519SOL     OW17455   4.628   2.655   3.604
 5519SOL    HW117456   4.718   2.611   3.594
 5519SOL    HW217457   4.593   2.679   3.513
 5520SOL     OW17458   4.892   6.872   1.571
 5520SOL    HW117459   4.841   6.844   1.652
 5520SOL    HW217460   4.949   6.951   1.593
 5521SOL     OW17461   5.639   5.492   1.851
 5521SOL    HW117462   5.675   5.437   1.926
 5521SOL    HW217463   5.611   5.581   1.886
 5522SOL     OW17464   6.173   6.088   0.935
 5522SOL    HW117465   6.104   6.120   0.869
 5522SOL    HW217466   6.136   6.011   0.987
 5523SOL     OW17467   5.668   1.210   2.271
 5523SOL    HW117468   5.597   1.143   2.293
 5523SOL    HW217469   5.627   1.301   2.268
 5524SOL     OW17470   3.179   1.371   4.312
 5524SOL    HW117471   3.145   1.281   4.338
 5524SOL    HW217472   3.164   1.436   4.387
 5525SOL     OW17473   6.196   1.291   1.123
 5525SOL    HW117474   6.293   1.273   1.111
 5525SOL    HW217475   6.176   1.310   1.219
 5526SOL     OW17476   4.639   4.732   3.661
 5526SOL    HW117477   4.583   4.718   3.580
 5526SOL    HW217478   4.624   4.824   3.697
 5527SOL     OW17479   5.572   1.630   3.785
 5527SOL    HW117480   5.665   1.609   3.815
 5527SOL    HW217481   5.526   1.687   3.853
 5528SOL     OW17482   1.184   1.085   0.816
 5528SOL    HW117483   1.196   1.136   0.731
 5528SOL    HW217484   1.273   1.069   0.859
 5529SOL     OW17485   3.535   0.555   2.198
 5529SOL    HW117486   3.613   0.497   2.173
 5529SOL    HW217487   3.466   0.550   2.126
 5530SOL     OW17488   6.209   2.122   1.112
 5530SOL    HW117489   6.248   2.085   1.028
 5530SOL    HW217490   6.233   2.063   1.189
 5531SOL     OW17491   2.344   3.722   1.242
 5531SOL    HW117492   2.296   3.772   1.315
 5531SOL    HW217493   2.344   3.776   1.159
 5532SOL     OW17494   1.486   3.399   0.538
 5532SOL    HW117495   1.579   3.388   0.501
 5532SOL    HW217496   1.421   3.403   0.462
 5533SOL     OW17497   3.803   2.123   3.399
 5533SOL    HW117498   3.718   2.173   3.387
 5533SOL    HW217499   3.874   2.162   3.340
 5534SOL     OW17500   1.245   0.636   4.747
 5534SOL    HW117501   1.205   0.544   4.744
 5534SOL    HW217502   1.244   0.669   4.841
 5535SOL     OW17503   0.312   2.036   3.662
 5535SOL    HW117504   0.246   1.963   3.646
 5535SOL    HW217505   0.402   1.995   3.681
 5536SOL     OW17506   4.014   6.145   4.078
 5536SOL    HW117507   3.952   6.179   4.149
 5536SOL    HW217508   3.974   6.064   4.036
 5537SOL     OW17509   2.960   1.222   3.432
 5537SOL    HW117510   3.045   1.223   3.379
 5537SOL    HW217511   2.939   1.128   3.458
 5538SOL     OW17512   4.363   5.424   4.780
 5538SOL    HW117513   4.420   5.345   4.758
 5538SOL    HW217514   4.268   5.404   4.756
 5539SOL     OW17515   2.238   4.222   0.361
 5539SOL    HW117516   2.192   4.205   0.274
 5539SOL    HW217517   2.335   4.198   0.352
 5540SOL     OW17518   5.387   5.119   1.639
 5540SOL    HW117519   5.345   5.080   1.558
 5540SOL    HW217520   5.417   5.046   1.700
 5541SOL     OW17521   4.588   1.437   5.616
 5541SOL    HW117522   4.619   1.467   5.706
 5541SOL    HW217523   4.525   1.360   5.625
 5542SOL     OW17524   5.340   4.871   6.261
 5542SOL    HW117525   5.422   4.869   6.319
 5542SOL    HW217526   5.335   4.787   6.208
 5543SOL     OW17527   0.202   2.126   6.203
 5543SOL    HW117528   0.242   2.130   6.112
 5543SOL    HW217529   0.252   2.060   6.258
 5544SOL     OW17530   5.610   1.413   6.680
 5544SOL    HW117531   5.623   1.466   6.764
 5544SOL    HW217532   5.514   1.417   6.652
 5545SOL     OW17533   2.677   2.440   1.788
 5545SOL    HW117534   2.762   2.449   1.839
 5545SOL    HW217535   2.621   2.368   1.828
 5546SOL     OW17536   2.340   4.936   5.559
 5546SOL    HW117537   2.380   5.025   5.537
 5546SOL    HW217538   2.411   4.866   5.551
 5547SOL     OW17539   3.675   6.161   4.824
 5547SOL    HW117540   3.737   6.157   4.902
 5547SOL    HW217541   3.630   6.073   4.811
 5548SOL     OW17542   0.111   3.155   5.453
 5548SOL    HW117543   0.090   3.064   5.489
 5548SOL    HW217544   0.209   3.171   5.456
 5549SOL     OW17545   3.328   4.581   6.557
 5549SOL    HW117546   3.345   4.490   6.519
 5549SOL    HW217547   3.390   4.647   6.515
 5550SOL     OW17548   3.755   6.709   2.408
 5550SOL    HW117549   3.805   6.637   2.360
 5550SOL    HW217550   3.820   6.778   2.441
 5551SOL     OW17551   0.792   1.070   3.172
 5551SOL    HW117552   0.793   1.048   3.270
 5551SOL    HW217553   0.789   0.985   3.120
 5552SOL     OW17554   0.577   2.803   0.870
 5552SOL    HW117555   0.645   2.730   0.877
 5552SOL    HW217556   0.510   2.793   0.943
 5553SOL     OW17557   5.603   6.276   0.013
 5553SOL    HW117558   5.529   6.210   7.015
 5553SOL    HW217559   5.674   6.264   6.962
 5554SOL     OW17560   2.810   1.531   4.828
 5554SOL    HW117561   2.833   1.609   4.885
 5554SOL    HW217562   2.882   1.515   4.761
 5555SOL     OW17563   0.246   6.420   2.426
 5555SOL    HW117564   0.213   6.380   2.341
 5555SOL    HW217565   0.343   6.443   2.418
 5556SOL     OW17566   0.467   1.569   4.226
 5556SOL    HW117567   0.506   1.581   4.317
 5556SOL    HW217568   0.436   1.657   4.190
 5557SOL     OW17569   2.571   0.310   3.665
 5557SOL    HW117570   2.586   0.212   3.681
 5557SOL    HW217571   2.560   0.326   3.567
 5558SOL     OW17572   5.119   2.412   4.524
 5558SOL    HW117573   5.037   2.414   4.467
 5558SOL    HW217574   5.104   2.464   4.608
 5559SOL     OW17575   2.099   0.031   1.143
 5559SOL    HW117576   2.130   0.077   1.060
 5559SOL    HW217577   2.067   0.099   1.208
 5560SOL     OW17578   0.098   0.685   4.422
 5560SOL    HW117579   0.110   0.769   4.474
 5560SOL    HW217580   0.016   0.637   4.456
 5561SOL     OW17581   1.441   3.723   3.094
 5561SOL    HW117582   1.413   3.805   3.045
 5561SOL    HW217583   1.535   3.733   3.126
 5562SOL     OW17584   2.781   2.403   5.896
 5562SOL    HW117585   2.850   2.331   5.900
 5562SOL    HW217586   2.816   2.479   5.841
 5563SOL     OW17587   4.302   4.431   1.428
 5563SOL    HW117588   4.354   4.354   1.464
 5563SOL    HW217589   4.298   4.504   1.497
 5564SOL     OW17590   6.500   4.158   1.617
 5564SOL    HW117591   6.578   4.170   1.555
 5564SOL    HW217592   6.421   4.126   1.564
 5565SOL     OW17593   3.111   2.824   5.545
 5565SOL    HW117594   3.159   2.737   5.558
 5565SOL    HW217595   3.174   2.891   5.505
 5566SOL     OW17596   1.943   4.645   0.576
 5566SOL    HW117597   1.846   4.630   0.590
 5566SOL    HW217598   1.961   4.743   0.562
 5567SOL     OW17599   1.899   5.522   3.135
 5567SOL    HW117600   1.972   5.468   3.176
 5567SOL    HW217601   1.856   5.578   3.206
 5568SOL     OW17602   3.752   1.872   0.991
 5568SOL    HW117603   3.812   1.839   0.918
 5568SOL    HW217604   3.719   1.964   0.969
 5569SOL     OW17605   5.681   2.418   6.691
 5569SOL    HW117606   5.753   2.484   6.716
 5569SOL    HW217607   5.591   2.458   6.711
 5570SOL     OW17608   0.043   3.925   5.885
 5570SOL    HW117609   6.975   3.948   5.840
 5570SOL    HW217610   0.106   3.885   5.819
 5571SOL     OW17611   6.777   4.815   6.356
 5571SOL    HW117612   6.726   4.729   6.355
 5571SOL    HW217613   6.712   4.891   6.356
 5572SOL     OW17614   5.256   2.596   5.437
 5572SOL    HW117615   5.280   2.634   5.348
 5572SOL    HW217616   5.215   2.668   5.494
 5573SOL     OW17617   0.849   3.975   0.375
 5573SOL    HW117618   0.899   4.061   0.380
 5573SOL    HW217619   0.816   3.950   0.466
 5574SOL     OW17620   0.700   6.088   4.432
 5574SOL    HW117621   0.633   6.029   4.478
 5574SOL    HW217622   0.776   6.105   4.495
 5575SOL     OW17623   1.555   0.966   1.624
 5575SOL    HW117624   1.620   0.956   1.699
 5575SOL    HW217625   1.462   0.971   1.661
 5576SOL     OW17626   6.530   5.744   0.615
 5576SOL    HW117627   6.465   5.750   0.540
 5576SOL    HW217628   6.622   5.762   0.581
 5577SOL     OW17629   2.217   3.718   5.142
 5577SOL    HW117630   2.279   3.688   5.214
 5577SOL    HW217631   2.248   3.806   5.105
 5578SOL     OW17632   3.599   0.931   6.013
 5578SOL    HW117633   3.627   0.995   5.941
 5578SOL    HW217634   3.517   0.965   6.058
 5579SOL     OW17635   5.389   4.600   1.227
 5579SOL    HW117636   5.391   4.601   1.127
 5579SOL    HW217637   5.371   4.507   1.259
 5580SOL     OW17638   5.045   0.642   1.238
 5580SOL    HW117639   4.953   0.644   1.276
 5580SOL    HW217640   5.057   0.558   1.185
 5581SOL     OW17641   2.419   2.546   0.670
 5581SOL    HW117642   2.384   2.638   0.652
 5581SOL    HW217643   2.425   2.496   0.583
 5582SOL     OW17644   4.050   3.227   3.321
 5582SOL    HW117645   4.061   3.196   3.416
 5582SOL    HW217646   4.026   3.324   3.321
 5583SOL     OW17647   3.610   0.581   0.250
 5583SOL    HW117648   3.628   0.514   0.322
 5583SOL    HW217649   3.691   0.590   0.192
 5584SOL     OW17650   5.376   3.000   3.074
 5584SOL    HW117651   5.405   3.019   3.168
 5584SOL    HW217652   5.297   2.938   3.076
 5585SOL     OW17653   6.722   6.686   4.630
 5585SOL    HW117654   6.801   6.747   4.620
 5585SOL    HW217655   6.748   6.594   4.600
 5586SOL     OW17656   2.126   1.832   6.303
 5586SOL    HW117657   2.078   1.792   6.225
 5586SOL    HW217658   2.074   1.910   6.338
 5587SOL     OW17659   3.613   0.091   3.803
 5587SOL    HW117660   3.556   0.151   3.746
 5587SOL    HW217661   3.697   0.140   3.828
 5588SOL     OW17662   4.413   0.146   5.933
 5588SOL    HW117663   4.510   0.156   5.951
 5588SOL    HW217664   4.394   0.050   5.909
 5589SOL     OW17665   3.380   3.634   6.767
 5589SOL    HW117666   3.302   3.657   6.709
 5589SOL    HW217667   3.377   3.537   6.790
 5590SOL     OW17668   6.847   6.888   3.464
 5590SOL    HW117669   6.933   6.911   3.420
 5590SOL    HW217670   6.796   6.972   3.484
 5591SOL     OW17671   5.090   0.738   6.659
 5591SOL    HW117672   5.067   0.702   6.569
 5591SOL    HW217673   5.059   0.833   6.666
 5592SOL     OW17674   2.734   1.833   2.787
 5592SOL    HW117675   2.703   1.840   2.882
 5592SOL    HW217676   2.807   1.899   2.771
 5593SOL     OW17677   2.138   3.464   4.932
 5593SOL    HW117678   2.120   3.509   4.845
 5593SOL    HW217679   2.173   3.532   4.997
 5594SOL     OW17680   2.458   1.483   6.568
 5594SOL    HW117681   2.402   1.546   6.513
 5594SOL    HW217682   2.552   1.484   6.536
 5595SOL     OW17683   0.287   1.812   5.966
 5595SOL    HW117684   0.321   1.759   6.044
 5595SOL    HW217685   0.332   1.782   5.882
 5596SOL     OW17686   5.171   1.870   3.196
 5596SOL    HW117687   5.087   1.893   3.246
 5596SOL    HW217688   5.156   1.789   3.139
 5597SOL     OW17689   0.478   1.093   6.153
 5597SOL    HW117690   0.550   1.128   6.093
 5597SOL    HW217691   0.443   1.007   6.117
 5598SOL     OW17692   6.770   2.283   4.339
 5598SOL    HW117693   6.784   2.278   4.240
 5598SOL    HW217694   6.810   2.202   4.382
 5599SOL     OW17695   5.073   2.542   3.297
 5599SOL    HW117696   5.148   2.493   3.342
 5599SOL    HW217697   5.071   2.636   3.329
 5600SOL     OW17698   2.328   2.162   2.095
 5600SOL    HW117699   2.262   2.231   2.125
 5600SOL    HW217700   2.283   2.098   2.032
 5601SOL     OW17701   5.988   3.041   6.136
 5601SOL    HW117702   6.044   3.067   6.057
 5601SOL    HW217703   5.911   2.985   6.106
 5602SOL     OW17704   6.280   2.005   2.329
 5602SOL    HW117705   6.237   1.927   2.374
 5602SOL    HW217706   6.282   2.083   2.392
 5603SOL     OW17707   4.492   1.502   6.044
 5603SOL    HW117708   4.455   1.590   6.016
 5603SOL    HW217709   4.569   1.478   5.985
 5604SOL     OW17710   1.394   6.515   3.775
 5604SOL    HW117711   1.409   6.450   3.850
 5604SOL    HW217712   1.339   6.591   3.808
 5605SOL     OW17713   4.494   6.817   4.211
 5605SOL    HW117714   4.470   6.765   4.129
 5605SOL    HW217715   4.426   6.799   4.283
 5606SOL     OW17716   5.021   3.031   0.516
 5606SOL    HW117717   4.966   3.101   0.470
 5606SOL    HW217718   5.045   2.959   0.450
 5607SOL     OW17719   0.002   2.544   3.137
 5607SOL    HW117720   0.053   2.465   3.102
 5607SOL    HW217721   6.924   2.519   3.146
 5608SOL     OW17722   5.090   0.698   3.038
 5608SOL    HW117723   5.189   0.706   3.050
 5608SOL    HW217724   5.051   0.647   3.114
 5609SOL     OW17725   6.647   0.262   0.476
 5609SOL    HW117726   6.694   0.303   0.398
 5609SOL    HW217727   6.656   0.162   0.472
 5610SOL     OW17728   5.706   5.585   0.330
 5610SOL    HW117729   5.723   5.488   0.316
 5610SOL    HW217730   5.763   5.639   0.268
 5611SOL     OW17731   5.966   4.749   2.021
 5611SOL    HW117732   5.987   4.792   1.933
 5611SOL    HW217733   6.052   4.729   2.070
 5612SOL     OW17734   3.862   1.965   6.961
 5612SOL    HW117735   3.919   2.035   6.917
 5612SOL    HW217736   3.875   1.970   0.042
 5613SOL     OW17737   5.950   5.096   6.148
 5613SOL    HW117738   5.965   5.195   6.148
 5613SOL    HW217739   6.022   5.051   6.096
 5614SOL     OW17740   4.853   3.151   4.207
 5614SOL    HW117741   4.860   3.089   4.285
 5614SOL    HW217742   4.822   3.100   4.127
 5615SOL     OW17743   0.629   2.315   3.152
 5615SOL    HW117744   0.712   2.351   3.192
 5615SOL    HW217745   0.576   2.265   3.221
 5616SOL     OW17746   1.850   3.374   2.357
 5616SOL    HW117747   1.838   3.471   2.377
 5616SOL    HW217748   1.903   3.363   2.273
 5617SOL     OW17749   1.467   4.872   6.346
 5617SOL    HW117750   1.519   4.925   6.413
 5617SOL    HW217751   1.452   4.928   6.264
 5618SOL     OW17752   5.176   6.308   1.932
 5618SOL    HW117753   5.134   6.223   1.962
 5618SOL    HW217754   5.105   6.375   1.909
 5619SOL     OW17755   3.213   3.375   3.968
 5619SOL    HW117756   3.251   3.288   4.000
 5619SOL    HW217757   3.153   3.358   3.891
 5620SOL     OW17758   4.786   4.608   4.242
 5620SOL    HW117759   4.729   4.536   4.202
 5620SOL    HW217760   4.831   4.573   4.324
 5621SOL     OW17761   0.662   2.409   6.493
 5621SOL    HW117762   0.688   2.323   6.448
 5621SOL    HW217763   0.741   2.470   6.497
 5622SOL     OW17764   4.732   5.705   4.192
 5622SOL    HW117765   4.673   5.695   4.112
 5622SOL    HW217766   4.748   5.616   4.234
 5623SOL     OW17767   4.695   4.948   4.497
 5623SOL    HW117768   4.733   5.040   4.506
 5623SOL    HW217769   4.762   4.888   4.453
 5624SOL     OW17770   4.910   4.447   3.252
 5624SOL    HW117771   4.950   4.536   3.228
 5624SOL    HW217772   4.862   4.456   3.339
 5625SOL     OW17773   2.430   6.015   6.092
 5625SOL    HW117774   2.434   6.038   6.190
 5625SOL    HW217775   2.521   6.023   6.052
 5626SOL     OW17776   0.669   4.911   6.941
 5626SOL    HW117777   0.573   4.890   6.958
 5626SOL    HW217778   0.698   4.869   6.855
 5627SOL     OW17779   1.288   5.440   6.981
 5627SOL    HW117780   1.263   5.526   0.009
 5627SOL    HW217781   1.265   5.363   0.021
 5628SOL     OW17782   2.245   3.850   0.366
 5628SOL    HW117783   2.247   3.808   0.276
 5628SOL    HW217784   2.150   3.868   0.393
 5629SOL     OW17785   6.710   3.146   2.668
 5629SOL    HW117786   6.680   3.195   2.749
 5629SOL    HW217787   6.723   3.049   2.690
 5630SOL     OW17788   0.699   4.130   6.884
 5630SOL    HW117789   0.654   4.057   6.833
 5630SOL    HW217790   0.787   4.152   6.843
 5631SOL     OW17791   4.100   1.647   1.916
 5631SOL    HW117792   4.028   1.663   1.849
 5631SOL    HW217793   4.074   1.690   2.003
 5632SOL     OW17794   5.048   6.843   5.539
 5632SOL    HW117795   4.975   6.884   5.594
 5632SOL    HW217796   5.023   6.749   5.516
 5633SOL     OW17797   1.210   5.774   5.526
 5633SOL    HW117798   1.184   5.690   5.574
 5633SOL    HW217799   1.308   5.791   5.540
 5634SOL     OW17800   2.575   0.610   1.375
 5634SOL    HW117801   2.650   0.544   1.384
 5634SOL    HW217802   2.607   0.690   1.324
 5635SOL     OW17803   3.033   0.553   1.464
 5635SOL    HW117804   2.934   0.545   1.460
 5635SOL    HW217805   3.075   0.471   1.424
 5636SOL     OW17806   4.841   1.080   5.981
 5636SOL    HW117807   4.932   1.102   6.015
 5636SOL    HW217808   4.837   0.984   5.955
 5637SOL     OW17809   5.149   6.913   4.451
 5637SOL    HW117810   5.182   6.979   4.519
 5637SOL    HW217811   5.055   6.935   4.426
 5638SOL     OW17812   6.319   5.191   0.849
 5638SOL    HW117813   6.279   5.253   0.782
 5638SOL    HW217814   6.348   5.243   0.930
 5639SOL     OW17815   2.174   0.403   1.693
 5639SOL    HW117816   2.194   0.429   1.788
 5639SOL    HW217817   2.088   0.443   1.664
 5640SOL     OW17818   3.209   0.107   2.609
 5640SOL    HW117819   3.254   0.147   2.689
 5640SOL    HW217820   3.161   0.178   2.558
 5641SOL     OW17821   6.732   4.093   4.002
 5641SOL    HW117822   6.782   4.169   4.045
 5641SOL    HW217823   6.773   4.007   4.032
 5642SOL     OW17824   2.059   3.564   6.516
 5642SOL    HW117825   2.113   3.594   6.595
 5642SOL    HW217826   1.986   3.504   6.546
 5643SOL     OW17827   5.541   2.361   4.672
 5643SOL    HW117828   5.454   2.310   4.673
 5643SOL    HW217829   5.617   2.296   4.682
 5644SOL     OW17830   4.064   0.406   4.787
 5644SOL    HW117831   4.154   0.374   4.817
 5644SOL    HW217832   4.053   0.388   4.689
 5645SOL     OW17833   6.723   5.568   4.123
 5645SOL    HW117834   6.681   5.659   4.127
 5645SOL    HW217835   6.803   5.565   4.183
 5646SOL     OW17836   0.299   6.584   3.787
 5646SOL    HW117837   0.334   6.630   3.706
 5646SOL    HW217838   0.201   6.564   3.774
 5647SOL     OW17839   6.932   5.410   6.424
 5647SOL    HW117840   6.898   5.496   6.462
 5647SOL    HW217841   0.013   5.417   6.411
 5648SOL     OW17842   1.849   1.158   5.066
 5648SOL    HW117843   1.833   1.256   5.079
 5648SOL    HW217844   1.765   1.115   5.033
 5649SOL     OW17845   1.504   0.165   5.237
 5649SOL    HW117846   1.534   0.128   5.150
 5649SOL    HW217847   1.405   0.181   5.234
 5650SOL     OW17848   6.325   5.132   6.761
 5650SOL    HW117849   6.352   5.156   6.668
 5650SOL    HW217850   6.246   5.185   6.789
 5651SOL     OW17851   6.172   1.436   2.953
 5651SOL    HW117852   6.267   1.457   2.932
 5651SOL    HW217853   6.131   1.388   2.876
 5652SOL     OW17854   5.638   4.248   0.228
 5652SOL    HW117855   5.642   4.339   0.185
 5652SOL    HW217856   5.720   4.196   0.203
 5653SOL     OW17857   2.098   6.506   6.508
 5653SOL    HW117858   2.025   6.533   6.445
 5653SOL    HW217859   2.112   6.407   6.503
 5654SOL     OW17860   0.685   5.766   5.963
 5654SOL    HW117861   0.666   5.842   5.901
 5654SOL    HW217862   0.701   5.683   5.908
 5655SOL     OW17863   6.778   4.339   3.108
 5655SOL    HW117864   6.798   4.256   3.161
 5655SOL    HW217865   6.720   4.400   3.162
 5656SOL     OW17866   3.355   5.045   6.062
 5656SOL    HW117867   3.264   5.081   6.043
 5656SOL    HW217868   3.347   4.956   6.108
 5657SOL     OW17869   4.415   5.849   1.902
 5657SOL    HW117870   4.351   5.867   1.977
 5657SOL    HW217871   4.383   5.896   1.820
 5658SOL     OW17872   4.894   6.852   5.156
 5658SOL    HW117873   4.936   6.788   5.092
 5658SOL    HW217874   4.867   6.803   5.239
 5659SOL     OW17875   3.382   3.802   2.968
 5659SOL    HW117876   3.333   3.889   2.977
 5659SOL    HW217877   3.391   3.760   3.058
 5660SOL     OW17878   5.846   6.807   0.610
 5660SOL    HW117879   5.871   6.731   0.670
 5660SOL    HW217880   5.748   6.802   0.591
 5661SOL     OW17881   6.457   5.692   5.110
 5661SOL    HW117882   6.528   5.635   5.152
 5661SOL    HW217883   6.428   5.650   5.023
 5662SOL     OW17884   2.012   3.652   4.104
 5662SOL    HW117885   2.030   3.554   4.093
 5662SOL    HW217886   1.951   3.666   4.181
 5663SOL     OW17887   1.798   3.486   0.225
 5663SOL    HW117888   1.796   3.440   0.314
 5663SOL    HW217889   1.729   3.559   0.225
 5664SOL     OW17890   0.012   4.761   2.690
 5664SOL    HW117891   0.005   4.678   2.746
 5664SOL    HW217892   6.968   4.831   2.726
 5665SOL     OW17893   1.809   1.294   6.149
 5665SOL    HW117894   1.831   1.260   6.057
 5665SOL    HW217895   1.712   1.316   6.154
 5666SOL     OW17896   5.930   5.397   0.557
 5666SOL    HW117897   5.868   5.319   0.564
 5666SOL    HW217898   5.883   5.473   0.513
 5667SOL     OW17899   6.892   5.947   3.764
 5667SOL    HW117900   6.912   5.889   3.843
 5667SOL    HW217901   6.864   5.890   3.687
 5668SOL     OW17902   5.779   2.836   5.818
 5668SOL    HW117903   5.761   2.922   5.770
 5668SOL    HW217904   5.694   2.783   5.823
 5669SOL     OW17905   6.875   3.283   5.598
 5669SOL    HW117906   6.896   3.211   5.533
 5669SOL    HW217907   6.936   3.360   5.584
 5670SOL     OW17908   1.794   3.609   3.268
 5670SOL    HW117909   1.820   3.513   3.277
 5670SOL    HW217910   1.732   3.634   3.342
 5671SOL     OW17911   1.437   1.277   5.438
 5671SOL    HW117912   1.438   1.177   5.432
 5671SOL    HW217913   1.351   1.311   5.398
 5672SOL     OW17914   5.407   4.308   5.759
 5672SOL    HW117915   5.372   4.218   5.786
 5672SOL    HW217916   5.388   4.324   5.662
 5673SOL     OW17917   1.668   0.400   1.804
 5673SOL    HW117918   1.613   0.482   1.786
 5673SOL    HW217919   1.708   0.368   1.718
 5674SOL     OW17920   6.839   3.792   1.119
 5674SOL    HW117921   6.915   3.746   1.165
 5674SOL    HW217922   6.794   3.729   1.056
 5675SOL     OW17923   4.312   1.644   5.665
 5675SOL    HW117924   4.354   1.644   5.756
 5675SOL    HW217925   4.383   1.632   5.596
 5676SOL     OW17926   3.345   6.879   1.621
 5676SOL    HW117927   3.269   6.937   1.590
 5676SOL    HW217928   3.431   6.929   1.611
 5677SOL     OW17929   0.038   0.649   4.147
 5677SOL    HW117930   0.074   0.657   4.239
 5677SOL    HW217931   0.089   0.709   4.086
 5678SOL     OW17932   2.061   4.987   3.503
 5678SOL    HW117933   2.095   4.982   3.409
 5678SOL    HW217934   2.131   5.029   3.561
 5679SOL     OW17935   2.766   6.141   5.348
 5679SOL    HW117936   2.804   6.201   5.277
 5679SOL    HW217937   2.839   6.083   5.385
 5680SOL     OW17938   2.284   6.890   6.144
 5680SOL    HW117939   2.208   6.951   6.123
 5680SOL    HW217940   2.329   6.921   6.228
 5681SOL     OW17941   1.994   3.912   0.463
 5681SOL    HW117942   1.947   3.946   0.381
 5681SOL    HW217943   1.942   3.836   0.502
 5682SOL     OW17944   0.369   3.196   3.856
 5682SOL    HW117945   0.323   3.282   3.830
 5682SOL    HW217946   0.420   3.161   3.777
 5683SOL     OW17947   3.557   2.862   5.131
 5683SOL    HW117948   3.655   2.879   5.126
 5683SOL    HW217949   3.516   2.878   5.041
 5684SOL     OW17950   3.478   3.764   3.262
 5684SOL    HW117951   3.484   3.672   3.301
 5684SOL    HW217952   3.406   3.815   3.309
 5685SOL     OW17953   0.933   5.532   2.514
 5685SOL    HW117954   1.026   5.538   2.550
 5685SOL    HW217955   0.881   5.612   2.542
 5686SOL     OW17956   3.396   5.644   0.188
 5686SOL    HW117957   3.315   5.695   0.216
 5686SOL    HW217958   3.368   5.556   0.150
 5687SOL     OW17959   4.699   5.244   5.464
 5687SOL    HW117960   4.677   5.212   5.556
 5687SOL    HW217961   4.771   5.187   5.425
 5688SOL     OW17962   5.965   1.893   2.315
 5688SOL    HW117963   6.029   1.880   2.391
 5688SOL    HW217964   5.878   1.850   2.337
 5689SOL     OW17965   4.378   2.525   6.659
 5689SOL    HW117966   4.292   2.563   6.692
 5689SOL    HW217967   4.395   2.438   6.705
 5690SOL     OW17968   4.823   6.784   1.814
 5690SOL    HW117969   4.890   6.795   1.888
 5690SOL    HW217970   4.787   6.691   1.815
 5691SOL     OW17971   1.947   0.224   2.374
 5691SOL    HW117972   1.939   0.161   2.451
 5691SOL    HW217973   1.864   0.220   2.318
 5692SOL     OW17974   6.186   2.725   0.000
 5692SOL    HW117975   6.143   2.678   6.941
 5692SOL    HW217976   6.143   2.814   0.013
 5693SOL     OW17977   4.944   2.987   2.995
 5693SOL    HW117978   4.958   3.084   2.977
 5693SOL    HW217979   4.861   2.956   2.947
 5694SOL     OW17980   0.627   1.952   4.274
 5694SOL    HW117981   0.544   1.914   4.233
 5694SOL    HW217982   0.689   1.982   4.201
 5695SOL     OW17983   1.841   3.659   3.874
 5695SOL    HW117984   1.925   3.636   3.924
 5695SOL    HW217985   1.787   3.725   3.928
 5696SOL     OW17986   3.546   0.257   5.809
 5696SOL    HW117987   3.496   0.171   5.810
 5696SOL    HW217988   3.594   0.268   5.896
 5697SOL     OW17989   6.918   3.432   0.043
 5697SOL    HW117990   6.871   3.383   0.116
 5697SOL    HW217991   6.939   3.368   6.986
 5698SOL     OW17992   0.851   3.959   2.268
 5698SOL    HW117993   0.945   3.935   2.293
 5698SOL    HW217994   0.804   3.878   2.233
 5699SOL     OW17995   6.574   0.972   4.782
 5699SOL    HW117996   6.575   0.917   4.865
 5699SOL    HW217997   6.506   1.044   4.790
 5700SOL     OW17998   1.267   5.089   3.501
 5700SOL    HW117999   1.193   5.046   3.553
 5700SOL    HW218000   1.298   5.171   3.549
 5701SOL     OW18001   5.689   4.923   1.790
 5701SOL    HW118002   5.650   4.987   1.856
 5701SOL    HW218003   5.666   4.829   1.817
 5702SOL     OW18004   2.150   0.613   6.633
 5702SOL    HW118005   2.169   0.542   6.565
 5702SOL    HW218006   2.228   0.675   6.639
 5703SOL     OW18007   4.100   4.743   0.775
 5703SOL    HW118008   4.172   4.804   0.809
 5703SOL    HW218009   4.011   4.788   0.784
 5704SOL     OW18010   3.809   5.598   3.735
 5704SOL    HW118011   3.798   5.697   3.750
 5704SOL    HW218012   3.724   5.551   3.755
 5705SOL     OW18013   6.332   1.558   1.935
 5705SOL    HW118014   6.426   1.587   1.916
 5705SOL    HW218015   6.273   1.638   1.939
 5706SOL     OW18016   1.716   1.403   6.773
 5706SOL    HW118017   1.798   1.460   6.768
 5706SOL    HW218018   1.664   1.425   6.855
 5707SOL     OW18019   3.281   2.617   6.226
 5707SOL    HW118020   3.285   2.712   6.196
 5707SOL    HW218021   3.198   2.602   6.281
 5708SOL     OW18022   5.635   6.958   1.784
 5708SOL    HW118023   5.592   6.962   1.874
 5708SOL    HW218024   5.721   7.009   1.785
 5709SOL     OW18025   1.189   0.907   3.186
 5709SOL    HW118026   1.136   0.992   3.187
 5709SOL    HW218027   1.194   0.871   3.093
 5710SOL     OW18028   2.992   4.357   6.237
 5710SOL    HW118029   2.943   4.279   6.199
 5710SOL    HW218030   2.942   4.392   6.317
 5711SOL     OW18031   4.015   1.329   4.517
 5711SOL    HW118032   3.919   1.353   4.531
 5711SOL    HW218033   4.061   1.402   4.467
 5712SOL     OW18034   6.920   5.905   6.833
 5712SOL    HW118035   6.913   5.815   6.875
 5712SOL    HW218036   6.969   5.898   6.746
 5713SOL     OW18037   0.026   1.715   3.419
 5713SOL    HW118038   0.086   1.662   3.360
 5713SOL    HW218039   6.966   1.748   3.365
 5714SOL     OW18040   1.920   0.650   6.910
 5714SOL    HW118041   1.885   0.727   6.963
 5714SOL    HW218042   1.958   0.684   6.823
 5715SOL     OW18043   1.656   0.099   3.543
 5715SOL    HW118044   1.719   0.096   3.620
 5715SOL    HW218045   1.563   0.113   3.577
 5716SOL     OW18046   2.507   3.038   5.637
 5716SOL    HW118047   2.527   3.017   5.542
 5716SOL    HW218048   2.435   2.977   5.670
 5717SOL     OW18049   0.507   4.139   0.292
 5717SOL    HW118050   0.463   4.091   0.216
 5717SOL    HW218051   0.444   4.143   0.370
 5718SOL     OW18052   1.927   4.859   5.204
 5718SOL    HW118053   1.983   4.938   5.177
 5718SOL    HW218054   1.986   4.784   5.231
 5719SOL     OW18055   2.957   0.563   6.749
 5719SOL    HW118056   2.923   0.604   6.664
 5719SOL    HW218057   2.898   0.590   6.825
 5720SOL     OW18058   1.992   4.962   4.181
 5720SOL    HW118059   2.065   5.025   4.205
 5720SOL    HW218060   1.918   4.967   4.248
 5721SOL     OW18061   0.739   4.606   1.749
 5721SOL    HW118062   0.662   4.563   1.796
 5721SOL    HW218063   0.819   4.604   1.808
 5722SOL     OW18064   5.217   0.736   3.969
 5722SOL    HW118065   5.270   0.795   4.030
 5722SOL    HW218066   5.140   0.788   3.930
 5723SOL     OW18067   1.323   4.691   1.152
 5723SOL    HW118068   1.418   4.694   1.183
 5723SOL    HW218069   1.296   4.782   1.120
 5724SOL     OW18070   5.109   1.695   6.842
 5724SOL    HW118071   5.030   1.650   6.885
 5724SOL    HW218072   5.172   1.625   6.808
 5725SOL     OW18073   5.009   5.783   6.101
 5725SOL    HW118074   5.045   5.786   6.194
 5725SOL    HW218075   4.911   5.803   6.103
 5726SOL     OW18076   4.534   3.295   6.218
 5726SOL    HW118077   4.567   3.209   6.179
 5726SOL    HW218078   4.542   3.290   6.318
 5727SOL     OW18079   5.851   1.854   3.847
 5727SOL    HW118080   5.935   1.880   3.894
 5727SOL    HW218081   5.831   1.758   3.864
 5728SOL     OW18082   5.989   0.715   6.310
 5728SOL    HW118083   5.898   0.691   6.276
 5728SOL    HW218084   6.053   0.720   6.234
 5729SOL     OW18085   0.975   2.822   5.408
 5729SOL    HW118086   0.921   2.772   5.475
 5729SOL    HW218087   0.970   2.775   5.320
 5730SOL     OW18088   4.491   5.110   6.693
 5730SOL    HW118089   4.511   5.107   6.595
 5730SOL    HW218090   4.476   5.017   6.727
 5731SOL     OW18091   3.718   0.931   4.678
 5731SOL    HW118092   3.752   1.024   4.696
 5731SOL    HW218093   3.655   0.904   4.751
 5732SOL     OW18094   5.699   4.101   4.114
 5732SOL    HW118095   5.716   4.018   4.061
 5732SOL    HW218096   5.685   4.078   4.210
 5733SOL     OW18097   2.788   0.394   0.700
 5733SOL    HW118098   2.869   0.336   0.710
 5733SOL    HW218099   2.747   0.409   0.790
 5734SOL     OW18100   2.140   5.820   6.255
 5734SOL    HW118101   2.053   5.835   6.302
 5734SOL    HW218102   2.124   5.764   6.173
 5735SOL     OW18103   4.514   0.641   1.469
 5735SOL    HW118104   4.566   0.556   1.467
 5735SOL    HW218105   4.442   0.635   1.538
 5736SOL     OW18106   5.315   3.947   0.143
 5736SOL    HW118107   5.301   4.036   0.186
 5736SOL    HW218108   5.305   3.875   0.211
 5737SOL     OW18109   4.031   5.332   1.050
 5737SOL    HW118110   4.022   5.424   1.088
 5737SOL    HW218111   4.016   5.265   1.122
 5738SOL     OW18112   2.965   0.582   0.567
 5738SOL    HW118113   2.923   0.513   0.626
 5738SOL    HW218114   2.998   0.658   0.623
 5739SOL     OW18115   1.837   0.913   5.693
 5739SOL    HW118116   1.781   0.996   5.684
 5739SOL    HW218117   1.851   0.872   5.603
 5740SOL     OW18118   4.900   3.360   1.882
 5740SOL    HW118119   4.840   3.301   1.828
 5740SOL    HW218120   4.920   3.317   1.969
 5741SOL     OW18121   0.540   3.593   4.131
 5741SOL    HW118122   0.472   3.524   4.155
 5741SOL    HW218123   0.545   3.602   4.031
 5742SOL     OW18124   5.313   0.524   3.245
 5742SOL    HW118125   5.333   0.430   3.217
 5742SOL    HW218126   5.389   0.583   3.216
 5743SOL     OW18127   3.949   4.458   0.206
 5743SOL    HW118128   3.972   4.554   0.188
 5743SOL    HW218129   3.932   4.446   0.304
 5744SOL     OW18130   5.284   6.861   2.854
 5744SOL    HW118131   5.219   6.801   2.901
 5744SOL    HW218132   5.245   6.953   2.848
 5745SOL     OW18133   1.630   2.353   1.865
 5745SOL    HW118134   1.714   2.392   1.902
 5745SOL    HW218135   1.551   2.405   1.898
 5746SOL     OW18136   4.509   6.829   3.356
 5746SOL    HW118137   4.598   6.799   3.320
 5746SOL    HW218138   4.492   6.924   3.327
 5747SOL     OW18139   0.732   6.178   1.117
 5747SOL    HW118140   0.738   6.260   1.060
 5747SOL    HW218141   0.684   6.106   1.067
 5748SOL     OW18142   0.247   6.077   0.773
 5748SOL    HW118143   0.330   6.133   0.770
 5748SOL    HW218144   0.212   6.073   0.867
 5749SOL     OW18145   1.634   5.891   6.082
 5749SOL    HW118146   1.570   5.819   6.109
 5749SOL    HW218147   1.631   5.965   6.150
 5750SOL     OW18148   6.567   3.815   3.785
 5750SOL    HW118149   6.598   3.902   3.748
 5750SOL    HW218150   6.598   3.806   3.880
 5751SOL     OW18151   1.606   3.720   4.823
 5751SOL    HW118152   1.697   3.681   4.812
 5751SOL    HW218153   1.613   3.812   4.863
 5752SOL     OW18154   4.823   0.030   0.855
 5752SOL    HW118155   4.746   0.061   0.909
 5752SOL    HW218156   4.900   0.010   0.915
 5753SOL     OW18157   3.849   4.160   5.044
 5753SOL    HW118158   3.834   4.120   5.134
 5753SOL    HW218159   3.824   4.256   5.045
 5754SOL     OW18160   0.937   5.749   1.587
 5754SOL    HW118161   0.892   5.661   1.578
 5754SOL    HW218162   0.878   5.822   1.552
 5755SOL     OW18163   1.084   2.345   6.924
 5755SOL    HW118164   1.184   2.349   6.935
 5755SOL    HW218165   1.041   2.409   6.989
 5756SOL     OW18166   5.838   6.017   1.315
 5756SOL    HW118167   5.831   6.024   1.415
 5756SOL    HW218168   5.933   6.030   1.288
 5757SOL     OW18169   6.656   0.223   4.539
 5757SOL    HW118170   6.675   0.301   4.480
 5757SOL    HW218171   6.729   0.155   4.528
 5758SOL     OW18172   6.192   6.917   2.725
 5758SOL    HW118173   6.128   6.964   2.785
 5758SOL    HW218174   6.285   6.927   2.761
 5759SOL     OW18175   4.046   0.105   1.276
 5759SOL    HW118176   3.948   0.088   1.279
 5759SOL    HW218177   4.095   0.023   1.307
 5760SOL     OW18178   0.663   3.071   0.781
 5760SOL    HW118179   0.593   3.090   0.850
 5760SOL    HW218180   0.666   2.972   0.763
 5761SOL     OW18181   6.017   0.069   4.449
 5761SOL    HW118182   6.093   0.099   4.507
 5761SOL    HW218183   5.952   0.018   4.504
 5762SOL     OW18184   6.369   5.839   6.989
 5762SOL    HW118185   6.442   5.770   6.984
 5762SOL    HW218186   6.307   5.816   0.046
 5763SOL     OW18187   6.199   7.016   6.901
 5763SOL    HW118188   6.189   0.093   6.931
 5763SOL    HW218189   6.120   6.991   6.845
 5764SOL     OW18190   4.763   6.879   4.000
 5764SOL    HW118191   4.842   6.933   4.028
 5764SOL    HW218192   4.784   6.782   4.005
 5765SOL     OW18193   6.191   5.107   1.918
 5765SOL    HW118194   6.226   5.109   2.011
 5765SOL    HW218195   6.200   5.015   1.880
 5766SOL     OW18196   0.000   1.615   4.320
 5766SOL    HW118197   0.072   1.548   4.302
 5766SOL    HW218198   6.984   1.651   4.233
 5767SOL     OW18199   3.227   6.959   6.929
 5767SOL    HW118200   3.271   6.988   6.845
 5767SOL    HW218201   3.285   6.893   6.977
 5768SOL     OW18202   0.313   0.483   4.348
 5768SOL    HW118203   0.380   0.528   4.288
 5768SOL    HW218204   0.240   0.548   4.370
 5769SOL     OW18205   1.562   4.381   6.552
 5769SOL    HW118206   1.564   4.464   6.497
 5769SOL    HW218207   1.640   4.323   6.528
 5770SOL     OW18208   1.690   4.797   1.751
 5770SOL    HW118209   1.633   4.717   1.732
 5770SOL    HW218210   1.742   4.781   1.835
 5771SOL     OW18211   3.156   5.210   3.240
 5771SOL    HW118212   3.142   5.216   3.141
 5771SOL    HW218213   3.073   5.238   3.288
 5772SOL     OW18214   2.985   0.667   1.876
 5772SOL    HW118215   2.975   0.721   1.960
 5772SOL    HW218216   2.917   0.697   1.809
 5773SOL     OW18217   4.673   2.270   2.836
 5773SOL    HW118218   4.587   2.271   2.785
 5773SOL    HW218219   4.700   2.176   2.856
 5774SOL     OW18220   0.222   6.891   2.230
 5774SOL    HW118221   0.200   6.969   2.288
 5774SOL    HW218222   0.313   6.856   2.253
 5775SOL     OW18223   6.480   5.509   2.242
 5775SOL    HW118224   6.471   5.501   2.143
 5775SOL    HW218225   6.477   5.606   2.268
 5776SOL     OW18226   2.982   0.759   3.798
 5776SOL    HW118227   3.056   0.826   3.788
 5776SOL    HW218228   2.985   0.696   3.721
 5777SOL     OW18229   1.542   6.161   3.048
 5777SOL    HW118230   1.560   6.114   3.135
 5777SOL    HW218231   1.551   6.097   2.973
 5778SOL     OW18232   0.529   1.666   0.631
 5778SOL    HW118233   0.595   1.740   0.621
 5778SOL    HW218234   0.451   1.684   0.571
 5779SOL     OW18235   6.201   1.761   6.104
 5779SOL    HW118236   6.235   1.844   6.149
 5779SOL    HW218237   6.257   1.683   6.131
 5780SOL     OW18238   4.991   5.942   3.883
 5780SOL    HW118239   5.064   5.965   3.947
 5780SOL    HW218240   5.010   5.853   3.841
 5781SOL     OW18241   0.695   4.515   5.013
 5781SOL    HW118242   0.788   4.537   5.043
 5781SOL    HW218243   0.676   4.419   5.032
 5782SOL     OW18244   0.669   0.852   0.301
 5782SOL    HW118245   0.610   0.827   0.224
 5782SOL    HW218246   0.639   0.804   0.383
 5783SOL     OW18247   1.667   1.898   1.431
 5783SOL    HW118248   1.643   1.876   1.336
 5783SOL    HW218249   1.657   1.816   1.488
 5784SOL     OW18250   6.812   6.683   6.021
 5784SOL    HW118251   6.857   6.771   6.038
 5784SOL    HW218252   6.864   6.610   6.066
 5785SOL     OW18253   1.386   1.922   1.067
 5785SOL    HW118254   1.446   1.981   1.013
 5785SOL    HW218255   1.318   1.880   1.007
 5786SOL     OW18256   6.203   4.371   0.871
 5786SOL    HW118257   6.298   4.343   0.881
 5786SOL    HW218258   6.195   4.469   0.889
 5787SOL     OW18259   3.370   2.129   5.930
 5787SOL    HW118260   3.309   2.200   5.893
 5787SOL    HW218261   3.411   2.079   5.854
 5788SOL     OW18262   2.652   1.336   3.470
 5788SOL    HW118263   2.745   1.372   3.464
 5788SOL    HW218264   2.655   1.236   3.465
 5789SOL     OW18265   4.071   5.160   6.127
 5789SOL    HW118266   3.976   5.181   6.151
 5789SOL    HW218267   4.130   5.175   6.206
 5790SOL     OW18268   0.372   2.319   3.424
 5790SOL    HW118269   0.436   2.354   3.492
 5790SOL    HW218270   0.281   2.354   3.442
 5791SOL     OW18271   2.698   0.561   2.598
 5791SOL    HW118272   2.731   0.649   2.566
 5791SOL    HW218273   2.749   0.487   2.554
 5792SOL     OW18274   6.823   2.248   2.890
 5792SOL    HW118275   6.824   2.173   2.957
 5792SOL    HW218276   6.796   2.332   2.936
 5793SOL     OW18277   6.458   0.718   3.759
 5793SOL    HW118278   6.384   0.730   3.824
 5793SOL    HW218279   6.483   0.807   3.719
 5794SOL     OW18280   4.124   3.921   0.010
 5794SOL    HW118281   4.182   3.856   6.980
 5794SOL    HW218282   4.182   3.991   0.053
 5795SOL     OW18283   5.813   4.044   6.040
 5795SOL    HW118284   5.769   4.008   5.957
 5795SOL    HW218285   5.872   4.121   6.015
 5796SOL     OW18286   3.553   1.663   0.021
 5796SOL    HW118287   3.569   1.566   0.039
 5796SOL    HW218288   3.461   1.688   0.050
 5797SOL     OW18289   3.129   1.771   4.714
 5797SOL    HW118290   3.072   1.850   4.691
 5797SOL    HW218291   3.141   1.765   4.813
 5798SOL     OW18292   6.683   4.366   4.621
 5798SOL    HW118293   6.636   4.337   4.705
 5798SOL    HW218294   6.700   4.464   4.625
 5799SOL     OW18295   5.576   0.414   3.940
 5799SOL    HW118296   5.502   0.372   3.993
 5799SOL    HW218297   5.593   0.360   3.858
 5800SOL     OW18298   5.747   4.728   0.619
 5800SOL    HW118299   5.811   4.661   0.657
 5800SOL    HW218300   5.705   4.690   0.537
 5801SOL     OW18301   1.679   1.116   3.689
 5801SOL    HW118302   1.674   1.093   3.786
 5801SOL    HW218303   1.591   1.154   3.659
 5802SOL     OW18304   0.355   4.097   5.555
 5802SOL    HW118305   0.364   3.999   5.573
 5802SOL    HW218306   0.289   4.112   5.482
 5803SOL     OW18307   1.040   4.535   0.588
 5803SOL    HW118308   0.979   4.538   0.509
 5803SOL    HW218309   1.131   4.567   0.560
 5804SOL     OW18310   6.011   4.400   4.593
 5804SOL    HW118311   5.928   4.426   4.643
 5804SOL    HW218312   5.986   4.364   4.503
 5805SOL     OW18313   4.849   3.290   6.584
 5805SOL    HW118314   4.834   3.311   6.681
 5805SOL    HW218315   4.832   3.193   6.568
 5806SOL     OW18316   0.889   6.366   6.880
 5806SOL    HW118317   0.908   6.270   6.858
 5806SOL    HW218318   0.861   6.415   6.797
 5807SOL     OW18319   1.688   3.322   1.651
 5807SOL    HW118320   1.615   3.304   1.584
 5807SOL    HW218321   1.749   3.243   1.655
 5808SOL     OW18322   6.151   3.347   2.461
 5808SOL    HW118323   6.248   3.369   2.459
 5808SOL    HW218324   6.098   3.432   2.463
 5809SOL     OW18325   0.158   3.608   4.315
 5809SOL    HW118326   0.077   3.623   4.258
 5809SOL    HW218327   0.232   3.571   4.259
 5810SOL     OW18328   2.817   1.650   2.246
 5810SOL    HW118329   2.851   1.604   2.164
 5810SOL    HW218330   2.762   1.730   2.219
 5811SOL     OW18331   2.767   0.985   4.157
 5811SOL    HW118332   2.798   0.943   4.242
 5811SOL    HW218333   2.754   0.914   4.088
 5812SOL     OW18334   4.918   0.735   4.068
 5812SOL    HW118335   4.968   0.745   3.982
 5812SOL    HW218336   4.982   0.709   4.141
 5813SOL     OW18337   1.525   0.732   5.355
 5813SOL    HW118338   1.453   0.664   5.345
 5813SOL    HW218339   1.577   0.738   5.269
 5814SOL     OW18340   0.206   5.146   1.585
 5814SOL    HW118341   0.128   5.096   1.548
 5814SOL    HW218342   0.212   5.130   1.683
 5815SOL     OW18343   4.080   1.219   3.134
 5815SOL    HW118344   4.170   1.252   3.160
 5815SOL    HW218345   4.010   1.270   3.184
 5816SOL     OW18346   4.626   0.496   0.367
 5816SOL    HW118347   4.699   0.512   0.300
 5816SOL    HW218348   4.610   0.398   0.375
 5817SOL     OW18349   4.948   3.131   5.362
 5817SOL    HW118350   4.974   3.034   5.358
 5817SOL    HW218351   4.863   3.140   5.414
 5818SOL     OW18352   6.293   6.773   6.071
 5818SOL    HW118353   6.387   6.760   6.101
 5818SOL    HW218354   6.237   6.696   6.100
 5819SOL     OW18355   5.799   0.502   1.614
 5819SOL    HW118356   5.872   0.551   1.565
 5819SOL    HW218357   5.714   0.553   1.605
 5820SOL     OW18358   5.719   6.493   3.515
 5820SOL    HW118359   5.779   6.537   3.582
 5820SOL    HW218360   5.737   6.530   3.424
 5821SOL     OW18361   2.664   1.269   1.888
 5821SOL    HW118362   2.647   1.185   1.837
 5821SOL    HW218363   2.577   1.310   1.914
 5822SOL     OW18364   6.889   1.507   1.724
 5822SOL    HW118365   6.830   1.469   1.796
 5822SOL    HW218366   6.958   1.566   1.765
 5823SOL     OW18367   2.490   1.866   4.297
 5823SOL    HW118368   2.408   1.891   4.349
 5823SOL    HW218369   2.517   1.943   4.239
 5824SOL     OW18370   5.583   0.036   3.831
 5824SOL    HW118371   5.605   6.963   3.795
 5824SOL    HW218372   5.583   0.032   3.931
 5825SOL     OW18373   2.131   0.805   0.439
 5825SOL    HW118374   2.086   0.815   0.528
 5825SOL    HW218375   2.224   0.842   0.444
 5826SOL     OW18376   6.483   6.975   5.274
 5826SOL    HW118377   6.539   0.002   5.205
 5826SOL    HW218378   6.387   6.989   5.254
 5827SOL     OW18379   1.008   5.780   5.013
 5827SOL    HW118380   1.063   5.788   5.096
 5827SOL    HW218381   0.926   5.725   5.032
 5828SOL     OW18382   0.445   3.592   2.063
 5828SOL    HW118383   0.386   3.631   1.992
 5828SOL    HW218384   0.530   3.560   2.022
 5829SOL     OW18385   2.275   1.740   1.589
 5829SOL    HW118386   2.298   1.670   1.522
 5829SOL    HW218387   2.318   1.826   1.563
 5830SOL     OW18388   3.208   1.327   6.040
 5830SOL    HW118389   3.199   1.404   6.103
 5830SOL    HW218390   3.290   1.338   5.985
 5831SOL     OW18391   5.404   6.907   3.520
 5831SOL    HW118392   5.334   6.839   3.539
 5831SOL    HW218393   5.367   6.999   3.537
 5832SOL     OW18394   4.017   3.951   5.154
 5832SOL    HW118395   4.025   4.025   5.087
 5832SOL    HW218396   4.046   3.985   5.244
 5833SOL     OW18397   3.193   3.659   4.601
 5833SOL    HW118398   3.182   3.757   4.583
 5833SOL    HW218399   3.126   3.607   4.548
 5834SOL     OW18400   5.934   1.202   1.023
 5834SOL    HW118401   5.891   1.290   1.002
 5834SOL    HW218402   6.029   1.217   1.050
 5835SOL     OW18403   5.017   2.295   3.945
 5835SOL    HW118404   5.080   2.223   3.917
 5835SOL    HW218405   5.016   2.367   3.875
 5836SOL     OW18406   3.816   6.083   2.208
 5836SOL    HW118407   3.901   6.081   2.260
 5836SOL    HW218408   3.774   6.174   2.216
 5837SOL     OW18409   4.641   4.220   6.894
 5837SOL    HW118410   4.640   4.133   6.845
 5837SOL    HW218411   4.725   4.228   6.948
 5838SOL     OW18412   0.956   1.019   5.161
 5838SOL    HW118413   0.915   0.937   5.123
 5838SOL    HW218414   1.043   1.037   5.115
 5839SOL     OW18415   6.351   3.016   2.864
 5839SOL    HW118416   6.337   3.115   2.870
 5839SOL    HW218417   6.264   2.970   2.881
 5840SOL     OW18418   1.525   5.282   6.758
 5840SOL    HW118419   1.443   5.225   6.763
 5840SOL    HW218420   1.598   5.240   6.813
 5841SOL     OW18421   6.461   2.719   3.583
 5841SOL    HW118422   6.543   2.776   3.578
 5841SOL    HW218423   6.414   2.721   3.494
 5842SOL     OW18424   3.892   2.952   1.190
 5842SOL    HW118425   3.810   3.008   1.196
 5842SOL    HW218426   3.904   2.919   1.096
 5843SOL     OW18427   1.864   3.655   2.433
 5843SOL    HW118428   1.929   3.730   2.419
 5843SOL    HW218429   1.773   3.693   2.451
 5844SOL     OW18430   0.912   6.469   6.615
 5844SOL    HW118431   0.923   6.551   6.559
 5844SOL    HW218432   1.000   6.424   6.627
 5845SOL     OW18433   0.378   2.410   4.137
 5845SOL    HW118434   0.382   2.338   4.068
 5845SOL    HW218435   0.401   2.372   4.226
 5846SOL     OW18436   0.029   2.650   5.526
 5846SOL    HW118437   0.102   2.622   5.588
 5846SOL    HW218438   6.960   2.618   5.562
 5847SOL     OW18439   2.229   2.990   2.320
 5847SOL    HW118440   2.134   2.992   2.350
 5847SOL    HW218441   2.243   3.055   2.245
 5848SOL     OW18442   1.096   4.352   3.394
 5848SOL    HW118443   1.185   4.306   3.398
 5848SOL    HW218444   1.026   4.288   3.362
 5849SOL     OW18445   2.613   0.140   5.551
 5849SOL    HW118446   2.673   0.131   5.631
 5849SOL    HW218447   2.587   0.236   5.539
 5850SOL     OW18448   0.676   4.520   2.151
 5850SOL    HW118449   0.601   4.475   2.200
 5850SOL    HW218450   0.750   4.540   2.215
 5851SOL     OW18451   6.403   3.798   2.230
 5851SOL    HW118452   6.457   3.863   2.176
 5851SOL    HW218453   6.357   3.734   2.170
 5852SOL     OW18454   4.359   5.915   2.462
 5852SOL    HW118455   4.398   5.939   2.373
 5852SOL    HW218456   4.430   5.874   2.520
 5853SOL     OW18457   3.331   4.499   5.934
 5853SOL    HW118458   3.309   4.592   5.904
 5853SOL    HW218459   3.430   4.485   5.932
 5854SOL     OW18460   0.103   1.435   6.082
 5854SOL    HW118461   0.143   1.520   6.117
 5854SOL    HW218462   0.005   1.448   6.068
 5855SOL     OW18463   1.266   1.041   4.580
 5855SOL    HW118464   1.191   0.978   4.599
 5855SOL    HW218465   1.234   1.136   4.590
 5856SOL     OW18466   1.531   4.543   3.550
 5856SOL    HW118467   1.602   4.500   3.606
 5856SOL    HW218468   1.568   4.565   3.460
 5857SOL     OW18469   6.657   3.148   5.679
 5857SOL    HW118470   6.731   3.213   5.660
 5857SOL    HW218471   6.608   3.177   5.761
 5858SOL     OW18472   3.768   1.249   3.042
 5858SOL    HW118473   3.708   1.169   3.049
 5858SOL    HW218474   3.785   1.268   2.945
 5859SOL     OW18475   5.791   6.546   0.789
 5859SOL    HW118476   5.773   6.454   0.825
 5859SOL    HW218477   5.719   6.608   0.819
 5860SOL     OW18478   1.548   4.118   1.677
 5860SOL    HW118479   1.639   4.095   1.644
 5860SOL    HW218480   1.482   4.108   1.602
 5861SOL     OW18481   5.987   2.476   4.096
 5861SOL    HW118482   6.040   2.432   4.169
 5861SOL    HW218483   5.910   2.527   4.136
 5862SOL     OW18484   4.259   4.646   2.939
 5862SOL    HW118485   4.329   4.644   2.868
 5862SOL    HW218486   4.177   4.693   2.904
 5863SOL     OW18487   2.103   1.039   6.617
 5863SOL    HW118488   2.178   1.092   6.658
 5863SOL    HW218489   2.139   0.982   6.543
 5864SOL     OW18490   4.601   4.471   1.631
 5864SOL    HW118491   4.582   4.373   1.622
 5864SOL    HW218492   4.524   4.515   1.676
 5865SOL     OW18493   4.831   0.773   3.363
 5865SOL    HW118494   4.732   0.765   3.375
 5865SOL    HW218495   4.850   0.834   3.286
 5866SOL     OW18496   4.125   0.041   5.761
 5866SOL    HW118497   4.219   0.013   5.745
 5866SOL    HW218498   4.084   0.072   5.675
 5867SOL     OW18499   0.549   3.140   1.852
 5867SOL    HW118500   0.639   3.098   1.864
 5867SOL    HW218501   0.517   3.176   1.939
 5868SOL     OW18502   1.789   6.961   5.379
 5868SOL    HW118503   1.707   6.905   5.366
 5868SOL    HW218504   1.862   6.927   5.321
 5869SOL     OW18505   2.851   4.782   4.369
 5869SOL    HW118506   2.807   4.756   4.455
 5869SOL    HW218507   2.948   4.801   4.386
 5870SOL     OW18508   4.780   5.199   4.588
 5870SOL    HW118509   4.838   5.203   4.669
 5870SOL    HW218510   4.837   5.211   4.506
 5871SOL     OW18511   3.455   3.138   6.951
 5871SOL    HW118512   3.356   3.150   6.962
 5871SOL    HW218513   3.496   3.125   0.023
 5872SOL     OW18514   3.251   5.925   5.807
 5872SOL    HW118515   3.314   5.952   5.880
 5872SOL    HW218516   3.180   5.866   5.845
 5873SOL     OW18517   3.255   3.496   0.048
 5873SOL    HW118518   3.240   3.491   0.147
 5873SOL    HW218519   3.351   3.514   0.029
 5874SOL     OW18520   2.032   3.433   1.125
 5874SOL    HW118521   2.030   3.423   1.224
 5874SOL    HW218522   1.990   3.353   1.082
 5875SOL     OW18523   3.130   1.500   0.151
 5875SOL    HW118524   3.098   1.453   0.069
 5875SOL    HW218525   3.200   1.445   0.197
 5876SOL     OW18526   3.074   3.993   6.331
 5876SOL    HW118527   3.147   3.940   6.373
 5876SOL    HW218528   3.037   4.058   6.398
 5877SOL     OW18529   6.650   0.159   2.687
 5877SOL    HW118530   6.737   0.115   2.708
 5877SOL    HW218531   6.576   0.115   2.738
 5878SOL     OW18532   4.674   4.734   2.730
 5878SOL    HW118533   4.725   4.667   2.676
 5878SOL    HW218534   4.710   4.826   2.711
 5879SOL     OW18535   3.935   3.452   6.045
 5879SOL    HW118536   3.968   3.359   6.059
 5879SOL    HW218537   3.991   3.498   5.977
 5880SOL     OW18538   4.556   2.722   5.680
 5880SOL    HW118539   4.499   2.671   5.744
 5880SOL    HW218540   4.640   2.751   5.726
 5881SOL     OW18541   1.391   6.121   2.489
 5881SOL    HW118542   1.345   6.187   2.548
 5881SOL    HW218543   1.344   6.033   2.495
 5882SOL     OW18544   1.638   5.483   5.898
 5882SOL    HW118545   1.658   5.429   5.817
 5882SOL    HW218546   1.593   5.569   5.872
 5883SOL     OW18547   0.034   4.449   1.233
 5883SOL    HW118548   0.002   4.355   1.243
 5883SOL    HW218549   0.121   4.461   1.281
 5884SOL     OW18550   6.422   1.793   3.703
 5884SOL    HW118551   6.449   1.774   3.608
 5884SOL    HW218552   6.385   1.886   3.709
 5885SOL     OW18553   0.334   5.035   6.642
 5885SOL    HW118554   0.420   5.029   6.591
 5885SOL    HW218555   0.293   4.945   6.649
 5886SOL     OW18556   2.139   4.058   3.712
 5886SOL    HW118557   2.051   4.082   3.670
 5886SOL    HW218558   2.210   4.118   3.678
 5887SOL     OW18559   2.294   2.846   1.104
 5887SOL    HW118560   2.249   2.932   1.130
 5887SOL    HW218561   2.380   2.866   1.058
 5888SOL     OW18562   3.482   6.894   0.932
 5888SOL    HW118563   3.438   6.978   0.966
 5888SOL    HW218564   3.420   6.847   0.869
 5889SOL     OW18565   6.597   0.593   1.987
 5889SOL    HW118566   6.636   0.554   1.904
 5889SOL    HW218567   6.500   0.569   1.993
 5890SOL     OW18568   2.838   6.437   2.762
 5890SOL    HW118569   2.931   6.471   2.778
 5890SOL    HW218570   2.829   6.404   2.668
 5891SOL     OW18571   2.699   3.427   0.817
 5891SOL    HW118572   2.689   3.466   0.908
 5891SOL    HW218573   2.772   3.359   0.818
 5892SOL     OW18574   1.051   3.988   1.025
 5892SOL    HW118575   0.965   3.946   1.053
 5892SOL    HW218576   1.116   3.918   0.997
 5893SOL     OW18577   0.600   6.183   2.188
 5893SOL    HW118578   0.549   6.113   2.238
 5893SOL    HW218579   0.692   6.190   2.227
 5894SOL     OW18580   2.022   5.259   5.770
 5894SOL    HW118581   1.958   5.320   5.723
 5894SOL    HW218582   1.971   5.186   5.816
 5895SOL     OW18583   5.135   2.801   4.578
 5895SOL    HW118584   5.149   2.898   4.555
 5895SOL    HW218585   5.218   2.765   4.622
 5896SOL     OW18586   5.426   2.202   2.021
 5896SOL    HW118587   5.330   2.218   2.044
 5896SOL    HW218588   5.442   2.104   2.009
 5897SOL     OW18589   3.988   2.407   0.654
 5897SOL    HW118590   3.996   2.498   0.613
 5897SOL    HW218591   4.046   2.401   0.735
 5898SOL     OW18592   1.928   1.434   5.748
 5898SOL    HW118593   1.840   1.425   5.795
 5898SOL    HW218594   1.978   1.347   5.755
 5899SOL     OW18595   6.704   5.389   5.922
 5899SOL    HW118596   6.778   5.364   5.860
 5899SOL    HW218597   6.632   5.436   5.871
 5900SOL     OW18598   5.863   5.998   3.507
 5900SOL    HW118599   5.905   5.995   3.598
 5900SOL    HW218600   5.790   5.929   3.502
 5901SOL     OW18601   1.817   0.729   5.468
 5901SOL    HW118602   1.719   0.715   5.460
 5901SOL    HW218603   1.855   0.668   5.537
 5902SOL     OW18604   4.867   4.144   5.587
 5902SOL    HW118605   4.798   4.130   5.516
 5902SOL    HW218606   4.822   4.161   5.675
 5903SOL     OW18607   6.440   2.347   5.551
 5903SOL    HW118608   6.466   2.370   5.645
 5903SOL    HW218609   6.341   2.356   5.540
 5904SOL     OW18610   1.948   4.412   2.097
 5904SOL    HW118611   2.018   4.434   2.164
 5904SOL    HW218612   1.991   4.374   2.015
 5905SOL     OW18613   6.033   1.559   4.402
 5905SOL    HW118614   6.103   1.580   4.334
 5905SOL    HW218615   6.034   1.461   4.423
 5906SOL     OW18616   4.810   0.790   5.633
 5906SOL    HW118617   4.789   0.694   5.614
 5906SOL    HW218618   4.884   0.820   5.573
 5907SOL     OW18619   1.770   3.353   6.377
 5907SOL    HW118620   1.791   3.381   6.470
 5907SOL    HW218621   1.762   3.434   6.319
 5908SOL     OW18622   4.782   2.838   5.822
 5908SOL    HW118623   4.750   2.883   5.906
 5908SOL    HW218624   4.842   2.762   5.846
 5909SOL     OW18625   6.862   4.866   4.093
 5909SOL    HW118626   6.909   4.925   4.158
 5909SOL    HW218627   6.886   4.893   4.000
 5910SOL     OW18628   1.968   3.844   1.108
 5910SOL    HW118629   2.033   3.844   1.183
 5910SOL    HW218630   2.013   3.876   1.024
 5911SOL     OW18631   5.771   6.685   6.227
 5911SOL    HW118632   5.795   6.774   6.265
 5911SOL    HW218633   5.849   6.649   6.176
 5912SOL     OW18634   6.506   3.588   6.936
 5912SOL    HW118635   6.460   3.547   6.858
 5912SOL    HW218636   6.605   3.591   6.919
 5913SOL     OW18637   1.233   1.837   6.028
 5913SOL    HW118638   1.205   1.750   6.068
 5913SOL    HW218639   1.321   1.825   5.981
 5914SOL     OW18640   2.289   6.226   0.633
 5914SOL    HW118641   2.209   6.181   0.672
 5914SOL    HW218642   2.360   6.158   0.612
 5915SOL     OW18643   5.135   3.359   2.575
 5915SOL    HW118644   5.153   3.441   2.522
 5915SOL    HW218645   5.220   3.307   2.585
 5916SOL     OW18646   3.192   0.731   5.806
 5916SOL    HW118647   3.290   0.749   5.811
 5916SOL    HW218648   3.170   0.690   5.718
 5917SOL     OW18649   3.266   3.239   3.190
 5917SOL    HW118650   3.314   3.152   3.184
 5917SOL    HW218651   3.170   3.226   3.165
 5918SOL     OW18652   2.182   3.042   4.446
 5918SOL    HW118653   2.224   3.105   4.512
 5918SOL    HW218654   2.171   3.088   4.358
 5919SOL     OW18655   1.346   3.356   6.667
 5919SOL    HW118656   1.393   3.341   6.580
 5919SOL    HW218657   1.363   3.450   6.697
 5920SOL     OW18658   3.836   6.520   6.797
 5920SOL    HW118659   3.794   6.501   6.885
 5920SOL    HW218660   3.796   6.461   6.727
 5921SOL     OW18661   4.032   5.304   5.249
 5921SOL    HW118662   4.092   5.384   5.246
 5921SOL    HW218663   4.076   5.227   5.205
 5922SOL     OW18664   5.552   4.050   1.990
 5922SOL    HW118665   5.648   4.030   2.010
 5922SOL    HW218666   5.500   3.965   1.989
 5923SOL     OW18667   0.362   0.174   4.003
 5923SOL    HW118668   0.419   0.227   4.065
 5923SOL    HW218669   0.269   0.167   4.040
 5924SOL     OW18670   5.413   2.098   4.393
 5924SOL    HW118671   5.379   2.141   4.308
 5924SOL    HW218672   5.350   2.119   4.468
 5925SOL     OW18673   5.734   6.286   1.300
 5925SOL    HW118674   5.816   6.343   1.301
 5925SOL    HW218675   5.760   6.192   1.323
 5926SOL     OW18676   3.605   5.071   1.757
 5926SOL    HW118677   3.653   5.159   1.749
 5926SOL    HW218678   3.571   5.061   1.850
 5927SOL     OW18679   2.828   5.855   2.811
 5927SOL    HW118680   2.842   5.802   2.895
 5927SOL    HW218681   2.738   5.836   2.774
 5928SOL     OW18682   1.296   6.746   1.813
 5928SOL    HW118683   1.288   6.837   1.773
 5928SOL    HW218684   1.338   6.753   1.904
 5929SOL     OW18685   1.267   0.131   6.132
 5929SOL    HW118686   1.278   0.160   6.227
 5929SOL    HW218687   1.349   0.083   6.102
 5930SOL     OW18688   6.736   1.813   4.877
 5930SOL    HW118689   6.661   1.782   4.935
 5930SOL    HW218690   6.774   1.898   4.914
 5931SOL     OW18691   6.259   5.234   1.535
 5931SOL    HW118692   6.173   5.185   1.552
 5931SOL    HW218693   6.288   5.219   1.441
 5932SOL     OW18694   2.848   6.448   0.491
 5932SOL    HW118695   2.835   6.382   0.417
 5932SOL    HW218696   2.760   6.467   0.535
 5933SOL     OW18697   6.220   3.795   2.915
 5933SOL    HW118698   6.130   3.815   2.877
 5933SOL    HW218699   6.290   3.848   2.865
 5934SOL     OW18700   3.221   3.632   2.812
 5934SOL    HW118701   3.274   3.681   2.881
 5934SOL    HW218702   3.178   3.698   2.750
 5935SOL     OW18703   3.684   3.309   3.685
 5935SOL    HW118704   3.625   3.375   3.731
 5935SOL    HW218705   3.767   3.355   3.654
 5936SOL     OW18706   5.046   5.745   6.382
 5936SOL    HW118707   4.979   5.802   6.429
 5936SOL    HW218708   5.015   5.650   6.381
 5937SOL     OW18709   1.752   3.661   0.836
 5937SOL    HW118710   1.671   3.708   0.872
 5937SOL    HW218711   1.735   3.563   0.835
 5938SOL     OW18712   1.890   4.688   1.969
 5938SOL    HW118713   1.868   4.766   2.028
 5938SOL    HW218714   1.880   4.603   2.020
 5939SOL     OW18715   3.394   0.605   3.460
 5939SOL    HW118716   3.426   0.639   3.549
 5939SOL    HW218717   3.309   0.554   3.473
 5940SOL     OW18718   3.693   5.873   3.318
 5940SOL    HW118719   3.665   5.807   3.387
 5940SOL    HW218720   3.621   5.943   3.308
 5941SOL     OW18721   6.416   4.748   2.148
 5941SOL    HW118722   6.456   4.667   2.105
 5941SOL    HW218723   6.394   4.728   2.243
 5942SOL     OW18724   4.864   2.180   5.613
 5942SOL    HW118725   4.785   2.141   5.660
 5942SOL    HW218726   4.905   2.111   5.553
 5943SOL     OW18727   1.421   5.987   0.484
 5943SOL    HW118728   1.350   6.048   0.519
 5943SOL    HW218729   1.416   5.899   0.532
 5944SOL     OW18730   4.758   1.464   2.620
 5944SOL    HW118731   4.683   1.442   2.558
 5944SOL    HW218732   4.799   1.552   2.593
 5945SOL     OW18733   6.988   4.554   5.258
 5945SOL    HW118734   7.017   4.650   5.262
 5945SOL    HW218735   0.021   4.506   5.188
 5946SOL     OW18736   3.998   3.000   5.472
 5946SOL    HW118737   4.074   2.975   5.532
 5946SOL    HW218738   3.923   2.934   5.484
 5947SOL     OW18739   4.296   3.408   1.770
 5947SOL    HW118740   4.367   3.430   1.703
 5947SOL    HW218741   4.234   3.486   1.781
 5948SOL     OW18742   3.544   4.868   2.301
 5948SOL    HW118743   3.559   4.816   2.217
 5948SOL    HW218744   3.452   4.849   2.336
 5949SOL     OW18745   4.424   4.807   1.723
 5949SOL    HW118746   4.391   4.794   1.817
 5949SOL    HW218747   4.524   4.810   1.723
 5950SOL     OW18748   5.724   2.607   3.900
 5950SOL    HW118749   5.654   2.677   3.890
 5950SOL    HW218750   5.814   2.651   3.906
 5951SOL     OW18751   1.810   5.527   3.871
 5951SOL    HW118752   1.727   5.569   3.835
 5951SOL    HW218753   1.890   5.576   3.837
 5952SOL     OW18754   0.391   6.643   4.888
 5952SOL    HW118755   0.344   6.585   4.822
 5952SOL    HW218756   0.449   6.586   4.947
 5953SOL     OW18757   0.450   3.196   6.308
 5953SOL    HW118758   0.514   3.238   6.244
 5953SOL    HW218759   0.485   3.106   6.335
 5954SOL     OW18760   0.303   5.259   6.766
 5954SOL    HW118761   0.256   5.238   6.852
 5954SOL    HW218762   0.322   5.174   6.717
 5955SOL     OW18763   5.500   5.321   2.277
 5955SOL    HW118764   5.425   5.255   2.271
 5955SOL    HW218765   5.490   5.375   2.360
 5956SOL     OW18766   5.623   1.958   6.975
 5956SOL    HW118767   5.602   1.866   7.008
 5956SOL    HW218768   5.539   2.008   6.956
 5957SOL     OW18769   5.744   6.848   6.003
 5957SOL    HW118770   5.718   6.789   6.080
 5957SOL    HW218771   5.747   6.794   5.919
 5958SOL     OW18772   0.169   5.038   1.849
 5958SOL    HW118773   0.209   5.062   1.938
 5958SOL    HW218774   0.144   4.941   1.849
 5959SOL     OW18775   2.138   1.537   6.178
 5959SOL    HW118776   2.227   1.573   6.205
 5959SOL    HW218777   2.102   1.590   6.101
 5960SOL     OW18778   2.966   0.578   3.585
 5960SOL    HW118779   3.048   0.527   3.560
 5960SOL    HW218780   2.908   0.589   3.505
 5961SOL     OW18781   2.792   0.691   5.700
 5961SOL    HW118782   2.877   0.687   5.647
 5961SOL    HW218783   2.813   0.717   5.794
 5962SOL     OW18784   4.992   5.458   2.183
 5962SOL    HW118785   4.998   5.444   2.084
 5962SOL    HW218786   4.922   5.397   2.221
 5963SOL     OW18787   4.003   3.568   2.208
 5963SOL    HW118788   3.933   3.508   2.171
 5963SOL    HW218789   3.960   3.646   2.254
 5964SOL     OW18790   0.562   4.905   5.381
 5964SOL    HW118791   0.519   4.834   5.437
 5964SOL    HW218792   0.494   4.946   5.320
 5965SOL     OW18793   2.879   2.308   5.513
 5965SOL    HW118794   2.784   2.320   5.485
 5965SOL    HW218795   2.939   2.360   5.452
 5966SOL     OW18796   2.567   5.980   3.756
 5966SOL    HW118797   2.653   5.929   3.746
 5966SOL    HW218798   2.513   5.971   3.672
 5967SOL     OW18799   4.840   6.730   2.309
 5967SOL    HW118800   4.790   6.675   2.242
 5967SOL    HW218801   4.787   6.812   2.331
 5968SOL     OW18802   0.410   2.789   4.728
 5968SOL    HW118803   0.385   2.760   4.820
 5968SOL    HW218804   0.345   2.858   4.696
 5969SOL     OW18805   5.889   3.563   3.422
 5969SOL    HW118806   5.841   3.480   3.450
 5969SOL    HW218807   5.983   3.540   3.398
 5970SOL     OW18808   1.512   2.835   3.213
 5970SOL    HW118809   1.525   2.890   3.131
 5970SOL    HW218810   1.601   2.810   3.251
 5971SOL     OW18811   2.441   6.684   2.378
 5971SOL    HW118812   2.353   6.693   2.331
 5971SOL    HW218813   2.427   6.691   2.477
 5972SOL     OW18814   4.721   6.028   0.456
 5972SOL    HW118815   4.634   6.058   0.495
 5972SOL    HW218816   4.745   5.938   0.492
 5973SOL     OW18817   0.785   4.109   3.566
 5973SOL    HW118818   0.797   4.069   3.657
 5973SOL    HW218819   0.717   4.182   3.570
 5974SOL     OW18820   0.560   3.913   6.695
 5974SOL    HW118821   0.641   3.863   6.665
 5974SOL    HW218822   0.545   3.991   6.634
 5975SOL     OW18823   2.627   2.919   0.618
 5975SOL    HW118824   2.682   2.922   0.702
 5975SOL    HW218825   2.604   3.013   0.590
 5976SOL     OW18826   3.208   3.207   5.048
 5976SOL    HW118827   3.113   3.211   5.018
 5976SOL    HW218828   3.224   3.273   5.122
 5977SOL     OW18829   0.636   3.739   2.636
 5977SOL    HW118830   0.735   3.742   2.625
 5977SOL    HW218831   0.594   3.707   2.551
 5978SOL     OW18832   5.226   5.455   1.762
 5978SOL    HW118833   5.236   5.527   1.830
 5978SOL    HW218834   5.311   5.448   1.709
 5979SOL     OW18835   0.239   0.504   3.674
 5979SOL    HW118836   0.279   0.419   3.710
 5979SOL    HW218837   0.142   0.490   3.656
 5980SOL     OW18838   6.148   3.979   6.783
 5980SOL    HW118839   6.085   4.006   6.856
 5980SOL    HW218840   6.240   4.009   6.806
 5981SOL     OW18841   4.674   0.751   2.254
 5981SOL    HW118842   4.580   0.782   2.239
 5981SOL    HW218843   4.702   0.691   2.180
 5982SOL     OW18844   6.814   2.004   6.142
 5982SOL    HW118845   6.724   1.961   6.139
 5982SOL    HW218846   6.804   2.103   6.129
 5983SOL     OW18847   1.436   0.990   4.796
 5983SOL    HW118848   1.399   1.011   4.705
 5983SOL    HW218849   1.361   0.985   4.861
 5984SOL     OW18850   0.232   6.795   5.231
 5984SOL    HW118851   0.233   6.868   5.299
 5984SOL    HW218852   0.274   6.713   5.270
 5985SOL     OW18853   4.366   2.070   4.285
 5985SOL    HW118854   4.367   1.983   4.335
 5985SOL    HW218855   4.404   2.056   4.193
 5986SOL     OW18856   3.586   3.271   2.258
 5986SOL    HW118857   3.565   3.179   2.225
 5986SOL    HW218858   3.683   3.290   2.242
 5987SOL     OW18859   3.785   0.232   5.284
 5987SOL    HW118860   3.754   0.321   5.252
 5987SOL    HW218861   3.881   0.237   5.311
 5988SOL     OW18862   3.795   0.011   4.066
 5988SOL    HW118863   3.733   6.958   4.034
 5988SOL    HW218864   3.882   6.989   4.093
 5989SOL     OW18865   3.113   0.835   6.132
 5989SOL    HW118866   3.111   0.850   6.230
 5989SOL    HW218867   3.159   0.748   6.112
 5990SOL     OW18868   3.240   4.675   1.561
 5990SOL    HW118869   3.174   4.664   1.636
 5990SOL    HW218870   3.332   4.681   1.598
 5991SOL     OW18871   2.811   5.012   4.628
 5991SOL    HW118872   2.853   4.967   4.707
 5991SOL    HW218873   2.727   4.965   4.603
 5992SOL     OW18874   4.823   0.280   3.753
 5992SOL    HW118875   4.831   0.203   3.690
 5992SOL    HW218876   4.889   0.269   3.828
 5993SOL     OW18877   2.816   5.754   5.289
 5993SOL    HW118878   2.866   5.836   5.317
 5993SOL    HW218879   2.755   5.725   5.362
 5994SOL     OW18880   6.934   2.085   2.197
 5994SOL    HW118881   6.947   2.184   2.188
 5994SOL    HW218882   7.014   2.037   2.160
 5995SOL     OW18883   6.941   4.570   1.639
 5995SOL    HW118884   6.888   4.555   1.723
 5995SOL    HW218885   6.961   4.482   1.596
 5996SOL     OW18886   0.467   4.946   5.748
 5996SOL    HW118887   0.443   4.856   5.711
 5996SOL    HW218888   0.485   5.009   5.673
 5997SOL     OW18889   0.558   6.738   2.552
 5997SOL    HW118890   0.492   6.811   2.533
 5997SOL    HW218891   0.638   6.750   2.493
 5998SOL     OW18892   5.421   1.850   2.671
 5998SOL    HW118893   5.437   1.933   2.725
 5998SOL    HW218894   5.323   1.842   2.650
 5999SOL     OW18895   1.398   1.378   2.877
 5999SOL    HW118896   1.351   1.291   2.863
 5999SOL    HW218897   1.474   1.365   2.940
 6000SOL     OW18898   4.711   5.518   2.078
 6000SOL    HW118899   4.745   5.457   2.007
 6000SOL    HW218900   4.767   5.601   2.081
 6001SOL     OW18901   6.464   2.364   0.025
 6001SOL    HW118902   6.503   2.297   0.087
 6001SOL    HW218903   6.403   2.425   0.076
 6002SOL     OW18904   1.875   0.091   1.825
 6002SOL    HW118905   1.885   0.163   1.894
 6002SOL    HW218906   1.799   0.031   1.850
 6003SOL     OW18907   4.822   4.205   4.315
 6003SOL    HW118908   4.833   4.301   4.341
 6003SOL    HW218909   4.876   4.148   4.377
 6004SOL     OW18910   0.007   3.645   2.623
 6004SOL    HW118911   6.928   3.636   2.644
 6004SOL    HW218912   0.045   3.723   2.672
 6005SOL     OW18913   3.170   6.007   2.821
 6005SOL    HW118914   3.121   6.083   2.863
 6005SOL    HW218915   3.235   6.041   2.753
 6006SOL     OW18916   2.554   6.324   6.996
 6006SOL    HW118917   2.535   6.293   6.903
 6006SOL    HW218918   2.625   6.267   0.018
 6007SOL     OW18919   5.513   2.799   3.965
 6007SOL    HW118920   5.485   2.845   4.050
 6007SOL    HW218921   5.456   2.719   3.950
 6008SOL     OW18922   3.150   4.887   6.532
 6008SOL    HW118923   3.202   4.845   6.606
 6008SOL    HW218924   3.117   4.817   6.469
 6009SOL     OW18925   3.028   1.808   4.374
 6009SOL    HW118926   3.062   1.730   4.426
 6009SOL    HW218927   2.930   1.798   4.358
 6010SOL     OW18928   1.233   3.847   3.403
 6010SOL    HW118929   1.230   3.916   3.475
 6010SOL    HW218930   1.278   3.765   3.437
 6011SOL     OW18931   6.097   3.358   3.276
 6011SOL    HW118932   6.076   3.308   3.360
 6011SOL    HW218933   6.178   3.319   3.233
 6012SOL     OW18934   6.848   3.454   0.536
 6012SOL    HW118935   6.933   3.429   0.489
 6012SOL    HW218936   6.792   3.511   0.477
 6013SOL     OW18937   5.502   1.414   2.483
 6013SOL    HW118938   5.556   1.378   2.559
 6013SOL    HW218939   5.424   1.355   2.465
 6014SOL     OW18940   5.840   0.344   0.962
 6014SOL    HW118941   5.894   0.349   0.877
 6014SOL    HW218942   5.863   0.259   1.010
 6015SOL     OW18943   6.022   2.122   4.858
 6015SOL    HW118944   6.073   2.154   4.938
 6015SOL    HW218945   5.987   2.030   4.876
 6016SOL     OW18946   1.889   6.924   4.941
 6016SOL    HW118947   1.841   6.852   4.992
 6016SOL    HW218948   1.909   7.000   5.002
 6017SOL     OW18949   6.696   4.947   2.367
 6017SOL    HW118950   6.770   5.000   2.328
 6017SOL    HW218951   6.733   4.865   2.411
 6018SOL     OW18952   2.156   4.411   0.857
 6018SOL    HW118953   2.162   4.330   0.799
 6018SOL    HW218954   2.063   4.421   0.891
 6019SOL     OW18955   3.902   6.672   4.000
 6019SOL    HW118956   3.965   6.596   3.992
 6019SOL    HW218957   3.946   6.747   4.050
 6020SOL     OW18958   3.884   0.529   2.821
 6020SOL    HW118959   3.826   0.576   2.887
 6020SOL    HW218960   3.916   0.594   2.753
 6021SOL     OW18961   4.485   1.045   2.919
 6021SOL    HW118962   4.441   1.135   2.912
 6021SOL    HW218963   4.488   1.001   2.829
 6022SOL     OW18964   4.610   1.624   4.457
 6022SOL    HW118965   4.668   1.593   4.381
 6022SOL    HW218966   4.624   1.565   4.536
 6023SOL     OW18967   6.928   1.037   2.327
 6023SOL    HW118968   6.903   1.005   2.419
 6023SOL    HW218969   6.909   1.135   2.319
 6024SOL     OW18970   0.668   4.568   2.928
 6024SOL    HW118971   0.631   4.624   2.854
 6024SOL    HW218972   0.599   4.556   2.999
 6025SOL     OW18973   4.686   1.768   1.672
 6025SOL    HW118974   4.644   1.838   1.614
 6025SOL    HW218975   4.702   1.685   1.618
 6026SOL     OW18976   0.303   4.799   5.164
 6026SOL    HW118977   0.224   4.798   5.226
 6026SOL    HW218978   0.327   4.894   5.143
 6027SOL     OW18979   2.874   3.808   0.181
 6027SOL    HW118980   2.946   3.739   0.179
 6027SOL    HW218981   2.915   3.899   0.186
 6028SOL     OW18982   1.344   3.785   6.859
 6028SOL    HW118983   1.279   3.842   6.909
 6028SOL    HW218984   1.305   3.694   6.845
 6029SOL     OW18985   2.091   5.632   1.265
 6029SOL    HW118986   2.110   5.725   1.296
 6029SOL    HW218987   2.177   5.580   1.261
 6030SOL     OW18988   2.072   0.279   1.286
 6030SOL    HW118989   2.091   0.365   1.333
 6030SOL    HW218990   1.989   0.289   1.230
 6031SOL     OW18991   5.153   0.256   4.935
 6031SOL    HW118992   5.191   0.312   5.008
 6031SOL    HW218993   5.053   0.257   4.940
 6032SOL     OW18994   0.755   3.318   2.664
 6032SOL    HW118995   0.791   3.395   2.716
 6032SOL    HW218996   0.661   3.300   2.692
 6033SOL     OW18997   1.082   0.758   4.217
 6033SOL    HW118998   1.049   0.665   4.232
 6033SOL    HW218999   1.119   0.795   4.302
 6034SOL     OW19000   1.751   4.026   5.216
 6034SOL    HW119001   1.661   4.013   5.174
 6034SOL    HW219002   1.819   3.974   5.165
 6035SOL     OW19003   6.138   1.291   4.310
 6035SOL    HW119004   6.200   1.357   4.355
 6035SOL    HW219005   6.188   1.239   4.242
 6036SOL     OW19006   6.931   7.006   4.840
 6036SOL    HW119007   7.013   6.982   4.893
 6036SOL    HW219008   6.931   0.085   4.820
 6037SOL     OW19009   6.117   5.754   4.910
 6037SOL    HW119010   6.072   5.770   4.998
 6037SOL    HW219011   6.072   5.677   4.863
 6038SOL     OW19012   4.878   3.856   6.532
 6038SOL    HW119013   4.930   3.895   6.456
 6038SOL    HW219014   4.851   3.762   6.511
 6039SOL     OW19015   3.319   4.081   2.921
 6039SOL    HW119016   3.382   4.100   2.846
 6039SOL    HW219017   3.230   4.055   2.884
 6040SOL     OW19018   0.336   1.683   0.234
 6040SOL    HW119019   0.418   1.691   0.177
 6040SOL    HW219020   0.292   1.595   0.215
 6041SOL     OW19021   1.019   2.658   0.583
 6041SOL    HW119022   0.923   2.637   0.598
 6041SOL    HW219023   1.076   2.585   0.620
 6042SOL     OW19024   4.710   5.566   3.775
 6042SOL    HW119025   4.668   5.644   3.820
 6042SOL    HW219026   4.716   5.490   3.840
 6043SOL     OW19027   1.280   4.493   3.875
 6043SOL    HW119028   1.204   4.540   3.919
 6043SOL    HW219029   1.308   4.414   3.929
 6044SOL     OW19030   0.765   0.338   1.655
 6044SOL    HW119031   0.863   0.353   1.670
 6044SOL    HW219032   0.714   0.418   1.684
 6045SOL     OW19033   6.967   3.929   2.039
 6045SOL    HW119034   6.885   3.946   1.985
 6045SOL    HW219035   0.026   3.979   2.000
 6046SOL     OW19036   2.876   2.643   0.479
 6046SOL    HW119037   2.973   2.630   0.496
 6046SOL    HW219038   2.837   2.703   0.550
 6047SOL     OW19039   0.004   0.222   4.413
 6047SOL    HW119040   0.028   0.158   4.487
 6047SOL    HW219041   6.939   0.191   4.368
 6048SOL     OW19042   4.245   6.520   5.054
 6048SOL    HW119043   4.152   6.513   5.018
 6048SOL    HW219044   4.246   6.584   5.130
 6049SOL     OW19045   6.256   4.983   0.628
 6049SOL    HW119046   6.331   4.917   0.623
 6049SOL    HW219047   6.277   5.051   0.699
 6050SOL     OW19048   5.141   4.433   5.278
 6050SOL    HW119049   5.098   4.440   5.368
 6050SOL    HW219050   5.173   4.339   5.263
 6051SOL     OW19051   2.154   1.617   2.924
 6051SOL    HW119052   2.215   1.695   2.933
 6051SOL    HW219053   2.199   1.544   2.873
 6052SOL     OW19054   0.049   0.911   0.523
 6052SOL    HW119055   0.076   0.886   0.430
 6052SOL    HW219056   0.057   1.010   0.535
 6053SOL     OW19057   1.864   0.075   6.512
 6053SOL    HW119058   1.790   0.104   6.572
 6053SOL    HW219059   1.952   0.100   6.554
 6054SOL     OW19060   2.102   4.510   0.341
 6054SOL    HW119061   2.121   4.413   0.351
 6054SOL    HW219062   2.082   4.550   0.431
 6055SOL     OW19063   4.741   0.301   4.675
 6055SOL    HW119064   4.660   0.314   4.618
 6055SOL    HW219065   4.814   0.259   4.620
 6056SOL     OW19066   4.784   2.076   6.586
 6056SOL    HW119067   4.789   1.976   6.593
 6056SOL    HW219068   4.742   2.100   6.498
 6057SOL     OW19069   3.494   1.051   5.589
 6057SOL    HW119070   3.475   0.965   5.541
 6057SOL    HW219071   3.408   1.099   5.606
 6058SOL     OW19072   5.837   2.490   4.495
 6058SOL    HW119073   5.822   2.402   4.449
 6058SOL    HW219074   5.755   2.516   4.545
 6059SOL     OW19075   6.601   5.007   6.429
 6059SOL    HW119076   6.504   5.025   6.449
 6059SOL    HW219077   6.641   5.086   6.384
 6060SOL     OW19078   4.427   6.047   5.722
 6060SOL    HW119079   4.502   6.084   5.666
 6060SOL    HW219080   4.355   6.013   5.662
 6061SOL     OW19081   2.424   1.603   6.191
 6061SOL    HW119082   2.475   1.611   6.277
 6061SOL    HW219083   2.487   1.616   6.114
 6062SOL     OW19084   2.365   0.265   4.313
 6062SOL    HW119085   2.455   0.223   4.299
 6062SOL    HW219086   2.370   0.362   4.286
 6063SOL     OW19087   4.726   0.381   6.263
 6063SOL    HW119088   4.647   0.384   6.324
 6063SOL    HW219089   4.778   0.466   6.271
 6064SOL     OW19090   1.537   5.116   3.541
 6064SOL    HW119091   1.474   5.050   3.502
 6064SOL    HW219092   1.625   5.072   3.561
 6065SOL     OW19093   0.270   0.581   1.076
 6065SOL    HW119094   0.191   0.529   1.044
 6065SOL    HW219095   0.283   0.661   1.019
 6066SOL     OW19096   4.277   3.021   0.160
 6066SOL    HW119097   4.325   2.947   0.207
 6066SOL    HW219098   4.229   2.985   0.081
 6067SOL     OW19099   6.954   1.820   6.614
 6067SOL    HW119100   6.872   1.863   6.652
 6067SOL    HW219101   6.941   1.803   6.517
 6068SOL     OW19102   4.650   2.695   4.995
 6068SOL    HW119103   4.576   2.632   5.019
 6068SOL    HW219104   4.672   2.752   5.074
 6069SOL     OW19105   6.202   4.593   4.595
 6069SOL    HW119106   6.125   4.531   4.611
 6069SOL    HW219107   6.168   4.686   4.585
 6070SOL     OW19108   4.698   2.195   6.331
 6070SOL    HW119109   4.629   2.253   6.375
 6070SOL    HW219110   4.666   2.168   6.241
 6071SOL     OW19111   4.174   5.897   5.140
 6071SOL    HW119112   4.201   5.821   5.080
 6071SOL    HW219113   4.075   5.896   5.153
 6072SOL     OW19114   0.241   1.874   1.095
 6072SOL    HW119115   0.326   1.846   1.139
 6072SOL    HW219116   0.257   1.890   0.998
 6073SOL     OW19117   6.990   2.900   1.129
 6073SOL    HW119118   7.009   2.996   1.106
 6073SOL    HW219119   6.901   2.875   1.092
 6074SOL     OW19120   0.732   0.341   4.752
 6074SOL    HW119121   0.666   0.267   4.760
 6074SOL    HW219122   0.820   0.305   4.722
 6075SOL     OW19123   5.772   4.057   6.705
 6075SOL    HW119124   5.851   3.996   6.708
 6075SOL    HW219125   5.791   4.139   6.758
 6076SOL     OW19126   2.130   6.142   4.198
 6076SOL    HW119127   2.183   6.199   4.262
 6076SOL    HW219128   2.156   6.164   4.104
 6077SOL     OW19129   6.025   6.288   2.184
 6077SOL    HW119130   5.954   6.252   2.123
 6077SOL    HW219131   6.029   6.387   2.176
 6078SOL     OW19132   2.460   4.619   3.601
 6078SOL    HW119133   2.534   4.669   3.647
 6078SOL    HW219134   2.464   4.637   3.502
 6079SOL     OW19135   2.240   1.743   6.944
 6079SOL    HW119136   2.284   1.819   6.896
 6079SOL    HW219137   2.224   1.668   6.880
 6080SOL     OW19138   5.674   2.565   1.995
 6080SOL    HW119139   5.578   2.555   1.966
 6080SOL    HW219140   5.718   2.476   1.993
 6081SOL     OW19141   0.178   3.382   3.770
 6081SOL    HW119142   0.204   3.443   3.695
 6081SOL    HW219143   0.079   3.383   3.781
 6082SOL     OW19144   4.229   1.228   4.152
 6082SOL    HW119145   4.132   1.246   4.169
 6082SOL    HW219146   4.242   1.202   4.056
 6083SOL     OW19147   1.658   6.248   0.006
 6083SOL    HW119148   1.612   6.160   0.018
 6083SOL    HW219149   1.713   6.268   0.087
 6084SOL     OW19150   0.447   4.728   5.556
 6084SOL    HW119151   0.351   4.735   5.528
 6084SOL    HW219152   0.454   4.666   5.635
 6085SOL     OW19153   5.634   4.159   0.905
 6085SOL    HW119154   5.677   4.245   0.931
 6085SOL    HW219155   5.615   4.160   0.807
 6086SOL     OW19156   2.989   1.919   3.670
 6086SOL    HW119157   2.908   1.950   3.720
 6086SOL    HW219158   2.962   1.883   3.581
 6087SOL     OW19159   5.225   6.787   6.805
 6087SOL    HW119160   5.205   6.700   6.758
 6087SOL    HW219161   5.150   6.851   6.789
 6088SOL     OW19162   1.238   0.124   4.790
 6088SOL    HW119163   1.327   0.169   4.793
 6088SOL    HW219164   1.250   0.027   4.765
 6089SOL     OW19165   6.948   3.607   0.286
 6089SOL    HW119166   6.913   3.530   0.232
 6089SOL    HW219167   0.017   3.581   0.329
 6090SOL     OW19168   0.622   5.615   4.460
 6090SOL    HW119169   0.574   5.617   4.372
 6090SOL    HW219170   0.585   5.541   4.516
 6091SOL     OW19171   5.697   1.817   2.016
 6091SOL    HW119172   5.675   1.812   2.113
 6091SOL    HW219173   5.789   1.854   2.004
 6092SOL     OW19174   2.136   2.092   1.657
 6092SOL    HW119175   2.220   2.040   1.644
 6092SOL    HW219176   2.060   2.028   1.673
 6093SOL     OW19177   0.861   2.778   1.164
 6093SOL    HW119178   0.836   2.868   1.127
 6093SOL    HW219179   0.934   2.788   1.231
 6094SOL     OW19180   1.264   0.665   1.541
 6094SOL    HW119181   1.210   0.746   1.520
 6094SOL    HW219182   1.299   0.626   1.455
 6095SOL     OW19183   6.470   3.892   5.936
 6095SOL    HW119184   6.450   3.853   6.026
 6095SOL    HW219185   6.458   3.822   5.866
 6096SOL     OW19186   3.407   2.072   3.503
 6096SOL    HW119187   3.401   1.998   3.437
 6096SOL    HW219188   3.489   2.061   3.558
 6097SOL     OW19189   2.901   2.039   2.182
 6097SOL    HW119190   2.866   1.959   2.133
 6097SOL    HW219191   2.862   2.122   2.142
 6098SOL     OW19192   2.209   2.125   5.753
 6098SOL    HW119193   2.208   2.082   5.843
 6098SOL    HW219194   2.298   2.167   5.736
 6099SOL     OW19195   5.850   5.751   5.054
 6099SOL    HW119196   5.844   5.836   5.002
 6099SOL    HW219197   5.928   5.756   5.117
 6100SOL     OW19198   6.592   3.133   0.392
 6100SOL    HW119199   6.512   3.116   0.334
 6100SOL    HW219200   6.648   3.050   0.395
 6101SOL     OW19201   6.228   1.448   4.875
 6101SOL    HW119202   6.320   1.464   4.910
 6101SOL    HW219203   6.184   1.376   4.928
 6102SOL     OW19204   2.620   0.437   5.415
 6102SOL    HW119205   2.698   0.383   5.383
 6102SOL    HW219206   2.636   0.464   5.510
 6103SOL     OW19207   6.242   6.421   5.790
 6103SOL    HW119208   6.145   6.417   5.766
 6103SOL    HW219209   6.272   6.331   5.824
 6104SOL     OW19210   0.424   2.578   6.798
 6104SOL    HW119211   0.438   2.577   6.699
 6104SOL    HW219212   0.377   2.494   6.825
 6105SOL     OW19213   3.471   6.093   4.293
 6105SOL    HW119214   3.515   6.086   4.203
 6105SOL    HW219215   3.382   6.137   4.284
 6106SOL     OW19216   3.175   5.568   5.316
 6106SOL    HW119217   3.083   5.545   5.285
 6106SOL    HW219218   3.232   5.486   5.315
 6107SOL     OW19219   2.060   4.667   5.323
 6107SOL    HW119220   2.141   4.725   5.327
 6107SOL    HW219221   2.088   4.571   5.327
 6108SOL     OW19222   0.478   2.451   5.163
 6108SOL    HW119223   0.499   2.406   5.076
 6108SOL    HW219224   0.522   2.541   5.166
 6109SOL     OW19225   6.281   4.509   1.329
 6109SOL    HW119226   6.217   4.432   1.333
 6109SOL    HW219227   6.286   4.552   1.419
 6110SOL     OW19228   3.362   1.359   4.676
 6110SOL    HW119229   3.359   1.455   4.649
 6110SOL    HW219230   3.395   1.352   4.770
 6111SOL     OW19231   1.495   4.517   3.051
 6111SOL    HW119232   1.543   4.576   2.986
 6111SOL    HW219233   1.402   4.551   3.065
 6112SOL     OW19234   0.323   1.734   2.374
 6112SOL    HW119235   0.383   1.739   2.294
 6112SOL    HW219236   0.231   1.709   2.345
 6113SOL     OW19237   1.393   6.350   5.705
 6113SOL    HW119238   1.352   6.437   5.729
 6113SOL    HW219239   1.337   6.304   5.636
 6114SOL     OW19240   5.233   5.586   0.465
 6114SOL    HW119241   5.331   5.603   0.461
 6114SOL    HW219242   5.203   5.582   0.561
 6115SOL     OW19243   5.497   5.204   2.632
 6115SOL    HW119244   5.456   5.292   2.656
 6115SOL    HW219245   5.425   5.140   2.604
 6116SOL     OW19246   4.411   1.386   1.640
 6116SOL    HW119247   4.411   1.290   1.670
 6116SOL    HW219248   4.417   1.389   1.540
 6117SOL     OW19249   5.118   0.341   4.672
 6117SOL    HW119250   5.029   0.316   4.633
 6117SOL    HW219251   5.120   0.315   4.769
 6118SOL     OW19252   5.988   0.565   3.278
 6118SOL    HW119253   5.964   0.592   3.371
 6118SOL    HW219254   6.020   0.645   3.227
 6119SOL     OW19255   0.057   5.444   4.231
 6119SOL    HW119256   6.998   5.491   4.274
 6119SOL    HW219257   0.131   5.433   4.297
 6120SOL     OW19258   2.518   0.858   3.169
 6120SOL    HW119259   2.521   0.775   3.113
 6120SOL    HW219260   2.427   0.869   3.209
 6121SOL     OW19261   6.825   2.467   4.520
 6121SOL    HW119262   6.887   2.542   4.495
 6121SOL    HW219263   6.804   2.414   4.438
 6122SOL     OW19264   4.667   5.617   3.278
 6122SOL    HW119265   4.583   5.592   3.230
 6122SOL    HW219266   4.677   5.561   3.360
 6123SOL     OW19267   5.674   1.267   2.644
 6123SOL    HW119268   5.684   1.181   2.695
 6123SOL    HW219269   5.729   1.262   2.560
 6124SOL     OW19270   3.763   0.590   5.629
 6124SOL    HW119271   3.693   0.521   5.612
 6124SOL    HW219272   3.821   0.561   5.704
 6125SOL     OW19273   2.127   5.859   1.424
 6125SOL    HW119274   2.080   5.944   1.401
 6125SOL    HW219275   2.076   5.811   1.496
 6126SOL     OW19276   5.308   5.615   2.702
 6126SOL    HW119277   5.328   5.569   2.788
 6126SOL    HW219278   5.222   5.667   2.711
 6127SOL     OW19279   1.805   5.493   1.873
 6127SOL    HW119280   1.803   5.509   1.972
 6127SOL    HW219281   1.756   5.408   1.852
 6128SOL     OW19282   5.569   1.516   0.763
 6128SOL    HW119283   5.479   1.535   0.723
 6128SOL    HW219284   5.626   1.598   0.759
 6129SOL     OW19285   5.993   4.795   3.706
 6129SOL    HW119286   6.050   4.870   3.673
 6129SOL    HW219287   6.048   4.734   3.763
 6130SOL     OW19288   5.298   3.470   2.131
 6130SOL    HW119289   5.355   3.552   2.137
 6130SOL    HW219290   5.345   3.399   2.079
 6131SOL     OW19291   6.089   1.258   4.987
 6131SOL    HW119292   6.076   1.160   5.003
 6131SOL    HW219293   6.001   1.304   4.991
 6132SOL     OW19294   5.192   2.748   1.029
 6132SOL    HW119295   5.189   2.692   1.112
 6132SOL    HW219296   5.257   2.708   0.965
 6133SOL     OW19297   0.896   4.655   0.807
 6133SOL    HW119298   0.817   4.716   0.807
 6133SOL    HW219299   0.928   4.641   0.714
 6134SOL     OW19300   4.534   3.823   6.222
 6134SOL    HW119301   4.541   3.793   6.317
 6134SOL    HW219302   4.552   3.745   6.162
 6135SOL     OW19303   5.579   0.200   1.262
 6135SOL    HW119304   5.606   0.277   1.205
 6135SOL    HW219305   5.634   0.120   1.239
 6136SOL     OW19306   0.515   1.841   1.497
 6136SOL    HW119307   0.523   1.940   1.488
 6136SOL    HW219308   0.603   1.803   1.525
 6137SOL     OW19309   2.893   6.875   6.193
 6137SOL    HW119310   2.823   6.827   6.245
 6137SOL    HW219311   2.858   6.897   6.102
 6138SOL     OW19312   4.241   6.944   2.860
 6138SOL    HW119313   4.216   6.975   2.768
 6138SOL    HW219314   4.211   6.850   2.873
 6139SOL     OW19315   2.160   4.580   4.040
 6139SOL    HW119316   2.237   4.515   4.036
 6139SOL    HW219317   2.134   4.594   4.136
 6140SOL     OW19318   2.029   6.598   1.239
 6140SOL    HW119319   2.083   6.580   1.157
 6140SOL    HW219320   2.044   6.692   1.269
 6141SOL     OW19321   6.463   6.305   6.140
 6141SOL    HW119322   6.375   6.329   6.181
 6141SOL    HW219323   6.493   6.378   6.079
 6142SOL     OW19324   0.164   4.098   2.030
 6142SOL    HW119325   0.185   4.156   1.951
 6142SOL    HW219326   0.116   4.152   2.099
 6143SOL     OW19327   6.314   5.399   6.515
 6143SOL    HW119328   6.320   5.410   6.614
 6143SOL    HW219329   6.225   5.361   6.491
 6144SOL     OW19330   0.721   4.401   4.071
 6144SOL    HW119331   0.733   4.452   4.156
 6144SOL    HW219332   0.626   4.369   4.064
 6145SOL     OW19333   5.446   6.203   3.625
 6145SOL    HW119334   5.376   6.197   3.696
 6145SOL    HW219335   5.490   6.114   3.614
 6146SOL     OW19336   5.429   1.205   2.949
 6146SOL    HW119337   5.459   1.280   3.009
 6146SOL    HW219338   5.492   1.129   2.956
 6147SOL     OW19339   1.832   3.363   3.361
 6147SOL    HW119340   1.914   3.400   3.403
 6147SOL    HW219341   1.752   3.388   3.415
 6148SOL     OW19342   6.422   6.666   4.622
 6148SOL    HW119343   6.519   6.645   4.609
 6148SOL    HW219344   6.366   6.598   4.576
 6149SOL     OW19345   2.311   6.494   3.603
 6149SOL    HW119346   2.385   6.529   3.546
 6149SOL    HW219347   2.342   6.414   3.653
 6150SOL     OW19348   4.621   5.190   5.744
 6150SOL    HW119349   4.535   5.220   5.784
 6150SOL    HW219350   4.663   5.120   5.802
 6151SOL     OW19351   5.164   2.792   5.641
 6151SOL    HW119352   5.093   2.860   5.660
 6151SOL    HW219353   5.153   2.714   5.702
 6152SOL     OW19354   6.827   4.629   6.723
 6152SOL    HW119355   6.825   4.532   6.699
 6152SOL    HW219356   6.746   4.675   6.685
 6153SOL     OW19357   4.423   3.576   0.909
 6153SOL    HW119358   4.501   3.560   0.970
 6153SOL    HW219359   4.393   3.490   0.869
 6154SOL     OW19360   5.323   3.173   2.669
 6154SOL    HW119361   5.237   3.123   2.658
 6154SOL    HW219362   5.394   3.112   2.703
 6155SOL     OW19363   0.642   3.975   4.899
 6155SOL    HW119364   0.700   3.906   4.943
 6155SOL    HW219365   0.552   3.935   4.882
 6156SOL     OW19366   6.508   0.310   3.454
 6156SOL    HW119367   6.593   0.265   3.481
 6156SOL    HW219368   6.443   0.241   3.422
 6157SOL     OW19369   2.240   1.265   3.645
 6157SOL    HW119370   2.169   1.308   3.702
 6157SOL    HW219371   2.271   1.331   3.577
 6158SOL     OW19372   5.229   0.945   6.454
 6158SOL    HW119373   5.209   1.038   6.486
 6158SOL    HW219374   5.296   0.903   6.515
 6159SOL     OW19375   5.270   3.131   6.804
 6159SOL    HW119376   5.324   3.215   6.791
 6159SOL    HW219377   5.290   3.067   6.730
 6160SOL     OW19378   6.056   5.861   1.760
 6160SOL    HW119379   6.044   5.777   1.812
 6160SOL    HW219380   6.057   5.939   1.823
 6161SOL     OW19381   5.838   0.808   5.885
 6161SOL    HW119382   5.811   0.902   5.910
 6161SOL    HW219383   5.896   0.810   5.804
 6162SOL     OW19384   6.138   5.284   4.287
 6162SOL    HW119385   6.068   5.356   4.286
 6162SOL    HW219386   6.147   5.246   4.195
 6163SOL     OW19387   6.535   4.298   2.414
 6163SOL    HW119388   6.475   4.378   2.424
 6163SOL    HW219389   6.562   4.265   2.504
 6164SOL     OW19390   4.010   2.659   0.492
 6164SOL    HW119391   4.096   2.708   0.504
 6164SOL    HW219392   3.935   2.724   0.484
 6165SOL     OW19393   4.201   5.904   6.983
 6165SOL    HW119394   4.229   5.923   6.889
 6165SOL    HW219395   4.116   5.851   6.982
 6166SOL     OW19396   3.249   1.872   5.923
 6166SOL    HW119397   3.150   1.868   5.935
 6166SOL    HW219398   3.277   1.968   5.912
 6167SOL     OW19399   6.787   4.117   3.602
 6167SOL    HW119400   6.831   4.082   3.685
 6167SOL    HW219401   6.764   4.041   3.542
 6168SOL     OW19402   0.379   2.847   2.714
 6168SOL    HW119403   0.382   2.783   2.790
 6168SOL    HW219404   0.289   2.891   2.712
 6169SOL     OW19405   2.066   4.054   1.995
 6169SOL    HW119406   2.066   3.955   1.981
 6169SOL    HW219407   2.157   4.085   2.022
 6170SOL     OW19408   0.215   3.280   4.794
 6170SOL    HW119409   0.167   3.344   4.735
 6170SOL    HW219410   0.311   3.307   4.801
 6171SOL     OW19411   0.447   0.607   6.275
 6171SOL    HW119412   0.397   0.690   6.250
 6171SOL    HW219413   0.392   0.552   6.338
 6172SOL     OW19414   0.854   3.509   3.330
 6172SOL    HW119415   0.894   3.555   3.409
 6172SOL    HW219416   0.920   3.510   3.254
 6173SOL     OW19417   6.931   6.130   3.485
 6173SOL    HW119418   7.015   6.140   3.539
 6173SOL    HW219419   6.865   6.200   3.513
 6174SOL     OW19420   5.915   3.986   2.226
 6174SOL    HW119421   5.820   3.978   2.258
 6174SOL    HW219422   5.915   4.001   2.128
 6175SOL     OW19423   3.218   2.380   5.875
 6175SOL    HW119424   3.137   2.329   5.845
 6175SOL    HW219425   3.194   2.432   5.958
 6176SOL     OW19426   4.420   3.829   5.845
 6176SOL    HW119427   4.354   3.903   5.860
 6176SOL    HW219428   4.512   3.867   5.845
 6177SOL     OW19429   5.978   1.127   1.490
 6177SOL    HW119430   5.921   1.118   1.571
 6177SOL    HW219431   5.997   1.224   1.473
 6178SOL     OW19432   3.726   4.585   1.441
 6178SOL    HW119433   3.639   4.538   1.458
 6178SOL    HW219434   3.779   4.587   1.526
 6179SOL     OW19435   5.852   4.951   3.521
 6179SOL    HW119436   5.845   4.876   3.586
 6179SOL    HW219437   5.807   5.032   3.558
 6180SOL     OW19438   2.969   4.049   0.186
 6180SOL    HW119439   2.913   4.131   0.190
 6180SOL    HW219440   3.063   4.072   0.212
 6181SOL     OW19441   5.973   5.856   6.474
 6181SOL    HW119442   6.006   5.920   6.543
 6181SOL    HW219443   6.042   5.846   6.402
 6182SOL     OW19444   3.444   2.696   0.623
 6182SOL    HW119445   3.460   2.793   0.608
 6182SOL    HW219446   3.346   2.680   0.638
 6183SOL     OW19447   0.564   0.212   0.716
 6183SOL    HW119448   0.493   0.187   0.781
 6183SOL    HW219449   0.567   0.311   0.706
 6184SOL     OW19450   2.439   0.338   5.707
 6184SOL    HW119451   2.461   0.287   5.790
 6184SOL    HW219452   2.459   0.435   5.721
 6185SOL     OW19453   3.730   2.905   5.521
 6185SOL    HW119454   3.707   3.002   5.534
 6185SOL    HW219455   3.650   2.857   5.486
 6186SOL     OW19456   0.011   1.886   1.911
 6186SOL    HW119457   0.001   1.810   1.846
 6186SOL    HW219458   0.106   1.917   1.911
 6187SOL     OW19459   5.307   1.849   5.530
 6187SOL    HW119460   5.332   1.885   5.620
 6187SOL    HW219461   5.217   1.804   5.535
 6188SOL     OW19462   1.331   1.558   5.172
 6188SOL    HW119463   1.333   1.617   5.091
 6188SOL    HW219464   1.373   1.470   5.151
 6189SOL     OW19465   6.249   6.586   1.385
 6189SOL    HW119466   6.228   6.634   1.299
 6189SOL    HW219467   6.249   6.652   1.460
 6190SOL     OW19468   0.534   2.704   5.141
 6190SOL    HW119469   0.440   2.705   5.108
 6190SOL    HW219470   0.581   2.787   5.110
 6191SOL     OW19471   3.987   3.665   6.863
 6191SOL    HW119472   3.945   3.756   6.867
 6191SOL    HW219473   3.938   3.603   6.925
 6192SOL     OW19474   2.644   1.571   0.602
 6192SOL    HW119475   2.575   1.590   0.672
 6192SOL    HW219476   2.634   1.477   0.570
 6193SOL     OW19477   4.617   5.780   6.607
 6193SOL    HW119478   4.585   5.836   6.683
 6193SOL    HW219479   4.667   5.701   6.642
 6194SOL     OW19480   6.266   0.017   6.034
 6194SOL    HW119481   6.171   0.022   6.004
 6194SOL    HW219482   6.291   6.940   6.051
 6195SOL     OW19483   6.748   6.344   6.150
 6195SOL    HW119484   6.680   6.348   6.077
 6195SOL    HW219485   6.704   6.362   6.238
 6196SOL     OW19486   5.997   3.748   3.139
 6196SOL    HW119487   6.079   3.727   3.086
 6196SOL    HW219488   5.938   3.667   3.143
 6197SOL     OW19489   2.511   5.794   1.876
 6197SOL    HW119490   2.587   5.734   1.851
 6197SOL    HW219491   2.507   5.804   1.975
 6198SOL     OW19492   6.556   0.774   7.016
 6198SOL    HW119493   6.590   0.850   0.053
 6198SOL    HW219494   6.456   0.774   7.018
 6199SOL     OW19495   1.267   6.963   6.756
 6199SOL    HW119496   1.325   6.977   6.837
 6199SOL    HW219497   1.232   0.033   6.725
 6200SOL     OW19498   2.161   1.602   2.278
 6200SOL    HW119499   2.173   1.691   2.234
 6200SOL    HW219500   2.182   1.610   2.375
 6201SOL     OW19501   0.020   4.362   3.472
 6201SOL    HW119502   0.077   4.420   3.530
 6201SOL    HW219503   7.013   4.280   3.522
 6202SOL     OW19504   6.241   1.406   2.672
 6202SOL    HW119505   6.228   1.365   2.582
 6202SOL    HW219506   6.334   1.387   2.704
 6203SOL     OW19507   6.612   6.940   1.717
 6203SOL    HW119508   6.637   6.854   1.672
 6203SOL    HW219509   6.601   6.925   1.815
 6204SOL     OW19510   2.225   0.196   5.121
 6204SOL    HW119511   2.162   0.231   5.053
 6204SOL    HW219512   2.260   0.272   5.176
 6205SOL     OW19513   5.030   4.819   3.443
 6205SOL    HW119514   5.111   4.780   3.487
 6205SOL    HW219515   4.990   4.889   3.502
 6206SOL     OW19516   5.917   1.777   4.505
 6206SOL    HW119517   5.832   1.731   4.530
 6206SOL    HW219518   5.972   1.718   4.447
 6207SOL     OW19519   2.205   4.634   4.689
 6207SOL    HW119520   2.133   4.588   4.740
 6207SOL    HW219521   2.164   4.698   4.624
 6208SOL     OW19522   3.656   3.698   5.676
 6208SOL    HW119523   3.557   3.711   5.679
 6208SOL    HW219524   3.677   3.600   5.686
 6209SOL     OW19525   3.334   2.340   1.369
 6209SOL    HW119526   3.268   2.289   1.424
 6209SOL    HW219527   3.401   2.276   1.330
 6210SOL     OW19528   4.667   1.917   4.029
 6210SOL    HW119529   4.631   1.962   4.111
 6210SOL    HW219530   4.719   1.983   3.975
 6211SOL     OW19531   5.473   4.569   5.467
 6211SOL    HW119532   5.425   4.483   5.480
 6211SOL    HW219533   5.426   4.624   5.397
 6212SOL     OW19534   4.580   5.318   4.989
 6212SOL    HW119535   4.539   5.230   4.964
 6212SOL    HW219536   4.611   5.365   4.907
 6213SOL     OW19537   4.132   6.058   0.191
 6213SOL    HW119538   4.097   6.024   0.278
 6213SOL    HW219539   4.144   5.982   0.127
 6214SOL     OW19540   6.744   5.878   6.388
 6214SOL    HW119541   6.744   5.972   6.421
 6214SOL    HW219542   6.653   5.855   6.352
 6215SOL     OW19543   5.519   2.475   6.095
 6215SOL    HW119544   5.592   2.428   6.046
 6215SOL    HW219545   5.554   2.507   6.183
 6216SOL     OW19546   4.828   2.207   3.354
 6216SOL    HW119547   4.764   2.278   3.328
 6216SOL    HW219548   4.829   2.197   3.454
 6217SOL     OW19549   0.117   4.273   2.968
 6217SOL    HW119550   0.067   4.278   3.054
 6217SOL    HW219551   0.209   4.236   2.985
 6218SOL     OW19552   4.561   6.267   0.045
 6218SOL    HW119553   4.565   6.366   0.035
 6218SOL    HW219554   4.630   6.237   0.111
 6219SOL     OW19555   1.822   1.185   5.887
 6219SOL    HW119556   1.878   1.163   5.807
 6219SOL    HW219557   1.730   1.148   5.875
 6220SOL     OW19558   3.839   0.258   0.839
 6220SOL    HW119559   3.846   0.164   0.804
 6220SOL    HW219560   3.855   0.257   0.938
 6221SOL     OW19561   5.923   5.475   6.986
 6221SOL    HW119562   5.838   5.477   6.935
 6221SOL    HW219563   5.972   5.389   6.968
 6222SOL     OW19564   6.213   1.840   1.884
 6222SOL    HW119565   6.192   1.922   1.937
 6222SOL    HW219566   6.139   1.822   1.821
 6223SOL     OW19567   0.271   4.827   3.757
 6223SOL    HW119568   0.216   4.778   3.689
 6223SOL    HW219569   0.311   4.909   3.714
 6224SOL     OW19570   4.223   0.605   0.278
 6224SOL    HW119571   4.182   0.514   0.277
 6224SOL    HW219572   4.155   0.672   0.308
 6225SOL     OW19573   4.937   6.359   6.411
 6225SOL    HW119574   5.007   6.303   6.455
 6225SOL    HW219575   4.887   6.411   6.480
 6226SOL     OW19576   1.377   1.311   5.029
 6226SOL    HW119577   1.436   1.290   4.951
 6226SOL    HW219578   1.285   1.331   4.995
 6227SOL     OW19579   2.687   4.543   5.325
 6227SOL    HW119580   2.720   4.580   5.412
 6227SOL    HW219581   2.758   4.553   5.256
 6228SOL     OW19582   1.078   2.952   3.412
 6228SOL    HW119583   0.983   2.922   3.427
 6228SOL    HW219584   1.134   2.873   3.386
 6229SOL     OW19585   0.661   2.977   4.424
 6229SOL    HW119586   0.660   2.946   4.519
 6229SOL    HW219587   0.664   3.077   4.421
 6230SOL     OW19588   0.066   0.746   1.695
 6230SOL    HW119589   0.026   0.661   1.660
 6230SOL    HW219590   0.039   0.822   1.635
 6231SOL     OW19591   1.728   5.117   6.885
 6231SOL    HW119592   1.805   5.117   6.820
 6231SOL    HW219593   1.722   5.027   6.929
 6232SOL     OW19594   3.932   0.997   6.676
 6232SOL    HW119595   3.934   0.979   6.577
 6232SOL    HW219596   3.933   1.095   6.692
 6233SOL     OW19597   6.952   2.871   1.666
 6233SOL    HW119598   6.955   2.932   1.587
 6233SOL    HW219599   6.858   2.838   1.679
 6234SOL     OW19600   4.658   5.727   4.761
 6234SOL    HW119601   4.590   5.762   4.825
 6234SOL    HW219602   4.656   5.782   4.677
 6235SOL     OW19603   6.937   0.383   2.831
 6235SOL    HW119604   6.861   0.322   2.851
 6235SOL    HW219605   6.911   0.477   2.854
 6236SOL     OW19606   0.099   5.924   1.685
 6236SOL    HW119607   0.107   5.825   1.678
 6236SOL    HW219608   0.163   5.958   1.755
 6237SOL     OW19609   3.240   1.734   0.472
 6237SOL    HW119610   3.299   1.653   0.466
 6237SOL    HW219611   3.173   1.732   0.399
 6238SOL     OW19612   2.264   0.336   3.728
 6238SOL    HW119613   2.317   0.262   3.687
 6238SOL    HW219614   2.243   0.405   3.659
 6239SOL     OW19615   4.564   1.089   4.272
 6239SOL    HW119616   4.471   1.099   4.236
 6239SOL    HW219617   4.589   0.992   4.272
 6240SOL     OW19618   3.642   2.912   3.596
 6240SOL    HW119619   3.563   2.949   3.547
 6240SOL    HW219620   3.716   2.894   3.532
 6241SOL     OW19621   3.313   0.502   3.175
 6241SOL    HW119622   3.312   0.402   3.177
 6241SOL    HW219623   3.360   0.536   3.257
 6242SOL     OW19624   2.649   2.031   3.317
 6242SOL    HW119625   2.581   2.018   3.244
 6242SOL    HW219626   2.688   2.123   3.310
 6243SOL     OW19627   4.634   1.679   6.420
 6243SOL    HW119628   4.705   1.742   6.454
 6243SOL    HW219629   4.628   1.601   6.482
 6244SOL     OW19630   5.315   3.764   2.259
 6244SOL    HW119631   5.248   3.693   2.282
 6244SOL    HW219632   5.266   3.849   2.238
 6245SOL     OW19633   6.758   4.408   2.712
 6245SOL    HW119634   6.703   4.326   2.703
 6245SOL    HW219635   6.854   4.385   2.697
 6246SOL     OW19636   6.731   0.086   3.949
 6246SOL    HW119637   6.739   0.179   3.985
 6246SOL    HW219638   6.823   0.049   3.935
 6247SOL     OW19639   6.724   6.427   3.792
 6247SOL    HW119640   6.652   6.359   3.805
 6247SOL    HW219641   6.684   6.519   3.797
 6248SOL     OW19642   3.786   2.649   5.623
 6248SOL    HW119643   3.797   2.733   5.569
 6248SOL    HW219644   3.689   2.636   5.644
 6249SOL     OW19645   5.960   2.858   1.760
 6249SOL    HW119646   5.924   2.769   1.730
 6249SOL    HW219647   6.016   2.898   1.687
 6250SOL     OW19648   6.303   0.846   6.832
 6250SOL    HW119649   6.243   0.891   6.766
 6250SOL    HW219650   6.284   0.748   6.833
 6251SOL     OW19651   2.868   0.019   3.885
 6251SOL    HW119652   2.907   0.070   3.961
 6251SOL    HW219653   2.909   0.049   3.799
 6252SOL     OW19654   2.917   5.793   6.486
 6252SOL    HW119655   2.952   5.851   6.560
 6252SOL    HW219656   2.904   5.848   6.404
 6253SOL     OW19657   3.666   5.559   4.646
 6253SOL    HW119658   3.592   5.572   4.579
 6253SOL    HW219659   3.721   5.642   4.652
 6254SOL     OW19660   0.155   0.023   1.155
 6254SOL    HW119661   0.076   0.083   1.157
 6254SOL    HW219662   0.142   6.966   1.220
 6255SOL     OW19663   0.762   1.516   1.695
 6255SOL    HW119664   0.798   1.499   1.787
 6255SOL    HW219665   0.721   1.432   1.658
 6256SOL     OW19666   5.390   6.407   2.407
 6256SOL    HW119667   5.398   6.472   2.482
 6256SOL    HW219668   5.408   6.454   2.320
 6257SOL     OW19669   3.011   4.008   1.221
 6257SOL    HW119670   3.018   4.106   1.243
 6257SOL    HW219671   3.103   3.971   1.204
 6258SOL     OW19672   4.114   5.141   5.020
 6258SOL    HW119673   4.103   5.049   4.982
 6258SOL    HW219674   4.094   5.209   4.949
 6259SOL     OW19675   3.355   0.427   4.560
 6259SOL    HW119676   3.339   0.526   4.558
 6259SOL    HW219677   3.390   0.396   4.472
 6260SOL     OW19678   1.428   1.252   7.016
 6260SOL    HW119679   1.385   1.230   0.085
 6260SOL    HW219680   1.456   1.348   7.015
 6261SOL     OW19681   3.762   0.039   1.167
 6261SOL    HW119682   3.696   0.064   1.097
 6261SOL    HW219683   3.732   6.974   1.214
 6262SOL     OW19684   5.548   0.470   2.105
 6262SOL    HW119685   5.497   0.391   2.138
 6262SOL    HW219686   5.513   0.498   2.016
 6263SOL     OW19687   5.779   6.154   5.813
 6263SOL    HW119688   5.741   6.077   5.762
 6263SOL    HW219689   5.871   6.131   5.845
 6264SOL     OW19690   2.261   6.738   6.990
 6264SOL    HW119691   2.259   6.836   6.967
 6264SOL    HW219692   2.223   6.685   6.914
 6265SOL     OW19693   5.035   0.089   6.476
 6265SOL    HW119694   5.013   0.097   6.379
 6265SOL    HW219695   4.990   0.162   6.527
 6266SOL     OW19696   2.864   5.245   3.146
 6266SOL    HW119697   2.778   5.279   3.109
 6266SOL    HW219698   2.873   5.274   3.242
 6267SOL     OW19699   2.596   6.434   4.718
 6267SOL    HW119700   2.660   6.460   4.645
 6267SOL    HW219701   2.509   6.482   4.704
 6268SOL     OW19702   3.489   1.517   1.122
 6268SOL    HW119703   3.496   1.600   1.068
 6268SOL    HW219704   3.551   1.523   1.201
 6269SOL     OW19705   6.364   4.920   6.923
 6269SOL    HW119706   6.269   4.888   6.932
 6269SOL    HW219707   6.367   4.998   6.860
 6270SOL     OW19708   1.947   5.627   0.649
 6270SOL    HW119709   1.893   5.558   0.697
 6270SOL    HW219710   1.892   5.671   0.579
 6271SOL     OW19711   6.550   3.450   5.689
 6271SOL    HW119712   6.476   3.390   5.659
 6271SOL    HW219713   6.570   3.433   5.786
 6272SOL     OW19714   6.857   0.116   0.213
 6272SOL    HW119715   6.808   0.202   0.225
 6272SOL    HW219716   6.792   0.042   0.193
 6273SOL     OW19717   0.972   6.469   1.234
 6273SOL    HW119718   0.881   6.490   1.270
 6273SOL    HW219719   1.038   6.463   1.309
 6274SOL     OW19720   3.394   5.379   3.591
 6274SOL    HW119721   3.304   5.420   3.577
 6274SOL    HW219722   3.403   5.296   3.537
 6275SOL     OW19723   2.521   5.781   6.912
 6275SOL    HW119724   2.434   5.736   6.892
 6275SOL    HW219725   2.585   5.764   6.838
 6276SOL     OW19726   1.984   5.017   3.052
 6276SOL    HW119727   1.932   5.099   3.028
 6276SOL    HW219728   1.976   4.950   2.978
 6277SOL     OW19729   5.527   3.073   1.109
 6277SOL    HW119730   5.442   3.047   1.063
 6277SOL    HW219731   5.568   2.993   1.153
 6278SOL     OW19732   2.840   1.624   6.992
 6278SOL    HW119733   2.908   1.642   6.921
 6278SOL    HW219734   2.748   1.639   6.955
 6279SOL     OW19735   3.229   6.721   2.126
 6279SOL    HW119736   3.323   6.695   2.146
 6279SOL    HW219737   3.192   6.661   2.055
 6280SOL     OW19738   5.653   2.822   6.566
 6280SOL    HW119739   5.733   2.782   6.611
 6280SOL    HW219740   5.681   2.904   6.517
 6281SOL     OW19741   5.496   3.952   6.037
 6281SOL    HW119742   5.558   3.918   5.966
 6281SOL    HW219743   5.479   3.879   6.104
 6282SOL     OW19744   0.161   3.255   6.337
 6282SOL    HW119745   0.122   3.163   6.340
 6282SOL    HW219746   0.248   3.253   6.288
 6283SOL     OW19747   1.656   6.270   4.910
 6283SOL    HW119748   1.571   6.232   4.876
 6283SOL    HW219749   1.673   6.237   5.003
 6284SOL     OW19750   1.485   3.954   5.164
 6284SOL    HW119751   1.488   3.967   5.065
 6284SOL    HW219752   1.435   4.030   5.206
 6285SOL     OW19753   1.091   3.389   3.219
 6285SOL    HW119754   1.156   3.370   3.146
 6285SOL    HW219755   1.004   3.345   3.199
 6286SOL     OW19756   0.423   2.322   0.078
 6286SOL    HW119757   0.510   2.279   0.102
 6286SOL    HW219758   0.396   2.295   7.004
 6287SOL     OW19759   4.805   4.953   4.987
 6287SOL    HW119760   4.856   5.031   4.952
 6287SOL    HW219761   4.826   4.938   5.083
 6288SOL     OW19762   3.228   4.006   6.759
 6288SOL    HW119763   3.307   3.963   6.714
 6288SOL    HW219764   3.145   3.954   6.737
 6289SOL     OW19765   2.468   4.472   5.898
 6289SOL    HW119766   2.413   4.549   5.929
 6289SOL    HW219767   2.408   4.403   5.856
 6290SOL     OW19768   6.251   5.971   4.498
 6290SOL    HW119769   6.261   5.875   4.524
 6290SOL    HW219770   6.284   5.984   4.405
 6291SOL     OW19771   4.042   3.146   2.908
 6291SOL    HW119772   4.071   3.236   2.940
 6291SOL    HW219773   4.052   3.141   2.808
 6292SOL     OW19774   2.126   3.610   4.417
 6292SOL    HW119775   2.049   3.645   4.364
 6292SOL    HW219776   2.210   3.618   4.364
 6293SOL     OW19777   3.198   1.130   6.608
 6293SOL    HW119778   3.251   1.122   6.523
 6293SOL    HW219779   3.129   1.057   6.611
 6294SOL     OW19780   1.538   1.310   2.643
 6294SOL    HW119781   1.593   1.378   2.594
 6294SOL    HW219782   1.533   1.335   2.740
 6295SOL     OW19783   4.813   3.601   6.462
 6295SOL    HW119784   4.787   3.526   6.524
 6295SOL    HW219785   4.813   3.568   6.368
 6296SOL     OW19786   1.052   3.286   0.351
 6296SOL    HW119787   1.013   3.266   0.261
 6296SOL    HW219788   1.142   3.328   0.339
 6297SOL     OW19789   5.677   1.660   4.587
 6297SOL    HW119790   5.598   1.722   4.577
 6297SOL    HW219791   5.670   1.587   4.520
 6298SOL     OW19792   6.574   6.250   1.132
 6298SOL    HW119793   6.539   6.247   1.039
 6298SOL    HW219794   6.512   6.302   1.190
 6299SOL     OW19795   3.935   1.213   3.488
 6299SOL    HW119796   3.908   1.269   3.409
 6299SOL    HW219797   3.944   1.271   3.569
 6300SOL     OW19798   2.729   1.097   6.718
 6300SOL    HW119799   2.756   1.174   6.776
 6300SOL    HW219800   2.648   1.122   6.665
 6301SOL     OW19801   4.103   6.324   0.188
 6301SOL    HW119802   4.159   6.350   0.110
 6301SOL    HW219803   4.109   6.225   0.201
 6302SOL     OW19804   3.522   2.705   6.380
 6302SOL    HW119805   3.505   2.763   6.460
 6302SOL    HW219806   3.436   2.669   6.345
 6303SOL     OW19807   0.408   5.798   4.750
 6303SOL    HW119808   0.334   5.859   4.780
 6303SOL    HW219809   0.442   5.747   4.829
 6304SOL     OW19810   3.868   0.613   4.815
 6304SOL    HW119811   3.906   0.610   4.907
 6304SOL    HW219812   3.913   0.543   4.758
 6305SOL     OW19813   0.798   5.946   6.495
 6305SOL    HW119814   0.877   5.898   6.457
 6305SOL    HW219815   0.715   5.917   6.447
 6306SOL     OW19816   0.455   5.333   4.271
 6306SOL    HW119817   0.391   5.370   4.338
 6306SOL    HW219818   0.485   5.406   4.209
 6307SOL     OW19819   3.905   2.985   1.871
 6307SOL    HW119820   3.809   2.969   1.850
 6307SOL    HW219821   3.913   3.026   1.962
 6308SOL     OW19822   0.314   2.288   0.676
 6308SOL    HW119823   0.319   2.339   0.762
 6308SOL    HW219824   0.223   2.300   0.636
 6309SOL     OW19825   2.572   6.228   4.888
 6309SOL    HW119826   2.635   6.233   4.965
 6309SOL    HW219827   2.594   6.300   4.822
 6310SOL     OW19828   1.277   0.276   3.118
 6310SOL    HW119829   1.336   0.344   3.074
 6310SOL    HW219830   1.290   0.187   3.074
 6311SOL     OW19831   5.764   0.635   6.545
 6311SOL    HW119832   5.698   0.597   6.610
 6311SOL    HW219833   5.835   0.568   6.527
 6312SOL     OW19834   3.174   6.070   6.842
 6312SOL    HW119835   3.274   6.080   6.840
 6312SOL    HW219836   3.141   6.084   6.935
 6313SOL     OW19837   6.177   5.188   4.674
 6313SOL    HW119838   6.258   5.163   4.728
 6313SOL    HW219839   6.182   5.144   4.584
 6314SOL     OW19840   2.305   6.440   2.761
 6314SOL    HW119841   2.296   6.346   2.727
 6314SOL    HW219842   2.214   6.474   2.787
 6315SOL     OW19843   2.323   2.174   3.805
 6315SOL    HW119844   2.257   2.219   3.864
 6315SOL    HW219845   2.275   2.123   3.733
 6316SOL     OW19846   4.670   0.950   4.701
 6316SOL    HW119847   4.575   0.974   4.686
 6316SOL    HW219848   4.691   0.954   4.799
 6317SOL     OW19849   5.320   5.260   1.981
 6317SOL    HW119850   5.259   5.328   1.939
 6317SOL    HW219851   5.272   5.216   2.057
 6318SOL     OW19852   6.800   6.662   0.219
 6318SOL    HW119853   6.725   6.596   0.226
 6318SOL    HW219854   6.881   6.617   0.180
 6319SOL     OW19855   5.161   1.601   3.980
 6319SOL    HW119856   5.144   1.682   4.036
 6319SOL    HW219857   5.116   1.522   4.022
 6320SOL     OW19858   6.221   1.202   5.761
 6320SOL    HW119859   6.301   1.146   5.780
 6320SOL    HW219860   6.184   1.238   5.847
 6321SOL     OW19861   6.526   2.530   6.843
 6321SOL    HW119862   6.495   2.479   6.923
 6321SOL    HW219863   6.611   2.578   6.864
 6322SOL     OW19864   0.889   1.190   2.217
 6322SOL    HW119865   0.904   1.128   2.140
 6322SOL    HW219866   0.791   1.197   2.235
 6323SOL     OW19867   2.173   4.881   1.503
 6323SOL    HW119868   2.187   4.825   1.421
 6323SOL    HW219869   2.121   4.963   1.478
 6324SOL     OW19870   4.352   2.583   1.183
 6324SOL    HW119871   4.256   2.610   1.192
 6324SOL    HW219872   4.411   2.661   1.206
 6325SOL     OW19873   1.675   2.613   4.131
 6325SOL    HW119874   1.673   2.616   4.231
 6325SOL    HW219875   1.755   2.662   4.097
 6326SOL     OW19876   5.379   4.730   5.695
 6326SOL    HW119877   5.412   4.652   5.641
 6326SOL    HW219878   5.365   4.808   5.635
 6327SOL     OW19879   0.204   0.979   3.463
 6327SOL    HW119880   0.183   0.881   3.467
 6327SOL    HW219881   0.184   1.014   3.372
 6328SOL     OW19882   4.441   3.714   5.320
 6328SOL    HW119883   4.522   3.679   5.273
 6328SOL    HW219884   4.364   3.717   5.257
 6329SOL     OW19885   0.737   2.059   5.546
 6329SOL    HW119886   0.736   2.154   5.515
 6329SOL    HW219887   0.824   2.039   5.589
 6330SOL     OW19888   5.379   1.400   3.547
 6330SOL    HW119889   5.350   1.474   3.487
 6330SOL    HW219890   5.355   1.422   3.642
 6331SOL     OW19891   0.686   2.725   3.256
 6331SOL    HW119892   0.599   2.688   3.287
 6331SOL    HW219893   0.723   2.668   3.183
 6332SOL     OW19894   3.248   1.730   6.451
 6332SOL    HW119895   3.252   1.769   6.543
 6332SOL    HW219896   3.301   1.646   6.448
 6333SOL     OW19897   5.548   1.332   1.075
 6333SOL    HW119898   5.628   1.373   1.031
 6333SOL    HW219899   5.551   1.233   1.063
 6334SOL     OW19900   1.569   1.496   1.962
 6334SOL    HW119901   1.603   1.402   1.968
 6334SOL    HW219902   1.470   1.495   1.948
 6335SOL     OW19903   6.417   2.440   6.617
 6335SOL    HW119904   6.344   2.372   6.623
 6335SOL    HW219905   6.443   2.471   6.709
 6336SOL     OW19906   0.860   3.909   5.136
 6336SOL    HW119907   0.930   3.965   5.092
 6336SOL    HW219908   0.873   3.813   5.111
 6337SOL     OW19909   5.527   6.432   4.800
 6337SOL    HW119910   5.539   6.337   4.773
 6337SOL    HW219911   5.462   6.477   4.738
 6338SOL     OW19912   1.357   1.046   3.001
 6338SOL    HW119913   1.372   1.085   3.093
 6338SOL    HW219914   1.425   0.975   2.985
 6339SOL     OW19915   0.357   4.439   3.829
 6339SOL    HW119916   0.442   4.488   3.845
 6339SOL    HW219917   0.282   4.486   3.875
 6340SOL     OW19918   2.839   4.159   0.501
 6340SOL    HW119919   2.824   4.246   0.453
 6340SOL    HW219920   2.810   4.168   0.596
 6341SOL     OW19921   0.741   4.864   2.528
 6341SOL    HW119922   0.681   4.887   2.452
 6341SOL    HW219923   0.834   4.851   2.495
 6342SOL     OW19924   1.731   0.921   1.432
 6342SOL    HW119925   1.761   1.014   1.413
 6342SOL    HW219926   1.643   0.922   1.479
 6343SOL     OW19927   0.814   5.328   0.469
 6343SOL    HW119928   0.732   5.369   0.509
 6343SOL    HW219929   0.814   5.229   0.486
 6344SOL     OW19930   0.407   1.447   3.880
 6344SOL    HW119931   0.449   1.357   3.891
 6344SOL    HW219932   0.337   1.442   3.809
 6345SOL     OW19933   6.366   2.724   1.682
 6345SOL    HW119934   6.382   2.701   1.586
 6345SOL    HW219935   6.281   2.682   1.713
 6346SOL     OW19936   0.335   4.237   5.961
 6346SOL    HW119937   0.420   4.185   5.960
 6346SOL    HW219938   0.293   4.235   5.871
 6347SOL     OW19939   2.131   2.015   2.788
 6347SOL    HW119940   2.223   1.981   2.808
 6347SOL    HW219941   2.100   1.979   2.700
 6348SOL     OW19942   0.473   2.062   5.901
 6348SOL    HW119943   0.535   2.140   5.895
 6348SOL    HW219944   0.481   2.020   5.992
 6349SOL     OW19945   6.837   1.246   0.398
 6349SOL    HW119946   6.911   1.217   0.459
 6349SOL    HW219947   6.821   1.344   0.410
 6350SOL     OW19948   0.806   6.323   1.854
 6350SOL    HW119949   0.728   6.352   1.909
 6350SOL    HW219950   0.863   6.261   1.908
 6351SOL     OW19951   5.381   3.576   1.734
 6351SOL    HW119952   5.369   3.661   1.786
 6351SOL    HW219953   5.354   3.592   1.639
 6352SOL     OW19954   3.303   0.699   4.506
 6352SOL    HW119955   3.326   0.761   4.431
 6352SOL    HW219956   3.207   0.711   4.531
 6353SOL     OW19957   3.770   6.725   5.713
 6353SOL    HW119958   3.869   6.735   5.711
 6353SOL    HW219959   3.731   6.792   5.776
 6354SOL     OW19960   4.721   5.552   1.369
 6354SOL    HW119961   4.720   5.585   1.463
 6354SOL    HW219962   4.798   5.592   1.320
 6355SOL     OW19963   3.085   5.084   0.365
 6355SOL    HW119964   3.085   5.164   0.424
 6355SOL    HW219965   3.155   5.020   0.396
 6356SOL     OW19966   6.840   5.505   6.160
 6356SOL    HW119967   6.887   5.476   6.244
 6356SOL    HW219968   6.824   5.425   6.102
 6357SOL     OW19969   5.445   1.273   1.817
 6357SOL    HW119970   5.538   1.295   1.788
 6357SOL    HW219971   5.447   1.234   1.909
 6358SOL     OW19972   1.357   1.959   5.626
 6358SOL    HW119973   1.437   1.961   5.567
 6358SOL    HW219974   1.279   2.000   5.577
 6359SOL     OW19975   5.478   6.284   0.515
 6359SOL    HW119976   5.558   6.295   0.457
 6359SOL    HW219977   5.467   6.188   0.539
 6360SOL     OW19978   0.509   1.800   2.115
 6360SOL    HW119979   0.413   1.826   2.115
 6360SOL    HW219980   0.529   1.743   2.035
 6361SOL     OW19981   0.297   0.940   0.281
 6361SOL    HW119982   0.378   0.996   0.265
 6361SOL    HW219983   0.307   0.889   0.366
 6362SOL     OW19984   0.882   5.495   0.751
 6362SOL    HW119985   0.926   5.406   0.738
 6362SOL    HW219986   0.847   5.528   0.664
 6363SOL     OW19987   2.032   3.917   2.777
 6363SOL    HW119988   2.073   3.850   2.838
 6363SOL    HW219989   2.038   4.008   2.818
 6364SOL     OW19990   2.404   2.583   4.161
 6364SOL    HW119991   2.339   2.508   4.169
 6364SOL    HW219992   2.441   2.605   4.251
 6365SOL     OW19993   5.552   6.720   3.219
 6365SOL    HW119994   5.575   6.789   3.287
 6365SOL    HW219995   5.501   6.645   3.262
 6366SOL     OW19996   5.776   0.889   5.132
 6366SOL    HW119997   5.817   0.841   5.210
 6366SOL    HW219998   5.711   0.828   5.086
 6367SOL     OW19999   1.321   2.197   2.440
 6367SOL    HW120000   1.293   2.282   2.396
 6367SOL    HW220001   1.279   2.189   2.530
 6368SOL     OW20002   5.164   3.539   4.841
 6368SOL    HW120003   5.143   3.486   4.758
 6368SOL    HW220004   5.088   3.601   4.860
 6369SOL     OW20005   4.372   5.406   0.324
 6369SOL    HW120006   4.340   5.422   0.231
 6369SOL    HW220007   4.422   5.486   0.357
 6370SOL     OW20008   5.230   4.037   4.361
 6370SOL    HW120009   5.133   4.019   4.380
 6370SOL    HW220010   5.280   4.042   4.448
 6371SOL     OW20011   5.351   4.456   1.625
 6371SOL    HW120012   5.382   4.406   1.544
 6371SOL    HW220013   5.419   4.526   1.649
 6372SOL     OW20014   6.653   1.643   2.231
 6372SOL    HW120015   6.684   1.669   2.322
 6372SOL    HW220016   6.654   1.544   2.222
 6373SOL     OW20017   5.032   4.261   1.635
 6373SOL    HW120018   4.991   4.180   1.593
 6373SOL    HW220019   5.020   4.340   1.574
 6374SOL     OW20020   4.262   3.722   6.876
 6374SOL    HW120021   4.206   3.650   6.917
 6374SOL    HW220022   4.217   3.757   6.794
 6375SOL     OW20023   4.709   1.515   2.034
 6375SOL    HW120024   4.649   1.490   2.110
 6375SOL    HW220025   4.657   1.510   1.948
 6376SOL     OW20026   3.371   0.737   0.206
 6376SOL    HW120027   3.416   0.659   0.248
 6376SOL    HW220028   3.434   0.814   0.200
 6377SOL     OW20029   0.638   0.404   1.038
 6377SOL    HW120030   0.574   0.330   1.060
 6377SOL    HW220031   0.695   0.424   1.117
 6378SOL     OW20032   5.036   4.712   1.794
 6378SOL    HW120033   5.046   4.621   1.836
 6378SOL    HW220034   5.036   4.703   1.695
 6379SOL     OW20035   1.879   5.254   6.680
 6379SOL    HW120036   1.869   5.326   6.748
 6379SOL    HW220037   1.939   5.286   6.606
 6380SOL     OW20038   1.309   4.166   4.975
 6380SOL    HW120039   1.260   4.171   4.888
 6380SOL    HW220040   1.317   4.258   5.014
 6381SOL     OW20041   4.341   2.629   0.674
 6381SOL    HW120042   4.267   2.673   0.623
 6381SOL    HW220043   4.339   2.658   0.770
 6382SOL     OW20044   1.267   1.330   0.520
 6382SOL    HW120045   1.314   1.290   0.441
 6382SOL    HW220046   1.171   1.301   0.519
 6383SOL     OW20047   2.506   2.251   1.879
 6383SOL    HW120048   2.516   2.162   1.835
 6383SOL    HW220049   2.453   2.241   1.963
 6384SOL     OW20050   6.689   2.641   2.122
 6384SOL    HW120051   6.666   2.693   2.041
 6384SOL    HW220052   6.643   2.552   2.120
 6385SOL     OW20053   0.386   3.408   0.455
 6385SOL    HW120054   0.475   3.443   0.426
 6385SOL    HW220055   0.350   3.346   0.385
 6386SOL     OW20056   2.602   3.210   0.092
 6386SOL    HW120057   2.618   3.283   0.025
 6386SOL    HW220058   2.535   3.146   0.056
 6387SOL     OW20059   0.172   0.084   0.087
 6387SOL    HW120060   0.114   0.018   0.135
 6387SOL    HW220061   0.156   0.176   0.124
 6388SOL     OW20062   5.877   5.542   2.141
 6388SOL    HW120063   5.890   5.584   2.230
 6388SOL    HW220064   5.966   5.527   2.097
 6389SOL     OW20065   0.022   0.488   0.511
 6389SOL    HW120066   0.089   0.533   0.452
 6389SOL    HW220067   0.011   0.393   0.483
 6390SOL     OW20068   5.322   0.391   6.756
 6390SOL    HW120069   5.307   0.459   6.685
 6390SOL    HW220070   5.326   0.436   6.845
 6391SOL     OW20071   1.097   2.019   4.769
 6391SOL    HW120072   0.997   2.019   4.780
 6391SOL    HW220073   1.140   2.043   4.856
 6392SOL     OW20074   3.786   6.611   3.497
 6392SOL    HW120075   3.830   6.639   3.582
 6392SOL    HW220076   3.831   6.655   3.419
 6393SOL     OW20077   0.866   5.456   0.073
 6393SOL    HW120078   0.792   5.521   0.085
 6393SOL    HW220079   0.846   5.372   0.125
 6394SOL     OW20080   1.487   5.660   2.136
 6394SOL    HW120081   1.454   5.752   2.157
 6394SOL    HW220082   1.575   5.665   2.088
 6395SOL     OW20083   2.036   3.425   3.521
 6395SOL    HW120084   2.097   3.390   3.449
 6395SOL    HW220085   2.066   3.390   3.610
 6396SOL     OW20086   1.352   2.907   5.869
 6396SOL    HW120087   1.255   2.929   5.866
 6396SOL    HW220088   1.400   2.972   5.927
 6397SOL     OW20089   5.841   3.714   4.576
 6397SOL    HW120090   5.917   3.775   4.598
 6397SOL    HW220091   5.840   3.638   4.641
 6398SOL     OW20092   2.097   6.956   1.721
 6398SOL    HW120093   2.190   6.991   1.719
 6398SOL    HW220094   2.037   0.004   1.766
 6399SOL     OW20095   3.322   0.674   6.441
 6399SOL    HW120096   3.367   0.585   6.454
 6399SOL    HW220097   3.310   0.719   6.530
 6400SOL     OW20098   1.247   6.043   3.267
 6400SOL    HW120099   1.220   6.078   3.177
 6400SOL    HW220100   1.283   6.119   3.322
 6401SOL     OW20101   3.832   5.290   3.258
 6401SOL    HW120102   3.809   5.198   3.290
 6401SOL    HW220103   3.835   5.353   3.335
 6402SOL     OW20104   2.272   4.840   5.277
 6402SOL    HW120105   2.264   4.912   5.346
 6402SOL    HW220106   2.369   4.827   5.255
 6403SOL     OW20107   4.996   5.148   4.851
 6403SOL    HW120108   5.039   5.216   4.910
 6403SOL    HW220109   5.060   5.072   4.836
 6404SOL     OW20110   4.369   6.819   1.681
 6404SOL    HW120111   4.395   6.840   1.775
 6404SOL    HW220112   4.301   6.746   1.681
 6405SOL     OW20113   5.324   1.488   3.048
 6405SOL    HW120114   5.233   1.453   3.071
 6405SOL    HW220115   5.392   1.446   3.108
 6406SOL     OW20116   0.184   3.369   3.396
 6406SOL    HW120117   0.094   3.383   3.356
 6406SOL    HW220118   0.208   3.449   3.451
 6407SOL     OW20119   0.577   6.377   2.621
 6407SOL    HW120120   0.563   6.359   2.524
 6407SOL    HW220121   0.497   6.425   2.657
 6408SOL     OW20122   6.560   0.279   1.892
 6408SOL    HW120123   6.619   0.298   1.813
 6408SOL    HW220124   6.465   0.299   1.867
 6409SOL     OW20125   5.025   5.217   3.818
 6409SOL    HW120126   4.984   5.306   3.798
 6409SOL    HW220127   4.989   5.182   3.904
 6410SOL     OW20128   1.844   1.635   6.791
 6410SOL    HW120129   1.833   1.683   6.704
 6410SOL    HW220130   1.826   1.699   6.866
 6411SOL     OW20131   0.729   2.724   1.869
 6411SOL    HW120132   0.695   2.636   1.834
 6411SOL    HW220133   0.745   2.716   1.967
 6412SOL     OW20134   2.963   1.218   0.426
 6412SOL    HW120135   2.896   1.173   0.367
 6412SOL    HW220136   2.918   1.291   0.478
 6413SOL     OW20137   5.035   6.165   2.956
 6413SOL    HW120138   5.102   6.163   3.031
 6413SOL    HW220139   5.080   6.198   2.873
 6414SOL     OW20140   1.976   0.128   0.709
 6414SOL    HW120141   2.026   0.205   0.670
 6414SOL    HW220142   1.975   0.052   0.644
 6415SOL     OW20143   0.250   2.636   3.864
 6415SOL    HW120144   0.304   2.656   3.945
 6415SOL    HW220145   0.226   2.539   3.862
 6416SOL     OW20146   2.609   6.098   0.153
 6416SOL    HW120147   2.515   6.066   0.145
 6416SOL    HW220148   2.667   6.050   0.087
 6417SOL     OW20149   4.533   2.621   6.334
 6417SOL    HW120150   4.577   2.662   6.414
 6417SOL    HW220151   4.487   2.692   6.281
 6418SOL     OW20152   4.984   4.262   0.387
 6418SOL    HW120153   4.941   4.174   0.406
 6418SOL    HW220154   5.048   4.253   0.311
 6419SOL     OW20155   0.675   6.104   6.073
 6419SOL    HW120156   0.718   6.194   6.071
 6419SOL    HW220157   0.640   6.087   6.165
 6420SOL     OW20158   2.162   4.417   4.424
 6420SOL    HW120159   2.148   4.473   4.342
 6420SOL    HW220160   2.260   4.403   4.437
 6421SOL     OW20161   3.953   0.675   1.973
 6421SOL    HW120162   3.990   0.746   2.032
 6421SOL    HW220163   3.926   0.715   1.885
 6422SOL     OW20164   5.769   2.188   4.673
 6422SOL    HW120165   5.790   2.156   4.580
 6422SOL    HW220166   5.854   2.213   4.719
 6423SOL     OW20167   1.744   4.744   4.377
 6423SOL    HW120168   1.710   4.690   4.455
 6423SOL    HW220169   1.673   4.808   4.348
 6424SOL     OW20170   6.673   4.793   5.261
 6424SOL    HW120171   6.598   4.854   5.236
 6424SOL    HW220172   6.719   4.828   5.342
 6425SOL     OW20173   6.965   5.754   3.928
 6425SOL    HW120174   0.013   5.691   3.887
 6425SOL    HW220175   6.992   5.774   4.022
 6426SOL     OW20176   5.146   4.043   4.837
 6426SOL    HW120177   5.066   4.020   4.782
 6426SOL    HW220178   5.223   3.986   4.809
 6427SOL     OW20179   4.099   3.393   3.025
 6427SOL    HW120180   4.119   3.331   3.101
 6427SOL    HW220181   4.010   3.437   3.041
 6428SOL     OW20182   5.887   2.776   0.225
 6428SOL    HW120183   5.902   2.853   0.287
 6428SOL    HW220184   5.883   2.691   0.277
 6429SOL     OW20185   2.073   1.215   5.722
 6429SOL    HW120186   2.043   1.120   5.728
 6429SOL    HW220187   2.173   1.219   5.720
 6430SOL     OW20188   6.205   0.005   5.231
 6430SOL    HW120189   6.221   0.101   5.206
 6430SOL    HW220190   6.129   7.018   5.296
 6431SOL     OW20191   3.832   4.898   1.825
 6431SOL    HW120192   3.768   4.821   1.831
 6431SOL    HW220193   3.783   4.979   1.794
 6432SOL     OW20194   4.971   4.427   6.187
 6432SOL    HW120195   5.002   4.517   6.158
 6432SOL    HW220196   4.872   4.425   6.193
 6433SOL     OW20197   3.267   4.324   6.132
 6433SOL    HW120198   3.304   4.365   6.049
 6433SOL    HW220199   3.169   4.346   6.139
 6434SOL     OW20200   4.901   5.492   6.348
 6434SOL    HW120201   4.937   5.454   6.263
 6434SOL    HW220202   4.822   5.550   6.326
 6435SOL     OW20203   4.790   2.445   1.194
 6435SOL    HW120204   4.844   2.365   1.166
 6435SOL    HW220205   4.702   2.416   1.230
 6436SOL     OW20206   6.268   3.312   3.817
 6436SOL    HW120207   6.302   3.351   3.732
 6436SOL    HW220208   6.325   3.234   3.843
 6437SOL     OW20209   1.520   2.204   5.533
 6437SOL    HW120210   1.422   2.192   5.549
 6437SOL    HW220211   1.562   2.242   5.615
 6438SOL     OW20212   0.433   4.840   0.056
 6438SOL    HW120213   0.356   4.781   0.031
 6438SOL    HW220214   0.473   4.808   0.142
 6439SOL     OW20215   4.981   6.914   3.306
 6439SOL    HW120216   4.966   6.892   3.209
 6439SOL    HW220217   4.957   6.835   3.362
 6440SOL     OW20218   2.834   1.963   6.241
 6440SOL    HW120219   2.826   1.985   6.144
 6440SOL    HW220220   2.920   1.998   6.277
 6441SOL     OW20221   0.077   1.639   2.285
 6441SOL    HW120222   0.053   1.723   2.335
 6441SOL    HW220223   0.056   1.650   2.189
 6442SOL     OW20224   2.961   2.217   4.761
 6442SOL    HW120225   2.996   2.243   4.851
 6442SOL    HW220226   2.861   2.219   4.763
 6443SOL     OW20227   4.308   3.350   6.649
 6443SOL    HW120228   4.254   3.415   6.596
 6443SOL    HW220229   4.363   3.399   6.717
 6444SOL     OW20230   6.334   3.789   4.851
 6444SOL    HW120231   6.240   3.785   4.886
 6444SOL    HW220232   6.391   3.841   4.914
 6445SOL     OW20233   3.072   3.223   3.529
 6445SOL    HW120234   3.161   3.267   3.529
 6445SOL    HW220235   3.042   3.208   3.624
 6446SOL     OW20236   1.325   1.419   6.405
 6446SOL    HW120237   1.227   1.407   6.424
 6446SOL    HW220238   1.354   1.508   6.438
 6447SOL     OW20239   6.032   3.180   2.213
 6447SOL    HW120240   6.055   3.265   2.261
 6447SOL    HW220241   6.074   3.102   2.261
 6448SOL     OW20242   3.346   5.016   1.631
 6448SOL    HW120243   3.446   5.022   1.634
 6448SOL    HW220244   3.319   4.950   1.562
 6449SOL     OW20245   2.718   5.041   0.640
 6449SOL    HW120246   2.652   5.116   0.641
 6449SOL    HW220247   2.809   5.075   0.666
 6450SOL     OW20248   0.238   4.418   0.120
 6450SOL    HW120249   0.142   4.392   0.136
 6450SOL    HW220250   0.278   4.358   0.051
 6451SOL     OW20251   4.274   2.852   1.353
 6451SOL    HW120252   4.210   2.776   1.351
 6451SOL    HW220253   4.236   2.929   1.302
 6452SOL     OW20254   4.196   1.802   3.902
 6452SOL    HW120255   4.230   1.880   3.850
 6452SOL    HW220256   4.128   1.752   3.848
 6453SOL     OW20257   2.278   0.710   2.073
 6453SOL    HW120258   2.263   0.691   2.170
 6453SOL    HW220259   2.336   0.792   2.064
 6454SOL     OW20260   5.017   2.512   3.777
 6454SOL    HW120261   4.977   2.495   3.687
 6454SOL    HW220262   5.094   2.574   3.769
 6455SOL     OW20263   6.238   2.955   3.841
 6455SOL    HW120264   6.219   2.977   3.746
 6455SOL    HW220265   6.312   3.014   3.874
 6456SOL     OW20266   6.040   0.950   2.480
 6456SOL    HW120267   6.040   0.860   2.523
 6456SOL    HW220268   6.134   0.979   2.462
 6457SOL     OW20269   3.759   0.101   2.405
 6457SOL    HW120270   3.724   0.175   2.462
 6457SOL    HW220271   3.683   0.051   2.363
 6458SOL     OW20272   6.863   5.440   3.932
 6458SOL    HW120273   6.814   5.507   3.987
 6458SOL    HW220274   6.950   5.478   3.902
 6459SOL     OW20275   0.271   3.269   3.156
 6459SOL    HW120276   0.274   3.170   3.173
 6459SOL    HW220277   0.238   3.316   3.238
 6460SOL     OW20278   0.386   5.512   6.839
 6460SOL    HW120279   0.383   5.419   6.802
 6460SOL    HW220280   0.404   5.507   6.937
 6461SOL     OW20281   1.449   6.049   1.140
 6461SOL    HW120282   1.516   6.116   1.170
 6461SOL    HW220283   1.416   5.997   1.219
 6462SOL     OW20284   2.060   4.291   5.149
 6462SOL    HW120285   1.970   4.335   5.152
 6462SOL    HW220286   2.049   4.194   5.130
 6463SOL     OW20287   4.594   2.242   0.984
 6463SOL    HW120288   4.689   2.241   1.015
 6463SOL    HW220289   4.537   2.284   1.055
 6464SOL     OW20290   1.041   4.075   3.839
 6464SOL    HW120291   1.018   3.996   3.781
 6464SOL    HW220292   0.962   4.136   3.843
 6465SOL     OW20293   3.629   1.294   3.515
 6465SOL    HW120294   3.727   1.296   3.493
 6465SOL    HW220295   3.594   1.388   3.516
 6466SOL     OW20296   6.280   4.278   7.000
 6466SOL    HW120297   6.260   4.333   6.919
 6466SOL    HW220298   6.215   4.301   0.055
 6467SOL     OW20299   3.043   3.157   0.570
 6467SOL    HW120300   2.964   3.110   0.529
 6467SOL    HW220301   3.014   3.208   0.650
 6468SOL     OW20302   2.389   1.010   1.146
 6468SOL    HW120303   2.351   1.017   1.054
 6468SOL    HW220304   2.431   1.097   1.172
 6469SOL     OW20305   2.897   1.609   2.006
 6469SOL    HW120306   2.959   1.547   1.957
 6469SOL    HW220307   2.929   1.703   1.995
 6470SOL     OW20308   0.369   1.495   6.889
 6470SOL    HW120309   0.347   1.453   6.977
 6470SOL    HW220310   0.337   1.590   6.890
 6471SOL     OW20311   0.913   6.194   5.494
 6471SOL    HW120312   0.919   6.179   5.592
 6471SOL    HW220313   0.866   6.280   5.476
 6472SOL     OW20314   6.560   6.740   3.118
 6472SOL    HW120315   6.613   6.722   3.202
 6472SOL    HW220316   6.622   6.771   3.046
 6473SOL     OW20317   2.444   1.034   3.476
 6473SOL    HW120318   2.355   1.050   3.518
 6473SOL    HW220319   2.455   1.095   3.398
 6474SOL     OW20320   3.998   5.437   4.845
 6474SOL    HW120321   3.983   5.464   4.749
 6474SOL    HW220322   3.946   5.498   4.904
 6475SOL     OW20323   5.842   5.645   2.438
 6475SOL    HW120324   5.875   5.732   2.399
 6475SOL    HW220325   5.777   5.664   2.511
 6476SOL     OW20326   3.818   2.332   6.572
 6476SOL    HW120327   3.759   2.413   6.570
 6476SOL    HW220328   3.773   2.259   6.623
 6477SOL     OW20329   6.884   5.799   2.070
 6477SOL    HW120330   6.872   5.726   2.137
 6477SOL    HW220331   6.847   5.885   2.107
 6478SOL     OW20332   2.862   5.908   1.333
 6478SOL    HW120333   2.769   5.914   1.367
 6478SOL    HW220334   2.908   5.996   1.343
 6479SOL     OW20335   3.790   6.375   3.155
 6479SOL    HW120336   3.773   6.388   3.057
 6479SOL    HW220337   3.857   6.301   3.167
 6480SOL     OW20338   3.960   1.262   6.722
 6480SOL    HW120339   3.893   1.336   6.720
 6480SOL    HW220340   4.046   1.296   6.760
 6481SOL     OW20341   3.901   2.858   1.575
 6481SOL    HW120342   3.969   2.920   1.614
 6481SOL    HW220343   3.845   2.820   1.649
 6482SOL     OW20344   5.468   3.696   6.182
 6482SOL    HW120345   5.455   3.683   6.280
 6482SOL    HW220346   5.411   3.630   6.132
 6483SOL     OW20347   1.941   6.511   5.116
 6483SOL    HW120348   1.942   6.422   5.069
 6483SOL    HW220349   2.035   6.541   5.131
 6484SOL     OW20350   2.792   0.642   3.400
 6484SOL    HW120351   2.697   0.674   3.407
 6484SOL    HW220352   2.815   0.631   3.303
 6485SOL     OW20353   2.286   5.817   5.109
 6485SOL    HW120354   2.348   5.895   5.110
 6485SOL    HW220355   2.317   5.751   5.040
 6486SOL     OW20356   1.066   5.076   2.822
 6486SOL    HW120357   1.009   5.010   2.872
 6486SOL    HW220358   1.036   5.079   2.727
 6487SOL     OW20359   5.793   4.522   4.184
 6487SOL    HW120360   5.777   4.501   4.088
 6487SOL    HW220361   5.837   4.612   4.192
 6488SOL     OW20362   3.548   5.232   4.698
 6488SOL    HW120363   3.613   5.296   4.738
 6488SOL    HW220364   3.593   5.143   4.684
 6489SOL     OW20365   4.914   2.627   5.004
 6489SOL    HW120366   4.939   2.714   5.046
 6489SOL    HW220367   4.815   2.625   4.988
 6490SOL     OW20368   2.272   2.124   0.040
 6490SOL    HW120369   2.299   2.216   0.013
 6490SOL    HW220370   2.180   2.126   0.078
 6491SOL     OW20371   2.524   6.526   1.930
 6491SOL    HW120372   2.454   6.560   1.867
 6491SOL    HW220373   2.604   6.586   1.926
 6492SOL     OW20374   3.923   3.273   5.089
 6492SOL    HW120375   3.906   3.365   5.054
 6492SOL    HW220376   3.869   3.207   5.037
 6493SOL     OW20377   0.990   4.747   4.213
 6493SOL    HW120378   0.989   4.653   4.178
 6493SOL    HW220379   1.021   4.747   4.308
 6494SOL     OW20380   6.364   0.396   1.204
 6494SOL    HW120381   6.318   0.478   1.169
 6494SOL    HW220382   6.311   0.315   1.180
 6495SOL     OW20383   6.372   0.750   3.296
 6495SOL    HW120384   6.310   0.814   3.341
 6495SOL    HW220385   6.449   0.729   3.356
 6496SOL     OW20386   3.488   2.152   1.253
 6496SOL    HW120387   3.491   2.123   1.158
 6496SOL    HW220388   3.561   2.107   1.304
 6497SOL     OW20389   0.463   1.199   0.514
 6497SOL    HW120390   0.493   1.272   0.575
 6497SOL    HW220391   0.364   1.207   0.499
 6498SOL     OW20392   1.669   4.381   3.940
 6498SOL    HW120393   1.676   4.363   3.842
 6498SOL    HW220394   1.655   4.479   3.954
 6499SOL     OW20395   4.842   2.944   3.251
 6499SOL    HW120396   4.865   3.033   3.291
 6499SOL    HW220397   4.875   2.940   3.156
 6500SOL     OW20398   1.482   4.273   3.187
 6500SOL    HW120399   1.560   4.224   3.150
 6500SOL    HW220400   1.448   4.339   3.120
 6501SOL     OW20401   5.988   1.615   2.195
 6501SOL    HW120402   6.030   1.541   2.248
 6501SOL    HW220403   5.991   1.700   2.247
 6502SOL     OW20404   0.057   3.789   2.368
 6502SOL    HW120405   0.113   3.739   2.302
 6502SOL    HW220406   0.029   3.728   2.442
 6503SOL     OW20407   6.862   3.527   5.846
 6503SOL    HW120408   6.815   3.596   5.902
 6503SOL    HW220409   6.817   3.439   5.858
 6504SOL     OW20410   4.329   6.384   6.092
 6504SOL    HW120411   4.339   6.444   6.013
 6504SOL    HW220412   4.419   6.354   6.124
 6505SOL     OW20413   0.075   5.777   0.799
 6505SOL    HW120414   0.027   5.734   0.723
 6505SOL    HW220415   0.009   5.819   0.862
 6506SOL     OW20416   0.507   3.698   2.307
 6506SOL    HW120417   0.601   3.685   2.276
 6506SOL    HW220418   0.444   3.653   2.243
 6507SOL     OW20419   3.809   5.246   0.313
 6507SOL    HW120420   3.885   5.291   0.267
 6507SOL    HW220421   3.740   5.314   0.337
 6508SOL     OW20422   0.815   0.103   3.328
 6508SOL    HW120423   0.870   0.046   3.389
 6508SOL    HW220424   0.845   0.088   3.233
 6509SOL     OW20425   2.551   1.664   6.902
 6509SOL    HW120426   2.538   1.575   6.946
 6509SOL    HW220427   2.514   1.661   6.809
 6510SOL     OW20428   3.064   6.243   5.526
 6510SOL    HW120429   3.106   6.153   5.537
 6510SOL    HW220430   3.125   6.313   5.565
 6511SOL     OW20431   3.446   1.760   0.703
 6511SOL    HW120432   3.532   1.810   0.702
 6511SOL    HW220433   3.401   1.770   0.615
 6512SOL     OW20434   3.826   1.642   0.119
 6512SOL    HW120435   3.870   1.625   0.031
 6512SOL    HW220436   3.727   1.653   0.106
 6513SOL     OW20437   2.880   4.956   3.118
 6513SOL    HW120438   2.901   4.939   3.022
 6513SOL    HW220439   2.887   5.054   3.136
 6514SOL     OW20440   5.270   6.838   5.128
 6514SOL    HW120441   5.271   6.754   5.074
 6514SOL    HW220442   5.216   6.824   5.211
 6515SOL     OW20443   1.108   4.666   2.619
 6515SOL    HW120444   1.029   4.704   2.571
 6515SOL    HW220445   1.116   4.569   2.597
 6516SOL     OW20446   6.386   3.210   1.536
 6516SOL    HW120447   6.429   3.296   1.563
 6516SOL    HW220448   6.292   3.228   1.507
 6517SOL     OW20449   0.230   3.684   0.770
 6517SOL    HW120450   0.220   3.686   0.671
 6517SOL    HW220451   0.327   3.672   0.794
 6518SOL     OW20452   0.447   1.606   2.578
 6518SOL    HW120453   0.500   1.683   2.613
 6518SOL    HW220454   0.408   1.629   2.489
 6519SOL     OW20455   1.207   1.388   3.416
 6519SOL    HW120456   1.149   1.461   3.453
 6519SOL    HW220457   1.154   1.304   3.408
 6520SOL     OW20458   0.094   5.341   0.510
 6520SOL    HW120459   0.024   5.395   0.557
 6520SOL    HW220460   0.107   5.377   0.417
 6521SOL     OW20461   1.676   3.816   4.023
 6521SOL    HW120462   1.602   3.872   3.985
 6521SOL    HW220463   1.662   3.805   4.121
 6522SOL     OW20464   2.623   2.996   5.381
 6522SOL    HW120465   2.554   3.013   5.310
 6522SOL    HW220466   2.698   3.061   5.371
 6523SOL     OW20467   6.198   0.009   0.329
 6523SOL    HW120468   6.223   6.952   0.389
 6523SOL    HW220469   6.103   0.035   0.345
 6524SOL     OW20470   2.893   2.709   0.732
 6524SOL    HW120471   2.901   2.619   0.775
 6524SOL    HW220472   2.981   2.756   0.738
 6525SOL     OW20473   1.048   4.877   3.553
 6525SOL    HW120474   1.026   4.779   3.556
 6525SOL    HW220475   1.080   4.900   3.461
 6526SOL     OW20476   0.842   5.610   0.512
 6526SOL    HW120477   0.789   5.655   0.440
 6526SOL    HW220478   0.890   5.531   0.475
 6527SOL     OW20479   6.531   1.772   0.295
 6527SOL    HW120480   6.527   1.673   0.308
 6527SOL    HW220481   6.464   1.800   0.226
 6528SOL     OW20482   4.161   6.805   6.601
 6528SOL    HW120483   4.173   6.743   6.523
 6528SOL    HW220484   4.235   6.872   6.603
 6529SOL     OW20485   5.982   0.596   2.333
 6529SOL    HW120486   6.058   0.534   2.350
 6529SOL    HW220487   5.929   0.564   2.255
 6530SOL     OW20488   0.416   2.466   3.068
 6530SOL    HW120489   0.495   2.408   3.050
 6530SOL    HW220490   0.406   2.479   3.167
 6531SOL     OW20491   3.493   4.190   5.022
 6531SOL    HW120492   3.484   4.254   4.946
 6531SOL    HW220493   3.541   4.108   4.991
 6532SOL     OW20494   1.409   0.014   6.978
 6532SOL    HW120495   1.476   6.976   0.007
 6532SOL    HW220496   1.450   0.102   6.954
 6533SOL     OW20497   4.964   4.209   1.095
 6533SOL    HW120498   4.897   4.140   1.121
 6533SOL    HW220499   4.938   4.297   1.135
 6534SOL     OW20500   0.027   4.247   3.243
 6534SOL    HW120501   0.026   4.311   3.319
 6534SOL    HW220502   6.960   4.195   3.242
 6535SOL     OW20503   4.920   2.862   5.115
 6535SOL    HW120504   4.825   2.860   5.148
 6535SOL    HW220505   4.981   2.882   5.192
 6536SOL     OW20506   0.957   4.591   5.036
 6536SOL    HW120507   1.020   4.561   5.108
 6536SOL    HW220508   0.971   4.534   4.955
 6537SOL     OW20509   6.334   5.531   3.919
 6537SOL    HW120510   6.422   5.510   3.875
 6537SOL    HW220511   6.269   5.458   3.900
 6538SOL     OW20512   1.877   2.546   5.535
 6538SOL    HW120513   1.907   2.450   5.538
 6538SOL    HW220514   1.795   2.553   5.478
 6539SOL     OW20515   5.129   0.452   6.242
 6539SOL    HW120516   5.070   0.484   6.315
 6539SOL    HW220517   5.087   0.372   6.198
 6540SOL     OW20518   6.568   2.857   5.718
 6540SOL    HW120519   6.525   2.940   5.683
 6540SOL    HW220520   6.599   2.801   5.640
 6541SOL     OW20521   6.065   1.713   5.324
 6541SOL    HW120522   6.116   1.657   5.390
 6541SOL    HW220523   6.079   1.678   5.232
 6542SOL     OW20524   1.295   4.041   3.149
 6542SOL    HW120525   1.275   3.947   3.176
 6542SOL    HW220526   1.353   4.085   3.217
 6543SOL     OW20527   3.575   1.609   4.440
 6543SOL    HW120528   3.535   1.583   4.352
 6543SOL    HW220529   3.504   1.645   4.500
 6544SOL     OW20530   1.100   6.386   1.001
 6544SOL    HW120531   1.087   6.440   1.084
 6544SOL    HW220532   1.011   6.355   0.968
 6545SOL     OW20533   4.611   6.678   0.936
 6545SOL    HW120534   4.571   6.701   0.847
 6545SOL    HW220535   4.650   6.760   0.978
 6546SOL     OW20536   4.542   4.114   6.230
 6546SOL    HW120537   4.578   4.131   6.322
 6546SOL    HW220538   4.538   4.016   6.214
 6547SOL     OW20539   0.581   5.872   6.225
 6547SOL    HW120540   0.620   5.830   6.143
 6547SOL    HW220541   0.569   5.802   6.296
 6548SOL     OW20542   6.987   1.532   5.722
 6548SOL    HW120543   7.006   1.460   5.789
 6548SOL    HW220544   6.918   1.500   5.657
 6549SOL     OW20545   4.270   1.690   2.538
 6549SOL    HW120546   4.345   1.655   2.483
 6549SOL    HW220547   4.307   1.744   2.614
 6550SOL     OW20548   6.198   6.143   3.072
 6550SOL    HW120549   6.264   6.212   3.100
 6550SOL    HW220550   6.139   6.180   3.000
 6551SOL     OW20551   3.088   4.189   0.866
 6551SOL    HW120552   3.053   4.245   0.790
 6551SOL    HW220553   3.011   4.152   0.918
 6552SOL     OW20554   1.930   5.456   0.119
 6552SOL    HW120555   1.851   5.399   0.143
 6552SOL    HW220556   1.962   5.504   0.200
 6553SOL     OW20557   1.064   1.158   3.405
 6553SOL    HW120558   1.081   1.180   3.309
 6553SOL    HW220559   0.970   1.126   3.416
 6554SOL     OW20560   1.468   1.731   4.128
 6554SOL    HW120561   1.540   1.785   4.084
 6554SOL    HW220562   1.510   1.663   4.187
 6555SOL     OW20563   6.320   3.792   3.634
 6555SOL    HW120564   6.253   3.807   3.706
 6555SOL    HW220565   6.412   3.785   3.674
 6556SOL     OW20566   5.051   3.159   2.361
 6556SOL    HW120567   5.032   3.236   2.421
 6556SOL    HW220568   5.148   3.136   2.365
 6557SOL     OW20569   2.011   0.572   2.064
 6557SOL    HW120570   2.107   0.593   2.047
 6557SOL    HW220571   1.975   0.637   2.131
 6558SOL     OW20572   5.684   6.322   6.403
 6558SOL    HW120573   5.712   6.299   6.310
 6558SOL    HW220574   5.645   6.414   6.405
 6559SOL     OW20575   6.758   2.744   6.550
 6559SOL    HW120576   6.807   2.768   6.466
 6559SOL    HW220577   6.712   2.656   6.538
 6560SOL     OW20578   5.324   4.684   0.224
 6560SOL    HW120579   5.255   4.742   0.179
 6560SOL    HW220580   5.315   4.692   0.323
 6561SOL     OW20581   3.593   4.600   6.783
 6561SOL    HW120582   3.689   4.571   6.786
 6561SOL    HW220583   3.569   4.626   6.690
 6562SOL     OW20584   5.375   2.382   1.435
 6562SOL    HW120585   5.342   2.378   1.529
 6562SOL    HW220586   5.473   2.403   1.435
 6563SOL     OW20587   5.841   4.903   5.145
 6563SOL    HW120588   5.808   4.837   5.077
 6563SOL    HW220589   5.875   4.853   5.225
 6564SOL     OW20590   6.063   3.083   2.990
 6564SOL    HW120591   6.116   3.167   2.987
 6564SOL    HW220592   5.988   3.088   2.924
 6565SOL     OW20593   5.538   0.287   3.029
 6565SOL    HW120594   5.569   0.222   2.960
 6565SOL    HW220595   5.445   0.318   3.006
 6566SOL     OW20596   4.827   5.827   3.123
 6566SOL    HW120597   4.790   5.775   3.200
 6566SOL    HW220598   4.776   5.912   3.112
 6567SOL     OW20599   3.766   0.796   1.502
 6567SOL    HW120600   3.814   0.882   1.483
 6567SOL    HW220601   3.686   0.789   1.442
 6568SOL     OW20602   4.293   1.951   0.586
 6568SOL    HW120603   4.365   2.019   0.572
 6568SOL    HW220604   4.265   1.914   0.498
 6569SOL     OW20605   0.692   4.701   4.524
 6569SOL    HW120606   0.752   4.730   4.449
 6569SOL    HW220607   0.746   4.688   4.607
 6570SOL     OW20608   4.276   0.198   1.871
 6570SOL    HW120609   4.332   0.139   1.813
 6570SOL    HW220610   4.218   0.256   1.813
 6571SOL     OW20611   3.569   4.861   2.805
 6571SOL    HW120612   3.583   4.916   2.888
 6571SOL    HW220613   3.602   4.911   2.726
 6572SOL     OW20614   1.288   5.628   4.125
 6572SOL    HW120615   1.343   5.549   4.098
 6572SOL    HW220616   1.348   5.705   4.148
 6573SOL     OW20617   1.463   1.639   3.324
 6573SOL    HW120618   1.480   1.550   3.281
 6573SOL    HW220619   1.540   1.700   3.307
 6574SOL     OW20620   1.687   5.346   2.576
 6574SOL    HW120621   1.641   5.345   2.488
 6574SOL    HW220622   1.676   5.435   2.619
 6575SOL     OW20623   7.013   1.421   3.142
 6575SOL    HW120624   6.965   1.420   3.230
 6575SOL    HW220625   0.069   1.355   3.143
 6576SOL     OW20626   4.878   5.690   0.978
 6576SOL    HW120627   4.953   5.735   0.930
 6576SOL    HW220628   4.855   5.605   0.930
 6577SOL     OW20629   3.354   1.126   3.582
 6577SOL    HW120630   3.409   1.194   3.632
 6577SOL    HW220631   3.292   1.173   3.520
 6578SOL     OW20632   1.303   4.560   1.412
 6578SOL    HW120633   1.255   4.472   1.404
 6578SOL    HW220634   1.280   4.618   1.333
 6579SOL     OW20635   6.684   1.068   4.061
 6579SOL    HW120636   6.744   0.994   4.091
 6579SOL    HW220637   6.721   1.156   4.093
 6580SOL     OW20638   2.441   2.025   0.226
 6580SOL    HW120639   2.449   2.055   0.321
 6580SOL    HW220640   2.376   2.083   0.178
 6581SOL     OW20641   0.672   1.768   1.066
 6581SOL    HW120642   0.573   1.756   1.056
 6581SOL    HW220643   0.696   1.863   1.043
 6582SOL     OW20644   6.467   1.479   2.937
 6582SOL    HW120645   6.482   1.385   2.967
 6582SOL    HW220646   6.440   1.536   3.015
 6583SOL     OW20647   3.960   5.255   6.783
 6583SOL    HW120648   3.952   5.354   6.766
 6583SOL    HW220649   4.055   5.227   6.768
 6584SOL     OW20650   4.389   2.634   6.993
 6584SOL    HW120651   4.289   2.634   7.001
 6584SOL    HW220652   4.415   2.622   6.898
 6585SOL     OW20653   5.881   6.514   1.540
 6585SOL    HW120654   5.918   6.490   1.451
 6585SOL    HW220655   5.884   6.434   1.600
 6586SOL     OW20656   0.375   1.270   0.041
 6586SOL    HW120657   0.430   1.226   0.111
 6586SOL    HW220658   0.290   1.304   0.081
 6587SOL     OW20659   1.834   4.653   5.508
 6587SOL    HW120660   1.812   4.555   5.508
 6587SOL    HW220661   1.903   4.672   5.439
 6588SOL     OW20662   6.798   2.709   0.582
 6588SOL    HW120663   6.769   2.658   0.663
 6588SOL    HW220664   6.871   2.773   0.606
 6589SOL     OW20665   6.537   0.310   2.153
 6589SOL    HW120666   6.551   0.289   2.056
 6589SOL    HW220667   6.526   0.408   2.165
 6590SOL     OW20668   1.423   6.315   3.963
 6590SOL    HW120669   1.403   6.283   4.056
 6590SOL    HW220670   1.479   6.247   3.916
 6591SOL     OW20671   5.919   4.108   3.646
 6591SOL    HW120672   5.907   4.160   3.731
 6591SOL    HW220673   5.951   4.016   3.668
 6592SOL     OW20674   6.198   6.940   3.278
 6592SOL    HW120675   6.263   6.924   3.205
 6592SOL    HW220676   6.144   6.857   3.294
 6593SOL     OW20677   2.508   1.502   2.182
 6593SOL    HW120678   2.602   1.493   2.150
 6593SOL    HW220679   2.450   1.532   2.107
 6594SOL     OW20680   5.368   0.364   6.335
 6594SOL    HW120681   5.353   0.296   6.406
 6594SOL    HW220682   5.280   0.401   6.305
 6595SOL     OW20683   0.766   2.182   5.243
 6595SOL    HW120684   0.756   2.254   5.312
 6595SOL    HW220685   0.676   2.142   5.224
 6596SOL     OW20686   5.408   0.160   2.724
 6596SOL    HW120687   5.375   0.245   2.763
 6596SOL    HW220688   5.497   0.136   2.763
 6597SOL     OW20689   1.112   4.212   2.176
 6597SOL    HW120690   1.068   4.167   2.098
 6597SOL    HW220691   1.096   4.158   2.259
 6598SOL     OW20692   1.549   4.486   4.265
 6598SOL    HW120693   1.507   4.553   4.204
 6598SOL    HW220694   1.647   4.505   4.273
 6599SOL     OW20695   6.547   5.575   6.144
 6599SOL    HW120696   6.646   5.570   6.149
 6599SOL    HW220697   6.516   5.544   6.054
 6600SOL     OW20698   4.472   0.596   5.202
 6600SOL    HW120699   4.406   0.634   5.137
 6600SOL    HW220700   4.516   0.670   5.251
 6601SOL     OW20701   1.701   2.240   1.186
 6601SOL    HW120702   1.696   2.339   1.199
 6601SOL    HW220703   1.639   2.194   1.250
 6602SOL     OW20704   1.001   5.716   1.868
 6602SOL    HW120705   1.021   5.618   1.874
 6602SOL    HW220706   0.978   5.739   1.774
 6603SOL     OW20707   0.412   3.459   2.893
 6603SOL    HW120708   0.328   3.459   2.947
 6603SOL    HW220709   0.484   3.506   2.944
 6604SOL     OW20710   1.830   6.281   3.039
 6604SOL    HW120711   1.864   6.374   3.050
 6604SOL    HW220712   1.778   6.254   3.120
 6605SOL     OW20713   0.304   5.701   0.957
 6605SOL    HW120714   0.304   5.604   0.934
 6605SOL    HW220715   0.212   5.738   0.945
 6606SOL     OW20716   1.551   3.029   2.992
 6606SOL    HW120717   1.461   3.071   2.980
 6606SOL    HW220718   1.608   3.088   3.049
 6607SOL     OW20719   6.029   3.804   3.458
 6607SOL    HW120720   5.975   3.721   3.473
 6607SOL    HW220721   6.064   3.838   3.545
 6608SOL     OW20722   1.331   5.859   5.915
 6608SOL    HW120723   1.320   5.906   6.003
 6608SOL    HW220724   1.242   5.843   5.874
 6609SOL     OW20725   4.780   1.460   6.247
 6609SOL    HW120726   4.699   1.519   6.244
 6609SOL    HW220727   4.838   1.480   6.168
 6610SOL     OW20728   2.828   5.561   0.710
 6610SOL    HW120729   2.775   5.512   0.779
 6610SOL    HW220730   2.820   5.513   0.622
 6611SOL     OW20731   3.688   1.869   4.394
 6611SOL    HW120732   3.702   1.771   4.406
 6611SOL    HW220733   3.634   1.884   4.311
 6612SOL     OW20734   0.913   0.609   6.189
 6612SOL    HW120735   0.886   0.703   6.210
 6612SOL    HW220736   0.969   0.573   6.263
 6613SOL     OW20737   4.756   6.896   0.586
 6613SOL    HW120738   4.822   6.856   0.523
 6613SOL    HW220739   4.803   6.931   0.667
 6614SOL     OW20740   4.564   5.364   0.946
 6614SOL    HW120741   4.556   5.329   1.040
 6614SOL    HW220742   4.478   5.407   0.920
 6615SOL     OW20743   3.779   4.954   5.897
 6615SOL    HW120744   3.724   4.882   5.938
 6615SOL    HW220745   3.741   5.043   5.921
 6616SOL     OW20746   3.672   1.310   6.353
 6616SOL    HW120747   3.698   1.221   6.316
 6616SOL    HW220748   3.632   1.366   6.280
 6617SOL     OW20749   3.583   0.219   4.158
 6617SOL    HW120750   3.645   0.170   4.097
 6617SOL    HW220751   3.614   0.208   4.252
 6618SOL     OW20752   6.259   2.616   4.047
 6618SOL    HW120753   6.282   2.554   3.972
 6618SOL    HW220754   6.167   2.653   4.033
 6619SOL     OW20755   4.345   5.889   4.018
 6619SOL    HW120756   4.266   5.849   3.972
 6619SOL    HW220757   4.374   5.971   3.969
 6620SOL     OW20758   0.636   2.957   3.384
 6620SOL    HW120759   0.637   2.882   3.318
 6620SOL    HW220760   0.651   2.921   3.476
 6621SOL     OW20761   4.027   3.096   4.461
 6621SOL    HW120762   4.095   3.169   4.462
 6621SOL    HW220763   4.025   3.054   4.370
 6622SOL     OW20764   0.900   5.592   1.023
 6622SOL    HW120765   0.887   5.573   0.925
 6622SOL    HW220766   0.811   5.593   1.069
 6623SOL     OW20767   3.160   3.926   5.442
 6623SOL    HW120768   3.148   3.837   5.398
 6623SOL    HW220769   3.180   3.995   5.373
 6624SOL     OW20770   2.193   1.511   3.397
 6624SOL    HW120771   2.194   1.610   3.384
 6624SOL    HW220772   2.211   1.465   3.310
 6625SOL     OW20773   5.669   3.932   5.826
 6625SOL    HW120774   5.664   3.845   5.777
 6625SOL    HW220775   5.651   4.007   5.762
 6626SOL     OW20776   3.019   6.130   5.144
 6626SOL    HW120777   3.019   6.218   5.096
 6626SOL    HW220778   3.094   6.073   5.110
 6627SOL     OW20779   2.045   6.318   4.543
 6627SOL    HW120780   2.057   6.219   4.553
 6627SOL    HW220781   2.129   6.358   4.509
 6628SOL     OW20782   3.540   5.902   4.777
 6628SOL    HW120783   3.469   5.911   4.707
 6628SOL    HW220784   3.627   5.878   4.734
 6629SOL     OW20785   4.855   6.098   6.273
 6629SOL    HW120786   4.875   6.187   6.312
 6629SOL    HW220787   4.897   6.091   6.182
 6630SOL     OW20788   1.818   0.800   0.604
 6630SOL    HW120789   1.753   0.868   0.639
 6630SOL    HW220790   1.768   0.731   0.552
 6631SOL     OW20791   1.651   3.726   5.838
 6631SOL    HW120792   1.610   3.708   5.928
 6631SOL    HW220793   1.751   3.733   5.848
 6632SOL     OW20794   1.568   0.230   0.557
 6632SOL    HW120795   1.650   0.187   0.518
 6632SOL    HW220796   1.553   0.319   0.514
 6633SOL     OW20797   3.672   5.889   5.901
 6633SOL    HW120798   3.603   5.920   5.967
 6633SOL    HW220799   3.755   5.943   5.912
 6634SOL     OW20800   3.879   1.598   3.978
 6634SOL    HW120801   3.794   1.584   3.926
 6634SOL    HW220802   3.875   1.687   4.023
 6635SOL     OW20803   4.979   4.873   4.395
 6635SOL    HW120804   4.948   4.951   4.341
 6635SOL    HW220805   5.008   4.799   4.333
 6636SOL     OW20806   4.072   0.920   6.920
 6636SOL    HW120807   4.015   0.951   6.844
 6636SOL    HW220808   4.015   0.907   7.002
 6637SOL     OW20809   1.240   1.765   1.491
 6637SOL    HW120810   1.218   1.809   1.404
 6637SOL    HW220811   1.290   1.829   1.549
 6638SOL     OW20812   2.936   3.789   4.230
 6638SOL    HW120813   2.998   3.848   4.178
 6638SOL    HW220814   2.843   3.825   4.225
 6639SOL     OW20815   4.705   2.633   0.989
 6639SOL    HW120816   4.735   2.554   1.043
 6639SOL    HW220817   4.657   2.698   1.049
 6640SOL     OW20818   1.844   3.567   4.826
 6640SOL    HW120819   1.826   3.471   4.801
 6640SOL    HW220820   1.919   3.602   4.771
 6641SOL     OW20821   4.920   1.822   1.412
 6641SOL    HW120822   4.844   1.784   1.465
 6641SOL    HW220823   4.910   1.797   1.316
 6642SOL     OW20824   1.576   5.715   6.959
 6642SOL    HW120825   1.494   5.771   6.971
 6642SOL    HW220826   1.576   5.641   0.008
 6643SOL     OW20827   3.973   5.509   6.681
 6643SOL    HW120828   4.059   5.545   6.645
 6643SOL    HW220829   3.897   5.546   6.629
 6644SOL     OW20830   1.908   6.778   3.569
 6644SOL    HW120831   1.813   6.792   3.597
 6644SOL    HW220832   1.959   6.735   3.643
 6645SOL     OW20833   5.930   2.321   0.418
 6645SOL    HW120834   5.972   2.384   0.484
 6645SOL    HW220835   5.896   2.240   0.466
 6646SOL     OW20836   4.476   6.774   5.607
 6646SOL    HW120837   4.507   6.686   5.641
 6646SOL    HW220838   4.386   6.765   5.565
 6647SOL     OW20839   4.108   5.447   0.799
 6647SOL    HW120840   4.088   5.403   0.887
 6647SOL    HW220841   4.037   5.424   0.733
 6648SOL     OW20842   3.173   6.445   5.666
 6648SOL    HW120843   3.249   6.446   5.600
 6648SOL    HW220844   3.102   6.508   5.636
 6649SOL     OW20845   5.579   3.171   6.721
 6649SOL    HW120846   5.631   3.252   6.749
 6649SOL    HW220847   5.577   3.167   6.621
 6650SOL     OW20848   2.008   1.630   5.023
 6650SOL    HW120849   2.011   1.620   5.123
 6650SOL    HW220850   1.963   1.551   4.983
 6651SOL     OW20851   6.580   2.071   6.332
 6651SOL    HW120852   6.488   2.093   6.364
 6651SOL    HW220853   6.574   2.011   6.252
 6652SOL     OW20854   6.887   4.481   0.394
 6652SOL    HW120855   6.807   4.450   0.344
 6652SOL    HW220856   6.934   4.402   0.435
 6653SOL     OW20857   5.647   4.632   0.407
 6653SOL    HW120858   5.700   4.547   0.409
 6653SOL    HW220859   5.636   4.662   0.312
 6654SOL     OW20860   6.479   4.237   3.312
 6654SOL    HW120861   6.423   4.320   3.301
 6654SOL    HW220862   6.449   4.168   3.247
 6655SOL     OW20863   0.314   4.871   2.230
 6655SOL    HW120864   0.295   4.845   2.324
 6655SOL    HW220865   0.246   4.938   2.199
 6656SOL     OW20866   4.614   1.427   3.266
 6656SOL    HW120867   4.672   1.385   3.196
 6656SOL    HW220868   4.625   1.527   3.262
 6657SOL     OW20869   5.405   2.299   3.641
 6657SOL    HW120870   5.497   2.276   3.609
 6657SOL    HW220871   5.367   2.371   3.583
 6658SOL     OW20872   6.669   5.791   5.386
 6658SOL    HW120873   6.573   5.792   5.413
 6658SOL    HW220874   6.676   5.787   5.286
 6659SOL     OW20875   0.765   5.126   2.047
 6659SOL    HW120876   0.863   5.111   2.037
 6659SOL    HW220877   0.738   5.108   2.142
 6660SOL     OW20878   6.538   6.462   4.094
 6660SOL    HW120879   6.528   6.381   4.037
 6660SOL    HW220880   6.454   6.477   4.147
 6661SOL     OW20881   3.728   5.639   4.129
 6661SOL    HW120882   3.805   5.703   4.139
 6661SOL    HW220883   3.649   5.688   4.092
 6662SOL     OW20884   4.182   6.481   2.174
 6662SOL    HW120885   4.149   6.525   2.257
 6662SOL    HW220886   4.163   6.383   2.178
 6663SOL     OW20887   1.102   3.762   6.161
 6663SOL    HW120888   1.130   3.788   6.069
 6663SOL    HW220889   1.058   3.840   6.206
 6664SOL     OW20890   2.801   0.178   0.932
 6664SOL    HW120891   2.886   0.173   0.879
 6664SOL    HW220892   2.780   0.087   0.968
 6665SOL     OW20893   2.229   0.934   6.154
 6665SOL    HW120894   2.154   0.957   6.091
 6665SOL    HW220895   2.306   0.996   6.137
 6666SOL     OW20896   3.947   6.456   5.522
 6666SOL    HW120897   3.848   6.442   5.516
 6666SOL    HW220898   3.974   6.527   5.457
 6667SOL     OW20899   0.522   6.272   6.827
 6667SOL    HW120900   0.531   6.176   6.800
 6667SOL    HW220901   0.487   6.277   6.920
 6668SOL     OW20902   6.983   4.635   0.602
 6668SOL    HW120903   6.919   4.595   0.536
 6668SOL    HW220904   0.038   4.683   0.552
 6669SOL     OW20905   1.462   1.378   3.291
 6669SOL    HW120906   1.456   1.278   3.295
 6669SOL    HW220907   1.379   1.418   3.328
 6670SOL     OW20908   4.208   2.280   0.791
 6670SOL    HW120909   4.245   2.233   0.710
 6670SOL    HW220910   4.125   2.234   0.821
 6671SOL     OW20911   4.861   5.593   0.365
 6671SOL    HW120912   4.945   5.539   0.352
 6671SOL    HW220913   4.835   5.635   0.278
 6672SOL     OW20914   1.896   2.594   1.448
 6672SOL    HW120915   1.985   2.549   1.452
 6672SOL    HW220916   1.907   2.687   1.414
 6673SOL     OW20917   6.065   3.443   3.965
 6673SOL    HW120918   6.078   3.428   4.063
 6673SOL    HW220919   6.142   3.405   3.915
 6674SOL     OW20920   0.613   1.367   0.661
 6674SOL    HW120921   0.561   1.452   0.671
 6674SOL    HW220922   0.697   1.372   0.715
 6675SOL     OW20923   5.233   1.429   6.256
 6675SOL    HW120924   5.309   1.489   6.233
 6675SOL    HW220925   5.163   1.482   6.305
 6676SOL     OW20926   1.340   3.962   4.206
 6676SOL    HW120927   1.314   3.996   4.116
 6676SOL    HW220928   1.278   3.889   4.233
 6677SOL     OW20929   0.752   1.701   0.200
 6677SOL    HW120930   0.831   1.699   0.139
 6677SOL    HW220931   0.770   1.644   0.280
 6678SOL     OW20932   2.097   4.220   6.567
 6678SOL    HW120933   2.091   4.123   6.542
 6678SOL    HW220934   2.191   4.242   6.590
 6679SOL     OW20935   1.777   1.057   3.958
 6679SOL    HW120936   1.874   1.077   3.974
 6679SOL    HW220937   1.753   0.971   4.001
 6680SOL     OW20938   5.914   6.750   1.405
 6680SOL    HW120939   6.007   6.771   1.434
 6680SOL    HW220940   5.878   6.675   1.461
 6681SOL     OW20941   3.507   6.050   1.898
 6681SOL    HW120942   3.525   6.041   1.800
 6681SOL    HW220943   3.576   5.999   1.950
 6682SOL     OW20944   3.540   5.188   5.640
 6682SOL    HW120945   3.447   5.214   5.666
 6682SOL    HW220946   3.605   5.229   5.703
 6683SOL     OW20947   6.742   4.189   6.323
 6683SOL    HW120948   6.657   4.167   6.371
 6683SOL    HW220949   6.818   4.137   6.363
 6684SOL     OW20950   2.999   5.974   0.303
 6684SOL    HW120951   2.913   5.924   0.290
 6684SOL    HW220952   3.000   6.016   0.393
 6685SOL     OW20953   5.207   3.138   0.057
 6685SOL    HW120954   5.222   3.221   0.110
 6685SOL    HW220955   5.252   3.147   6.986
 6686SOL     OW20956   4.905   5.257   4.361
 6686SOL    HW120957   4.954   5.225   4.279
 6686SOL    HW220958   4.816   5.293   4.334
 6687SOL     OW20959   6.314   2.055   2.040
 6687SOL    HW120960   6.374   1.974   2.033
 6687SOL    HW220961   6.357   2.123   2.099
 6688SOL     OW20962   4.652   4.917   0.554
 6688SOL    HW120963   4.646   5.009   0.516
 6688SOL    HW220964   4.721   4.915   0.627
 6689SOL     OW20965   2.070   4.433   5.923
 6689SOL    HW120966   2.111   4.458   6.011
 6689SOL    HW220967   1.980   4.474   5.915
 6690SOL     OW20968   0.735   6.881   5.681
 6690SOL    HW120969   0.648   6.888   5.632
 6690SOL    HW220970   0.807   6.852   5.618
 6691SOL     OW20971   2.598   2.269   2.608
 6691SOL    HW120972   2.694   2.266   2.578
 6691SOL    HW220973   2.553   2.184   2.582
 6692SOL     OW20974   4.710   5.051   2.141
 6692SOL    HW120975   4.672   5.051   2.048
 6692SOL    HW220976   4.636   5.033   2.207
 6693SOL     OW20977   4.128   1.724   4.737
 6693SOL    HW120978   4.172   1.726   4.648
 6693SOL    HW220979   4.031   1.748   4.728
 6694SOL     OW20980   3.428   4.157   1.843
 6694SOL    HW120981   3.368   4.208   1.782
 6694SOL    HW220982   3.523   4.185   1.828
 6695SOL     OW20983   1.967   2.274   6.657
 6695SOL    HW120984   2.050   2.255   6.603
 6695SOL    HW220985   1.904   2.329   6.603
 6696SOL     OW20986   4.145   3.532   4.245
 6696SOL    HW120987   4.128   3.471   4.323
 6696SOL    HW220988   4.153   3.478   4.162
 6697SOL     OW20989   4.041   2.022   2.928
 6697SOL    HW120990   4.026   2.033   2.829
 6697SOL    HW220991   4.075   2.107   2.966
 6698SOL     OW20992   3.290   3.974   1.382
 6698SOL    HW120993   3.371   4.003   1.434
 6698SOL    HW220994   3.275   4.037   1.306
 6699SOL     OW20995   1.114   4.366   5.710
 6699SOL    HW120996   1.112   4.338   5.806
 6699SOL    HW220997   1.116   4.284   5.652
 6700SOL     OW20998   5.798   0.008   6.931
 6700SOL    HW120999   5.851   0.043   7.008
 6700SOL    HW221000   5.759   6.937   6.955
 6701SOL     OW21001   6.013   0.651   1.493
 6701SOL    HW121002   6.106   0.614   1.491
 6701SOL    HW221003   5.993   0.695   1.406
 6702SOL     OW21004   3.186   2.638   1.318
 6702SOL    HW121005   3.266   2.681   1.277
 6702SOL    HW221006   3.181   2.542   1.288
 6703SOL     OW21007   0.120   1.142   0.145
 6703SOL    HW121008   0.177   1.117   0.224
 6703SOL    HW221009   0.087   1.058   0.101
 6704SOL     OW21010   2.984   0.061   6.358
 6704SOL    HW121011   3.010   0.044   6.453
 6704SOL    HW221012   2.932   7.001   6.323
 6705SOL     OW21013   6.273   3.938   2.416
 6705SOL    HW121014   6.200   4.002   2.393
 6705SOL    HW221015   6.300   3.887   2.335
 6706SOL     OW21016   0.237   6.804   1.648
 6706SOL    HW121017   0.299   6.863   1.699
 6706SOL    HW221018   0.290   6.745   1.587
 6707SOL     OW21019   5.243   0.675   2.257
 6707SOL    HW121020   5.169   0.673   2.324
 6707SOL    HW221021   5.229   0.602   2.190
 6708SOL     OW21022   0.912   4.159   1.316
 6708SOL    HW121023   0.905   4.233   1.383
 6708SOL    HW221024   0.955   4.194   1.233
 6709SOL     OW21025   1.760   4.450   2.697
 6709SOL    HW121026   1.699   4.413   2.766
 6709SOL    HW221027   1.855   4.443   2.728
 6710SOL     OW21028   4.555   1.161   0.588
 6710SOL    HW121029   4.595   1.072   0.569
 6710SOL    HW221030   4.578   1.188   0.682
 6711SOL     OW21031   3.269   5.891   6.641
 6711SOL    HW121032   3.281   5.792   6.650
 6711SOL    HW221033   3.200   5.922   6.707
 6712SOL     OW21034   5.857   3.487   1.932
 6712SOL    HW121035   5.935   3.430   1.905
 6712SOL    HW221036   5.775   3.454   1.886
 6713SOL     OW21037   1.806   5.524   4.826
 6713SOL    HW121038   1.737   5.486   4.766
 6713SOL    HW221039   1.773   5.524   4.920
 6714SOL     OW21040   4.814   1.499   1.223
 6714SOL    HW121041   4.839   1.416   1.175
 6714SOL    HW221042   4.883   1.570   1.206
 6715SOL     OW21043   1.197   0.585   0.092
 6715SOL    HW121044   1.146   0.535   0.162
 6715SOL    HW221045   1.140   0.658   0.056
 6716SOL     OW21046   0.193   5.616   2.998
 6716SOL    HW121047   0.213   5.667   3.081
 6716SOL    HW221048   0.122   5.664   2.945
 6717SOL     OW21049   5.401   2.228   5.185
 6717SOL    HW121050   5.419   2.253   5.090
 6717SOL    HW221051   5.306   2.249   5.208
 6718SOL     OW21052   3.886   1.281   1.634
 6718SOL    HW121053   3.953   1.300   1.562
 6718SOL    HW221054   3.891   1.185   1.661
 6719SOL     OW21055   1.915   1.187   0.363
 6719SOL    HW121056   1.874   1.107   0.319
 6719SOL    HW221057   1.921   1.172   0.462
 6720SOL     OW21058   2.051   0.523   6.293
 6720SOL    HW121059   1.975   0.571   6.338
 6720SOL    HW221060   2.068   0.436   6.340
 6721SOL     OW21061   6.203   1.563   0.381
 6721SOL    HW121062   6.122   1.522   0.340
 6721SOL    HW221063   6.194   1.662   0.384
 6722SOL     OW21064   5.849   3.584   0.148
 6722SOL    HW121065   5.801   3.568   0.234
 6722SOL    HW221066   5.926   3.521   0.141
 6723SOL     OW21067   0.930   2.170   5.844
 6723SOL    HW121068   0.946   2.123   5.758
 6723SOL    HW221069   0.963   2.113   5.920
 6724SOL     OW21070   1.908   3.768   5.302
 6724SOL    HW121071   1.864   3.756   5.213
 6724SOL    HW221072   2.006   3.784   5.289
 6725SOL     OW21073   5.025   2.949   3.780
 6725SOL    HW121074   5.072   2.923   3.696
 6725SOL    HW221075   5.066   2.902   3.858
 6726SOL     OW21076   0.270   0.965   5.823
 6726SOL    HW121077   0.232   0.950   5.732
 6726SOL    HW221078   0.254   1.059   5.851
 6727SOL     OW21079   1.003   4.723   5.359
 6727SOL    HW121080   1.078   4.688   5.415
 6727SOL    HW221081   0.995   4.667   5.276
 6728SOL     OW21082   3.150   2.182   3.656
 6728SOL    HW121083   3.247   2.202   3.645
 6728SOL    HW221084   3.134   2.084   3.645
 6729SOL     OW21085   4.412   1.356   2.129
 6729SOL    HW121086   4.384   1.274   2.178
 6729SOL    HW221087   4.334   1.418   2.120
 6730SOL     OW21088   0.666   1.282   1.593
 6730SOL    HW121089   0.569   1.266   1.611
 6730SOL    HW221090   0.682   1.281   1.494
 6731SOL     OW21091   3.943   6.810   6.759
 6731SOL    HW121092   4.032   6.830   6.719
 6731SOL    HW221093   3.911   6.720   6.728
 6732SOL     OW21094   0.173   5.715   4.399
 6732SOL    HW121095   0.223   5.629   4.385
 6732SOL    HW221096   0.097   5.700   4.461
 6733SOL     OW21097   4.898   5.019   6.345
 6733SOL    HW121098   4.839   5.086   6.389
 6733SOL    HW221099   4.931   5.056   6.258
 6734SOL     OW21100   6.794   1.307   4.135
 6734SOL    HW121101   6.728   1.381   4.146
 6734SOL    HW221102   6.829   1.280   4.225
 6735SOL     OW21103   6.282   3.116   3.315
 6735SOL    HW121104   6.250   3.093   3.407
 6735SOL    HW221105   6.262   3.040   3.253
 6736SOL     OW21106   3.476   3.644   0.653
 6736SOL    HW121107   3.564   3.618   0.694
 6736SOL    HW221108   3.492   3.702   0.573
 6737SOL     OW21109   0.240   3.655   0.479
 6737SOL    HW121110   0.257   3.556   0.480
 6737SOL    HW221111   0.309   3.701   0.424
 6738SOL     OW21112   1.400   5.293   3.676
 6738SOL    HW121113   1.407   5.257   3.769
 6738SOL    HW221114   1.461   5.241   3.616
 6739SOL     OW21115   6.311   0.192   4.856
 6739SOL    HW121116   6.290   0.098   4.827
 6739SOL    HW221117   6.233   0.251   4.835
 6740SOL     OW21118   0.456   6.961   3.873
 6740SOL    HW121119   0.413   0.015   3.928
 6740SOL    HW221120   0.386   6.912   3.821
 6741SOL     OW21121   4.408   1.892   6.533
 6741SOL    HW121122   4.493   1.868   6.580
 6741SOL    HW221123   4.332   1.888   6.598
 6742SOL     OW21124   5.646   5.134   3.588
 6742SOL    HW121125   5.595   5.069   3.530
 6742SOL    HW221126   5.642   5.225   3.547
 6743SOL     OW21127   4.092   4.072   0.450
 6743SOL    HW121128   4.036   4.109   0.523
 6743SOL    HW221129   4.187   4.065   0.481
 6744SOL     OW21130   0.296   6.256   6.111
 6744SOL    HW121131   0.312   6.326   6.042
 6744SOL    HW221132   0.354   6.274   6.191
 6745SOL     OW21133   6.980   4.898   5.015
 6745SOL    HW121134   7.014   4.809   4.985
 6745SOL    HW221135   0.010   4.971   4.966
 6746SOL     OW21136   1.367   2.000   2.265
 6746SOL    HW121137   1.309   1.962   2.194
 6746SOL    HW221138   1.328   2.086   2.297
 6747SOL     OW21139   1.716   6.324   6.160
 6747SOL    HW121140   1.664   6.335   6.074
 6747SOL    HW221141   1.814   6.327   6.140
 6748SOL     OW21142   1.934   0.892   4.891
 6748SOL    HW121143   1.998   0.866   4.820
 6748SOL    HW221144   1.845   0.850   4.873
 6749SOL     OW21145   3.705   5.071   1.455
 6749SOL    HW121146   3.637   5.145   1.462
 6749SOL    HW221147   3.663   4.990   1.415
 6750SOL     OW21148   3.262   1.120   5.224
 6750SOL    HW121149   3.174   1.087   5.190
 6750SOL    HW221150   3.294   1.060   5.297
 6751SOL     OW21151   4.531   0.121   4.182
 6751SOL    HW121152   4.567   0.051   4.243
 6751SOL    HW221153   4.498   0.079   4.098
 6752SOL     OW21154   2.060   5.474   2.422
 6752SOL    HW121155   1.972   5.519   2.407
 6752SOL    HW221156   2.056   5.419   2.505
 6753SOL     OW21157   3.952   3.309   5.623
 6753SOL    HW121158   3.915   3.292   5.532
 6753SOL    HW221159   3.967   3.222   5.670
 6754SOL     OW21160   5.960   2.227   1.088
 6754SOL    HW121161   5.963   2.307   1.027
 6754SOL    HW221162   6.052   2.191   1.099
 6755SOL     OW21163   2.527   5.582   6.067
 6755SOL    HW121164   2.586   5.609   6.143
 6755SOL    HW221165   2.578   5.589   5.981
 6756SOL     OW21166   2.652   2.366   5.340
 6756SOL    HW121167   2.696   2.354   5.251
 6756SOL    HW221168   2.563   2.409   5.328
 6757SOL     OW21169   3.539   6.926   0.241
 6757SOL    HW121170   3.452   6.973   0.258
 6757SOL    HW221171   3.589   6.973   0.168
 6758SOL     OW21172   6.006   2.055   2.850
 6758SOL    HW121173   5.944   2.109   2.794
 6758SOL    HW221174   5.953   1.992   2.907
 6759SOL     OW21175   0.991   2.648   2.622
 6759SOL    HW121176   0.964   2.670   2.528
 6759SOL    HW221177   0.938   2.570   2.654
 6760SOL     OW21178   5.284   2.286   2.915
 6760SOL    HW121179   5.355   2.311   2.849
 6760SOL    HW221180   5.218   2.361   2.923
 6761SOL     OW21181   4.175   2.162   4.827
 6761SOL    HW121182   4.134   2.199   4.743
 6761SOL    HW221183   4.104   2.151   4.897
 6762SOL     OW21184   6.597   5.800   4.110
 6762SOL    HW121185   6.633   5.869   4.174
 6762SOL    HW221186   6.509   5.831   4.075
 6763SOL     OW21187   5.094   5.296   5.064
 6763SOL    HW121188   5.058   5.268   5.153
 6763SOL    HW221189   5.192   5.314   5.073
 6764SOL     OW21190   1.740   5.133   1.152
 6764SOL    HW121191   1.807   5.203   1.178
 6764SOL    HW221192   1.737   5.063   1.223
 6765SOL     OW21193   6.855   5.336   2.682
 6765SOL    HW121194   6.806   5.278   2.616
 6765SOL    HW221195   6.948   5.351   2.649
 6766SOL     OW21196   5.976   0.588   0.435
 6766SOL    HW121197   6.007   0.661   0.497
 6766SOL    HW221198   5.877   0.599   0.419
 6767SOL     OW21199   2.997   0.233   0.743
 6767SOL    HW121200   3.048   0.161   0.697
 6767SOL    HW221201   3.060   0.305   0.772
 6768SOL     OW21202   1.403   0.482   0.909
 6768SOL    HW121203   1.361   0.487   0.818
 6768SOL    HW221204   1.339   0.518   0.977
 6769SOL     OW21205   4.278   2.763   1.695
 6769SOL    HW121206   4.377   2.776   1.702
 6769SOL    HW221207   4.234   2.852   1.680
 6770SOL     OW21208   6.978   0.503   1.636
 6770SOL    HW121209   0.004   0.486   1.548
 6770SOL    HW221210   7.010   0.437   1.704
 6771SOL     OW21211   4.108   2.005   3.237
 6771SOL    HW121212   4.187   2.011   3.299
 6771SOL    HW221213   4.073   1.911   3.237
 6772SOL     OW21214   2.901   1.754   2.489
 6772SOL    HW121215   2.827   1.726   2.428
 6772SOL    HW221216   2.989   1.726   2.450
 6773SOL     OW21217   6.997   4.317   2.579
 6773SOL    HW121218   6.969   4.235   2.529
 6773SOL    HW221219   0.076   4.311   2.600
 6774SOL     OW21220   0.740   1.970   6.788
 6774SOL    HW121221   0.702   2.062   6.796
 6774SOL    HW221222   0.665   1.904   6.776
 6775SOL     OW21223   2.303   4.814   0.994
 6775SOL    HW121224   2.226   4.813   0.931
 6775SOL    HW221225   2.353   4.900   0.984
 6776SOL     OW21226   6.152   5.128   0.124
 6776SOL    HW121227   6.184   5.128   0.219
 6776SOL    HW221228   6.124   5.035   0.098
 6777SOL     OW21229   4.482   4.668   6.522
 6777SOL    HW121230   4.410   4.600   6.528
 6777SOL    HW221231   4.519   4.687   6.613
 6778SOL     OW21232   0.633   5.508   2.931
 6778SOL    HW121233   0.707   5.557   2.977
 6778SOL    HW221234   0.665   5.477   2.841
 6779SOL     OW21235   0.042   5.080   0.390
 6779SOL    HW121236   0.059   5.164   0.443
 6779SOL    HW221237   0.123   5.059   0.336
 6780SOL     OW21238   0.260   2.195   2.202
 6780SOL    HW121239   0.221   2.203   2.294
 6780SOL    HW221240   0.260   2.284   2.158
 6781SOL     OW21241   5.273   5.822   6.005
 6781SOL    HW121242   5.175   5.822   6.026
 6781SOL    HW221243   5.322   5.870   6.077
 6782SOL     OW21244   6.506   1.705   2.782
 6782SOL    HW121245   6.479   1.788   2.832
 6782SOL    HW221246   6.486   1.625   2.837
 6783SOL     OW21247   0.098   6.192   6.619
 6783SOL    HW121248   0.151   6.126   6.672
 6783SOL    HW221249   0.013   6.213   6.666
 6784SOL     OW21250   3.315   3.402   0.706
 6784SOL    HW121251   3.360   3.491   0.700
 6784SOL    HW221252   3.252   3.401   0.784
 6785SOL     OW21253   5.571   6.275   2.204
 6785SOL    HW121254   5.510   6.322   2.269
 6785SOL    HW221255   5.612   6.196   2.249
 6786SOL     OW21256   1.793   2.590   6.061
 6786SOL    HW121257   1.718   2.624   6.004
 6786SOL    HW221258   1.880   2.602   6.014
 6787SOL     OW21259   1.547   3.403   2.327
 6787SOL    HW121260   1.616   3.370   2.391
 6787SOL    HW221261   1.586   3.474   2.270
 6788SOL     OW21262   3.189   3.823   0.988
 6788SOL    HW121263   3.107   3.805   0.933
 6788SOL    HW221264   3.262   3.761   0.960
 6789SOL     OW21265   0.720   6.653   2.302
 6789SOL    HW121266   0.764   6.624   2.387
 6789SOL    HW221267   0.789   6.682   2.236
 6790SOL     OW21268   2.124   2.972   6.687
 6790SOL    HW121269   2.220   2.995   6.703
 6790SOL    HW221270   2.109   2.876   6.713
 6791SOL     OW21271   4.258   2.989   6.274
 6791SOL    HW121272   4.205   2.920   6.324
 6791SOL    HW221273   4.347   2.951   6.249
 6792SOL     OW21274   6.381   6.231   0.625
 6792SOL    HW121275   6.468   6.238   0.577
 6792SOL    HW221276   6.362   6.135   0.647
 6793SOL     OW21277   1.145   3.023   1.241
 6793SOL    HW121278   1.105   3.105   1.283
 6793SOL    HW221279   1.106   2.942   1.283
 6794SOL     OW21280   5.121   1.083   5.115
 6794SOL    HW121281   5.134   1.155   5.047
 6794SOL    HW221282   5.203   1.077   5.173
 6795SOL     OW21283   2.969   6.047   0.561
 6795SOL    HW121284   2.884   6.098   0.570
 6795SOL    HW221285   2.960   5.959   0.608
 6796SOL     OW21286   4.729   1.357   3.029
 6796SOL    HW121287   4.769   1.268   3.010
 6796SOL    HW221288   4.789   1.429   2.993
 6797SOL     OW21289   5.754   3.123   2.210
 6797SOL    HW121290   5.853   3.139   2.201
 6797SOL    HW221291   5.715   3.194   2.268
 6798SOL     OW21292   5.089   5.811   2.755
 6798SOL    HW121293   5.023   5.886   2.750
 6798SOL    HW221294   5.148   5.824   2.835
 6799SOL     OW21295   5.404   5.902   0.308
 6799SOL    HW121296   5.429   5.938   0.398
 6799SOL    HW221297   5.485   5.901   0.249
 6800SOL     OW21298   1.895   4.797   0.240
 6800SOL    HW121299   1.862   4.870   0.300
 6800SOL    HW221300   1.834   4.718   0.248
 6801SOL     OW21301   1.555   2.453   2.253
 6801SOL    HW121302   1.493   2.441   2.176
 6801SOL    HW221303   1.566   2.367   2.302
 6802SOL     OW21304   2.412   6.234   1.590
 6802SOL    HW121305   2.327   6.201   1.631
 6802SOL    HW221306   2.397   6.324   1.549
 6803SOL     OW21307   5.225   1.919   6.807
 6803SOL    HW121308   5.192   1.831   6.840
 6803SOL    HW221309   5.199   1.991   6.871
 6804SOL     OW21310   1.674   5.838   3.603
 6804SOL    HW121311   1.764   5.880   3.618
 6804SOL    HW221312   1.603   5.908   3.613
 6805SOL     OW21313   6.174   0.622   4.856
 6805SOL    HW121314   6.197   0.584   4.767
 6805SOL    HW221315   6.077   0.646   4.858
 6806SOL     OW21316   4.132   0.945   5.441
 6806SOL    HW121317   4.137   0.949   5.541
 6806SOL    HW221318   4.104   1.034   5.406
 6807SOL     OW21319   3.051   3.048   0.145
 6807SOL    HW121320   3.148   3.043   0.166
 6807SOL    HW221321   2.998   3.043   0.230
 6808SOL     OW21322   0.655   2.636   5.815
 6808SOL    HW121323   0.578   2.577   5.791
 6808SOL    HW221324   0.666   2.639   5.914
 6809SOL     OW21325   2.511   3.829   6.796
 6809SOL    HW121326   2.550   3.886   6.868
 6809SOL    HW221327   2.448   3.883   6.741
 6810SOL     OW21328   0.005   0.683   2.247
 6810SOL    HW121329   0.026   0.696   2.150
 6810SOL    HW221330   7.004   0.772   2.290
 6811SOL     OW21331   6.104   4.815   1.315
 6811SOL    HW121332   6.142   4.891   1.367
 6811SOL    HW221333   6.015   4.789   1.353
 6812SOL     OW21334   3.695   3.227   3.372
 6812SOL    HW121335   3.782   3.266   3.403
 6812SOL    HW221336   3.636   3.209   3.451
 6813SOL     OW21337   4.337   2.744   0.945
 6813SOL    HW121338   4.358   2.841   0.957
 6813SOL    HW221339   4.398   2.689   1.002
 6814SOL     OW21340   2.518   3.839   0.863
 6814SOL    HW121341   2.486   3.869   0.953
 6814SOL    HW221342   2.442   3.841   0.798
 6815SOL     OW21343   2.154   0.557   1.377
 6815SOL    HW121344   2.153   0.656   1.364
 6815SOL    HW221345   2.091   0.532   1.450
 6816SOL     OW21346   6.702   4.665   0.063
 6816SOL    HW121347   6.638   4.658   0.140
 6816SOL    HW221348   6.662   4.620   7.001
 6817SOL     OW21349   0.042   1.773   5.650
 6817SOL    HW121350   0.061   1.829   5.730
 6817SOL    HW221351   0.034   1.677   5.676
 6818SOL     OW21352   3.778   6.328   2.604
 6818SOL    HW121353   3.786   6.231   2.627
 6818SOL    HW221354   3.691   6.345   2.557
 6819SOL     OW21355   3.369   0.817   3.943
 6819SOL    HW121356   3.376   0.909   3.981
 6819SOL    HW221357   3.439   0.758   3.983
 6820SOL     OW21358   1.057   4.089   3.007
 6820SOL    HW121359   1.007   4.163   3.052
 6820SOL    HW221360   1.142   4.072   3.056
 6821SOL     OW21361   2.422   2.386   4.568
 6821SOL    HW121362   2.366   2.313   4.606
 6821SOL    HW221363   2.491   2.414   4.635
 6822SOL     OW21364   5.844   2.161   5.847
 6822SOL    HW121365   5.940   2.133   5.839
 6822SOL    HW221366   5.805   2.174   5.757
 6823SOL     OW21367   3.031   3.169   3.108
 6823SOL    HW121368   3.093   3.099   3.072
 6823SOL    HW221369   2.990   3.219   3.031
 6824SOL     OW21370   0.826   4.348   6.481
 6824SOL    HW121371   0.820   4.323   6.578
 6824SOL    HW221372   0.737   4.335   6.438
 6825SOL     OW21373   4.905   0.032   2.172
 6825SOL    HW121374   4.867   6.998   2.248
 6825SOL    HW221375   4.977   0.093   2.206
 6826SOL     OW21376   1.821   3.285   2.699
 6826SOL    HW121377   1.852   3.380   2.699
 6826SOL    HW221378   1.880   3.230   2.758
 6827SOL     OW21379   5.542   5.701   6.345
 6827SOL    HW121380   5.616   5.760   6.377
 6827SOL    HW221381   5.464   5.707   6.407
 6828SOL     OW21382   1.246   2.590   1.353
 6828SOL    HW121383   1.276   2.496   1.334
 6828SOL    HW221384   1.292   2.624   1.435
 6829SOL     OW21385   5.213   6.133   3.779
 6829SOL    HW121386   5.196   6.143   3.681
 6829SOL    HW221387   5.138   6.083   3.821
 6830SOL     OW21388   5.499   1.794   3.584
 6830SOL    HW121389   5.543   1.880   3.610
 6830SOL    HW221390   5.525   1.723   3.649
 6831SOL     OW21391   0.369   0.765   5.634
 6831SOL    HW121392   0.380   0.812   5.722
 6831SOL    HW221393   0.436   0.692   5.627
 6832SOL     OW21394   3.299   5.217   2.263
 6832SOL    HW121395   3.238   5.198   2.186
 6832SOL    HW221396   3.259   5.288   2.321
 6833SOL     OW21397   3.823   4.780   0.323
 6833SOL    HW121398   3.790   4.756   0.414
 6833SOL    HW221399   3.745   4.796   0.262
 6834SOL     OW21400   4.137   6.153   1.844
 6834SOL    HW121401   4.162   6.163   1.940
 6834SOL    HW221402   4.039   6.131   1.837
 6835SOL     OW21403   3.834   6.964   4.755
 6835SOL    HW121404   3.820   6.899   4.830
 6835SOL    HW221405   3.857   0.036   4.793
 6836SOL     OW21406   3.519   6.727   6.827
 6836SOL    HW121407   3.435   6.715   6.880
 6836SOL    HW221408   3.515   6.814   6.777
 6837SOL     OW21409   1.821   3.352   1.898
 6837SOL    HW121410   1.756   3.335   1.824
 6837SOL    HW221411   1.897   3.407   1.864
 6838SOL     OW21412   2.275   1.364   6.918
 6838SOL    HW121413   2.284   1.431   6.844
 6838SOL    HW221414   2.179   1.343   6.932
 6839SOL     OW21415   4.295   1.139   0.544
 6839SOL    HW121416   4.255   1.107   0.458
 6839SOL    HW221417   4.394   1.145   0.534
 6840SOL     OW21418   1.549   1.370   6.141
 6840SOL    HW121419   1.528   1.280   6.180
 6840SOL    HW221420   1.470   1.430   6.153
 6841SOL     OW21421   6.467   2.785   6.230
 6841SOL    HW121422   6.487   2.849   6.305
 6841SOL    HW221423   6.502   2.822   6.144
 6842SOL     OW21424   2.351   5.030   2.865
 6842SOL    HW121425   2.359   4.946   2.918
 6842SOL    HW221426   2.303   5.099   2.919
 6843SOL     OW21427   4.609   6.565   6.754
 6843SOL    HW121428   4.649   6.481   6.717
 6843SOL    HW221429   4.559   6.544   6.838
 6844SOL     OW21430   5.338   0.566   5.168
 6844SOL    HW121431   5.330   0.645   5.228
 6844SOL    HW221432   5.255   0.511   5.173
 6845SOL     OW21433   5.085   2.160   2.514
 6845SOL    HW121434   4.999   2.165   2.463
 6845SOL    HW221435   5.066   2.163   2.612
 6846SOL     OW21436   2.628   3.674   0.444
 6846SOL    HW121437   2.615   3.707   0.537
 6846SOL    HW221438   2.677   3.742   0.390
 6847SOL     OW21439   5.503   3.455   3.984
 6847SOL    HW121440   5.475   3.551   3.977
 6847SOL    HW221441   5.524   3.433   4.079
 6848SOL     OW21442   5.985   5.252   3.233
 6848SOL    HW121443   5.922   5.174   3.234
 6848SOL    HW221444   5.992   5.287   3.139
 6849SOL     OW21445   3.733   4.161   6.682
 6849SOL    HW121446   3.805   4.173   6.751
 6849SOL    HW221447   3.699   4.251   6.653
 6850SOL     OW21448   4.019   1.363   3.707
 6850SOL    HW121449   4.034   1.381   3.804
 6850SOL    HW221450   4.049   1.442   3.654
 6851SOL     OW21451   1.924   2.892   3.698
 6851SOL    HW121452   1.826   2.903   3.720
 6851SOL    HW221453   1.949   2.959   3.629
 6852SOL     OW21454   2.707   5.252   0.358
 6852SOL    HW121455   2.609   5.243   0.374
 6852SOL    HW221456   2.751   5.162   0.362
 6853SOL     OW21457   4.940   3.018   0.119
 6853SOL    HW121458   4.976   3.031   0.027
 6853SOL    HW221459   4.996   2.950   0.167
 6854SOL     OW21460   5.255   6.683   5.755
 6854SOL    HW121461   5.245   6.584   5.769
 6854SOL    HW221462   5.352   6.707   5.764
 6855SOL     OW21463   3.869   5.247   3.630
 6855SOL    HW121464   3.841   5.262   3.724
 6855SOL    HW221465   3.965   5.219   3.627
 6856SOL     OW21466   1.250   1.952   0.023
 6856SOL    HW121467   1.266   1.879   0.090
 6856SOL    HW221468   1.232   1.911   6.952
 6857SOL     OW21469   0.895   3.862   5.465
 6857SOL    HW121470   0.879   3.798   5.390
 6857SOL    HW221471   0.955   3.935   5.434
 6858SOL     OW21472   2.925   4.149   1.671
 6858SOL    HW121473   2.957   4.243   1.684
 6858SOL    HW221474   3.003   4.087   1.665
 6859SOL     OW21475   1.021   1.030   2.428
 6859SOL    HW121476   0.984   1.083   2.352
 6859SOL    HW221477   1.014   1.084   2.512
 6860SOL     OW21478   0.934   6.666   2.120
 6860SOL    HW121479   0.963   6.760   2.098
 6860SOL    HW221480   1.011   6.604   2.111
 6861SOL     OW21481   5.110   2.171   5.023
 6861SOL    HW121482   5.076   2.261   5.049
 6861SOL    HW221483   5.045   2.101   5.054
 6862SOL     OW21484   0.472   4.570   5.208
 6862SOL    HW121485   0.503   4.524   5.125
 6862SOL    HW221486   0.455   4.667   5.189
 6863SOL     OW21487   6.757   6.743   5.578
 6863SOL    HW121488   6.660   6.725   5.561
 6863SOL    HW221489   6.812   6.699   5.507
 6864SOL     OW21490   1.385   3.927   6.160
 6864SOL    HW121491   1.445   3.964   6.090
 6864SOL    HW221492   1.343   3.842   6.127
 6865SOL     OW21493   2.083   6.977   4.004
 6865SOL    HW121494   2.179   6.976   4.032
 6865SOL    HW221495   2.060   0.048   3.967
 6866SOL     OW21496   0.641   4.138   1.595
 6866SOL    HW121497   0.650   4.230   1.558
 6866SOL    HW221498   0.571   4.137   1.667
 6867SOL     OW21499   2.215   3.685   6.705
 6867SOL    HW121500   2.267   3.769   6.719
 6867SOL    HW221501   2.229   3.624   6.783
 6868SOL     OW21502   2.520   4.911   4.610
 6868SOL    HW121503   2.467   4.858   4.544
 6868SOL    HW221504   2.466   4.926   4.693
 6869SOL     OW21505   4.155   0.757   5.809
 6869SOL    HW121506   4.227   0.735   5.743
 6869SOL    HW221507   4.093   0.680   5.818
 6870SOL     OW21508   0.159   2.985   0.858
 6870SOL    HW121509   0.197   3.035   0.780
 6870SOL    HW221510   0.133   3.050   0.929
 6871SOL     OW21511   0.337   3.690   2.745
 6871SOL    HW121512   0.358   3.609   2.799
 6871SOL    HW221513   0.415   3.714   2.687
 6872SOL     OW21514   2.476   3.547   0.753
 6872SOL    HW121515   2.428   3.585   0.832
 6872SOL    HW221516   2.549   3.486   0.784
 6873SOL     OW21517   0.890   4.461   4.416
 6873SOL    HW121518   0.839   4.471   4.501
 6873SOL    HW221519   0.895   4.364   4.391
 6874SOL     OW21520   5.462   6.523   3.407
 6874SOL    HW121521   5.535   6.507   3.473
 6874SOL    HW221522   5.374   6.525   3.454
 6875SOL     OW21523   1.498   2.535   0.736
 6875SOL    HW121524   1.501   2.450   0.790
 6875SOL    HW221525   1.529   2.611   0.793
 6876SOL     OW21526   4.358   5.553   3.677
 6876SOL    HW121527   4.421   5.574   3.752
 6876SOL    HW221528   4.264   5.559   3.709
 6877SOL     OW21529   1.518   3.629   2.647
 6877SOL    HW121530   1.457   3.549   2.650
 6877SOL    HW221531   1.610   3.602   2.674
 6878SOL     OW21532   1.945   0.370   4.138
 6878SOL    HW121533   2.043   0.384   4.154
 6878SOL    HW221534   1.892   0.434   4.193
 6879SOL     OW21535   1.729   2.073   0.422
 6879SOL    HW121536   1.803   2.109   0.364
 6879SOL    HW221537   1.714   2.134   0.500
 6880SOL     OW21538   1.391   5.454   6.515
 6880SOL    HW121539   1.356   5.466   6.422
 6880SOL    HW221540   1.489   5.435   6.511
 6881SOL     OW21541   1.255   2.859   0.247
 6881SOL    HW121542   1.258   2.958   0.243
 6881SOL    HW221543   1.249   2.829   0.342
 6882SOL     OW21544   3.074   6.371   6.239
 6882SOL    HW121545   3.079   6.319   6.154
 6882SOL    HW221546   3.163   6.413   6.258
 6883SOL     OW21547   5.153   0.206   6.976
 6883SOL    HW121548   5.150   0.130   6.912
 6883SOL    HW221549   5.168   0.291   6.926
 6884SOL     OW21550   1.723   3.845   3.127
 6884SOL    HW121551   1.753   3.847   3.032
 6884SOL    HW221552   1.765   3.768   3.174
 6885SOL     OW21553   5.737   5.960   4.561
 6885SOL    HW121554   5.723   5.888   4.630
 6885SOL    HW221555   5.832   5.989   4.563
 6886SOL     OW21556   4.882   1.795   6.635
 6886SOL    HW121557   4.973   1.818   6.599
 6886SOL    HW221558   4.892   1.745   6.721
 6887SOL     OW21559   5.305   5.794   6.449
 6887SOL    HW121560   5.216   5.773   6.409
 6887SOL    HW221561   5.350   5.865   6.394
 6888SOL     OW21562   5.970   5.065   6.749
 6888SOL    HW121563   5.930   5.111   6.670
 6888SOL    HW221564   6.015   4.980   6.719
 6889SOL     OW21565   0.633   2.216   6.813
 6889SOL    HW121566   0.536   2.227   6.792
 6889SOL    HW221567   0.683   2.298   6.786
 6890SOL     OW21568   4.582   5.381   2.994
 6890SOL    HW121569   4.577   5.378   2.894
 6890SOL    HW221570   4.574   5.288   3.031
 6891SOL     OW21571   1.638   1.039   1.169
 6891SOL    HW121572   1.707   0.993   1.113
 6891SOL    HW221573   1.560   0.978   1.181
 6892SOL     OW21574   3.162   1.071   4.684
 6892SOL    HW121575   3.209   1.130   4.619
 6892SOL    HW221576   3.112   1.127   4.750
 6893SOL     OW21577   6.795   3.267   0.231
 6893SOL    HW121578   6.848   3.185   0.207
 6893SOL    HW221579   6.709   3.239   0.275
 6894SOL     OW21580   5.724   5.221   0.603
 6894SOL    HW121581   5.633   5.250   0.632
 6894SOL    HW221582   5.744   5.130   0.638
 6895SOL     OW21583   0.724   6.546   1.380
 6895SOL    HW121584   0.719   6.486   1.459
 6895SOL    HW221585   0.675   6.631   1.400
 6896SOL     OW21586   4.466   2.501   4.595
 6896SOL    HW121587   4.387   2.548   4.555
 6896SOL    HW221588   4.440   2.460   4.682
 6897SOL     OW21589   4.928   3.635   5.478
 6897SOL    HW121590   4.967   3.564   5.536
 6897SOL    HW221591   4.956   3.619   5.383
 6898SOL     OW21592   2.499   1.248   1.251
 6898SOL    HW121593   2.597   1.267   1.241
 6898SOL    HW221594   2.480   1.213   1.342
 6899SOL     OW21595   6.063   6.466   2.642
 6899SOL    HW121596   6.117   6.410   2.579
 6899SOL    HW221597   5.968   6.469   2.611
 6900SOL     OW21598   6.520   4.022   5.362
 6900SOL    HW121599   6.467   4.037   5.278
 6900SOL    HW221600   6.601   4.081   5.361
 6901SOL     OW21601   4.562   4.722   0.235
 6901SOL    HW121602   4.550   4.719   0.334
 6901SOL    HW221603   4.472   4.717   0.191
 6902SOL     OW21604   0.948   5.823   6.310
 6902SOL    HW121605   0.919   5.780   6.224
 6902SOL    HW221606   1.014   5.763   6.356
 6903SOL     OW21607   2.248   5.522   4.432
 6903SOL    HW121608   2.193   5.582   4.374
 6903SOL    HW221609   2.190   5.449   4.469
 6904SOL     OW21610   6.996   6.844   5.159
 6904SOL    HW121611   6.972   6.853   5.063
 6904SOL    HW221612   0.067   6.802   5.168
 6905SOL     OW21613   4.717   5.889   6.143
 6905SOL    HW121614   4.745   5.976   6.184
 6905SOL    HW221615   4.628   5.900   6.099
 6906SOL     OW21616   3.635   1.615   3.857
 6906SOL    HW121617   3.564   1.557   3.897
 6906SOL    HW221618   3.592   1.696   3.817
 6907SOL     OW21619   6.338   2.028   0.891
 6907SOL    HW121620   6.267   2.035   0.822
 6907SOL    HW221621   6.416   1.977   0.854
 6908SOL     OW21622   2.719   4.262   6.948
 6908SOL    HW121623   2.730   4.323   0.008
 6908SOL    HW221624   2.804   4.210   6.935
 6909SOL     OW21625   5.829   6.174   2.620
 6909SOL    HW121626   5.773   6.149   2.699
 6909SOL    HW221627   5.909   6.113   2.615
 6910SOL     OW21628   1.639   2.615   3.522
 6910SOL    HW121629   1.606   2.539   3.466
 6910SOL    HW221630   1.680   2.580   3.606
 6911SOL     OW21631   2.837   6.895   5.918
 6911SOL    HW121632   2.842   6.882   5.819
 6911SOL    HW221633   2.798   6.813   5.961
 6912SOL     OW21634   2.455   3.571   6.586
 6912SOL    HW121635   2.365   3.610   6.607
 6912SOL    HW221636   2.516   3.644   6.553
 6913SOL     OW21637   5.035   6.335   5.987
 6913SOL    HW121638   5.019   6.398   5.911
 6913SOL    HW221639   5.077   6.384   6.063
 6914SOL     OW21640   6.589   2.926   2.020
 6914SOL    HW121641   6.519   2.918   2.091
 6914SOL    HW221642   6.547   2.957   1.935
 6915SOL     OW21643   1.009   2.825   2.904
 6915SOL    HW121644   0.911   2.835   2.923
 6915SOL    HW221645   1.021   2.783   2.814
 6916SOL     OW21646   4.913   5.904   6.986
 6916SOL    HW121647   4.941   5.908   6.890
 6916SOL    HW221648   4.983   5.946   0.024
 6917SOL     OW21649   5.214   5.191   1.311
 6917SOL    HW121650   5.299   5.138   1.301
 6917SOL    HW221651   5.162   5.154   1.388
 6918SOL     OW21652   2.000   3.368   1.426
 6918SOL    HW121653   1.944   3.438   1.384
 6918SOL    HW221654   2.015   3.390   1.523
 6919SOL     OW21655   6.664   6.278   3.287
 6919SOL    HW121656   6.575   6.303   3.250
 6919SOL    HW221657   6.703   6.356   3.336
 6920SOL     OW21658   5.873   0.922   5.442
 6920SOL    HW121659   5.946   0.956   5.501
 6920SOL    HW221660   5.861   0.824   5.456
 6921SOL     OW21661   3.953   0.329   4.175
 6921SOL    HW121662   3.877   0.362   4.119
 6921SOL    HW221663   4.036   0.380   4.152
 6922SOL     OW21664   1.275   5.009   5.676
 6922SOL    HW121665   1.179   4.986   5.693
 6922SOL    HW221666   1.282   5.059   5.589
 6923SOL     OW21667   6.006   6.903   2.506
 6923SOL    HW121668   5.953   6.822   2.480
 6923SOL    HW221669   6.096   6.875   2.538
 6924SOL     OW21670   3.318   6.119   1.033
 6924SOL    HW121671   3.307   6.207   0.987
 6924SOL    HW221672   3.309   6.046   0.965
 6925SOL     OW21673   5.796   6.240   6.166
 6925SOL    HW121674   5.747   6.153   6.174
 6925SOL    HW221675   5.784   6.277   6.074
 6926SOL     OW21676   3.037   2.374   0.187
 6926SOL    HW121677   2.972   2.301   0.208
 6926SOL    HW221678   3.125   2.353   0.229
 6927SOL     OW21679   4.770   0.602   0.596
 6927SOL    HW121680   4.865   0.576   0.575
 6927SOL    HW221681   4.711   0.574   0.521
 6928SOL     OW21682   4.482   5.247   1.197
 6928SOL    HW121683   4.418   5.302   1.251
 6928SOL    HW221684   4.566   5.232   1.250
 6929SOL     OW21685   6.327   5.558   1.218
 6929SOL    HW121686   6.339   5.468   1.176
 6929SOL    HW221687   6.237   5.594   1.193
 6930SOL     OW21688   1.377   6.814   0.579
 6930SOL    HW121689   1.457   6.873   0.589
 6930SOL    HW221690   1.382   6.767   0.491
 6931SOL     OW21691   3.044   2.955   0.832
 6931SOL    HW121692   3.060   3.030   0.769
 6931SOL    HW221693   3.071   2.982   0.924
 6932SOL     OW21694   4.685   5.464   6.983
 6932SOL    HW121695   4.617   5.396   6.954
 6932SOL    HW221696   4.758   5.419   0.015
 6933SOL     OW21697   3.445   5.430   6.323
 6933SOL    HW121698   3.428   5.350   6.265
 6933SOL    HW221699   3.505   5.404   6.399
 6934SOL     OW21700   5.293   3.929   6.888
 6934SOL    HW121701   5.247   4.010   6.852
 6934SOL    HW221702   5.298   3.935   6.987
 6935SOL     OW21703   5.428   5.626   1.418
 6935SOL    HW121704   5.353   5.561   1.403
 6935SOL    HW221705   5.494   5.586   1.481
 6936SOL     OW21706   0.913   2.349   5.082
 6936SOL    HW121707   1.007   2.328   5.058
 6936SOL    HW221708   0.881   2.284   5.151
 6937SOL     OW21709   5.246   5.719   0.164
 6937SOL    HW121710   5.201   5.672   0.240
 6937SOL    HW221711   5.319   5.777   0.200
 6938SOL     OW21712   1.532   0.445   5.051
 6938SOL    HW121713   1.459   0.487   5.104
 6938SOL    HW221714   1.619   0.458   5.099
 6939SOL     OW21715   5.709   4.189   3.499
 6939SOL    HW121716   5.744   4.204   3.406
 6939SOL    HW221717   5.782   4.151   3.556
 6940SOL     OW21718   3.270   6.349   0.912
 6940SOL    HW121719   3.354   6.359   0.859
 6940SOL    HW221720   3.192   6.376   0.855
 6941SOL     OW21721   3.286   3.660   2.520
 6941SOL    HW121722   3.186   3.671   2.523
 6941SOL    HW221723   3.321   3.645   2.613
 6942SOL     OW21724   6.091   6.823   1.916
 6942SOL    HW121725   6.153   6.883   1.866
 6942SOL    HW221726   6.091   6.847   2.013
 6943SOL     OW21727   4.480   5.081   6.318
 6943SOL    HW121728   4.522   5.002   6.275
 6943SOL    HW221729   4.522   5.165   6.282
 6944SOL     OW21730   1.135   4.491   5.225
 6944SOL    HW121731   1.222   4.466   5.181
 6944SOL    HW221732   1.105   4.416   5.283
 6945SOL     OW21733   5.797   2.483   0.774
 6945SOL    HW121734   5.755   2.549   0.711
 6945SOL    HW221735   5.744   2.399   0.776
 6946SOL     OW21736   4.460   5.852   3.112
 6946SOL    HW121737   4.480   5.755   3.128
 6946SOL    HW221738   4.395   5.861   3.037
 6947SOL     OW21739   5.137   4.840   5.066
 6947SOL    HW121740   5.050   4.848   5.115
 6947SOL    HW221741   5.126   4.878   4.974
 6948SOL     OW21742   0.263   4.994   0.259
 6948SOL    HW121743   0.195   4.926   0.236
 6948SOL    HW221744   0.326   5.006   0.182
 6949SOL     OW21745   2.383   1.075   3.808
 6949SOL    HW121746   2.435   1.116   3.883
 6949SOL    HW221747   2.344   1.147   3.751
 6950SOL     OW21748   0.468   0.459   4.584
 6950SOL    HW121749   0.444   0.473   4.488
 6950SOL    HW221750   0.562   0.427   4.590
 6951SOL     OW21751   0.390   5.068   6.164
 6951SOL    HW121752   0.331   5.098   6.239
 6951SOL    HW221753   0.412   4.971   6.176
 6952SOL     OW21754   4.090   5.612   3.738
 6952SOL    HW121755   4.118   5.705   3.714
 6952SOL    HW221756   3.991   5.603   3.724
 6953SOL     OW21757   4.980   1.288   1.106
 6953SOL    HW121758   5.013   1.198   1.077
 6953SOL    HW221759   5.042   1.326   1.175
 6954SOL     OW21760   6.150   3.974   0.129
 6954SOL    HW121761   6.200   4.047   0.176
 6954SOL    HW221762   6.133   3.900   0.194
 6955SOL     OW21763   4.991   6.796   2.031
 6955SOL    HW121764   5.050   6.873   2.050
 6955SOL    HW221765   4.923   6.787   2.104
 6956SOL     OW21766   5.467   5.490   2.504
 6956SOL    HW121767   5.552   5.537   2.528
 6956SOL    HW221768   5.394   5.520   2.564
 6957SOL     OW21769   5.386   5.952   6.250
 6957SOL    HW121770   5.318   6.023   6.231
 6957SOL    HW221771   5.472   5.976   6.206
 6958SOL     OW21772   2.895   3.626   3.820
 6958SOL    HW121773   2.890   3.560   3.895
 6958SOL    HW221774   2.854   3.585   3.738
 6959SOL     OW21775   0.685   4.054   3.086
 6959SOL    HW121776   0.713   4.086   2.995
 6959SOL    HW221777   0.720   3.962   3.101
 6960SOL     OW21778   3.066   4.367   0.419
 6960SOL    HW121779   3.007   4.327   0.349
 6960SOL    HW221780   3.144   4.306   0.434
 6961SOL     OW21781   4.792   1.725   5.173
 6961SOL    HW121782   4.754   1.756   5.260
 6961SOL    HW221783   4.868   1.662   5.191
 6962SOL     OW21784   2.447   6.492   6.562
 6962SOL    HW121785   2.502   6.530   6.488
 6962SOL    HW221786   2.353   6.480   6.530
 6963SOL     OW21787   5.021   6.397   0.889
 6963SOL    HW121788   5.109   6.444   0.880
 6963SOL    HW221789   5.012   6.330   0.815
 6964SOL     OW21790   1.799   0.183   5.526
 6964SOL    HW121791   1.847   0.154   5.609
 6964SOL    HW221792   1.762   0.103   5.479
 6965SOL     OW21793   0.737   1.972   0.158
 6965SOL    HW121794   0.738   1.878   0.192
 6965SOL    HW221795   0.829   1.995   0.125
 6966SOL     OW21796   1.164   6.689   1.381
 6966SOL    HW121797   1.162   6.699   1.282
 6966SOL    HW221798   1.241   6.742   1.419
 6967SOL     OW21799   4.423   1.540   6.321
 6967SOL    HW121800   4.481   1.611   6.362
 6967SOL    HW221801   4.454   1.521   6.228
 6968SOL     OW21802   3.914   6.354   2.319
 6968SOL    HW121803   3.992   6.401   2.361
 6968SOL    HW221804   3.891   6.397   2.233
 6969SOL     OW21805   2.137   1.760   1.960
 6969SOL    HW121806   2.075   1.692   1.921
 6969SOL    HW221807   2.085   1.840   1.990
 6970SOL     OW21808   3.506   4.885   5.638
 6970SOL    HW121809   3.584   4.823   5.634
 6970SOL    HW221810   3.538   4.976   5.666
 6971SOL     OW21811   6.952   4.582   0.148
 6971SOL    HW121812   6.951   4.528   0.232
 6971SOL    HW221813   6.862   4.622   0.133
 6972SOL     OW21814   5.341   3.817   1.874
 6972SOL    HW121815   5.251   3.809   1.917
 6972SOL    HW221816   5.331   3.857   1.782
 6973SOL     OW21817   1.466   3.371   3.178
 6973SOL    HW121818   1.494   3.412   3.092
 6973SOL    HW221819   1.535   3.303   3.207
 6974SOL     OW21820   3.769   4.095   3.142
 6974SOL    HW121821   3.704   4.127   3.211
 6974SOL    HW221822   3.761   3.996   3.132
 6975SOL     OW21823   3.073   5.183   4.311
 6975SOL    HW121824   3.076   5.219   4.405
 6975SOL    HW221825   3.159   5.204   4.265
 6976SOL     OW21826   4.251   4.122   6.174
 6976SOL    HW121827   4.344   4.152   6.197
 6976SOL    HW221828   4.238   4.028   6.206
 6977SOL     OW21829   4.273   5.122   1.047
 6977SOL    HW121830   4.205   5.193   1.028
 6977SOL    HW221831   4.350   5.163   1.096
 6978SOL     OW21832   6.031   3.400   1.410
 6978SOL    HW121833   6.054   3.314   1.456
 6978SOL    HW221834   5.932   3.415   1.415
 6979SOL     OW21835   1.303   3.649   1.675
 6979SOL    HW121836   1.324   3.633   1.772
 6979SOL    HW221837   1.388   3.672   1.627
 6980SOL     OW21838   1.970   5.842   2.872
 6980SOL    HW121839   1.912   5.761   2.862
 6980SOL    HW221840   2.063   5.814   2.893
 6981SOL     OW21841   3.906   3.176   6.927
 6981SOL    HW121842   3.901   3.171   6.827
 6981SOL    HW221843   4.000   3.197   6.954
 6982SOL     OW21844   1.710   0.958   3.228
 6982SOL    HW121845   1.722   1.044   3.278
 6982SOL    HW221846   1.656   0.894   3.282
 6983SOL     OW21847   5.101   0.645   4.258
 6983SOL    HW121848   5.137   0.561   4.298
 6983SOL    HW221849   5.154   0.723   4.292
 6984SOL     OW21850   0.890   2.385   3.280
 6984SOL    HW121851   0.978   2.416   3.243
 6984SOL    HW221852   0.884   2.409   3.377
 6985SOL     OW21853   6.054   3.807   0.322
 6985SOL    HW121854   6.098   3.717   0.334
 6985SOL    HW221855   6.041   3.849   0.411
 6986SOL     OW21856   4.921   4.863   5.219
 6986SOL    HW121857   4.928   4.938   5.285
 6986SOL    HW221858   4.887   4.781   5.266
 6987SOL     OW21859   0.597   1.576   6.371
 6987SOL    HW121860   0.647   1.507   6.424
 6987SOL    HW221861   0.606   1.556   6.273
 6988SOL     OW21862   3.588   1.493   6.127
 6988SOL    HW121863   3.651   1.510   6.051
 6988SOL    HW221864   3.514   1.560   6.124
 6989SOL     OW21865   0.712   5.179   2.329
 6989SOL    HW121866   0.791   5.235   2.306
 6989SOL    HW221867   0.638   5.239   2.361
 6990SOL     OW21868   3.470   2.410   1.103
 6990SOL    HW121869   3.551   2.444   1.151
 6990SOL    HW221870   3.445   2.321   1.141
 6991SOL     OW21871   6.592   3.294   2.176
 6991SOL    HW121872   6.624   3.263   2.265
 6991SOL    HW221873   6.525   3.367   2.188
 6992SOL     OW21874   0.952   5.866   0.166
 6992SOL    HW121875   0.885   5.935   0.139
 6992SOL    HW221876   1.003   5.899   0.245
 6993SOL     OW21877   4.427   1.446   1.380
 6993SOL    HW121878   4.459   1.356   1.352
 6993SOL    HW221879   4.488   1.516   1.343
 6994SOL     OW21880   2.515   0.321   3.388
 6994SOL    HW121881   2.588   0.320   3.320
 6994SOL    HW221882   2.429   0.349   3.345
 6995SOL     OW21883   0.464   4.044   1.030
 6995SOL    HW121884   0.400   4.100   1.083
 6995SOL    HW221885   0.508   3.978   1.090
 6996SOL     OW21886   1.466   0.834   0.437
 6996SOL    HW121887   1.493   0.765   0.369
 6996SOL    HW221888   1.378   0.809   0.477
 6997SOL     OW21889   5.967   5.414   5.847
 6997SOL    HW121890   5.894   5.365   5.895
 6997SOL    HW221891   5.936   5.438   5.755
 6998SOL     OW21892   6.553   1.348   0.043
 6998SOL    HW121893   6.534   1.250   0.036
 6998SOL    HW221894   6.550   1.389   6.970
 6999SOL     OW21895   0.245   3.230   0.301
 6999SOL    HW121896   0.258   3.243   0.203
 6999SOL    HW221897   0.278   3.139   0.328
 7000SOL     OW21898   6.799   6.359   3.546
 7000SOL    HW121899   6.859   6.420   3.496
 7000SOL    HW221900   6.785   6.394   3.638
 7001SOL     OW21901   0.473   1.900   4.554
 7001SOL    HW121902   0.389   1.920   4.503
 7001SOL    HW221903   0.495   1.977   4.613
 7002SOL     OW21904   0.798   5.143   2.594
 7002SOL    HW121905   0.796   5.154   2.495
 7002SOL    HW221906   0.755   5.056   2.619
 7003SOL     OW21907   6.814   4.368   1.110
 7003SOL    HW121908   6.904   4.411   1.123
 7003SOL    HW221909   6.742   4.431   1.139
 7004SOL     OW21910   2.137   6.402   0.492
 7004SOL    HW121911   2.188   6.327   0.536
 7004SOL    HW221912   2.063   6.432   0.552
 7005SOL     OW21913   0.862   6.046   0.774
 7005SOL    HW121914   0.802   5.969   0.752
 7005SOL    HW221915   0.949   6.035   0.726
 7006SOL     OW21916   1.517   0.217   4.841
 7006SOL    HW121917   1.531   0.277   4.920
 7006SOL    HW221918   1.582   0.240   4.769
 7007SOL     OW21919   2.455   0.061   5.804
 7007SOL    HW121920   2.360   0.087   5.790
 7007SOL    HW221921   2.501   0.053   5.715
 7008SOL     OW21922   5.694   3.725   3.286
 7008SOL    HW121923   5.750   3.669   3.347
 7008SOL    HW221924   5.743   3.808   3.261
 7009SOL     OW21925   4.512   5.274   1.933
 7009SOL    HW121926   4.604   5.298   1.963
 7009SOL    HW221927   4.512   5.259   1.834
 7010SOL     OW21928   5.260   3.949   1.605
 7010SOL    HW121929   5.260   3.946   1.505
 7010SOL    HW221930   5.304   4.033   1.635
 7011SOL     OW21931   3.282   6.244   0.051
 7011SOL    HW121932   3.322   6.332   0.026
 7011SOL    HW221933   3.340   6.200   0.120
 7012SOL     OW21934   6.452   2.415   0.634
 7012SOL    HW121935   6.532   2.429   0.691
 7012SOL    HW221936   6.403   2.502   0.624
 7013SOL     OW21937   2.572   1.145   0.525
 7013SOL    HW121938   2.651   1.104   0.571
 7013SOL    HW221939   2.533   1.216   0.584
 7014SOL     OW21940   6.242   2.807   1.395
 7014SOL    HW121941   6.289   2.719   1.398
 7014SOL    HW221942   6.143   2.792   1.385
 7015SOL     OW21943   5.273   6.072   0.985
 7015SOL    HW121944   5.212   6.151   0.996
 7015SOL    HW221945   5.277   6.021   1.070
 7016SOL     OW21946   2.787   4.408   0.868
 7016SOL    HW121947   2.745   4.337   0.812
 7016SOL    HW221948   2.865   4.447   0.820
 7017SOL     OW21949   5.286   5.220   4.711
 7017SOL    HW121950   5.256   5.310   4.680
 7017SOL    HW221951   5.216   5.152   4.688
 7018SOL     OW21952   4.890   3.270   4.530
 7018SOL    HW121953   4.938   3.234   4.610
 7018SOL    HW221954   4.823   3.203   4.499
 7019SOL     OW21955   4.338   5.385   2.416
 7019SOL    HW121956   4.378   5.381   2.325
 7019SOL    HW221957   4.285   5.301   2.434
 7020SOL     OW21958   0.840   2.953   6.670
 7020SOL    HW121959   0.885   3.041   6.665
 7020SOL    HW221960   0.903   2.881   6.641
 7021SOL     OW21961   1.130   1.959   5.143
 7021SOL    HW121962   1.052   1.900   5.161
 7021SOL    HW221963   1.211   1.923   5.189
 7022SOL     OW21964   3.525   2.047   0.440
 7022SOL    HW121965   3.545   1.961   0.487
 7022SOL    HW221966   3.460   2.031   0.366
 7023SOL     OW21967   0.702   1.996   0.878
 7023SOL    HW121968   0.629   2.064   0.872
 7023SOL    HW221969   0.704   1.942   0.793
 7024SOL     OW21970   3.675   3.071   3.832
 7024SOL    HW121971   3.659   2.980   3.795
 7024SOL    HW221972   3.683   3.137   3.757
 7025SOL     OW21973   3.889   6.413   0.573
 7025SOL    HW121974   3.844   6.477   0.635
 7025SOL    HW221975   3.883   6.321   0.611
 7026SOL     OW21976   3.436   2.508   1.558
 7026SOL    HW121977   3.383   2.478   1.478
 7026SOL    HW221978   3.508   2.440   1.577
 7027SOL     OW21979   2.031   5.345   2.948
 7027SOL    HW121980   1.976   5.382   3.023
 7027SOL    HW221981   2.127   5.341   2.977
 7028SOL     OW21982   2.912   0.365   3.313
 7028SOL    HW121983   2.869   0.425   3.380
 7028SOL    HW221984   2.850   0.352   3.235
 7029SOL     OW21985   3.070   3.761   4.990
 7029SOL    HW121986   3.020   3.680   4.960
 7029SOL    HW221987   3.014   3.843   4.974
 7030SOL     OW21988   6.386   1.380   5.349
 7030SOL    HW121989   6.336   1.327   5.418
 7030SOL    HW221990   6.433   1.318   5.288
 7031SOL     OW21991   3.963   6.820   0.522
 7031SOL    HW121992   3.895   6.792   0.454
 7031SOL    HW221993   4.015   6.740   0.551
 7032SOL     OW21994   3.926   5.921   4.342
 7032SOL    HW121995   3.974   5.843   4.383
 7032SOL    HW221996   3.946   6.004   4.395
 7033SOL     OW21997   1.632   1.906   4.758
 7033SOL    HW121998   1.639   2.004   4.737
 7033SOL    HW221999   1.687   1.886   4.840
 7034SOL     OW22000   6.540   0.970   3.656
 7034SOL    HW122001   6.600   1.030   3.707
 7034SOL    HW222002   6.548   0.989   3.558
 7035SOL     OW22003   1.734   0.555   0.468
 7035SOL    HW122004   1.691   0.498   0.399
 7035SOL    HW222005   1.705   0.526   0.559
 7036SOL     OW22006   6.720   1.087   1.943
 7036SOL    HW122007   6.810   1.092   1.985
 7036SOL    HW222008   6.670   1.009   1.981
 7037SOL     OW22009   1.251   0.927   6.290
 7037SOL    HW122010   1.270   0.869   6.211
 7037SOL    HW222011   1.297   1.015   6.278
 7038SOL     OW22012   1.469   3.626   6.660
 7038SOL    HW122013   1.501   3.681   6.583
 7038SOL    HW222014   1.433   3.687   6.731
 7039SOL     OW22015   0.784   6.207   2.614
 7039SOL    HW122016   0.776   6.133   2.681
 7039SOL    HW222017   0.719   6.279   2.638
 7040SOL     OW22018   4.902   3.108   4.929
 7040SOL    HW122019   4.912   3.012   4.954
 7040SOL    HW222020   4.876   3.161   5.010
 7041SOL     OW22021   1.799   0.096   3.760
 7041SOL    HW122022   1.875   0.161   3.761
 7041SOL    HW222023   1.762   0.087   3.853
 7042SOL     OW22024   4.771   6.089   5.355
 7042SOL    HW122025   4.711   6.110   5.278
 7042SOL    HW222026   4.806   5.996   5.345
 7043SOL     OW22027   1.819   5.101   1.589
 7043SOL    HW122028   1.863   5.127   1.674
 7043SOL    HW222029   1.737   5.046   1.609
 7044SOL     OW22030   4.905   6.384   4.386
 7044SOL    HW122031   4.843   6.328   4.442
 7044SOL    HW222032   4.993   6.337   4.377
 7045SOL     OW22033   6.523   5.904   2.545
 7045SOL    HW122034   6.616   5.919   2.512
 7045SOL    HW222035   6.492   5.984   2.597
 7046SOL     OW22036   3.088   2.132   4.346
 7046SOL    HW122037   3.069   2.034   4.336
 7046SOL    HW222038   3.020   2.174   4.406
 7047SOL     OW22039   1.288   6.210   0.619
 7047SOL    HW122040   1.383   6.190   0.642
 7047SOL    HW222041   1.250   6.274   0.685
 7048SOL     OW22042   6.888   6.252   4.901
 7048SOL    HW122043   6.790   6.240   4.881
 7048SOL    HW222044   6.900   6.271   4.998
 7049SOL     OW22045   3.761   0.930   2.796
 7049SOL    HW122046   3.715   0.939   2.884
 7049SOL    HW222047   3.740   0.841   2.756
 7050SOL     OW22048   4.195   4.123   1.209
 7050SOL    HW122049   4.223   4.035   1.169
 7050SOL    HW222050   4.127   4.108   1.280
 7051SOL     OW22051   0.491   0.953   1.539
 7051SOL    HW122052   0.469   0.989   1.629
 7051SOL    HW222053   0.441   1.005   1.469
 7052SOL     OW22054   5.095   0.051   2.668
 7052SOL    HW122055   5.182   0.011   2.640
 7052SOL    HW222056   5.029   6.997   2.686
 7053SOL     OW22057   1.943   3.349   3.058
 7053SOL    HW122058   1.886   3.426   3.028
 7053SOL    HW222059   1.949   3.282   2.985
 7054SOL     OW22060   6.754   0.895   0.291
 7054SOL    HW122061   6.761   0.887   0.390
 7054SOL    HW222062   6.839   0.862   0.249
 7055SOL     OW22063   2.334   1.088   6.810
 7055SOL    HW122064   2.329   1.156   6.883
 7055SOL    HW222065   2.310   0.998   6.845
 7056SOL     OW22066   0.275   5.550   1.179
 7056SOL    HW122067   0.350   5.565   1.243
 7056SOL    HW222068   0.272   5.624   1.112
 7057SOL     OW22069   3.091   4.923   4.737
 7057SOL    HW122070   3.005   4.880   4.764
 7057SOL    HW222071   3.146   4.941   4.818
 7058SOL     OW22072   5.232   3.132   5.859
 7058SOL    HW122073   5.306   3.070   5.834
 7058SOL    HW222074   5.170   3.143   5.781
 7059SOL     OW22075   1.961   0.195   5.323
 7059SOL    HW122076   1.973   0.293   5.305
 7059SOL    HW222077   1.915   0.182   5.410
 7060SOL     OW22078   3.668   0.984   1.853
 7060SOL    HW122079   3.717   1.000   1.939
 7060SOL    HW222080   3.606   0.906   1.865
 7061SOL     OW22081   0.542   1.750   1.774
 7061SOL    HW122082   0.618   1.689   1.753
 7061SOL    HW222083   0.541   1.826   1.709
 7062SOL     OW22084   3.611   0.995   3.024
 7062SOL    HW122085   3.526   0.967   2.979
 7062SOL    HW222086   3.610   0.962   3.119
 7063SOL     OW22087   1.004   0.718   1.870
 7063SOL    HW122088   0.911   0.712   1.906
 7063SOL    HW222089   1.039   0.811   1.880
 7064SOL     OW22090   4.182   1.450   5.299
 7064SOL    HW122091   4.245   1.518   5.339
 7064SOL    HW222092   4.159   1.477   5.206
 7065SOL     OW22093   3.830   5.012   5.522
 7065SOL    HW122094   3.773   5.094   5.535
 7065SOL    HW222095   3.782   4.932   5.559
 7066SOL     OW22096   3.743   0.270   6.900
 7066SOL    HW122097   3.805   0.344   6.928
 7066SOL    HW222098   3.794   0.201   6.849
 7067SOL     OW22099   1.837   3.845   6.785
 7067SOL    HW122100   1.805   3.873   6.695
 7067SOL    HW222101   1.936   3.861   6.793
 7068SOL     OW22102   5.152   3.408   4.541
 7068SOL    HW122103   5.150   3.485   4.477
 7068SOL    HW222104   5.060   3.373   4.554
 7069SOL     OW22105   5.996   0.137   6.568
 7069SOL    HW122106   6.023   0.117   6.473
 7069SOL    HW222107   6.019   0.060   6.627
 7070SOL     OW22108   0.147   6.870   4.904
 7070SOL    HW122109   0.185   6.837   4.817
 7070SOL    HW222110   0.221   6.881   4.970
 7071SOL     OW22111   4.941   6.168   6.793
 7071SOL    HW122112   4.940   6.073   6.761
 7071SOL    HW222113   4.968   6.170   6.889
 7072SOL     OW22114   0.462   3.720   6.094
 7072SOL    HW122115   0.413   3.784   6.154
 7072SOL    HW222116   0.472   3.760   6.003
 7073SOL     OW22117   5.156   1.393   3.280
 7073SOL    HW122118   5.220   1.317   3.285
 7073SOL    HW222119   5.200   1.476   3.312
 7074SOL     OW22120   5.944   4.319   3.126
 7074SOL    HW122121   5.957   4.323   3.027
 7074SOL    HW222122   5.967   4.407   3.167
 7075SOL     OW22123   3.088   5.084   3.699
 7075SOL    HW122124   3.031   5.026   3.758
 7075SOL    HW222125   3.183   5.080   3.730
 7076SOL     OW22126   5.746   2.269   2.247
 7076SOL    HW122127   5.835   2.269   2.293
 7076SOL    HW222128   5.693   2.190   2.279
 7077SOL     OW22129   3.363   5.526   1.384
 7077SOL    HW122130   3.457   5.561   1.379
 7077SOL    HW222131   3.300   5.598   1.354
 7078SOL     OW22132   5.356   0.511   7.002
 7078SOL    HW122133   5.264   0.504   0.022
 7078SOL    HW222134   5.423   0.486   0.054
 7079SOL     OW22135   1.338   6.582   4.829
 7079SOL    HW122136   1.256   6.541   4.790
 7079SOL    HW222137   1.313   6.663   4.882
 7080SOL     OW22138   4.430   2.064   5.540
 7080SOL    HW122139   4.404   2.009   5.461
 7080SOL    HW222140   4.408   2.160   5.524
 7081SOL     OW22141   1.807   0.105   0.439
 7081SOL    HW122142   1.880   0.147   0.386
 7081SOL    HW222143   1.823   0.007   0.446
 7082SOL     OW22144   6.394   4.591   2.850
 7082SOL    HW122145   6.389   4.514   2.786
 7082SOL    HW222146   6.480   4.586   2.902
 7083SOL     OW22147   6.110   2.723   2.978
 7083SOL    HW122148   6.156   2.683   2.898
 7083SOL    HW222149   6.011   2.724   2.962
 7084SOL     OW22150   0.662   6.026   0.121
 7084SOL    HW122151   0.616   6.114   0.109
 7084SOL    HW222152   0.668   6.005   0.219
 7085SOL     OW22153   0.622   3.549   1.871
 7085SOL    HW122154   0.589   3.637   1.836
 7085SOL    HW222155   0.720   3.556   1.892
 7086SOL     OW22156   5.862   1.271   4.330
 7086SOL    HW122157   5.818   1.215   4.260
 7086SOL    HW222158   5.960   1.254   4.330
 7087SOL     OW22159   5.294   3.258   2.959
 7087SOL    HW122160   5.274   3.224   2.867
 7087SOL    HW222161   5.266   3.190   3.027
 7088SOL     OW22162   6.362   1.788   4.741
 7088SOL    HW122163   6.267   1.762   4.760
 7088SOL    HW222164   6.418   1.768   4.822
 7089SOL     OW22165   3.311   6.131   2.094
 7089SOL    HW122166   3.402   6.151   2.058
 7089SOL    HW222167   3.285   6.201   2.160
 7090SOL     OW22168   4.491   2.359   1.222
 7090SOL    HW122169   4.443   2.437   1.183
 7090SOL    HW222170   4.461   2.344   1.316
 7091SOL     OW22171   6.908   6.188   6.817
 7091SOL    HW122172   6.905   6.088   6.813
 7091SOL    HW222173   6.891   6.219   6.910
 7092SOL     OW22174   4.157   1.492   6.267
 7092SOL    HW122175   4.112   1.493   6.356
 7092SOL    HW222176   4.246   1.537   6.274
 7093SOL     OW22177   3.263   3.040   1.630
 7093SOL    HW122178   3.255   2.961   1.570
 7093SOL    HW222179   3.198   3.031   1.706
 7094SOL     OW22180   2.946   0.169   5.546
 7094SOL    HW122181   3.041   0.180   5.574
 7094SOL    HW222182   2.885   0.204   5.617
 7095SOL     OW22183   2.565   4.729   4.977
 7095SOL    HW122184   2.584   4.827   4.976
 7095SOL    HW222185   2.650   4.678   4.983
 7096SOL     OW22186   7.007   0.984   1.265
 7096SOL    HW122187   6.940   0.974   1.191
 7096SOL    HW222188   0.049   1.061   1.245
 7097SOL     OW22189   4.128   0.862   1.673
 7097SOL    HW122190   4.210   0.805   1.680
 7097SOL    HW222191   4.152   0.950   1.633
 7098SOL     OW22192   1.370   6.654   4.066
 7098SOL    HW122193   1.460   6.689   4.092
 7098SOL    HW222194   1.303   6.728   4.066
 7099SOL     OW22195   2.712   2.165   3.702
 7099SOL    HW122196   2.728   2.227   3.778
 7099SOL    HW222197   2.645   2.096   3.728
 7100SOL     OW22198   5.936   3.814   1.369
 7100SOL    HW122199   5.918   3.847   1.462
 7100SOL    HW222200   6.032   3.786   1.362
 7101SOL     OW22201   2.568   6.215   5.633
 7101SOL    HW122202   2.666   6.209   5.654
 7101SOL    HW222203   2.526   6.125   5.646
 7102SOL     OW22204   5.533   0.773   1.909
 7102SOL    HW122205   5.524   0.674   1.900
 7102SOL    HW222206   5.488   0.803   1.993
 7103SOL     OW22207   4.861   3.724   2.984
 7103SOL    HW122208   4.821   3.686   2.901
 7103SOL    HW222209   4.898   3.650   3.040
 7104SOL     OW22210   5.183   3.999   3.225
 7104SOL    HW122211   5.172   4.065   3.150
 7104SOL    HW222212   5.233   3.919   3.193
 7105SOL     OW22213   3.311   4.132   4.158
 7105SOL    HW122214   3.389   4.187   4.127
 7105SOL    HW222215   3.316   4.121   4.257
 7106SOL     OW22216   3.050   2.472   1.086
 7106SOL    HW122217   3.143   2.507   1.069
 7106SOL    HW222218   2.993   2.490   1.006
 7107SOL     OW22219   3.495   0.641   6.108
 7107SOL    HW122220   3.489   0.739   6.126
 7107SOL    HW222221   3.409   0.597   6.135
 7108SOL     OW22222   4.769   0.649   2.034
 7108SOL    HW122223   4.864   0.674   2.018
 7108SOL    HW222224   4.742   0.575   1.971
 7109SOL     OW22225   2.711   5.665   6.236
 7109SOL    HW122226   2.804   5.635   6.254
 7109SOL    HW222227   2.671   5.703   6.320
 7110SOL     OW22228   3.452   6.512   4.110
 7110SOL    HW122229   3.526   6.501   4.044
 7110SOL    HW222230   3.468   6.452   4.188
 7111SOL     OW22231   6.738   0.517   5.142
 7111SOL    HW122232   6.788   0.430   5.142
 7111SOL    HW222233   6.784   0.582   5.202
 7112SOL     OW22234   1.328   5.025   5.014
 7112SOL    HW122235   1.293   5.006   5.105
 7112SOL    HW222236   1.370   5.116   5.013
 7113SOL     OW22237   3.719   6.238   5.296
 7113SOL    HW122238   3.794   6.199   5.349
 7113SOL    HW222239   3.699   6.180   5.218
 7114SOL     OW22240   4.946   4.545   0.325
 7114SOL    HW122241   4.900   4.462   0.356
 7114SOL    HW222242   5.043   4.540   0.348
 7115SOL     OW22243   6.407   3.800   6.225
 7115SOL    HW122244   6.350   3.728   6.185
 7115SOL    HW222245   6.456   3.763   6.304
 7116SOL     OW22246   6.156   3.711   4.003
 7116SOL    HW122247   6.201   3.722   4.092
 7116SOL    HW222248   6.147   3.614   3.981
 7117SOL     OW22249   6.025   7.015   2.913
 7117SOL    HW122250   5.974   0.081   2.928
 7117SOL    HW222251   6.022   6.958   2.996
 7118SOL     OW22252   4.363   4.417   5.576
 7118SOL    HW122253   4.325   4.381   5.661
 7118SOL    HW222254   4.292   4.421   5.506
 7119SOL     OW22255   3.496   6.894   4.877
 7119SOL    HW122256   3.513   6.976   4.822
 7119SOL    HW222257   3.565   6.887   4.949
 7120SOL     OW22258   4.937   0.326   0.129
 7120SOL    HW122259   4.871   0.257   0.157
 7120SOL    HW222260   4.995   0.290   0.055
 7121SOL     OW22261   1.643   5.912   2.411
 7121SOL    HW122262   1.599   5.839   2.463
 7121SOL    HW222263   1.691   5.973   2.473
 7122SOL     OW22264   2.832   1.251   6.938
 7122SOL    HW122265   2.920   1.293   6.961
 7122SOL    HW222266   2.761   1.321   6.936
 7123SOL     OW22267   5.297   5.479   5.840
 7123SOL    HW122268   5.257   5.491   5.930
 7123SOL    HW222269   5.225   5.479   5.771
 7124SOL     OW22270   1.536   2.146   1.718
 7124SOL    HW122271   1.616   2.089   1.699
 7124SOL    HW222272   1.566   2.230   1.763
 7125SOL     OW22273   0.827   6.620   1.732
 7125SOL    HW122274   0.799   6.531   1.698
 7125SOL    HW222275   0.880   6.668   1.662
 7126SOL     OW22276   3.144   5.131   0.972
 7126SOL    HW122277   3.120   5.210   1.028
 7126SOL    HW222278   3.211   5.075   1.020
 7127SOL     OW22279   2.658   6.745   5.467
 7127SOL    HW122280   2.667   6.817   5.397
 7127SOL    HW222281   2.630   6.660   5.424
 7128SOL     OW22282   4.033   4.052   6.412
 7128SOL    HW122283   4.068   4.142   6.384
 7128SOL    HW222284   3.999   4.004   6.331
 7129SOL     OW22285   0.598   0.023   0.538
 7129SOL    HW122286   0.591   0.090   0.611
 7129SOL    HW222287   0.685   6.992   0.547
 7130SOL     OW22288   3.417   6.587   3.686
 7130SOL    HW122289   3.426   6.488   3.673
 7130SOL    HW222290   3.485   6.619   3.752
 7131SOL     OW22291   3.533   1.439   2.786
 7131SOL    HW122292   3.542   1.526   2.738
 7131SOL    HW222293   3.624   1.405   2.810
 7132SOL     OW22294   5.151   4.407   0.612
 7132SOL    HW122295   5.113   4.321   0.648
 7132SOL    HW222296   5.249   4.397   0.598
 7133SOL     OW22297   5.174   5.716   3.135
 7133SOL    HW122298   5.079   5.723   3.167
 7133SOL    HW222299   5.188   5.779   3.059
 7134SOL     OW22300   5.377   5.060   0.777
 7134SOL    HW122301   5.423   4.973   0.757
 7134SOL    HW222302   5.419   5.103   0.857
 7135SOL     OW22303   1.838   2.602   0.842
 7135SOL    HW122304   1.801   2.565   0.757
 7135SOL    HW222305   1.868   2.527   0.901
 7136SOL     OW22306   2.010   1.684   1.639
 7136SOL    HW122307   2.108   1.703   1.642
 7136SOL    HW222308   1.992   1.594   1.678
 7137SOL     OW22309   3.199   1.993   1.627
 7137SOL    HW122310   3.233   2.018   1.718
 7137SOL    HW222311   3.274   1.950   1.575
 7138SOL     OW22312   1.215   2.820   0.503
 7138SOL    HW122313   1.196   2.918   0.498
 7138SOL    HW222314   1.138   2.774   0.546
 7139SOL     OW22315   6.104   6.402   0.874
 7139SOL    HW122316   6.151   6.453   0.802
 7139SOL    HW222317   6.035   6.342   0.834
 7140SOL     OW22318   6.503   3.582   0.212
 7140SOL    HW122319   6.519   3.575   0.113
 7140SOL    HW222320   6.410   3.551   0.233
 7141SOL     OW22321   3.534   0.677   0.610
 7141SOL    HW122322   3.585   0.763   0.605
 7141SOL    HW222323   3.586   0.610   0.661
 7142SOL     OW22324   3.296   0.124   4.764
 7142SOL    HW122325   3.370   0.135   4.829
 7142SOL    HW222326   3.236   0.204   4.767
 7143SOL     OW22327   3.002   4.464   6.544
 7143SOL    HW122328   2.908   4.494   6.560
 7143SOL    HW222329   3.055   4.475   6.628
 7144SOL     OW22330   6.677   0.682   5.841
 7144SOL    HW122331   6.758   0.733   5.812
 7144SOL    HW222332   6.656   0.612   5.772
 7145SOL     OW22333   5.141   2.469   6.616
 7145SOL    HW122334   5.216   2.409   6.588
 7145SOL    HW222335   5.057   2.416   6.625
 7146SOL     OW22336   1.788   2.348   4.981
 7146SOL    HW122337   1.694   2.373   5.004
 7146SOL    HW222338   1.848   2.370   5.057
 7147SOL     OW22339   6.430   6.653   1.896
 7147SOL    HW122340   6.433   6.743   1.940
 7147SOL    HW222341   6.336   6.622   1.889
 7148SOL     OW22342   6.318   0.087   0.863
 7148SOL    HW122343   6.232   0.038   0.856
 7148SOL    HW222344   6.365   0.060   0.947
 7149SOL     OW22345   5.780   4.774   5.954
 7149SOL    HW122346   5.785   4.688   6.006
 7149SOL    HW222347   5.774   4.753   5.856
 7150SOL     OW22348   3.619   2.983   6.778
 7150SOL    HW122349   3.549   3.031   6.832
 7150SOL    HW222350   3.674   3.051   6.729
 7151SOL     OW22351   3.218   1.116   0.918
 7151SOL    HW122352   3.233   1.206   0.877
 7151SOL    HW222353   3.152   1.125   0.993
 7152SOL     OW22354   6.593   1.258   6.265
 7152SOL    HW122355   6.606   1.229   6.359
 7152SOL    HW222356   6.653   1.336   6.246
 7153SOL     OW22357   3.626   5.532   0.741
 7153SOL    HW122358   3.672   5.464   0.798
 7153SOL    HW222359   3.530   5.539   0.768
 7154SOL     OW22360   4.114   2.135   1.849
 7154SOL    HW122361   4.053   2.204   1.810
 7154SOL    HW222362   4.143   2.071   1.777
 7155SOL     OW22363   2.167   1.114   2.119
 7155SOL    HW122364   2.108   1.062   2.181
 7155SOL    HW222365   2.161   1.211   2.141
 7156SOL     OW22366   5.893   3.537   6.259
 7156SOL    HW122367   5.906   3.580   6.348
 7156SOL    HW222368   5.916   3.603   6.187
 7157SOL     OW22369   6.325   4.407   5.890
 7157SOL    HW122370   6.381   4.330   5.920
 7157SOL    HW222371   6.264   4.377   5.816
 7158SOL     OW22372   4.181   6.799   3.858
 7158SOL    HW122373   4.206   6.799   3.761
 7158SOL    HW222374   4.201   6.888   3.898
 7159SOL     OW22375   0.940   6.137   3.140
 7159SOL    HW122376   0.855   6.180   3.111
 7159SOL    HW222377   0.993   6.202   3.195
 7160SOL     OW22378   6.734   0.154   3.464
 7160SOL    HW122379   6.747   0.166   3.563
 7160SOL    HW222380   6.788   0.223   3.415
 7161SOL     OW22381   3.962   3.055   3.144
 7161SOL    HW122382   4.008   3.103   3.219
 7161SOL    HW222383   3.998   3.087   3.057
 7162SOL     OW22384   0.314   5.395   1.958
 7162SOL    HW122385   0.230   5.348   1.986
 7162SOL    HW222386   0.386   5.378   2.025
 7163SOL     OW22387   6.644   1.546   1.359
 7163SOL    HW122388   6.685   1.575   1.446
 7163SOL    HW222389   6.563   1.602   1.341
 7164SOL     OW22390   2.069   1.356   6.633
 7164SOL    HW122391   2.067   1.337   6.535
 7164SOL    HW222392   2.044   1.274   6.684
 7165SOL     OW22393   5.647   1.261   0.789
 7165SOL    HW122394   5.601   1.345   0.760
 7165SOL    HW222395   5.620   1.239   0.883
 7166SOL     OW22396   6.532   5.838   6.241
 7166SOL    HW122397   6.449   5.869   6.194
 7166SOL    HW222398   6.551   5.743   6.216
 7167SOL     OW22399   5.925   2.785   4.595
 7167SOL    HW122400   5.953   2.755   4.504
 7167SOL    HW222401   5.853   2.725   4.629
 7168SOL     OW22402   2.614   1.057   1.728
 7168SOL    HW122403   2.559   1.095   1.654
 7168SOL    HW222404   2.687   1.000   1.691
 7169SOL     OW22405   2.023   3.978   6.446
 7169SOL    HW122406   2.102   3.921   6.469
 7169SOL    HW222407   1.997   3.962   6.352
 7170SOL     OW22408   3.647   1.124   0.535
 7170SOL    HW122409   3.680   1.046   0.588
 7170SOL    HW222410   3.723   1.163   0.483
 7171SOL     OW22411   6.961   4.289   0.821
 7171SOL    HW122412   6.885   4.345   0.853
 7171SOL    HW222413   6.967   4.206   0.877
 7172SOL     OW22414   1.427   2.100   4.146
 7172SOL    HW122415   1.376   2.120   4.229
 7172SOL    HW222416   1.521   2.133   4.155
 7173SOL     OW22417   4.722   5.578   5.962
 7173SOL    HW122418   4.767   5.490   5.948
 7173SOL    HW222419   4.691   5.585   6.056
 7174SOL     OW22420   6.323   4.351   2.007
 7174SOL    HW122421   6.316   4.305   1.918
 7174SOL    HW222422   6.397   4.418   2.004
 7175SOL     OW22423   6.310   3.606   6.073
 7175SOL    HW122424   6.318   3.530   6.138
 7175SOL    HW222425   6.285   3.570   5.983
 7176SOL     OW22426   0.830   0.449   5.573
 7176SOL    HW122427   0.892   0.439   5.496
 7176SOL    HW222428   0.745   0.400   5.554
 7177SOL     OW22429   1.383   5.556   3.611
 7177SOL    HW122430   1.315   5.581   3.680
 7177SOL    HW222431   1.395   5.456   3.611
 7178SOL     OW22432   2.146   6.963   5.151
 7178SOL    HW122433   2.170   0.041   5.153
 7178SOL    HW222434   2.223   6.909   5.117
 7179SOL     OW22435   3.266   5.386   6.102
 7179SOL    HW122436   3.191   5.451   6.093
 7179SOL    HW222437   3.231   5.300   6.139
 7180SOL     OW22438   1.666   3.418   0.881
 7180SOL    HW122439   1.587   3.391   0.935
 7180SOL    HW222440   1.701   3.338   0.831
 7181SOL     OW22441   2.579   1.543   5.559
 7181SOL    HW122442   2.519   1.563   5.481
 7181SOL    HW222443   2.542   1.585   5.641
 7182SOL     OW22444   1.662   1.876   3.953
 7182SOL    HW122445   1.642   1.835   3.864
 7182SOL    HW222446   1.739   1.828   3.995
 7183SOL     OW22447   0.602   6.815   1.664
 7183SOL    HW122448   0.622   6.740   1.727
 7183SOL    HW222449   0.663   6.892   1.684
 7184SOL     OW22450   6.536   0.254   4.180
 7184SOL    HW122451   6.443   0.259   4.217
 7184SOL    HW222452   6.536   0.195   4.099
 7185SOL     OW22453   4.379   1.008   4.588
 7185SOL    HW122454   4.339   1.081   4.642
 7185SOL    HW222455   4.317   0.983   4.514
 7186SOL     OW22456   0.058   0.500   6.653
 7186SOL    HW122457   0.080   0.507   6.556
 7186SOL    HW222458   0.143   0.492   6.706
 7187SOL     OW22459   3.232   3.052   4.048
 7187SOL    HW122460   3.265   3.004   4.129
 7187SOL    HW222461   3.310   3.079   3.991
 7188SOL     OW22462   4.339   4.509   0.456
 7188SOL    HW122463   4.364   4.483   0.362
 7188SOL    HW222464   4.393   4.588   0.484
 7189SOL     OW22465   6.643   2.664   5.917
 7189SOL    HW122466   6.621   2.710   5.831
 7189SOL    HW222467   6.689   2.728   5.978
 7190SOL     OW22468   5.472   5.056   1.312
 7190SOL    HW122469   5.516   5.100   1.391
 7190SOL    HW222470   5.539   5.048   1.238
 7191SOL     OW22471   0.030   4.992   4.304
 7191SOL    HW122472   0.037   4.934   4.385
 7191SOL    HW222473   0.044   5.088   4.330
 7192SOL     OW22474   2.637   4.932   6.608
 7192SOL    HW122475   2.589   5.007   6.562
 7192SOL    HW222476   2.571   4.875   6.656
 7193SOL     OW22477   2.679   2.294   2.904
 7193SOL    HW122478   2.641   2.304   2.812
 7193SOL    HW222479   2.676   2.197   2.930
 7194SOL     OW22480   3.331   2.699   5.945
 7194SOL    HW122481   3.248   2.752   5.966
 7194SOL    HW222482   3.364   2.655   6.029
 7195SOL     OW22483   0.671   4.728   4.847
 7195SOL    HW122484   0.704   4.790   4.918
 7195SOL    HW222485   0.669   4.634   4.882
 7196SOL     OW22486   3.249   4.075   2.037
 7196SOL    HW122487   3.327   4.081   1.975
 7196SOL    HW222488   3.165   4.064   1.984
 7197SOL     OW22489   2.910   4.126   6.129
 7197SOL    HW122490   2.973   4.162   6.060
 7197SOL    HW222491   2.962   4.091   6.207
 7198SOL     OW22492   0.502   0.788   1.983
 7198SOL    HW122493   0.457   0.745   2.061
 7198SOL    HW222494   0.434   0.811   1.913
 7199SOL     OW22495   6.549   0.865   2.005
 7199SOL    HW122496   6.465   0.880   2.059
 7199SOL    HW222497   6.566   0.766   1.999
 7200SOL     OW22498   1.151   2.404   0.683
 7200SOL    HW122499   1.215   2.362   0.618
 7200SOL    HW222500   1.078   2.339   0.704
 7201SOL     OW22501   5.371   5.361   4.134
 7201SOL    HW122502   5.366   5.451   4.177
 7201SOL    HW222503   5.337   5.367   4.040
 7202SOL     OW22504   4.921   1.084   5.721
 7202SOL    HW122505   4.877   1.082   5.810
 7202SOL    HW222506   5.005   1.138   5.727
 7203SOL     OW22507   0.084   1.295   1.246
 7203SOL    HW122508   0.006   1.267   1.302
 7203SOL    HW222509   0.104   1.391   1.263
 7204SOL     OW22510   5.889   0.147   1.995
 7204SOL    HW122511   5.832   0.115   2.070
 7204SOL    HW222512   5.976   0.181   2.032
 7205SOL     OW22513   2.869   2.001   4.000
 7205SOL    HW122514   2.825   2.025   4.086
 7205SOL    HW222515   2.906   2.084   3.958
 7206SOL     OW22516   2.337   3.534   0.522
 7206SOL    HW122517   2.392   3.538   0.606
 7206SOL    HW222518   2.382   3.587   0.451
 7207SOL     OW22519   1.763   1.487   4.091
 7207SOL    HW122520   1.748   1.527   4.181
 7207SOL    HW222521   1.701   1.409   4.079
 7208SOL     OW22522   2.695   0.286   4.574
 7208SOL    HW122523   2.688   0.230   4.492
 7208SOL    HW222524   2.790   0.318   4.584
 7209SOL     OW22525   3.424   1.802   2.312
 7209SOL    HW122526   3.446   1.801   2.410
 7209SOL    HW222527   3.459   1.885   2.270
 7210SOL     OW22528   2.410   1.652   3.176
 7210SOL    HW122529   2.358   1.567   3.166
 7210SOL    HW222530   2.361   1.715   3.237
 7211SOL     OW22531   4.333   5.942   4.812
 7211SOL    HW122532   4.384   5.945   4.898
 7211SOL    HW222533   4.257   6.008   4.817
 7212SOL     OW22534   6.678   4.365   5.725
 7212SOL    HW122535   6.759   4.321   5.686
 7212SOL    HW222536   6.692   4.383   5.822
 7213SOL     OW22537   3.477   2.125   0.051
 7213SOL    HW122538   3.539   2.198   0.080
 7213SOL    HW222539   3.522   2.070   6.999
 7214SOL     OW22540   6.916   0.704   6.083
 7214SOL    HW122541   6.865   0.657   6.156
 7214SOL    HW222542   6.881   0.796   6.071
 7215SOL     OW22543   6.471   2.248   2.852
 7215SOL    HW122544   6.538   2.252   2.778
 7215SOL    HW222545   6.380   2.271   2.816
 7216SOL     OW22546   3.288   6.726   2.935
 7216SOL    HW122547   3.254   6.816   2.905
 7216SOL    HW222548   3.362   6.739   3.001
 7217SOL     OW22549   1.757   2.807   3.381
 7217SOL    HW122550   1.856   2.792   3.384
 7217SOL    HW222551   1.712   2.752   3.451
 7218SOL     OW22552   6.349   3.802   4.307
 7218SOL    HW122553   6.273   3.866   4.315
 7218SOL    HW222554   6.326   3.717   4.354
 7219SOL     OW22555   3.534   5.842   2.647
 7219SOL    HW122556   3.628   5.870   2.626
 7219SOL    HW222557   3.478   5.924   2.662
 7220SOL     OW22558   6.143   4.849   4.607
 7220SOL    HW122559   6.184   4.910   4.540
 7220SOL    HW222560   6.043   4.849   4.594
 7221SOL     OW22561   3.596   5.218   4.216
 7221SOL    HW122562   3.562   5.241   4.125
 7221SOL    HW222563   3.583   5.295   4.278
 7222SOL     OW22564   0.341   5.986   4.424
 7222SOL    HW122565   0.414   5.945   4.479
 7222SOL    HW222566   0.257   5.932   4.433
 7223SOL     OW22567   0.053   3.613   1.967
 7223SOL    HW122568   0.015   3.705   1.953
 7223SOL    HW222569   0.111   3.614   2.049
 7224SOL     OW22570   3.776   1.646   3.270
 7224SOL    HW122571   3.741   1.646   3.176
 7224SOL    HW222572   3.717   1.704   3.327
 7225SOL     OW22573   1.707   5.882   0.788
 7225SOL    HW122574   1.654   5.950   0.736
 7225SOL    HW222575   1.654   5.797   0.795
 7226SOL     OW22576   5.966   6.147   0.763
 7226SOL    HW122577   5.949   6.055   0.798
 7226SOL    HW222578   5.949   6.149   0.664
 7227SOL     OW22579   2.281   0.690   1.675
 7227SOL    HW122580   2.310   0.617   1.738
 7227SOL    HW222581   2.183   0.706   1.685
 7228SOL     OW22582   0.036   3.024   2.476
 7228SOL    HW122583   0.003   2.958   2.408
 7228SOL    HW222584   0.089   3.096   2.430
 7229SOL     OW22585   6.698   0.863   5.481
 7229SOL    HW122586   6.604   0.888   5.505
 7229SOL    HW222587   6.700   0.768   5.449
 7230SOL     OW22588   2.077   4.657   4.288
 7230SOL    HW122589   2.135   4.678   4.366
 7230SOL    HW222590   1.993   4.712   4.293
 7231SOL     OW22591   4.356   1.310   6.466
 7231SOL    HW122592   4.338   1.217   6.435
 7231SOL    HW222593   4.424   1.353   6.407
 7232SOL     OW22594   4.938   6.855   3.054
 7232SOL    HW122595   4.997   6.784   3.017
 7232SOL    HW222596   4.904   6.912   2.980
 7233SOL     OW22597   6.787   1.209   4.875
 7233SOL    HW122598   6.760   1.303   4.853
 7233SOL    HW222599   6.713   1.146   4.850
 7234SOL     OW22600   5.160   4.129   2.987
 7234SOL    HW122601   5.118   4.203   2.934
 7234SOL    HW222602   5.128   4.041   2.951
 7235SOL     OW22603   6.865   5.955   1.550
 7235SOL    HW122604   6.949   5.961   1.604
 7235SOL    HW222605   6.820   5.867   1.569
 7236SOL     OW22606   1.662   2.485   2.715
 7236SOL    HW122607   1.762   2.481   2.706
 7236SOL    HW222608   1.637   2.549   2.787
 7237SOL     OW22609   5.549   0.883   0.137
 7237SOL    HW122610   5.476   0.843   0.192
 7237SOL    HW222611   5.628   0.821   0.135
 7238SOL     OW22612   3.696   3.243   0.821
 7238SOL    HW122613   3.718   3.219   0.916
 7238SOL    HW222614   3.781   3.252   0.769
 7239SOL     OW22615   0.007   2.608   2.537
 7239SOL    HW122616   0.100   2.622   2.505
 7239SOL    HW222617   6.963   2.608   2.459
 7240SOL     OW22618   6.998   2.132   6.393
 7240SOL    HW122619   0.034   2.132   6.309
 7240SOL    HW222620   6.904   2.106   6.371
 7241SOL     OW22621   2.739   1.599   1.366
 7241SOL    HW122622   2.663   1.664   1.374
 7241SOL    HW222623   2.753   1.553   1.454
 7242SOL     OW22624   6.383   5.611   4.868
 7242SOL    HW122625   6.449   5.611   4.792
 7242SOL    HW222626   6.302   5.663   4.841
 7243SOL     OW22627   5.998   4.400   6.552
 7243SOL    HW122628   5.922   4.336   6.561
 7243SOL    HW222629   6.022   4.410   6.456
 7244SOL     OW22630   0.355   6.106   0.009
 7244SOL    HW122631   0.377   6.057   6.943
 7244SOL    HW222632   0.261   6.085   0.036
 7245SOL     OW22633   1.064   3.397   0.039
 7245SOL    HW122634   0.978   3.403   7.006
 7245SOL    HW222635   1.121   3.477   0.019
 7246SOL     OW22636   3.719   6.915   3.626
 7246SOL    HW122637   3.652   6.955   3.688
 7246SOL    HW222638   3.778   6.852   3.677
 7247SOL     OW22639   3.256   3.443   5.895
 7247SOL    HW122640   3.196   3.502   5.840
 7247SOL    HW222641   3.351   3.457   5.866
 7248SOL     OW22642   3.279   0.848   4.792
 7248SOL    HW122643   3.296   0.764   4.741
 7248SOL    HW222644   3.249   0.920   4.729
 7249SOL     OW22645   4.140   5.128   2.051
 7249SOL    HW122646   4.043   5.153   2.043
 7249SOL    HW222647   4.151   5.031   2.029
 7250SOL     OW22648   5.044   5.576   5.693
 7250SOL    HW122649   4.979   5.501   5.706
 7250SOL    HW222650   5.006   5.661   5.730
 7251SOL     OW22651   6.916   5.784   5.500
 7251SOL    HW122652   6.991   5.806   5.437
 7251SOL    HW222653   6.830   5.787   5.450
 7252SOL     OW22654   3.407   4.046   2.291
 7252SOL    HW122655   3.406   3.946   2.295
 7252SOL    HW222656   3.375   4.077   2.201
 7253SOL     OW22657   1.461   5.877   5.578
 7253SOL    HW122658   1.518   5.919   5.507
 7253SOL    HW222659   1.481   5.919   5.666
 7254SOL     OW22660   5.200   4.155   3.990
 7254SOL    HW122661   5.299   4.160   4.003
 7254SOL    HW222662   5.164   4.072   4.033
 7255SOL     OW22663   5.315   3.308   6.568
 7255SOL    HW122664   5.242   3.363   6.528
 7255SOL    HW222665   5.404   3.344   6.538
 7256SOL     OW22666   3.634   6.867   5.927
 7256SOL    HW122667   3.667   6.945   5.980
 7256SOL    HW222668   3.656   6.782   5.975
 7257SOL     OW22669   0.798   1.567   4.634
 7257SOL    HW122670   0.770   1.613   4.719
 7257SOL    HW222671   0.874   1.617   4.593
 7258SOL     OW22672   6.523   1.813   3.449
 7258SOL    HW122673   6.482   1.733   3.404
 7258SOL    HW222674   6.508   1.894   3.392
 7259SOL     OW22675   1.036   4.578   3.242
 7259SOL    HW122676   0.951   4.625   3.264
 7259SOL    HW222677   1.049   4.501   3.305
 7260SOL     OW22678   5.538   3.431   0.992
 7260SOL    HW122679   5.565   3.366   1.064
 7260SOL    HW222680   5.606   3.504   0.987
 7261SOL     OW22681   6.961   4.099   6.700
 7261SOL    HW122682   0.037   4.131   6.701
 7261SOL    HW222683   6.901   4.172   6.669
 7262SOL     OW22684   6.630   2.160   5.881
 7262SOL    HW122685   6.568   2.082   5.873
 7262SOL    HW222686   6.724   2.130   5.863
 7263SOL     OW22687   0.472   5.484   0.083
 7263SOL    HW122688   0.557   5.528   0.113
 7263SOL    HW222689   0.460   5.398   0.131
 7264SOL     OW22690   5.805   1.454   1.035
 7264SOL    HW122691   5.858   1.515   1.094
 7264SOL    HW222692   5.837   1.463   0.941
 7265SOL     OW22693   4.201   5.523   5.188
 7265SOL    HW122694   4.235   5.558   5.100
 7265SOL    HW222695   4.278   5.489   5.242
 7266SOL     OW22696   0.114   0.705   3.845
 7266SOL    HW122697   0.156   0.640   3.781
 7266SOL    HW222698   0.172   0.786   3.853
 7267SOL     OW22699   6.296   5.697   4.547
 7267SOL    HW122700   6.223   5.640   4.584
 7267SOL    HW222701   6.297   5.690   4.447
 7268SOL     OW22702   6.462   6.278   3.901
 7268SOL    HW122703   6.391   6.345   3.879
 7268SOL    HW222704   6.479   6.220   3.821
 7269SOL     OW22705   2.323   5.121   5.218
 7269SOL    HW122706   2.232   5.117   5.177
 7269SOL    HW222707   2.392   5.106   5.147
 7270SOL     OW22708   0.428   1.861   4.129
 7270SOL    HW122709   0.501   1.866   4.061
 7270SOL    HW222710   0.342   1.835   4.084
 7271SOL     OW22711   0.826   4.218   3.910
 7271SOL    HW122712   0.831   4.300   3.966
 7271SOL    HW222713   0.730   4.192   3.897
 7272SOL     OW22714   6.116   5.643   2.923
 7272SOL    HW122715   6.155   5.605   2.839
 7272SOL    HW222716   6.173   5.619   3.001
 7273SOL     OW22717   0.392   2.747   5.585
 7273SOL    HW122718   0.465   2.771   5.520
 7273SOL    HW222719   0.393   2.648   5.601
 7274SOL     OW22720   0.833   4.535   6.905
 7274SOL    HW122721   0.779   4.586   6.839
 7274SOL    HW222722   0.775   4.465   6.948
 7275SOL     OW22723   6.319   0.148   3.358
 7275SOL    HW122724   6.268   0.234   3.356
 7275SOL    HW222725   6.271   0.079   3.304
 7276SOL     OW22726   4.514   6.835   3.852
 7276SOL    HW122727   4.605   6.857   3.886
 7276SOL    HW222728   4.448   6.900   3.890
 7277SOL     OW22729   4.375   0.372   5.789
 7277SOL    HW122730   4.354   0.293   5.846
 7277SOL    HW222731   4.464   0.410   5.815
 7278SOL     OW22732   2.999   3.721   2.559
 7278SOL    HW122733   2.952   3.713   2.471
 7278SOL    HW222734   3.028   3.816   2.573
 7279SOL     OW22735   3.775   5.877   6.684
 7279SOL    HW122736   3.780   5.777   6.688
 7279SOL    HW222737   3.792   5.914   6.776
 7280SOL     OW22738   4.554   0.650   5.889
 7280SOL    HW122739   4.526   0.704   5.969
 7280SOL    HW222740   4.477   0.641   5.826
 7281SOL     OW22741   4.421   1.409   6.704
 7281SOL    HW122742   4.390   1.371   6.617
 7281SOL    HW222743   4.502   1.466   6.688
 7282SOL     OW22744   5.967   5.285   1.937
 7282SOL    HW122745   6.038   5.223   1.905
 7282SOL    HW222746   5.898   5.233   1.988
 7283SOL     OW22747   2.526   0.755   3.464
 7283SOL    HW122748   2.456   0.714   3.405
 7283SOL    HW222749   2.512   0.854   3.468
 7284SOL     OW22750   6.937   3.807   5.517
 7284SOL    HW122751   6.983   3.851   5.440
 7284SOL    HW222752   6.854   3.858   5.540
 7285SOL     OW22753   5.445   5.597   2.176
 7285SOL    HW122754   5.438   5.497   2.175
 7285SOL    HW222755   5.439   5.630   2.270
 7286SOL     OW22756   2.783   3.034   0.913
 7286SOL    HW122757   2.833   3.079   0.987
 7286SOL    HW222758   2.802   2.936   0.915
 7287SOL     OW22759   6.375   0.907   6.441
 7287SOL    HW122760   6.303   0.840   6.421
 7287SOL    HW222761   6.357   0.992   6.392
 7288SOL     OW22762   3.923   0.498   6.669
 7288SOL    HW122763   3.979   0.578   6.647
 7288SOL    HW222764   3.835   0.505   6.622
 7289SOL     OW22765   5.615   1.940   2.933
 7289SOL    HW122766   5.547   1.903   2.996
 7289SOL    HW222767   5.706   1.918   2.966
 7290SOL     OW22768   2.411   5.216   4.687
 7290SOL    HW122769   2.363   5.132   4.711
 7290SOL    HW222770   2.441   5.211   4.592
 7291SOL     OW22771   2.267   6.406   1.424
 7291SOL    HW122772   2.281   6.436   1.330
 7291SOL    HW222773   2.171   6.383   1.439
 7292SOL     OW22774   2.733   6.610   3.756
 7292SOL    HW122775   2.823   6.579   3.728
 7292SOL    HW222776   2.741   6.700   3.800
 7293SOL     OW22777   2.031   1.746   4.742
 7293SOL    HW122778   1.969   1.813   4.700
 7293SOL    HW222779   2.010   1.737   4.839
 7294SOL     OW22780   2.897   4.958   0.214
 7294SOL    HW122781   2.956   5.008   0.277
 7294SOL    HW222782   2.828   4.907   0.265
 7295SOL     OW22783   0.161   1.257   0.815
 7295SOL    HW122784   0.220   1.271   0.894
 7295SOL    HW222785   0.068   1.286   0.837
 7296SOL     OW22786   2.991   4.849   0.577
 7296SOL    HW122787   3.052   4.833   0.655
 7296SOL    HW222788   3.009   4.941   0.540
 7297SOL     OW22789   4.819   6.536   0.694
 7297SOL    HW122790   4.918   6.534   0.705
 7297SOL    HW222791   4.780   6.607   0.752
 7298SOL     OW22792   5.751   3.977   4.785
 7298SOL    HW122793   5.677   4.043   4.771
 7298SOL    HW222794   5.802   3.966   4.699
 7299SOL     OW22795   6.706   3.243   0.625
 7299SOL    HW122796   6.665   3.198   0.545
 7299SOL    HW222797   6.771   3.312   0.594
 7300SOL     OW22798   5.163   5.565   0.720
 7300SOL    HW122799   5.215   5.615   0.789
 7300SOL    HW222800   5.120   5.485   0.763
 7301SOL     OW22801   0.021   6.752   5.867
 7301SOL    HW122802   7.002   6.661   5.852
 7301SOL    HW222803   0.121   6.748   5.867
 7302SOL     OW22804   0.017   0.953   6.983
 7302SOL    HW122805   0.036   0.877   6.921
 7302SOL    HW222806   6.945   0.991   6.963
 7303SOL     OW22807   3.231   0.661   6.982
 7303SOL    HW122808   3.253   0.727   0.036
 7303SOL    HW222809   3.310   0.650   6.921
 7304SOL     OW22810   4.094   3.832   5.940
 7304SOL    HW122811   4.124   3.747   5.895
 7304SOL    HW222812   4.127   3.833   6.035
 7305SOL     OW22813   4.893   1.598   7.018
 7305SOL    HW122814   4.808   1.547   7.003
 7305SOL    HW222815   4.941   1.559   0.078
 7306SOL     OW22816   5.051   4.678   1.320
 7306SOL    HW122817   4.985   4.668   1.246
 7306SOL    HW222818   5.142   4.691   1.282
 7307SOL     OW22819   3.760   6.475   1.627
 7307SOL    HW122820   3.840   6.529   1.601
 7307SOL    HW222821   3.702   6.460   1.546
 7308SOL     OW22822   6.632   3.185   4.305
 7308SOL    HW122823   6.656   3.099   4.260
 7308SOL    HW222824   6.690   3.197   4.386
 7309SOL     OW22825   5.081   6.538   0.377
 7309SOL    HW122826   5.152   6.471   0.353
 7309SOL    HW222827   5.091   6.563   0.473
 7310SOL     OW22828   2.650   5.460   1.329
 7310SOL    HW122829   2.613   5.456   1.236
 7310SOL    HW222830   2.651   5.368   1.369
 7311SOL     OW22831   2.878   2.164   1.775
 7311SOL    HW122832   2.969   2.133   1.802
 7311SOL    HW222833   2.839   2.221   1.848
 7312SOL     OW22834   6.953   2.289   5.488
 7312SOL    HW122835   6.919   2.366   5.542
 7312SOL    HW222836   6.898   2.281   5.404
 7313SOL     OW22837   4.059   2.316   6.676
 7313SOL    HW122838   3.979   2.322   6.616
 7313SOL    HW222839   4.039   2.254   6.752
 7314SOL     OW22840   0.005   3.547   5.210
 7314SOL    HW122841   0.096   3.587   5.199
 7314SOL    HW222842   6.963   3.613   5.255
 7315SOL     OW22843   6.728   0.359   3.972
 7315SOL    HW122844   6.814   0.408   3.985
 7315SOL    HW222845   6.652   0.419   3.995
 7316SOL     OW22846   3.778   3.434   5.800
 7316SOL    HW122847   3.839   3.381   5.741
 7316SOL    HW222848   3.822   3.448   5.888
 7317SOL     OW22849   3.351   1.028   2.890
 7317SOL    HW122850   3.316   1.032   2.983
 7317SOL    HW222851   3.331   1.114   2.842
 7318SOL     OW22852   1.102   2.156   1.403
 7318SOL    HW122853   1.097   2.058   1.386
 7318SOL    HW222854   1.185   2.194   1.362
 7319SOL     OW22855   6.132   4.857   6.667
 7319SOL    HW122856   6.132   4.874   6.568
 7319SOL    HW222857   6.224   4.832   6.697
 7320SOL     OW22858   0.453   3.323   2.345
 7320SOL    HW122859   0.450   3.324   2.445
 7320SOL    HW222860   0.531   3.378   2.314
 7321SOL     OW22861   2.195   1.754   4.465
 7321SOL    HW122862   2.214   1.771   4.562
 7321SOL    HW222863   2.181   1.842   4.418
 7322SOL     OW22864   0.765   3.786   3.158
 7322SOL    HW122865   0.853   3.739   3.168
 7322SOL    HW222866   0.739   3.827   3.246
 7323SOL     OW22867   1.822   2.102   3.110
 7323SOL    HW122868   1.880   2.184   3.106
 7323SOL    HW222869   1.880   2.021   3.111
 7324SOL     OW22870   5.796   0.990   3.634
 7324SOL    HW122871   5.720   1.032   3.584
 7324SOL    HW222872   5.823   1.050   3.709
 7325SOL     OW22873   3.683   6.635   6.060
 7325SOL    HW122874   3.695   6.561   5.994
 7325SOL    HW222875   3.643   6.598   6.144
 7326SOL     OW22876   2.958   6.600   5.602
 7326SOL    HW122877   2.958   6.700   5.596
 7326SOL    HW222878   2.909   6.572   5.685
 7327SOL     OW22879   1.408   2.748   6.400
 7327SOL    HW122880   1.464   2.707   6.328
 7327SOL    HW222881   1.428   2.703   6.487
 7328SOL     OW22882   3.022   6.759   6.561
 7328SOL    HW122883   2.994   6.673   6.519
 7328SOL    HW222884   2.942   6.807   6.595
 7329SOL     OW22885   4.291   3.738   0.579
 7329SOL    HW122886   4.257   3.650   0.613
 7329SOL    HW222887   4.283   3.807   0.651
 7330SOL     OW22888   3.352   1.461   6.430
 7330SOL    HW122889   3.425   1.412   6.382
 7330SOL    HW222890   3.371   1.461   6.528
 7331SOL     OW22891   4.737   0.383   2.457
 7331SOL    HW122892   4.675   0.412   2.530
 7331SOL    HW222893   4.787   0.462   2.422
 7332SOL     OW22894   2.745   5.849   0.246
 7332SOL    HW122895   2.718   5.793   0.324
 7332SOL    HW222896   2.681   5.926   0.236
 7333SOL     OW22897   0.914   4.483   2.950
 7333SOL    HW122898   0.827   4.532   2.947
 7333SOL    HW222899   0.949   4.484   3.044
 7334SOL     OW22900   3.816   6.111   5.051
 7334SOL    HW122901   3.819   6.019   5.091
 7334SOL    HW222902   3.904   6.157   5.066
 7335SOL     OW22903   1.919   2.470   2.738
 7335SOL    HW122904   1.919   2.370   2.745
 7335SOL    HW222905   2.008   2.500   2.702
 7336SOL     OW22906   1.741   5.735   4.313
 7336SOL    HW122907   1.822   5.792   4.303
 7336SOL    HW222908   1.747   5.657   4.250
 7337SOL     OW22909   0.533   2.918   2.398
 7337SOL    HW122910   0.533   2.818   2.397
 7337SOL    HW222911   0.499   2.951   2.486
 7338SOL     OW22912   6.888   2.394   1.629
 7338SOL    HW122913   6.911   2.488   1.604
 7338SOL    HW222914   6.916   2.332   1.556
 7339SOL     OW22915   6.650   6.041   4.245
 7339SOL    HW122916   6.586   6.028   4.169
 7339SOL    HW222917   6.618   6.116   4.303
 7340SOL     OW22918   2.152   0.158   0.052
 7340SOL    HW122919   2.091   0.081   0.071
 7340SOL    HW222920   2.100   0.243   0.055
 7341SOL     OW22921   6.068   2.333   0.010
 7341SOL    HW122922   6.130   2.367   0.081
 7341SOL    HW222923   5.979   2.313   0.050
 7342SOL     OW22924   0.255   6.674   2.900
 7342SOL    HW122925   0.156   6.659   2.895
 7342SOL    HW222926   0.276   6.769   2.875
 7343SOL     OW22927   5.433   3.414   0.673
 7343SOL    HW122928   5.471   3.322   0.685
 7343SOL    HW222929   5.394   3.445   0.760
 7344SOL     OW22930   1.384   5.771   6.379
 7344SOL    HW122931   1.377   5.863   6.341
 7344SOL    HW222932   1.293   5.739   6.405
 7345SOL     OW22933   3.663   3.893   5.953
 7345SOL    HW122934   3.742   3.835   5.932
 7345SOL    HW222935   3.635   3.943   5.871
 7346SOL     OW22936   3.801   5.538   2.824
 7346SOL    HW122937   3.809   5.637   2.816
 7346SOL    HW222938   3.892   5.497   2.825
 7347SOL     OW22939   6.274   2.267   6.844
 7347SOL    HW122940   6.356   2.281   6.900
 7347SOL    HW222941   6.193   2.281   6.900
 7348SOL     OW22942   1.582   4.051   2.448
 7348SOL    HW122943   1.601   4.083   2.356
 7348SOL    HW222944   1.587   3.951   2.451
 7349SOL     OW22945   3.751   0.911   0.652
 7349SOL    HW122946   3.848   0.887   0.641
 7349SOL    HW222947   3.732   0.928   0.748
 7350SOL     OW22948   2.789   0.419   5.677
 7350SOL    HW122949   2.876   0.402   5.722
 7350SOL    HW222950   2.783   0.516   5.650
 7351SOL     OW22951   4.152   5.040   3.882
 7351SOL    HW122952   4.127   5.092   3.800
 7351SOL    HW222953   4.094   4.958   3.888
 7352SOL     OW22954   0.192   2.672   3.300
 7352SOL    HW122955   0.150   2.748   3.350
 7352SOL    HW222956   0.125   2.634   3.236
 7353SOL     OW22957   6.270   0.559   6.837
 7353SOL    HW122958   6.243   0.512   6.921
 7353SOL    HW222959   6.258   0.497   6.759
 7354SOL     OW22960   1.403   1.594   2.689
 7354SOL    HW122961   1.468   1.548   2.628
 7354SOL    HW222962   1.372   1.530   2.759
 7355SOL     OW22963   0.529   1.965   6.386
 7355SOL    HW122964   0.565   2.051   6.350
 7355SOL    HW222965   0.602   1.915   6.433
 7356SOL     OW22966   4.127   3.532   6.260
 7356SOL    HW122967   4.192   3.475   6.208
 7356SOL    HW222968   4.059   3.570   6.198
 7357SOL     OW22969   5.367   6.052   2.007
 7357SOL    HW122970   5.270   6.074   1.999
 7357SOL    HW222971   5.419   6.137   2.023
 7358SOL     OW22972   5.881   1.858   2.968
 7358SOL    HW122973   5.871   1.881   3.065
 7358SOL    HW222974   5.931   1.772   2.959
 7359SOL     OW22975   4.637   0.440   6.674
 7359SOL    HW122976   4.609   0.358   6.725
 7359SOL    HW222977   4.712   0.485   6.723
 7360SOL     OW22978   2.706   3.393   5.279
 7360SOL    HW122979   2.752   3.447   5.350
 7360SOL    HW222980   2.612   3.374   5.307
 7361SOL     OW22981   4.907   0.329   2.071
 7361SOL    HW122982   4.820   0.295   2.035
 7361SOL    HW222983   4.944   0.262   2.135
 7362SOL     OW22984   3.516   5.390   6.587
 7362SOL    HW122985   3.510   5.434   6.677
 7362SOL    HW222986   3.451   5.314   6.583
 7363SOL     OW22987   3.797   0.645   0.977
 7363SOL    HW122988   3.749   0.585   1.042
 7363SOL    HW222989   3.824   0.729   1.023
 7364SOL     OW22990   5.054   0.085   1.618
 7364SOL    HW122991   5.025   0.178   1.597
 7364SOL    HW222992   5.105   0.084   1.704
 7365SOL     OW22993   5.759   4.540   2.289
 7365SOL    HW122994   5.803   4.519   2.201
 7365SOL    HW222995   5.674   4.487   2.296
 7366SOL     OW22996   2.485   1.202   4.038
 7366SOL    HW122997   2.575   1.241   4.054
 7366SOL    HW222998   2.415   1.266   4.069
 7367SOL     OW22999   4.513   1.040   6.164
 7367SOL    HW123000   4.435   1.073   6.219
 7367SOL    HW223001   4.528   1.102   6.087
 7368SOL     OW23002   3.973   3.686   2.818
 7368SOL    HW123003   3.961   3.655   2.912
 7368SOL    HW223004   3.888   3.675   2.768
 7369SOL     OW23005   5.393   2.549   0.854
 7369SOL    HW123006   5.407   2.613   0.779
 7369SOL    HW223007   5.305   2.502   0.842
 7370SOL     OW23008   2.488   1.753   4.670
 7370SOL    HW123009   2.416   1.820   4.652
 7370SOL    HW223010   2.473   1.710   4.759
 7371SOL     OW23011   3.842   0.221   3.883
 7371SOL    HW123012   3.938   0.202   3.864
 7371SOL    HW223013   3.806   0.153   3.946
 7372SOL     OW23014   4.723   6.751   4.870
 7372SOL    HW123015   4.681   6.715   4.954
 7372SOL    HW223016   4.810   6.705   4.855
 7373SOL     OW23017   5.236   3.016   4.448
 7373SOL    HW123018   5.287   3.099   4.423
 7373SOL    HW223019   5.238   2.953   4.371
 7374SOL     OW23020   0.403   1.748   5.181
 7374SOL    HW123021   0.394   1.827   5.241
 7374SOL    HW223022   0.365   1.667   5.225
 7375SOL     OW23023   2.079   3.300   2.211
 7375SOL    HW123024   2.031   3.223   2.170
 7375SOL    HW223025   2.132   3.347   2.140
 7376SOL     OW23026   0.319   4.549   0.638
 7376SOL    HW123027   0.412   4.518   0.622
 7376SOL    HW223028   0.262   4.471   0.664
 7377SOL     OW23029   3.033   5.745   0.682
 7377SOL    HW123030   2.957   5.681   0.693
 7377SOL    HW223031   3.110   5.715   0.739
 7378SOL     OW23032   1.608   6.125   3.849
 7378SOL    HW123033   1.684   6.178   3.813
 7378SOL    HW223034   1.643   6.041   3.890
 7379SOL     OW23035   4.028   0.807   0.667
 7379SOL    HW123036   4.043   0.724   0.721
 7379SOL    HW223037   4.084   0.881   0.703
 7380SOL     OW23038   5.622   3.597   3.058
 7380SOL    HW123039   5.706   3.550   3.032
 7380SOL    HW223040   5.633   3.638   3.149
 7381SOL     OW23041   3.913   0.865   0.136
 7381SOL    HW123042   3.845   0.840   0.205
 7381SOL    HW223043   4.004   0.862   0.178
 7382SOL     OW23044   7.016   1.201   6.275
 7382SOL    HW123045   6.982   1.115   6.316
 7382SOL    HW223046   6.959   1.277   6.307
 7383SOL     OW23047   1.985   6.368   1.398
 7383SOL    HW123048   1.926   6.408   1.469
 7383SOL    HW223049   1.998   6.435   1.325
 7384SOL     OW23050   0.158   6.940   0.866
 7384SOL    HW123051   0.192   6.996   0.941
 7384SOL    HW223052   0.101   6.866   0.902
 7385SOL     OW23053   4.851   4.564   2.626
 7385SOL    HW123054   4.943   4.597   2.649
 7385SOL    HW223055   4.821   4.500   2.697
 7386SOL     OW23056   6.352   3.400   0.469
 7386SOL    HW123057   6.437   3.450   0.451
 7386SOL    HW223058   6.332   3.403   0.566
 7387SOL     OW23059   6.386   5.298   5.546
 7387SOL    HW123060   6.417   5.203   5.553
 7387SOL    HW223061   6.287   5.300   5.532
 7388SOL     OW23062   2.005   6.279   2.540
 7388SOL    HW123063   2.047   6.365   2.511
 7388SOL    HW223064   1.940   6.296   2.614
 7389SOL     OW23065   6.199   3.195   0.383
 7389SOL    HW123066   6.248   3.143   0.313
 7389SOL    HW223067   6.260   3.265   0.421
 7390SOL     OW23068   2.608   1.761   2.533
 7390SOL    HW123069   2.616   1.751   2.632
 7390SOL    HW223070   2.652   1.847   2.505
 7391SOL     OW23071   3.699   3.091   3.106
 7391SOL    HW123072   3.796   3.069   3.118
 7391SOL    HW223073   3.664   3.135   3.188
 7392SOL     OW23074   3.274   5.597   6.673
 7392SOL    HW123075   3.368   5.569   6.689
 7392SOL    HW223076   3.232   5.624   6.759
 7393SOL     OW23077   5.673   5.643   4.654
 7393SOL    HW123078   5.627   5.662   4.741
 7393SOL    HW223079   5.632   5.698   4.582
 7394SOL     OW23080   2.603   2.010   5.724
 7394SOL    HW123081   2.570   2.098   5.691
 7394SOL    HW223082   2.574   1.998   5.819
 7395SOL     OW23083   2.859   4.965   0.947
 7395SOL    HW123084   2.896   5.016   1.025
 7395SOL    HW223085   2.889   5.008   0.862
 7396SOL     OW23086   2.266   5.111   1.898
 7396SOL    HW123087   2.356   5.119   1.855
 7396SOL    HW223088   2.265   5.031   1.957
 7397SOL     OW23089   5.355   4.416   3.797
 7397SOL    HW123090   5.408   4.386   3.718
 7397SOL    HW223091   5.339   4.339   3.859
 7398SOL     OW23092   2.109   4.191   2.409
 7398SOL    HW123093   2.123   4.120   2.478
 7398SOL    HW223094   2.186   4.191   2.345
 7399SOL     OW23095   5.110   2.061   4.761
 7399SOL    HW123096   5.097   2.112   4.846
 7399SOL    HW223097   5.022   2.049   4.716
 7400SOL     OW23098   5.136   3.181   5.588
 7400SOL    HW123099   5.136   3.279   5.569
 7400SOL    HW223100   5.060   3.137   5.540
 7401SOL     OW23101   1.169   2.947   3.791
 7401SOL    HW123102   1.078   2.912   3.815
 7401SOL    HW223103   1.234   2.872   3.787
 7402SOL     OW23104   3.396   6.278   5.147
 7402SOL    HW123105   3.356   6.193   5.113
 7402SOL    HW223106   3.465   6.258   5.216
 7403SOL     OW23107   1.290   3.247   4.844
 7403SOL    HW123108   1.316   3.263   4.748
 7403SOL    HW223109   1.292   3.334   4.893
 7404SOL     OW23110   2.981   3.908   0.731
 7404SOL    HW123111   3.049   3.953   0.789
 7404SOL    HW223112   2.999   3.929   0.635
 7405SOL     OW23113   3.231   6.124   4.817
 7405SOL    HW123114   3.281   6.129   4.903
 7405SOL    HW223115   3.247   6.208   4.764
 7406SOL     OW23116   0.844   1.273   4.903
 7406SOL    HW123117   0.775   1.327   4.949
 7406SOL    HW223118   0.935   1.310   4.923
 7407SOL     OW23119   0.964   6.091   5.263
 7407SOL    HW123120   0.965   6.141   5.350
 7407SOL    HW223121   0.969   6.157   5.188
 7408SOL     OW23122   3.676   3.851   5.318
 7408SOL    HW123123   3.666   3.945   5.286
 7408SOL    HW223124   3.586   3.808   5.323
 7409SOL     OW23125   6.235   4.015   0.725
 7409SOL    HW123126   6.246   4.093   0.663
 7409SOL    HW223127   6.319   4.000   0.777
 7410SOL     OW23128   0.007   0.274   1.207
 7410SOL    HW123129   6.949   0.222   1.242
 7410SOL    HW223130   0.035   0.342   1.275
 7411SOL     OW23131   1.338   2.096   4.916
 7411SOL    HW123132   1.414   2.106   4.852
 7411SOL    HW223133   1.369   2.046   4.997
 7412SOL     OW23134   4.343   6.249   6.855
 7412SOL    HW123135   4.296   6.322   6.905
 7412SOL    HW223136   4.431   6.229   6.898
 7413SOL     OW23137   4.185   6.655   2.828
 7413SOL    HW123138   4.139   6.675   2.914
 7413SOL    HW223139   4.123   6.603   2.769
 7414SOL     OW23140   2.542   2.029   3.874
 7414SOL    HW123141   2.602   2.083   3.933
 7414SOL    HW223142   2.451   2.072   3.871
 7415SOL     OW23143   3.727   6.278   6.217
 7415SOL    HW123144   3.728   6.330   6.303
 7415SOL    HW223145   3.821   6.249   6.196
 7416SOL     OW23146   1.113   1.452   2.104
 7416SOL    HW123147   1.121   1.377   2.169
 7416SOL    HW223148   1.030   1.504   2.122
 7417SOL     OW23149   0.444   1.782   3.454
 7417SOL    HW123150   0.420   1.752   3.362
 7417SOL    HW223151   0.361   1.802   3.506
 7418SOL     OW23152   2.080   4.345   6.304
 7418SOL    HW123153   1.994   4.314   6.264
 7418SOL    HW223154   2.135   4.266   6.330
 7419SOL     OW23155   6.979   3.393   4.009
 7419SOL    HW123156   6.943   3.369   3.919
 7419SOL    HW223157   6.962   3.318   4.073
 7420SOL     OW23158   6.277   7.008   1.858
 7420SOL    HW123159   6.330   0.017   1.939
 7420SOL    HW223160   6.219   0.066   1.830
 7421SOL     OW23161   4.808   4.166   1.348
 7421SOL    HW123162   4.712   4.142   1.335
 7421SOL    HW223163   4.839   4.130   1.437
 7422SOL     OW23164   5.595   2.732   2.173
 7422SOL    HW123165   5.643   2.668   2.114
 7422SOL    HW223166   5.541   2.682   2.240
 7423SOL     OW23167   5.886   2.085   6.107
 7423SOL    HW123168   5.861   2.075   6.011
 7423SOL    HW223169   5.932   2.172   6.121
 7424SOL     OW23170   0.800   1.683   4.141
 7424SOL    HW123171   0.742   1.699   4.221
 7424SOL    HW223172   0.757   1.617   4.081
 7425SOL     OW23173   6.003   0.871   0.214
 7425SOL    HW123174   6.075   0.804   0.197
 7425SOL    HW223175   6.037   0.943   0.274
 7426SOL     OW23176   3.430   3.023   5.741
 7426SOL    HW123177   3.446   2.925   5.727
 7426SOL    HW223178   3.517   3.068   5.762
 7427SOL     OW23179   3.431   1.486   3.948
 7427SOL    HW123180   3.362   1.463   3.879
 7427SOL    HW223181   3.437   1.412   4.014
 7428SOL     OW23182   4.270   5.951   5.531
 7428SOL    HW123183   4.345   5.919   5.474
 7428SOL    HW223184   4.231   6.034   5.492
 7429SOL     OW23185   1.630   6.872   2.800
 7429SOL    HW123186   1.721   6.895   2.834
 7429SOL    HW223187   1.632   6.782   2.756
 7430SOL     OW23188   6.636   5.178   2.535
 7430SOL    HW123189   6.621   5.085   2.503
 7430SOL    HW223190   6.575   5.198   2.611
 7431SOL     OW23191   1.657   1.940   4.318
 7431SOL    HW123192   1.632   2.012   4.253
 7431SOL    HW223193   1.745   1.901   4.292
 7432SOL     OW23194   1.584   0.065   3.251
 7432SOL    HW123195   1.541   0.119   3.323
 7432SOL    HW223196   1.678   0.043   3.276
 7433SOL     OW23197   2.791   0.241   0.365
 7433SOL    HW123198   2.747   0.220   0.278
 7433SOL    HW223199   2.817   0.337   0.367
 7434SOL     OW23200   3.917   6.173   5.710
 7434SOL    HW123201   3.838   6.231   5.728
 7434SOL    HW223202   3.938   6.120   5.792
 7435SOL     OW23203   4.818   5.486   3.087
 7435SOL    HW123204   4.789   5.545   3.162
 7435SOL    HW223205   4.745   5.421   3.065
 7436SOL     OW23206   5.135   3.135   6.428
 7436SOL    HW123207   5.167   3.207   6.489
 7436SOL    HW223208   5.207   3.112   6.362
 7437SOL     OW23209   3.962   6.329   0.892
 7437SOL    HW123210   4.061   6.330   0.901
 7437SOL    HW223211   3.935   6.259   0.825
 7438SOL     OW23212   2.010   0.546   0.482
 7438SOL    HW123213   2.058   0.625   0.444
 7438SOL    HW223214   1.912   0.563   0.482
 7439SOL     OW23215   0.991   4.617   6.131
 7439SOL    HW123216   1.023   4.526   6.156
 7439SOL    HW223217   0.899   4.611   6.093
 7440SOL     OW23218   5.352   3.307   4.693
 7440SOL    HW123219   5.336   3.278   4.787
 7440SOL    HW223220   5.267   3.303   4.641
 7441SOL     OW23221   5.851   5.986   1.602
 7441SOL    HW123222   5.921   5.932   1.650
 7441SOL    HW223223   5.760   5.949   1.623
 7442SOL     OW23224   4.951   0.615   5.345
 7442SOL    HW123225   4.949   0.687   5.275
 7442SOL    HW223226   5.022   0.637   5.412
 7443SOL     OW23227   0.077   0.448   2.045
 7443SOL    HW123228   0.058   0.445   1.947
 7443SOL    HW223229   0.172   0.476   2.059
 7444SOL     OW23230   1.160   6.368   6.638
 7444SOL    HW123231   1.191   6.390   6.730
 7444SOL    HW223232   1.214   6.291   6.602
 7445SOL     OW23233   3.912   6.308   1.198
 7445SOL    HW123234   3.887   6.277   1.106
 7445SOL    HW223235   3.921   6.408   1.199
 7446SOL     OW23236   5.375   3.737   0.330
 7446SOL    HW123237   5.430   3.777   0.403
 7446SOL    HW223238   5.308   3.674   0.370
 7447SOL     OW23239   0.600   4.997   1.372
 7447SOL    HW123240   0.550   5.009   1.286
 7447SOL    HW223241   0.619   4.899   1.386
 7448SOL     OW23242   4.262   4.884   6.482
 7448SOL    HW123243   4.257   4.963   6.421
 7448SOL    HW223244   4.352   4.841   6.473
 7449SOL     OW23245   0.593   4.325   6.343
 7449SOL    HW123246   0.630   4.250   6.288
 7449SOL    HW223247   0.581   4.406   6.285
 7450SOL     OW23248   4.999   2.006   5.428
 7450SOL    HW123249   5.024   1.931   5.367
 7450SOL    HW223250   5.067   2.013   5.501
 7451SOL     OW23251   5.617   5.186   3.259
 7451SOL    HW123252   5.682   5.111   3.258
 7451SOL    HW223253   5.537   5.162   3.204
 7452SOL     OW23254   6.295   5.186   5.187
 7452SOL    HW123255   6.239   5.221   5.262
 7452SOL    HW223256   6.331   5.263   5.134
 7453SOL     OW23257   3.727   5.927   6.951
 7453SOL    HW123258   3.792   5.889   7.017
 7453SOL    HW223259   3.634   5.907   6.980
 7454SOL     OW23260   3.589   2.484   0.567
 7454SOL    HW123261   3.597   2.419   0.642
 7454SOL    HW223262   3.531   2.561   0.595
 7455SOL     OW23263   6.712   2.853   3.593
 7455SOL    HW123264   6.741   2.803   3.675
 7455SOL    HW223265   6.774   2.831   3.517
 7456SOL     OW23266   3.429   1.979   5.673
 7456SOL    HW123267   3.464   1.909   5.610
 7456SOL    HW223268   3.353   2.028   5.629
 7457SOL     OW23269   2.815   0.191   2.951
 7457SOL    HW123270   2.877   0.152   2.883
 7457SOL    HW223271   2.803   0.127   3.026
 7458SOL     OW23272   1.105   5.541   5.156
 7458SOL    HW123273   1.078   5.556   5.061
 7458SOL    HW223274   1.069   5.615   5.213
 7459SOL     OW23275   5.940   0.274   2.927
 7459SOL    HW123276   5.844   0.299   2.945
 7459SOL    HW223277   6.000   0.340   2.972
 7460SOL     OW23278   1.637   6.467   0.839
 7460SOL    HW123279   1.723   6.480   0.889
 7460SOL    HW223280   1.567   6.528   0.878
 7461SOL     OW23281   1.183   4.977   6.188
 7461SOL    HW123282   1.114   4.948   6.253
 7461SOL    HW223283   1.163   4.939   6.098
 7462SOL     OW23284   1.045   4.982   0.667
 7462SOL    HW123285   1.080   4.921   0.738
 7462SOL    HW223286   1.119   5.006   0.605
 7463SOL     OW23287   3.364   4.733   1.148
 7463SOL    HW123288   3.431   4.782   1.092
 7463SOL    HW223289   3.309   4.673   1.090
 7464SOL     OW23290   6.380   6.074   5.310
 7464SOL    HW123291   6.400   6.045   5.404
 7464SOL    HW223292   6.288   6.047   5.285
 7465SOL     OW23293   1.550   5.014   0.473
 7465SOL    HW123294   1.547   5.091   0.409
 7465SOL    HW223295   1.611   5.037   0.549
 7466SOL     OW23296   0.594   6.842   4.815
 7466SOL    HW123297   0.540   6.759   4.800
 7466SOL    HW223298   0.603   6.892   4.729
 7467SOL     OW23299   0.303   2.751   5.988
 7467SOL    HW123300   0.378   2.758   6.054
 7467SOL    HW223301   0.297   2.836   5.936
 7468SOL     OW23302   6.168   3.651   5.784
 7468SOL    HW123303   6.160   3.698   5.696
 7468SOL    HW223304   6.134   3.710   5.857
 7469SOL     OW23305   6.592   2.479   1.219
 7469SOL    HW123306   6.550   2.413   1.282
 7469SOL    HW223307   6.523   2.543   1.186
 7470SOL     OW23308   5.283   3.291   4.090
 7470SOL    HW123309   5.355   3.324   4.029
 7470SOL    HW223310   5.215   3.363   4.103
 7471SOL     OW23311   5.176   6.192   5.652
 7471SOL    HW123312   5.201   6.096   5.670
 7471SOL    HW223313   5.077   6.200   5.646
 7472SOL     OW23314   5.900   6.048   5.401
 7472SOL    HW123315   5.803   6.073   5.400
 7472SOL    HW223316   5.946   6.095   5.476
 7473SOL     OW23317   4.108   6.099   3.769
 7473SOL    HW123318   4.175   6.123   3.839
 7473SOL    HW223319   4.142   6.127   3.679
 7474SOL     OW23320   6.721   2.003   5.515
 7474SOL    HW123321   6.625   1.980   5.496
 7474SOL    HW223322   6.778   1.976   5.437
 7475SOL     OW23323   4.736   2.528   0.691
 7475SOL    HW123324   4.653   2.473   0.688
 7475SOL    HW223325   4.748   2.564   0.784
 7476SOL     OW23326   1.861   0.841   2.649
 7476SOL    HW123327   1.929   0.877   2.712
 7476SOL    HW223328   1.896   0.761   2.602
 7477SOL     OW23329   0.917   4.229   5.091
 7477SOL    HW123330   0.826   4.220   5.051
 7477SOL    HW223331   0.979   4.161   5.051
 7478SOL     OW23332   0.800   1.449   5.914
 7478SOL    HW123333   0.896   1.439   5.888
 7478SOL    HW223334   0.753   1.506   5.845
 7479SOL     OW23335   6.043   3.399   0.125
 7479SOL    HW123336   6.047   3.316   0.182
 7479SOL    HW223337   6.081   3.379   0.035
 7480SOL     OW23338   4.025   4.765   2.502
 7480SOL    HW123339   4.022   4.788   2.404
 7480SOL    HW223340   3.975   4.834   2.554
 7481SOL     OW23341   0.381   3.925   6.300
 7481SOL    HW123342   0.476   3.947   6.322
 7481SOL    HW223343   0.331   4.009   6.281
 7482SOL     OW23344   3.881   1.834   2.717
 7482SOL    HW123345   3.794   1.846   2.669
 7482SOL    HW223346   3.934   1.919   2.712
 7483SOL     OW23347   4.821   2.204   6.035
 7483SOL    HW123348   4.755   2.129   6.029
 7483SOL    HW223349   4.777   2.290   6.009
 7484SOL     OW23350   3.141   6.723   4.046
 7484SOL    HW123351   3.126   6.822   4.035
 7484SOL    HW223352   3.236   6.707   4.072
 7485SOL     OW23353   2.942   0.053   4.844
 7485SOL    HW123354   2.881   0.123   4.883
 7485SOL    HW223355   2.987   0.090   4.763
 7486SOL     OW23356   2.478   6.563   1.103
 7486SOL    HW123357   2.390   6.551   1.056
 7486SOL    HW223358   2.510   6.474   1.136
 7487SOL     OW23359   4.529   6.515   3.887
 7487SOL    HW123360   4.537   6.524   3.788
 7487SOL    HW223361   4.439   6.546   3.916
 7488SOL     OW23362   0.887   5.366   3.596
 7488SOL    HW123363   0.883   5.450   3.650
 7488SOL    HW223364   0.794   5.339   3.569
 7489SOL     OW23365   6.522   3.438   6.553
 7489SOL    HW123366   6.434   3.455   6.598
 7489SOL    HW223367   6.573   3.371   6.607
 7490SOL     OW23368   1.299   2.165   1.974
 7490SOL    HW123369   1.390   2.123   1.975
 7490SOL    HW223370   1.233   2.105   2.019
 7491SOL     OW23371   4.330   3.152   0.402
 7491SOL    HW123372   4.288   3.100   0.476
 7491SOL    HW223373   4.310   3.108   0.315
 7492SOL     OW23374   1.407   0.452   4.266
 7492SOL    HW123375   1.484   0.455   4.330
 7492SOL    HW223376   1.422   0.518   4.193
 7493SOL     OW23377   6.805   4.181   5.014
 7493SOL    HW123378   6.790   4.253   5.081
 7493SOL    HW223379   6.887   4.201   4.960
 7494SOL     OW23380   5.913   1.073   2.781
 7494SOL    HW123381   5.862   1.064   2.695
 7494SOL    HW223382   6.001   1.026   2.772
 7495SOL     OW23383   1.657   3.929   5.555
 7495SOL    HW123384   1.700   3.920   5.645
 7495SOL    HW223385   1.682   4.017   5.515
 7496SOL     OW23386   5.742   4.176   2.568
 7496SOL    HW123387   5.797   4.248   2.527
 7496SOL    HW223388   5.664   4.156   2.508
 7497SOL     OW23389   0.301   6.781   0.268
 7497SOL    HW123390   0.293   6.683   0.281
 7497SOL    HW223391   0.210   6.821   0.253
 7498SOL     OW23392   3.085   0.338   2.521
 7498SOL    HW123393   3.065   0.391   2.603
 7498SOL    HW223394   3.002   0.328   2.466
 7499SOL     OW23395   4.152   1.831   3.536
 7499SOL    HW123396   4.185   1.737   3.528
 7499SOL    HW223397   4.064   1.832   3.583
 7500SOL     OW23398   3.811   6.991   2.890
 7500SOL    HW123399   3.862   6.962   2.971
 7500SOL    HW223400   3.800   0.072   2.892
 7501SOL     OW23401   5.847   2.258   5.056
 7501SOL    HW123402   5.888   2.287   4.969
 7501SOL    HW223403   5.803   2.169   5.045
 7502SOL     OW23404   3.953   0.579   4.449
 7502SOL    HW123405   3.985   0.591   4.355
 7502SOL    HW223406   3.955   0.667   4.497
 7503SOL     OW23407   1.851   6.463   1.649
 7503SOL    HW123408   1.787   6.393   1.616
 7503SOL    HW223409   1.802   6.549   1.663
 7504SOL     OW23410   6.429   6.561   3.487
 7504SOL    HW123411   6.491   6.617   3.432
 7504SOL    HW223412   6.419   6.603   3.578
 7505SOL     OW23413   0.906   6.818   5.459
 7505SOL    HW123414   0.944   6.908   5.478
 7505SOL    HW223415   0.981   6.751   5.452
 7506SOL     OW23416   2.679   1.810   3.130
 7506SOL    HW123417   2.615   1.761   3.189
 7506SOL    HW223418   2.749   1.746   3.097
 7507SOL     OW23419   6.450   3.976   4.680
 7507SOL    HW123420   6.447   3.973   4.580
 7507SOL    HW223421   6.389   3.907   4.718
 7508SOL     OW23422   1.776   6.120   6.543
 7508SOL    HW123423   1.784   6.081   6.634
 7508SOL    HW223424   1.702   6.188   6.542
 7509SOL     OW23425   5.320   4.225   0.209
 7509SOL    HW123426   5.407   4.227   0.160
 7509SOL    HW223427   5.264   4.302   0.180
 7510SOL     OW23428   3.731   3.724   3.643
 7510SOL    HW123429   3.727   3.770   3.555
 7510SOL    HW223430   3.797   3.770   3.702
 7511SOL     OW23431   3.729   6.343   3.479
 7511SOL    HW123432   3.794   6.285   3.431
 7511SOL    HW223433   3.744   6.439   3.454
 7512SOL     OW23434   3.725   0.073   6.075
 7512SOL    HW123435   3.695   0.168   6.082
 7512SOL    HW223436   3.823   0.068   6.096
 7513SOL     OW23437   0.806   2.096   2.034
 7513SOL    HW123438   0.709   2.070   2.035
 7513SOL    HW223439   0.815   2.192   2.061
 7514SOL     OW23440   1.567   4.221   2.233
 7514SOL    HW123441   1.638   4.292   2.236
 7514SOL    HW223442   1.556   4.189   2.139
 7515SOL     OW23443   0.173   4.594   3.952
 7515SOL    HW123444   0.199   4.687   3.923
 7515SOL    HW223445   0.095   4.599   4.015
 7516SOL     OW23446   1.249   6.374   5.113
 7516SOL    HW123447   1.319   6.355   5.182
 7516SOL    HW223448   1.290   6.421   5.035
 7517SOL     OW23449   0.802   1.431   0.002
 7517SOL    HW123450   0.839   1.521   0.023
 7517SOL    HW223451   0.759   1.392   0.084
 7518SOL     OW23452   4.764   2.981   3.635
 7518SOL    HW123453   4.857   2.946   3.647
 7518SOL    HW223454   4.766   3.066   3.582
 7519SOL     OW23455   3.967   6.202   4.427
 7519SOL    HW123456   3.901   6.220   4.353
 7519SOL    HW223457   3.927   6.229   4.515
 7520SOL     OW23458   1.653   2.246   0.635
 7520SOL    HW123459   1.691   2.335   0.610
 7520SOL    HW223460   1.640   2.241   0.734
 7521SOL     OW23461   3.813   1.349   5.661
 7521SOL    HW123462   3.828   1.428   5.721
 7521SOL    HW223463   3.875   1.354   5.584
 7522SOL     OW23464   1.864   0.138   3.364
 7522SOL    HW123465   1.949   0.173   3.403
 7522SOL    HW223466   1.801   0.115   3.437
 7523SOL     OW23467   5.589   0.834   6.455
 7523SOL    HW123468   5.663   0.766   6.456
 7523SOL    HW223469   5.534   0.822   6.538
 7524SOL     OW23470   0.516   3.370   4.817
 7524SOL    HW123471   0.553   3.278   4.810
 7524SOL    HW223472   0.566   3.421   4.887
 7525SOL     OW23473   4.459   5.757   6.386
 7525SOL    HW123474   4.389   5.827   6.400
 7525SOL    HW223475   4.530   5.766   6.455
 7526SOL     OW23476   2.369   3.233   1.642
 7526SOL    HW123477   2.372   3.294   1.722
 7526SOL    HW223478   2.442   3.259   1.578
 7527SOL     OW23479   4.101   5.126   3.624
 7527SOL    HW123480   4.084   5.028   3.627
 7527SOL    HW223481   4.184   5.144   3.571
 7528SOL     OW23482   6.562   2.925   6.458
 7528SOL    HW123483   6.607   3.014   6.463
 7528SOL    HW223484   6.622   2.855   6.496
 7529SOL     OW23485   6.777   2.796   4.419
 7529SOL    HW123486   6.855   2.740   4.393
 7529SOL    HW223487   6.755   2.781   4.516
 7530SOL     OW23488   6.731   2.107   1.809
 7530SOL    HW123489   6.712   2.098   1.711
 7530SOL    HW223490   6.828   2.090   1.826
 7531SOL     OW23491   4.242   2.021   3.723
 7531SOL    HW123492   4.260   1.951   3.654
 7531SOL    HW223493   4.235   2.110   3.678
 7532SOL     OW23494   4.531   5.319   6.187
 7532SOL    HW123495   4.495   5.409   6.210
 7532SOL    HW223496   4.466   5.273   6.126
 7533SOL     OW23497   4.699   3.807   1.712
 7533SOL    HW123498   4.754   3.865   1.772
 7533SOL    HW223499   4.737   3.714   1.712
 7534SOL     OW23500   4.587   0.053   4.489
 7534SOL    HW123501   4.666   0.016   4.538
 7534SOL    HW223502   4.505   0.039   4.545
 7535SOL     OW23503   0.285   5.976   3.643
 7535SOL    HW123504   0.354   5.975   3.716
 7535SOL    HW223505   0.225   6.055   3.656
 7536SOL     OW23506   4.775   6.048   5.060
 7536SOL    HW123507   4.775   5.949   5.072
 7536SOL    HW223508   4.869   6.082   5.068
 7537SOL     OW23509   3.289   6.547   3.257
 7537SOL    HW123510   3.287   6.604   3.339
 7537SOL    HW223511   3.385   6.528   3.232
 7538SOL     OW23512   0.564   4.437   0.566
 7538SOL    HW123513   0.632   4.390   0.622
 7538SOL    HW223514   0.585   4.423   0.469
 7539SOL     OW23515   0.515   6.401   3.908
 7539SOL    HW123516   0.574   6.389   3.828
 7539SOL    HW223517   0.428   6.443   3.879
 7540SOL     OW23518   6.325   5.182   3.176
 7540SOL    HW123519   6.391   5.194   3.250
 7540SOL    HW223520   6.302   5.272   3.138
 7541SOL     OW23521   1.844   4.152   0.001
 7541SOL    HW123522   1.800   4.170   0.090
 7541SOL    HW223523   1.775   4.127   6.953
 7542SOL     OW23524   5.698   5.613   5.757
 7542SOL    HW123525   5.771   5.647   5.817
 7542SOL    HW223526   5.616   5.669   5.771
 7543SOL     OW23527   2.518   1.021   6.432
 7543SOL    HW123528   2.496   1.094   6.496
 7543SOL    HW223529   2.507   1.054   6.338
 7544SOL     OW23530   6.971   2.633   4.331
 7544SOL    HW123531   0.003   2.561   4.284
 7544SOL    HW223532   0.016   2.689   4.383
 7545SOL     OW23533   1.056   4.991   6.905
 7545SOL    HW123534   1.051   4.916   6.971
 7545SOL    HW223535   1.023   4.960   6.816
 7546SOL     OW23536   3.114   2.895   1.818
 7546SOL    HW123537   3.141   2.915   1.912
 7546SOL    HW223538   3.157   2.810   1.788
 7547SOL     OW23539   4.672   0.420   1.896
 7547SOL    HW123540   4.593   0.429   1.956
 7547SOL    HW223541   4.674   0.328   1.856
 7548SOL     OW23542   3.996   1.990   6.569
 7548SOL    HW123543   4.057   2.051   6.518
 7548SOL    HW223544   3.913   1.973   6.516
 7549SOL     OW23545   4.804   2.462   4.512
 7549SOL    HW123546   4.830   2.554   4.483
 7549SOL    HW223547   4.709   2.462   4.544
 7550SOL     OW23548   2.477   4.542   4.701
 7550SOL    HW123549   2.484   4.476   4.776
 7550SOL    HW223550   2.385   4.580   4.699
 7551SOL     OW23551   5.939   2.573   5.831
 7551SOL    HW123552   5.880   2.655   5.825
 7551SOL    HW223553   6.034   2.600   5.816
 7552SOL     OW23554   2.468   5.998   5.109
 7552SOL    HW123555   2.546   5.975   5.051
 7552SOL    HW223556   2.414   6.069   5.065
 7553SOL     OW23557   5.714   6.439   5.970
 7553SOL    HW123558   5.644   6.410   6.035
 7553SOL    HW223559   5.672   6.458   5.881
 7554SOL     OW23560   5.005   0.776   0.982
 7554SOL    HW123561   5.030   0.740   1.072
 7554SOL    HW223562   4.908   0.759   0.966
 7555SOL     OW23563   3.367   4.973   5.428
 7555SOL    HW123564   3.442   4.991   5.364
 7555SOL    HW223565   3.404   4.943   5.515
 7556SOL     OW23566   0.023   6.715   0.958
 7556SOL    HW123567   6.955   6.681   0.921
 7556SOL    HW223568   0.012   6.738   1.054
 7557SOL     OW23569   4.848   6.874   0.143
 7557SOL    HW123570   4.926   6.927   0.177
 7557SOL    HW223571   4.770   6.885   0.204
 7558SOL     OW23572   1.063   2.067   4.508
 7558SOL    HW123573   0.996   2.004   4.469
 7558SOL    HW223574   1.094   2.033   4.596
 7559SOL     OW23575   3.539   1.956   4.603
 7559SOL    HW123576   3.455   2.010   4.611
 7559SOL    HW223577   3.559   1.940   4.507
 7560SOL     OW23578   0.663   0.777   6.034
 7560SOL    HW123579   0.707   0.728   5.959
 7560SOL    HW223580   0.563   0.766   6.027
 7561SOL     OW23581   5.523   2.094   4.875
 7561SOL    HW123582   5.467   2.175   4.855
 7561SOL    HW223583   5.505   2.024   4.806
 7562SOL     OW23584   1.420   4.322   4.038
 7562SOL    HW123585   1.510   4.339   3.996
 7562SOL    HW223586   1.409   4.381   4.118
 7563SOL     OW23587   3.526   5.632   2.485
 7563SOL    HW123588   3.516   5.715   2.541
 7563SOL    HW223589   3.575   5.654   2.401
 7564SOL     OW23590   4.352   1.835   5.047
 7564SOL    HW123591   4.304   1.748   5.061
 7564SOL    HW223592   4.357   1.854   4.948
 7565SOL     OW23593   5.712   4.073   6.288
 7565SOL    HW123594   5.761   4.065   6.202
 7565SOL    HW223595   5.629   4.128   6.274
 7566SOL     OW23596   4.550   4.339   1.242
 7566SOL    HW123597   4.529   4.241   1.241
 7566SOL    HW223598   4.469   4.390   1.271
 7567SOL     OW23599   1.905   0.725   4.596
 7567SOL    HW123600   1.934   0.646   4.541
 7567SOL    HW223601   1.985   0.775   4.627
 7568SOL     OW23602   6.024   5.161   1.632
 7568SOL    HW123603   6.059   5.227   1.699
 7568SOL    HW223604   5.991   5.211   1.552
 7569SOL     OW23605   4.338   4.080   0.086
 7569SOL    HW123606   4.411   4.097   0.019
 7569SOL    HW223607   4.289   4.166   0.103
 7570SOL     OW23608   6.611   2.933   2.836
 7570SOL    HW123609   6.656   2.943   2.924
 7570SOL    HW223610   6.521   2.975   2.838
 7571SOL     OW23611   4.599   2.669   3.038
 7571SOL    HW123612   4.512   2.628   3.009
 7571SOL    HW223613   4.666   2.597   3.056
 7572SOL     OW23614   4.561   6.260   2.165
 7572SOL    HW123615   4.521   6.351   2.162
 7572SOL    HW223616   4.661   6.267   2.165
 7573SOL     OW23617   5.127   6.569   5.260
 7573SOL    HW123618   5.118   6.503   5.185
 7573SOL    HW223619   5.050   6.557   5.323
 7574SOL     OW23620   0.223   1.357   3.711
 7574SOL    HW123621   0.160   1.429   3.738
 7574SOL    HW223622   0.183   1.268   3.732
 7575SOL     OW23623   6.905   7.000   2.745
 7575SOL    HW123624   6.972   0.047   2.781
 7575SOL    HW223625   6.889   0.001   2.648
 7576SOL     OW23626   5.646   3.042   0.648
 7576SOL    HW123627   5.633   3.115   0.716
 7576SOL    HW223628   5.557   2.999   0.628
 7577SOL     OW23629   1.219   6.742   0.793
 7577SOL    HW123630   1.126   6.781   0.792
 7577SOL    HW223631   1.273   6.783   0.721
 7578SOL     OW23632   6.846   5.858   3.492
 7578SOL    HW123633   6.871   5.954   3.478
 7578SOL    HW223634   6.929   5.803   3.499
 7579SOL     OW23635   6.935   1.514   0.277
 7579SOL    HW123636   6.893   1.602   0.256
 7579SOL    HW223637   6.922   1.451   0.200
 7580SOL     OW23638   2.354   4.774   3.806
 7580SOL    HW123639   2.376   4.706   3.736
 7580SOL    HW223640   2.273   4.826   3.777
 7581SOL     OW23641   6.840   0.801   2.562
 7581SOL    HW123642   6.772   0.730   2.544
 7581SOL    HW223643   6.909   0.765   2.626
 7582SOL     OW23644   3.235   1.422   5.146
 7582SOL    HW123645   3.155   1.446   5.201
 7582SOL    HW223646   3.238   1.323   5.135
 7583SOL     OW23647   5.110   2.991   2.647
 7583SOL    HW123648   5.182   2.922   2.643
 7583SOL    HW223649   5.074   3.007   2.556
 7584SOL     OW23650   0.205   1.084   3.203
 7584SOL    HW123651   0.226   1.021   3.128
 7584SOL    HW223652   0.232   1.177   3.178
 7585SOL     OW23653   1.199   1.505   0.030
 7585SOL    HW123654   1.191   1.422   0.086
 7585SOL    HW223655   1.291   1.543   0.039
 7586SOL     OW23656   1.273   1.809   2.747
 7586SOL    HW123657   1.323   1.747   2.686
 7586SOL    HW223658   1.317   1.899   2.747
 7587SOL     OW23659   3.659   0.934   0.916
 7587SOL    HW123660   3.584   0.974   0.970
 7587SOL    HW223661   3.696   0.854   0.964
 7588SOL     OW23662   2.150   2.261   4.483
 7588SOL    HW123663   2.150   2.351   4.438
 7588SOL    HW223664   2.062   2.247   4.529
 7589SOL     OW23665   0.530   0.844   3.024
 7589SOL    HW123666   0.623   0.810   3.037
 7589SOL    HW223667   0.509   0.912   3.094
 7590SOL     OW23668   0.522   1.724   0.020
 7590SOL    HW123669   0.562   1.725   6.947
 7590SOL    HW223670   0.595   1.718   0.088
 7591SOL     OW23671   4.096   3.116   5.248
 7591SOL    HW123672   4.037   3.105   5.328
 7591SOL    HW223673   4.041   3.151   5.172
 7592SOL     OW23674   6.897   6.533   5.004
 7592SOL    HW123675   6.888   6.452   5.062
 7592SOL    HW223676   6.893   6.506   4.908
 7593SOL     OW23677   1.144   1.608   6.154
 7593SOL    HW123678   1.132   1.511   6.177
 7593SOL    HW223679   1.068   1.661   6.193
 7594SOL     OW23680   0.265   4.651   7.010
 7594SOL    HW123681   0.195   4.675   6.943
 7594SOL    HW223682   0.238   4.568   0.040
 7595SOL     OW23683   0.303   2.914   6.362
 7595SOL    HW123684   0.208   2.945   6.350
 7595SOL    HW223685   0.313   2.870   6.451
 7596SOL     OW23686   2.948   0.906   5.495
 7596SOL    HW123687   2.981   0.973   5.562
 7596SOL    HW223688   2.848   0.905   5.496
 7597SOL     OW23689   1.307   4.476   2.254
 7597SOL    HW123690   1.332   4.379   2.250
 7597SOL    HW223691   1.390   4.531   2.264
 7598SOL     OW23692   6.190   1.338   3.188
 7598SOL    HW123693   6.180   1.373   3.095
 7598SOL    HW223694   6.269   1.381   3.231
 7599SOL     OW23695   3.938   3.270   0.634
 7599SOL    HW123696   3.963   3.214   0.555
 7599SOL    HW223697   4.017   3.280   0.694
 7600SOL     OW23698   1.678   6.937   4.434
 7600SOL    HW123699   1.707   6.948   4.529
 7600SOL    HW223700   1.757   6.912   4.378
 7601SOL     OW23701   3.623   5.904   2.379
 7601SOL    HW123702   3.689   5.966   2.338
 7601SOL    HW223703   3.539   5.954   2.402
 7602SOL     OW23704   6.920   1.591   0.574
 7602SOL    HW123705   6.858   1.670   0.575
 7602SOL    HW223706   6.879   1.516   0.626
 7603SOL     OW23707   3.007   0.376   5.129
 7603SOL    HW123708   2.991   0.421   5.041
 7603SOL    HW223709   3.077   0.427   5.180
 7604SOL     OW23710   0.775   2.609   4.485
 7604SOL    HW123711   0.681   2.611   4.449
 7604SOL    HW223712   0.839   2.635   4.413
 7605SOL     OW23713   2.219   6.314   0.054
 7605SOL    HW123714   2.156   6.340   6.999
 7605SOL    HW223715   2.289   6.252   0.019
 7606SOL     OW23716   6.399   1.567   3.406
 7606SOL    HW123717   6.344   1.495   3.449
 7606SOL    HW223718   6.450   1.528   3.329
 7607SOL     OW23719   2.369   5.991   5.670
 7607SOL    HW123720   2.307   5.976   5.746
 7607SOL    HW223721   2.414   5.905   5.645
 7608SOL     OW23722   6.125   2.578   6.231
 7608SOL    HW123723   6.149   2.666   6.189
 7608SOL    HW223724   6.193   2.555   6.301
 7609SOL     OW23725   0.523   2.124   4.675
 7609SOL    HW123726   0.572   2.158   4.595
 7609SOL    HW223727   0.472   2.199   4.718
 7610SOL     OW23728   3.765   5.185   5.282
 7610SOL    HW123729   3.857   5.208   5.315
 7610SOL    HW223730   3.766   5.181   5.182
 7611SOL     OW23731   4.841   3.427   0.985
 7611SOL    HW123732   4.766   3.403   1.047
 7611SOL    HW223733   4.805   3.448   0.895
 7612SOL     OW23734   3.162   1.490   3.317
 7612SOL    HW123735   3.115   1.474   3.230
 7612SOL    HW223736   3.095   1.511   3.388
 7613SOL     OW23737   0.405   1.195   2.405
 7613SOL    HW123738   0.350   1.260   2.352
 7613SOL    HW223739   0.346   1.125   2.445
 7614SOL     OW23740   5.381   4.093   0.969
 7614SOL    HW123741   5.477   4.117   0.960
 7614SOL    HW223742   5.364   4.005   0.926
 7615SOL     OW23743   5.845   3.579   5.003
 7615SOL    HW123744   5.771   3.647   5.005
 7615SOL    HW223745   5.836   3.523   4.921
 7616SOL     OW23746   6.138   7.007   3.579
 7616SOL    HW123747   6.194   7.010   3.497
 7616SOL    HW223748   6.100   0.079   3.598
 7617SOL     OW23749   5.269   5.293   3.898
 7617SOL    HW123750   5.308   5.334   3.816
 7617SOL    HW223751   5.197   5.228   3.871
 7618SOL     OW23752   2.385   2.722   0.098
 7618SOL    HW123753   2.300   2.700   0.052
 7618SOL    HW223754   2.399   2.658   0.175
 7619SOL     OW23755   0.622   2.177   4.444
 7619SOL    HW123756   0.650   2.239   4.371
 7619SOL    HW223757   0.603   2.086   4.405
 7620SOL     OW23758   4.014   4.074   1.405
 7620SOL    HW123759   4.068   4.058   1.488
 7620SOL    HW223760   3.973   3.988   1.375
 7621SOL     OW23761   6.649   4.418   0.267
 7621SOL    HW123762   6.563   4.445   0.224
 7621SOL    HW223763   6.705   4.367   0.202
 7622SOL     OW23764   3.034   3.620   1.311
 7622SOL    HW123765   3.018   3.661   1.401
 7622SOL    HW223766   2.965   3.653   1.247
 7623SOL     OW23767   4.859   4.686   1.120
 7623SOL    HW123768   4.798   4.760   1.150
 7623SOL    HW223769   4.805   4.611   1.082
 7624SOL     OW23770   0.544   2.706   2.128
 7624SOL    HW123771   0.601   2.686   2.208
 7624SOL    HW223772   0.571   2.794   2.090
 7625SOL     OW23773   5.310   1.190   1.414
 7625SOL    HW123774   5.407   1.213   1.415
 7625SOL    HW223775   5.276   1.184   1.508
 7626SOL     OW23776   5.302   1.435   5.408
 7626SOL    HW123777   5.315   1.367   5.480
 7626SOL    HW223778   5.383   1.491   5.400
 7627SOL     OW23779   3.786   2.614   6.657
 7627SOL    HW123780   3.843   2.553   6.713
 7627SOL    HW223781   3.690   2.602   6.682
 7628SOL     OW23782   3.394   2.667   6.991
 7628SOL    HW123783   3.327   2.595   7.008
 7628SOL    HW223784   3.385   2.738   0.042
 7629SOL     OW23785   6.120   2.923   4.091
 7629SOL    HW123786   6.183   2.934   4.014
 7629SOL    HW223787   6.083   3.012   4.117
 7630SOL     OW23788   1.377   7.011   5.402
 7630SOL    HW123789   1.399   6.917   5.376
 7630SOL    HW223790   1.444   0.055   5.363
 7631SOL     OW23791   1.610   6.974   5.883
 7631SOL    HW123792   1.575   6.997   5.792
 7631SOL    HW223793   1.580   0.026   5.949
 7632SOL     OW23794   5.277   5.259   0.239
 7632SOL    HW123795   5.341   5.214   0.177
 7632SOL    HW223796   5.307   5.244   0.334
 7633SOL     OW23797   6.686   1.253   0.938
 7633SOL    HW123798   6.716   1.279   1.030
 7633SOL    HW223799   6.588   1.234   0.938
 7634SOL     OW23800   6.648   2.113   0.674
 7634SOL    HW123801   6.562   2.077   0.637
 7634SOL    HW223802   6.677   2.192   0.620
 7635SOL     OW23803   2.344   4.252   5.782
 7635SOL    HW123804   2.256   4.205   5.786
 7635SOL    HW223805   2.409   4.196   5.731
 7636SOL     OW23806   0.436   3.338   4.432
 7636SOL    HW123807   0.428   3.431   4.468
 7636SOL    HW223808   0.346   3.304   4.406
 7637SOL     OW23809   0.398   6.660   4.567
 7637SOL    HW123810   0.300   6.647   4.585
 7637SOL    HW223811   0.443   6.571   4.563
 7638SOL     OW23812   0.411   6.002   1.679
 7638SOL    HW123813   0.496   5.970   1.638
 7638SOL    HW223814   0.342   6.013   1.607
 7639SOL     OW23815   1.509   0.824   0.024
 7639SOL    HW123816   1.531   0.728   0.038
 7639SOL    HW223817   1.579   0.867   6.986
 7640SOL     OW23818   3.041   0.979   0.116
 7640SOL    HW123819   2.943   0.979   0.133
 7640SOL    HW223820   3.077   0.886   0.129
 7641SOL     OW23821   0.304   3.987   3.551
 7641SOL    HW123822   0.352   4.072   3.571
 7641SOL    HW223823   0.245   4.000   3.472
 7642SOL     OW23824   5.921   0.822   3.444
 7642SOL    HW123825   5.883   0.887   3.509
 7642SOL    HW223826   5.985   0.761   3.491
 7643SOL     OW23827   5.411   4.170   2.953
 7643SOL    HW123828   5.451   4.262   2.953
 7643SOL    HW223829   5.317   4.175   2.986
 7644SOL     OW23830   5.265   3.438   0.957
 7644SOL    HW123831   5.362   3.443   0.981
 7644SOL    HW223832   5.214   3.399   1.033
 7645SOL     OW23833   3.620   4.486   5.982
 7645SOL    HW123834   3.601   4.389   5.997
 7645SOL    HW223835   3.719   4.501   5.985
 7646SOL     OW23836   0.268   2.125   1.459
 7646SOL    HW123837   0.368   2.119   1.467
 7646SOL    HW223838   0.239   2.218   1.481
 7647SOL     OW23839   6.534   2.874   4.943
 7647SOL    HW123840   6.583   2.856   5.029
 7647SOL    HW223841   6.490   2.964   4.948
 7648SOL     OW23842   3.042   1.849   1.961
 7648SOL    HW123843   3.070   1.946   1.958
 7648SOL    HW223844   3.104   1.799   2.021
 7649SOL     OW23845   5.041   1.175   5.415
 7649SOL    HW123846   4.992   1.260   5.433
 7649SOL    HW223847   5.124   1.195   5.363
 7650SOL     OW23848   4.351   1.762   0.851
 7650SOL    HW123849   4.440   1.801   0.875
 7650SOL    HW223850   4.323   1.796   0.760
 7651SOL     OW23851   2.539   4.958   5.798
 7651SOL    HW123852   2.515   5.056   5.796
 7651SOL    HW223853   2.459   4.904   5.773
 7652SOL     OW23854   0.106   1.095   3.781
 7652SOL    HW123855   0.012   1.063   3.792
 7652SOL    HW223856   0.167   1.037   3.836
 7653SOL     OW23857   0.729   1.436   6.568
 7653SOL    HW123858   0.725   1.442   6.667
 7653SOL    HW223859   0.731   1.340   6.540
 7654SOL     OW23860   5.361   2.332   6.549
 7654SOL    HW123861   5.368   2.246   6.599
 7654SOL    HW223862   5.392   2.319   6.455
 7655SOL     OW23863   2.850   1.406   3.269
 7655SOL    HW123864   2.863   1.475   3.340
 7655SOL    HW223865   2.872   1.315   3.306
 7656SOL     OW23866   0.164   3.209   6.621
 7656SOL    HW123867   0.150   3.228   6.524
 7656SOL    HW223868   0.108   3.131   6.648
 7657SOL     OW23869   0.986   3.961   4.428
 7657SOL    HW123870   0.889   3.936   4.420
 7657SOL    HW223871   1.042   3.894   4.381
 7658SOL     OW23872   2.190   1.577   0.855
 7658SOL    HW123873   2.203   1.675   0.842
 7658SOL    HW223874   2.272   1.528   0.827
 7659SOL     OW23875   4.459   4.125   5.537
 7659SOL    HW123876   4.432   4.030   5.552
 7659SOL    HW223877   4.404   4.165   5.464
 7660SOL     OW23878   0.328   5.562   4.648
 7660SOL    HW123879   0.345   5.504   4.728
 7660SOL    HW223880   0.353   5.656   4.670
 7661SOL     OW23881   4.659   2.024   5.703
 7661SOL    HW123882   4.672   1.925   5.700
 7661SOL    HW223883   4.589   2.051   5.637
 7662SOL     OW23884   0.296   1.276   1.055
 7662SOL    HW123885   0.236   1.281   1.135
 7662SOL    HW223886   0.352   1.193   1.062
 7663SOL     OW23887   6.702   5.540   5.454
 7663SOL    HW123888   6.710   5.634   5.420
 7663SOL    HW223889   6.620   5.497   5.416
 7664SOL     OW23890   4.035   2.155   2.409
 7664SOL    HW123891   4.013   2.186   2.317
 7664SOL    HW223892   4.116   2.096   2.406
 7665SOL     OW23893   4.286   0.859   5.246
 7665SOL    HW123894   4.224   0.909   5.306
 7665SOL    HW223895   4.377   0.855   5.288
 7666SOL     OW23896   5.402   4.773   4.212
 7666SOL    HW123897   5.309   4.809   4.212
 7666SOL    HW223898   5.416   4.715   4.132
 7667SOL     OW23899   4.097   5.842   1.312
 7667SOL    HW123900   4.173   5.894   1.274
 7667SOL    HW223901   4.087   5.865   1.409
 7668SOL     OW23902   1.995   5.334   0.892
 7668SOL    HW123903   2.070   5.376   0.842
 7668SOL    HW223904   1.990   5.372   0.984
 7669SOL     OW23905   2.849   6.860   5.638
 7669SOL    HW123906   2.759   6.867   5.595
 7669SOL    HW223907   2.899   6.946   5.625
 7670SOL     OW23908   0.664   6.408   0.028
 7670SOL    HW123909   0.753   6.400   7.001
 7670SOL    HW223910   0.628   6.501   0.015
 7671SOL     OW23911   4.284   6.659   0.880
 7671SOL    HW123912   4.371   6.686   0.921
 7671SOL    HW223913   4.209   6.704   0.928
 7672SOL     OW23914   4.625   5.113   3.069
 7672SOL    HW123915   4.701   5.139   3.127
 7672SOL    HW223916   4.642   5.022   3.029
 7673SOL     OW23917   1.129   5.824   4.767
 7673SOL    HW123918   1.117   5.735   4.724
 7673SOL    HW223919   1.097   5.819   4.862
 7674SOL     OW23920   3.887   5.892   4.071
 7674SOL    HW123921   3.907   5.889   4.169
 7674SOL    HW223922   3.955   5.838   4.021
 7675SOL     OW23923   4.707   6.735   3.197
 7675SOL    HW123924   4.803   6.728   3.227
 7675SOL    HW223925   4.701   6.799   3.120
 7676SOL     OW23926   3.286   2.689   5.325
 7676SOL    HW123927   3.246   2.598   5.308
 7676SOL    HW223928   3.249   2.755   5.260
 7677SOL     OW23929   5.647   4.398   0.686
 7677SOL    HW123930   5.744   4.376   0.671
 7677SOL    HW223931   5.638   4.454   0.768
 7678SOL     OW23932   1.630   0.375   5.360
 7678SOL    HW123933   1.694   0.349   5.433
 7678SOL    HW223934   1.605   0.293   5.308
 7679SOL     OW23935   2.553   5.697   5.195
 7679SOL    HW123936   2.643   5.731   5.167
 7679SOL    HW223937   2.500   5.771   5.235
 7680SOL     OW23938   2.200   0.067   5.403
 7680SOL    HW123939   2.129   0.121   5.358
 7680SOL    HW223940   2.159   0.014   5.477
 7681SOL     OW23941   2.897   3.535   6.450
 7681SOL    HW123942   2.844   3.544   6.366
 7681SOL    HW223943   2.935   3.443   6.457
 7682SOL     OW23944   3.030   1.548   2.835
 7682SOL    HW123945   3.002   1.497   2.754
 7682SOL    HW223946   3.046   1.644   2.811
 7683SOL     OW23947   0.878   0.591   4.802
 7683SOL    HW123948   0.800   0.542   4.765
 7683SOL    HW223949   0.962   0.541   4.783
 7684SOL     OW23950   4.224   2.508   1.759
 7684SOL    HW123951   4.312   2.462   1.746
 7684SOL    HW223952   4.237   2.607   1.758
 7685SOL     OW23953   2.461   0.601   0.348
 7685SOL    HW123954   2.475   0.544   0.429
 7685SOL    HW223955   2.366   0.596   0.319
 7686SOL     OW23956   6.382   0.167   4.519
 7686SOL    HW123957   6.349   0.199   4.608
 7686SOL    HW223958   6.476   0.199   4.505
 7687SOL     OW23959   5.712   4.746   4.973
 7687SOL    HW123960   5.693   4.650   4.993
 7687SOL    HW223961   5.731   4.756   4.875
 7688SOL     OW23962   0.428   4.654   6.667
 7688SOL    HW123963   0.349   4.709   6.695
 7688SOL    HW223964   0.512   4.703   6.687
 7689SOL     OW23965   4.806   0.582   1.661
 7689SOL    HW123966   4.781   0.678   1.670
 7689SOL    HW223967   4.728   0.530   1.627
 7690SOL     OW23968   6.135   5.729   1.397
 7690SOL    HW123969   6.202   5.802   1.380
 7690SOL    HW223970   6.178   5.656   1.450
 7691SOL     OW23971   4.526   4.433   2.986
 7691SOL    HW123972   4.432   4.399   2.988
 7691SOL    HW223973   4.532   4.516   3.041
 7692SOL     OW23974   2.158   6.733   2.291
 7692SOL    HW123975   2.143   6.829   2.314
 7692SOL    HW223976   2.109   6.711   2.207
 7693SOL     OW23977   1.815   1.824   0.936
 7693SOL    HW123978   1.850   1.755   1.000
 7693SOL    HW223979   1.802   1.911   0.985
 7694SOL     OW23980   5.859   1.845   5.492
 7694SOL    HW123981   5.922   1.788   5.438
 7694SOL    HW223982   5.765   1.812   5.480
 7695SOL     OW23983   4.776   0.100   3.281
 7695SOL    HW123984   4.849   0.035   3.302
 7695SOL    HW223985   4.717   0.112   3.361
 7696SOL     OW23986   0.904   2.793   6.239
 7696SOL    HW123987   0.834   2.788   6.311
 7696SOL    HW223988   0.994   2.777   6.279
 7697SOL     OW23989   4.463   6.898   2.594
 7697SOL    HW123990   4.544   6.956   2.604
 7697SOL    HW223991   4.482   6.808   2.631
 7698SOL     OW23992   6.577   2.604   0.438
 7698SOL    HW123993   6.501   2.653   0.480
 7698SOL    HW223994   6.664   2.645   0.465
 7699SOL     OW23995   4.272   5.626   6.049
 7699SOL    HW123996   4.261   5.725   6.052
 7699SOL    HW223997   4.352   5.603   5.994
 7700SOL     OW23998   5.275   5.873   2.939
 7700SOL    HW123999   5.366   5.833   2.938
 7700SOL    HW224000   5.281   5.971   2.956
 7701SOL     OW24001   0.530   2.479   6.041
 7701SOL    HW124002   0.562   2.567   6.077
 7701SOL    HW224003   0.461   2.495   5.971
 7702SOL     OW24004   4.333   0.199   4.568
 7702SOL    HW124005   4.266   0.155   4.628
 7702SOL    HW224006   4.331   0.298   4.583
 7703SOL     OW24007   6.277   6.513   5.024
 7703SOL    HW124008   6.261   6.601   5.069
 7703SOL    HW224009   6.342   6.460   5.077
 7704SOL     OW24010   6.822   1.522   4.495
 7704SOL    HW124011   6.881   1.496   4.571
 7704SOL    HW224012   6.875   1.569   4.425
 7705SOL     OW24013   1.080   4.846   0.144
 7705SOL    HW124014   1.000   4.857   0.202
 7705SOL    HW224015   1.073   4.761   0.092
 7706SOL     OW24016   3.903   3.032   2.366
 7706SOL    HW124017   3.812   3.004   2.336
 7706SOL    HW224018   3.971   2.966   2.333
 7707SOL     OW24019   6.039   4.411   6.289
 7707SOL    HW124020   6.084   4.493   6.253
 7707SOL    HW224021   5.997   4.361   6.213
 7708SOL     OW24022   2.530   0.062   4.722
 7708SOL    HW124023   2.577   0.000   4.658
 7708SOL    HW224024   2.545   0.157   4.694
 7709SOL     OW24025   0.001   5.032   1.440
 7709SOL    HW124026   6.949   4.979   1.487
 7709SOL    HW224027   0.055   4.971   1.382
 7710SOL     OW24028   0.435   3.378   1.001
 7710SOL    HW124029   0.337   3.375   1.019
 7710SOL    HW224030   0.452   3.419   0.911
 7711SOL     OW24031   0.151   4.597   5.038
 7711SOL    HW124032   0.185   4.586   4.944
 7711SOL    HW224033   0.207   4.664   5.086
 7712SOL     OW24034   0.109   4.731   5.608
 7712SOL    HW124035   0.117   4.823   5.648
 7712SOL    HW224036   0.046   4.676   5.662
 7713SOL     OW24037   2.135   4.619   0.011
 7713SOL    HW124038   2.040   4.588   0.005
 7713SOL    HW224039   2.196   4.550   6.989
 7714SOL     OW24040   6.442   0.916   5.542
 7714SOL    HW124041   6.411   0.940   5.450
 7714SOL    HW224042   6.446   0.817   5.552
 7715SOL     OW24043   3.391   3.071   6.101
 7715SOL    HW124044   3.475   3.094   6.053
 7715SOL    HW224045   3.312   3.093   6.043
 7716SOL     OW24046   1.168   6.017   5.608
 7716SOL    HW124047   1.202   5.940   5.553
 7716SOL    HW224048   1.072   6.001   5.631
 7717SOL     OW24049   0.954   1.806   6.842
 7717SOL    HW124050   1.018   1.801   6.765
 7717SOL    HW224051   0.871   1.856   6.814
 7718SOL     OW24052   1.216   3.484   2.938
 7718SOL    HW124053   1.229   3.582   2.921
 7718SOL    HW224054   1.189   3.440   2.853
 7719SOL     OW24055   2.257   4.291   4.795
 7719SOL    HW124056   2.273   4.199   4.832
 7719SOL    HW224057   2.267   4.358   4.869
 7720SOL     OW24058   5.355   1.162   0.159
 7720SOL    HW124059   5.334   1.067   0.182
 7720SOL    HW224060   5.453   1.171   0.142
 7721SOL     OW24061   0.766   0.706   2.483
 7721SOL    HW124062   0.802   0.784   2.535
 7721SOL    HW224063   0.667   0.711   2.480
 7722SOL     OW24064   1.803   6.250   3.359
 7722SOL    HW124065   1.865   6.246   3.437
 7722SOL    HW224066   1.719   6.200   3.380
 7723SOL     OW24067   4.913   4.027   0.489
 7723SOL    HW124068   4.981   3.954   0.498
 7723SOL    HW224069   4.849   4.005   0.415
 7724SOL     OW24070   2.142   3.915   1.313
 7724SOL    HW124071   2.180   4.007   1.325
 7724SOL    HW224072   2.065   3.902   1.377
 7725SOL     OW24073   5.262   3.397   3.290
 7725SOL    HW124074   5.191   3.349   3.238
 7725SOL    HW224075   5.227   3.420   3.381
 7726SOL     OW24076   1.076   3.159   6.387
 7726SOL    HW124077   1.079   3.216   6.469
 7726SOL    HW224078   0.982   3.159   6.351
 7727SOL     OW24079   4.598   1.166   2.356
 7727SOL    HW124080   4.642   1.117   2.431
 7727SOL    HW224081   4.521   1.112   2.322
 7728SOL     OW24082   2.066   3.356   4.478
 7728SOL    HW124083   2.112   3.442   4.460
 7728SOL    HW224084   2.113   3.308   4.552
 7729SOL     OW24085   6.803   2.221   4.070
 7729SOL    HW124086   6.878   2.212   4.004
 7729SOL    HW224087   6.721   2.255   4.023
 7730SOL     OW24088   6.173   4.146   5.245
 7730SOL    HW124089   6.117   4.164   5.164
 7730SOL    HW224090   6.200   4.050   5.246
 7731SOL     OW24091   6.886   6.876   6.555
 7731SOL    HW124092   6.790   6.853   6.568
 7731SOL    HW224093   6.898   6.912   6.462
 7732SOL     OW24094   4.507   0.666   6.601
 7732SOL    HW124095   4.456   0.707   6.676
 7732SOL    HW224096   4.554   0.584   6.633
 7733SOL     OW24097   6.196   5.953   2.328
 7733SOL    HW124098   6.233   5.865   2.355
 7733SOL    HW224099   6.100   5.942   2.301
 7734SOL     OW24100   3.203   3.928   4.552
 7734SOL    HW124101   3.244   3.993   4.616
 7734SOL    HW224102   3.103   3.933   4.559
 7735SOL     OW24103   6.920   6.261   0.556
 7735SOL    HW124104   6.886   6.253   0.649
 7735SOL    HW224105   6.983   6.338   0.549
 7736SOL     OW24106   2.497   2.733   0.419
 7736SOL    HW124107   2.421   2.786   0.382
 7736SOL    HW224108   2.538   2.783   0.495
 7737SOL     OW24109   3.856   4.873   0.842
 7737SOL    HW124110   3.869   4.964   0.802
 7737SOL    HW224111   3.771   4.873   0.895
 7738SOL     OW24112   2.291   6.904   6.503
 7738SOL    HW124113   2.201   6.919   6.462
 7738SOL    HW224114   2.362   6.931   6.437
 7739SOL     OW24115   1.249   1.862   0.504
 7739SOL    HW124116   1.338   1.909   0.499
 7739SOL    HW224117   1.210   1.876   0.595
 7740SOL     OW24118   1.988   0.398   4.995
 7740SOL    HW124119   1.938   0.447   4.924
 7740SOL    HW224120   2.085   0.421   4.989
 7741SOL     OW24121   1.578   4.532   6.054
 7741SOL    HW124122   1.589   4.434   6.068
 7741SOL    HW224123   1.489   4.551   6.013
 7742SOL     OW24124   4.060   1.536   4.319
 7742SOL    HW124125   3.992   1.480   4.270
 7742SOL    HW224126   4.103   1.599   4.254
 7743SOL     OW24127   5.243   2.194   5.570
 7743SOL    HW124128   5.338   2.216   5.591
 7743SOL    HW224129   5.215   2.243   5.487
 7744SOL     OW24130   0.361   6.341   4.947
 7744SOL    HW124131   0.297   6.378   5.014
 7744SOL    HW224132   0.311   6.289   4.878
 7745SOL     OW24133   2.155   6.860   0.937
 7745SOL    HW124134   2.160   6.932   0.868
 7745SOL    HW224135   2.176   6.899   1.027
 7746SOL     OW24136   1.160   6.122   1.097
 7746SOL    HW124137   1.161   6.216   1.064
 7746SOL    HW224138   1.254   6.090   1.111
 7747SOL     OW24139   1.323   5.910   0.225
 7747SOL    HW124140   1.346   5.912   0.323
 7747SOL    HW224141   1.230   5.944   0.212
 7748SOL     OW24142   4.413   1.983   5.888
 7748SOL    HW124143   4.449   2.013   5.800
 7748SOL    HW224144   4.316   2.005   5.894
 7749SOL     OW24145   4.075   3.768   4.023
 7749SOL    HW124146   4.082   3.772   4.123
 7749SOL    HW224147   4.008   3.836   3.992
 7750SOL     OW24148   5.908   4.270   5.588
 7750SOL    HW124149   5.885   4.310   5.499
 7750SOL    HW224150   5.983   4.205   5.578
 7751SOL     OW24151   6.805   1.016   5.273
 7751SOL    HW124152   6.901   0.996   5.251
 7751SOL    HW224153   6.778   0.961   5.352
 7752SOL     OW24154   6.504   5.448   5.739
 7752SOL    HW124155   6.474   5.398   5.658
 7752SOL    HW224156   6.436   5.439   5.811
 7753SOL     OW24157   2.422   0.929   4.607
 7753SOL    HW124158   2.452   1.014   4.650
 7753SOL    HW224159   2.355   0.950   4.536
 7754SOL     OW24160   5.618   0.742   1.580
 7754SOL    HW124161   5.535   0.789   1.608
 7754SOL    HW224162   5.691   0.763   1.645
 7755SOL     OW24163   0.919   5.965   5.711
 7755SOL    HW124164   0.831   5.921   5.696
 7755SOL    HW224165   0.905   6.053   5.755
 7756SOL     OW24166   3.870   5.205   2.064
 7756SOL    HW124167   3.826   5.285   2.023
 7756SOL    HW224168   3.805   5.159   2.124
 7757SOL     OW24169   4.779   6.376   5.740
 7757SOL    HW124170   4.817   6.325   5.663
 7757SOL    HW224171   4.852   6.423   5.789
 7758SOL     OW24172   2.369   1.860   5.342
 7758SOL    HW124173   2.324   1.852   5.253
 7758SOL    HW224174   2.372   1.957   5.369
 7759SOL     OW24175   2.116   0.847   4.695
 7759SOL    HW124176   2.214   0.834   4.711
 7759SOL    HW224177   2.103   0.907   4.616
 7760SOL     OW24178   4.831   2.947   2.287
 7760SOL    HW124179   4.791   2.969   2.197
 7760SOL    HW224180   4.787   3.002   2.357
 7761SOL     OW24181   3.645   6.905   6.634
 7761SOL    HW124182   3.711   6.849   6.684
 7761SOL    HW224183   3.651   6.885   6.537
 7762SOL     OW24184   4.100   1.607   0.610
 7762SOL    HW124185   4.042   1.528   0.630
 7762SOL    HW224186   4.062   1.688   0.654
 7763SOL     OW24187   1.503   1.941   0.478
 7763SOL    HW124188   1.575   1.995   0.434
 7763SOL    HW224189   1.537   1.906   0.566
 7764SOL     OW24190   3.328   3.030   2.595
 7764SOL    HW124191   3.242   3.025   2.646
 7764SOL    HW224192   3.312   3.074   2.507
 7765SOL     OW24193   6.764   1.934   2.656
 7765SOL    HW124194   6.807   1.932   2.746
 7765SOL    HW224195   6.722   2.023   2.641
 7766SOL     OW24196   0.208   2.696   6.939
 7766SOL    HW124197   0.185   2.784   6.899
 7766SOL    HW224198   0.299   2.669   6.909
 7767SOL     OW24199   4.656   5.576   4.446
 7767SOL    HW124200   4.700   5.664   4.427
 7767SOL    HW224201   4.563   5.591   4.478
 7768SOL     OW24202   3.975   5.022   2.351
 7768SOL    HW124203   3.884   5.052   2.320
 7768SOL    HW224204   4.027   4.989   2.273
 7769SOL     OW24205   5.327   1.685   1.428
 7769SOL    HW124206   5.358   1.670   1.334
 7769SOL    HW224207   5.372   1.767   1.465
 7770SOL     OW24208   3.295   5.288   1.215
 7770SOL    HW124209   3.286   5.191   1.193
 7770SOL    HW224210   3.238   5.309   1.295
 7771SOL     OW24211   2.377   1.830   5.642
 7771SOL    HW124212   2.448   1.899   5.661
 7771SOL    HW224213   2.345   1.841   5.548
 7772SOL     OW24214   5.043   1.240   4.508
 7772SOL    HW124215   4.952   1.219   4.472
 7772SOL    HW224216   5.063   1.180   4.585
 7773SOL     OW24217   4.256   4.057   5.910
 7773SOL    HW124218   4.178   3.995   5.900
 7773SOL    HW224219   4.247   4.109   5.996
 7774SOL     OW24220   5.101   1.628   6.393
 7774SOL    HW124221   5.039   1.646   6.317
 7774SOL    HW224222   5.114   1.712   6.447
 7775SOL     OW24223   3.153   6.294   2.274
 7775SOL    HW124224   3.112   6.232   2.341
 7775SOL    HW224225   3.092   6.372   2.259
 7776SOL     OW24226   3.628   3.669   6.704
 7776SOL    HW124227   3.681   3.720   6.772
 7776SOL    HW224228   3.532   3.669   6.731
 7777SOL     OW24229   2.166   1.576   6.734
 7777SOL    HW124230   2.092   1.637   6.762
 7777SOL    HW224231   2.128   1.491   6.697
 7778SOL     OW24232   5.421   0.761   6.936
 7778SOL    HW124233   5.449   0.839   6.991
 7778SOL    HW224234   5.440   0.676   6.985
 7779SOL     OW24235   4.033   3.075   0.445
 7779SOL    HW124236   3.990   3.028   0.521
 7779SOL    HW224237   4.010   3.029   0.359
 7780SOL     OW24238   1.798   6.400   4.572
 7780SOL    HW124239   1.894   6.393   4.545
 7780SOL    HW224240   1.757   6.309   4.576
 7781SOL     OW24241   1.231   4.443   4.628
 7781SOL    HW124242   1.296   4.513   4.656
 7781SOL    HW224243   1.224   4.441   4.528
 7782SOL     OW24244   3.048   4.699   6.377
 7782SOL    HW124245   3.051   4.622   6.441
 7782SOL    HW224246   2.957   4.740   6.378
 7783SOL     OW24247   2.588   5.495   6.543
 7783SOL    HW124248   2.639   5.435   6.606
 7783SOL    HW224249   2.491   5.474   6.550
 7784SOL     OW24250   0.343   3.007   0.087
 7784SOL    HW124251   0.290   2.948   0.147
 7784SOL    HW224252   0.430   3.031   0.132
 7785SOL     OW24253   2.437   5.813   4.224
 7785SOL    HW124254   2.423   5.855   4.134
 7785SOL    HW224255   2.503   5.868   4.276
 7786SOL     OW24256   3.000   4.330   5.321
 7786SOL    HW124257   3.062   4.355   5.395
 7786SOL    HW224258   2.981   4.411   5.265
 7787SOL     OW24259   2.301   2.740   5.069
 7787SOL    HW124260   2.304   2.839   5.058
 7787SOL    HW224261   2.392   2.702   5.052
 7788SOL     OW24262   1.553   1.480   0.410
 7788SOL    HW124263   1.593   1.525   0.329
 7788SOL    HW224264   1.581   1.529   0.492
 7789SOL     OW24265   1.719   0.653   1.244
 7789SOL    HW124266   1.631   0.645   1.291
 7789SOL    HW224267   1.753   0.747   1.252
 7790SOL     OW24268   5.297   3.005   2.356
 7790SOL    HW124269   5.378   2.999   2.415
 7790SOL    HW224270   5.322   2.976   2.263
 7791SOL     OW24271   1.746   5.028   4.842
 7791SOL    HW124272   1.797   4.961   4.788
 7791SOL    HW224273   1.736   4.994   4.936
 7792SOL     OW24274   2.284   5.417   6.096
 7792SOL    HW124275   2.262   5.404   6.000
 7792SOL    HW224276   2.383   5.419   6.107
 7793SOL     OW24277   1.119   1.337   6.195
 7793SOL    HW124278   1.200   1.293   6.236
 7793SOL    HW224279   1.038   1.311   6.247
 7794SOL     OW24280   5.292   5.699   4.251
 7794SOL    HW124281   5.208   5.652   4.225
 7794SOL    HW224282   5.276   5.798   4.254
 7795SOL     OW24283   2.472   4.374   5.319
 7795SOL    HW124284   2.533   4.450   5.345
 7795SOL    HW224285   2.524   4.289   5.315
 7796SOL     OW24286   3.784   4.090   3.547
 7796SOL    HW124287   3.728   4.107   3.628
 7796SOL    HW224288   3.875   4.060   3.576
 7797SOL     OW24289   0.248   6.991   3.027
 7797SOL    HW124290   0.315   0.039   3.061
 7797SOL    HW224291   0.198   0.012   2.950
 7798SOL     OW24292   3.195   5.785   0.387
 7798SOL    HW124293   3.121   5.842   0.351
 7798SOL    HW224294   3.179   5.768   0.485
 7799SOL     OW24295   6.972   4.826   1.625
 7799SOL    HW124296   0.031   4.869   1.671
 7799SOL    HW224297   6.976   4.727   1.638
 7800SOL     OW24298   0.622   5.616   1.875
 7800SOL    HW124299   0.539   5.631   1.929
 7800SOL    HW224300   0.703   5.634   1.931
 7801SOL     OW24301   3.598   1.939   6.865
 7801SOL    HW124302   3.591   1.890   6.778
 7801SOL    HW224303   3.685   1.917   6.909
 7802SOL     OW24304   5.699   2.237   1.989
 7802SOL    HW124305   5.601   2.219   1.998
 7802SOL    HW224306   5.737   2.257   2.079
 7803SOL     OW24307   4.158   4.018   5.382
 7803SOL    HW124308   4.210   3.971   5.453
 7803SOL    HW224309   4.101   4.089   5.423
 7804SOL     OW24310   5.088   2.258   5.801
 7804SOL    HW124311   5.137   2.236   5.716
 7804SOL    HW224312   4.991   2.269   5.781
 7805SOL     OW24313   5.088   3.693   2.053
 7805SOL    HW124314   5.111   3.596   2.067
 7805SOL    HW224315   5.016   3.719   2.118
 7806SOL     OW24316   5.339   2.666   6.161
 7806SOL    HW124317   5.269   2.719   6.114
 7806SOL    HW224318   5.364   2.587   6.105
 7807SOL     OW24319   0.203   4.366   6.489
 7807SOL    HW124320   0.180   4.272   6.512
 7807SOL    HW224321   0.240   4.369   6.396
 7808SOL     OW24322   0.841   1.296   4.612
 7808SOL    HW124323   0.840   1.395   4.603
 7808SOL    HW224324   0.829   1.271   4.708
 7809SOL     OW24325   2.581   5.555   4.835
 7809SOL    HW124326   2.557   5.583   4.742
 7809SOL    HW224327   2.638   5.473   4.832
 7810SOL     OW24328   2.923   1.017   6.540
 7810SOL    HW124329   2.867   1.026   6.623
 7810SOL    HW224330   2.883   1.071   6.467
 7811SOL     OW24331   6.138   4.399   4.020
 7811SOL    HW124332   6.214   4.390   3.955
 7811SOL    HW224333   6.087   4.483   4.000
 7812SOL     OW24334   1.541   1.468   3.586
 7812SOL    HW124335   1.618   1.456   3.522
 7812SOL    HW224336   1.496   1.380   3.600
 7813SOL     OW24337   6.995   3.079   0.165
 7813SOL    HW124338   7.009   2.980   0.160
 7813SOL    HW224339   0.027   3.123   0.090
 7814SOL     OW24340   6.965   3.266   2.781
 7814SOL    HW124341   7.017   3.243   2.863
 7814SOL    HW224342   6.891   3.200   2.768
 7815SOL     OW24343   6.567   1.889   6.133
 7815SOL    HW124344   6.542   1.798   6.167
 7815SOL    HW224345   6.518   1.908   6.048
 7816SOL     OW24346   1.210   3.760   4.837
 7816SOL    HW124347   1.175   3.670   4.814
 7816SOL    HW224348   1.217   3.768   4.937
 7817SOL     OW24349   5.518   4.128   4.785
 7817SOL    HW124350   5.499   4.215   4.741
 7817SOL    HW224351   5.513   4.139   4.884
 7818SOL     OW24352   5.535   6.181   1.688
 7818SOL    HW124353   5.480   6.253   1.730
 7818SOL    HW224354   5.487   6.094   1.695
 7819SOL     OW24355   6.847   2.004   1.481
 7819SOL    HW124356   6.898   2.053   1.410
 7819SOL    HW224357   6.757   2.046   1.492
 7820SOL     OW24358   1.267   0.945   0.074
 7820SOL    HW124359   1.242   0.960   6.997
 7820SOL    HW224360   1.347   0.885   0.078
 7821SOL     OW24361   3.204   5.150   1.887
 7821SOL    HW124362   3.248   5.145   1.798
 7821SOL    HW224363   3.241   5.079   1.947
 7822SOL     OW24364   1.635   5.947   5.363
 7822SOL    HW124365   1.686   6.030   5.340
 7822SOL    HW224366   1.670   5.870   5.310
 7823SOL     OW24367   1.383   4.644   4.732
 7823SOL    HW124368   1.444   4.650   4.811
 7823SOL    HW224369   1.336   4.731   4.719
 7824SOL     OW24370   0.502   2.878   5.791
 7824SOL    HW124371   0.564   2.808   5.828
 7824SOL    HW224372   0.452   2.841   5.713
 7825SOL     OW24373   3.174   1.568   6.187
 7825SOL    HW124374   3.086   1.613   6.180
 7825SOL    HW224375   3.198   1.556   6.283
 7826SOL     OW24376   0.427   2.941   6.834
 7826SOL    HW124377   0.392   2.991   6.914
 7826SOL    HW224378   0.487   3.000   6.781
 7827SOL     OW24379   0.148   6.639   4.654
 7827SOL    HW124380   0.097   6.722   4.630
 7827SOL    HW224381   0.084   6.568   4.684
 7828SOL     OW24382   0.614   4.544   6.514
 7828SOL    HW124383   0.583   4.481   6.443
 7828SOL    HW224384   0.535   4.576   6.566
 7829SOL     OW24385   4.152   2.841   0.679
 7829SOL    HW124386   4.063   2.847   0.633
 7829SOL    HW224387   4.198   2.929   0.675
 7830SOL     OW24388   2.738   4.686   4.614
 7830SOL    HW124389   2.646   4.724   4.620
 7830SOL    HW224390   2.742   4.599   4.662
 7831SOL     OW24391   1.690   1.569   0.642
 7831SOL    HW124392   1.771   1.608   0.597
 7831SOL    HW224393   1.720   1.511   0.718
 7832SOL     OW24394   6.379   1.044   4.401
 7832SOL    HW124395   6.323   1.096   4.464
 7832SOL    HW224396   6.432   0.975   4.452
 7833SOL     OW24397   1.735   0.819   4.065
 7833SOL    HW124398   1.722   0.852   4.158
 7833SOL    HW224399   1.658   0.760   4.040
 7834SOL     OW24400   6.016   2.995   4.736
 7834SOL    HW124401   6.105   2.973   4.776
 7834SOL    HW224402   5.971   2.910   4.708
 7835SOL     OW24403   4.339   2.291   5.260
 7835SOL    HW124404   4.285   2.328   5.184
 7835SOL    HW224405   4.411   2.232   5.223
 7836SOL     OW24406   3.871   3.532   4.981
 7836SOL    HW124407   3.834   3.571   4.897
 7836SOL    HW224408   3.884   3.604   5.049
 7837SOL     OW24409   6.545   5.613   6.938
 7837SOL    HW124410   6.642   5.624   6.919
 7837SOL    HW224411   6.500   5.568   6.860
 7838SOL     OW24412   5.159   5.230   1.060
 7838SOL    HW124413   5.124   5.141   1.029
 7838SOL    HW224414   5.174   5.227   1.159
 7839SOL     OW24415   5.566   3.379   4.244
 7839SOL    HW124416   5.650   3.360   4.295
 7839SOL    HW224417   5.488   3.341   4.294
 7840SOL     OW24418   2.004   3.054   3.967
 7840SOL    HW124419   2.059   3.022   3.890
 7840SOL    HW224420   1.907   3.055   3.940
 7841SOL     OW24421   5.044   2.339   6.117
 7841SOL    HW124422   4.986   2.271   6.072
 7841SOL    HW224423   5.140   2.321   6.094
 7842SOL     OW24424   1.879   1.020   2.163
 7842SOL    HW124425   1.849   0.926   2.175
 7842SOL    HW224426   1.855   1.074   2.244
 7843SOL     OW24427   0.271   6.885   3.279
 7843SOL    HW124428   0.247   6.789   3.263
 7843SOL    HW224429   0.255   6.938   3.196
 7844SOL     OW24430   3.493   1.638   3.008
 7844SOL    HW124431   3.582   1.677   3.028
 7844SOL    HW224432   3.501   1.576   2.930
 7845SOL     OW24433   6.359   3.161   1.223
 7845SOL    HW124434   6.394   3.077   1.266
 7845SOL    HW224435   6.435   3.224   1.207
 7846SOL     OW24436   0.678   2.244   0.124
 7846SOL    HW124437   0.713   2.283   0.038
 7846SOL    HW224438   0.693   2.146   0.125
 7847SOL     OW24439   5.725   2.996   4.868
 7847SOL    HW124440   5.672   2.912   4.860
 7847SOL    HW224441   5.704   3.057   4.792
 7848SOL     OW24442   3.198   4.770   0.729
 7848SOL    HW124443   3.157   4.749   0.818
 7848SOL    HW224444   3.281   4.716   0.717
 7849SOL     OW24445   4.646   4.422   6.630
 7849SOL    HW124446   4.686   4.512   6.644
 7849SOL    HW224447   4.552   4.433   6.597
 7850SOL     OW24448   6.833   1.027   3.722
 7850SOL    HW124449   6.830   0.932   3.753
 7850SOL    HW224450   6.768   1.082   3.776
 7851SOL     OW24451   0.421   4.063   2.152
 7851SOL    HW124452   0.338   4.061   2.096
 7851SOL    HW224453   0.400   4.028   2.243
 7852SOL     OW24454   1.017   2.161   6.288
 7852SOL    HW124455   1.037   2.254   6.258
 7852SOL    HW224456   0.954   2.118   6.223
 7853SOL     OW24457   4.137   3.000   1.715
 7853SOL    HW124458   4.066   3.008   1.784
 7853SOL    HW224459   4.202   3.076   1.724
 7854SOL     OW24460   4.743   2.583   6.771
 7854SOL    HW124461   4.779   2.668   6.811
 7854SOL    HW224462   4.778   2.573   6.677
 7855SOL     OW24463   4.899   6.948   4.310
 7855SOL    HW124464   4.850   7.011   4.370
 7855SOL    HW224465   4.848   6.862   4.304
 7856SOL     OW24466   2.346   6.691   4.771
 7856SOL    HW124467   2.337   6.624   4.697
 7856SOL    HW224468   2.330   6.783   4.735
 7857SOL     OW24469   5.846   4.256   1.416
 7857SOL    HW124470   5.793   4.229   1.496
 7857SOL    HW224471   5.870   4.175   1.363
 7858SOL     OW24472   0.431   4.576   5.769
 7858SOL    HW124473   0.525   4.543   5.760
 7858SOL    HW224474   0.416   4.609   5.862
 7859SOL     OW24475   5.327   2.643   0.181
 7859SOL    HW124476   5.344   2.604   0.271
 7859SOL    HW224477   5.411   2.684   0.146
 7860SOL     OW24478   2.538   0.745   4.386
 7860SOL    HW124479   2.538   0.797   4.301
 7860SOL    HW224480   2.531   0.808   4.464
 7861SOL     OW24481   2.578   6.249   0.916
 7861SOL    HW124482   2.495   6.303   0.930
 7861SOL    HW224483   2.583   6.177   0.984
 7862SOL     OW24484   2.535   5.592   0.730
 7862SOL    HW124485   2.626   5.608   0.768
 7862SOL    HW224486   2.475   5.669   0.751
 7863SOL     OW24487   6.621   4.332   3.528
 7863SOL    HW124488   6.580   4.278   3.455
 7863SOL    HW224489   6.694   4.280   3.571
 7864SOL     OW24490   2.084   6.934   5.602
 7864SOL    HW124491   1.995   6.921   5.647
 7864SOL    HW224492   2.156   6.893   5.657
 7865SOL     OW24493   5.883   5.572   3.587
 7865SOL    HW124494   5.883   5.495   3.650
 7865SOL    HW224495   5.843   5.543   3.499
 7866SOL     OW24496   1.119   6.813   5.821
 7866SOL    HW124497   1.092   6.768   5.736
 7866SOL    HW224498   1.058   6.889   5.840
 7867SOL     OW24499   5.684   6.312   3.719
 7867SOL    HW124500   5.729   6.332   3.632
 7867SOL    HW224501   5.587   6.294   3.702
 7868SOL     OW24502   3.391   6.050   1.297
 7868SOL    HW124503   3.414   6.122   1.364
 7868SOL    HW224504   3.370   6.092   1.209
 7869SOL     OW24505   5.276   5.196   5.967
 7869SOL    HW124506   5.331   5.143   5.902
 7869SOL    HW224507   5.300   5.293   5.958
 7870SOL     OW24508   5.638   6.266   5.104
 7870SOL    HW124509   5.667   6.209   5.181
 7870SOL    HW224510   5.715   6.281   5.043
 7871SOL     OW24511   5.340   1.541   1.801
 7871SOL    HW124512   5.244   1.540   1.771
 7871SOL    HW224513   5.382   1.452   1.782
 7872SOL     OW24514   1.980   5.847   2.576
 7872SOL    HW124515   2.019   5.930   2.536
 7872SOL    HW224516   1.929   5.870   2.658
 7873SOL     OW24517   6.271   1.338   6.848
 7873SOL    HW124518   6.344   1.406   6.854
 7873SOL    HW224519   6.301   1.252   6.889
 7874SOL     OW24520   5.523   2.290   0.739
 7874SOL    HW124521   5.490   2.278   0.645
 7874SOL    HW224522   5.464   2.354   0.788
 7875SOL     OW24523   5.163   4.152   6.712
 7875SOL    HW124524   5.113   4.222   6.662
 7875SOL    HW224525   5.117   4.064   6.703
 7876SOL     OW24526   0.627   0.121   2.390
 7876SOL    HW124527   0.598   0.098   2.297
 7876SOL    HW224528   0.548   0.155   2.442
 7877SOL     OW24529   0.060   2.079   3.050
 7877SOL    HW124530   0.119   2.009   3.090
 7877SOL    HW224531   0.116   2.148   3.005
 7878SOL     OW24532   4.320   4.855   3.134
 7878SOL    HW124533   4.322   4.759   3.106
 7878SOL    HW224534   4.382   4.869   3.211
 7879SOL     OW24535   2.588   4.640   2.954
 7879SOL    HW124536   2.678   4.655   2.995
 7879SOL    HW224537   2.599   4.599   2.863
 7880SOL     OW24538   1.542   4.123   1.975
 7880SOL    HW124539   1.638   4.096   1.971
 7880SOL    HW224540   1.501   4.116   1.884
 7881SOL     OW24541   5.043   4.356   4.067
 7881SOL    HW124542   5.111   4.295   4.025
 7881SOL    HW224543   4.961   4.358   4.011
 7882SOL     OW24544   1.167   3.532   0.769
 7882SOL    HW124545   1.197   3.437   0.774
 7882SOL    HW224546   1.125   3.549   0.680
 7883SOL     OW24547   0.901   1.194   5.376
 7883SOL    HW124548   0.911   1.137   5.295
 7883SOL    HW224549   0.919   1.140   5.458
 7884SOL     OW24550   0.866   2.654   4.231
 7884SOL    HW124551   0.810   2.690   4.156
 7884SOL    HW224552   0.956   2.629   4.196
 7885SOL     OW24553   6.194   5.702   0.145
 7885SOL    HW124554   6.099   5.683   0.121
 7885SOL    HW224555   6.227   5.632   0.208
 7886SOL     OW24556   4.834   5.140   6.749
 7886SOL    HW124557   4.923   5.115   6.711
 7886SOL    HW224558   4.776   5.176   6.676
 7887SOL     OW24559   4.811   1.847   0.081
 7887SOL    HW124560   4.872   1.773   0.051
 7887SOL    HW224561   4.866   1.924   0.114
 7888SOL     OW24562   5.073   1.064   4.702
 7888SOL    HW124563   5.027   0.987   4.746
 7888SOL    HW224564   5.096   1.133   4.770
 7889SOL     OW24565   1.150   6.468   2.087
 7889SOL    HW124566   1.152   6.405   2.009
 7889SOL    HW224567   1.123   6.418   2.169
 7890SOL     OW24568   1.701   2.925   2.767
 7890SOL    HW124569   1.792   2.964   2.765
 7890SOL    HW224570   1.649   2.962   2.844
 7891SOL     OW24571   1.994   4.868   2.795
 7891SOL    HW124572   1.954   4.904   2.711
 7891SOL    HW224573   1.926   4.813   2.844
 7892SOL     OW24574   2.029   2.030   5.583
 7892SOL    HW124575   1.963   1.992   5.647
 7892SOL    HW224576   2.105   2.073   5.633
 7893SOL     OW24577   6.186   6.343   1.544
 7893SOL    HW124578   6.204   6.399   1.464
 7893SOL    HW224579   6.234   6.380   1.623
 7894SOL     OW24580   3.004   6.858   1.826
 7894SOL    HW124581   2.978   6.847   1.922
 7894SOL    HW224582   3.004   6.769   1.781
 7895SOL     OW24583   0.184   1.814   3.616
 7895SOL    HW124584   0.119   1.801   3.542
 7895SOL    HW224585   0.181   1.735   3.678
 7896SOL     OW24586   4.858   2.225   5.320
 7896SOL    HW124587   4.916   2.157   5.273
 7896SOL    HW224588   4.887   2.232   5.415
 7897SOL     OW24589   3.173   3.248   6.260
 7897SOL    HW124590   3.169   3.344   6.234
 7897SOL    HW224591   3.188   3.191   6.179
 7898SOL     OW24592   4.339   2.344   3.330
 7898SOL    HW124593   4.421   2.307   3.286
 7898SOL    HW224594   4.316   2.288   3.410
 7899SOL     OW24595   5.293   1.181   2.687
 7899SOL    HW124596   5.335   1.090   2.688
 7899SOL    HW224597   5.299   1.222   2.777
 7900SOL     OW24598   1.561   5.380   1.060
 7900SOL    HW124599   1.585   5.304   1.120
 7900SOL    HW224600   1.462   5.383   1.045
 7901SOL     OW24601   6.235   6.355   0.188
 7901SOL    HW124602   6.285   6.317   0.110
 7901SOL    HW224603   6.263   6.308   0.272
 7902SOL     OW24604   4.454   3.941   6.851
 7902SOL    HW124605   4.463   3.953   6.752
 7902SOL    HW224606   4.398   3.860   6.869
 7903SOL     OW24607   0.375   2.087   6.590
 7903SOL    HW124608   0.281   2.113   6.571
 7903SOL    HW224609   0.414   2.041   6.510
 7904SOL     OW24610   6.605   0.924   2.609
 7904SOL    HW124611   6.596   0.901   2.706
 7904SOL    HW224612   6.695   0.896   2.576
 7905SOL     OW24613   3.566   1.341   0.699
 7905SOL    HW124614   3.618   1.276   0.645
 7905SOL    HW224615   3.624   1.420   0.721
 7906SOL     OW24616   6.414   6.145   0.011
 7906SOL    HW124617   6.329   6.103   6.996
 7906SOL    HW224618   6.491   6.086   7.008
 7907SOL     OW24619   6.891   2.931   2.249
 7907SOL    HW124620   6.894   2.949   2.151
 7907SOL    HW224621   6.923   2.838   2.267
 7908SOL     OW24622   6.313   2.038   3.679
 7908SOL    HW124623   6.258   2.043   3.763
 7908SOL    HW224624   6.272   2.098   3.609
 7909SOL     OW24625   4.670   4.584   5.021
 7909SOL    HW124626   4.604   4.587   4.947
 7909SOL    HW224627   4.755   4.543   4.988
 7910SOL     OW24628   5.717   3.081   5.724
 7910SOL    HW124629   5.785   3.130   5.778
 7910SOL    HW224630   5.730   3.104   5.627
 7911SOL     OW24631   5.611   4.722   0.148
 7911SOL    HW124632   5.512   4.735   0.150
 7911SOL    HW224633   5.649   4.772   0.070
 7912SOL     OW24634   6.496   5.054   5.858
 7912SOL    HW124635   6.438   4.997   5.915
 7912SOL    HW224636   6.586   5.064   5.900
 7913SOL     OW24637   0.158   5.752   6.334
 7913SOL    HW124638   0.242   5.806   6.335
 7913SOL    HW224639   0.097   5.787   6.263
 7914SOL     OW24640   6.793   3.553   2.152
 7914SOL    HW124641   6.835   3.641   2.177
 7914SOL    HW224642   6.823   3.482   2.216
 7915SOL     OW24643   4.251   1.825   2.999
 7915SOL    HW124644   4.178   1.893   3.004
 7915SOL    HW224645   4.227   1.746   3.055
 7916SOL     OW24646   5.228   3.756   5.459
 7916SOL    HW124647   5.314   3.786   5.499
 7916SOL    HW224648   5.157   3.755   5.529
 7917SOL     OW24649   3.471   3.824   4.493
 7917SOL    HW124650   3.458   3.769   4.410
 7917SOL    HW224651   3.383   3.832   4.541
 7918SOL     OW24652   6.368   1.668   2.324
 7918SOL    HW124653   6.387   1.704   2.233
 7918SOL    HW224654   6.454   1.663   2.376
 7919SOL     OW24655   5.864   5.041   2.078
 7919SOL    HW124656   5.883   4.945   2.058
 7919SOL    HW224657   5.765   5.054   2.090
 7920SOL     OW24658   0.494   5.626   1.628
 7920SOL    HW124659   0.526   5.705   1.576
 7920SOL    HW224660   0.514   5.640   1.725
 7921SOL     OW24661   3.211   6.625   1.717
 7921SOL    HW124662   3.251   6.561   1.652
 7921SOL    HW224663   3.228   6.719   1.687
 7922SOL     OW24664   0.845   5.205   6.651
 7922SOL    HW124665   0.872   5.108   6.649
 7922SOL    HW224666   0.923   5.262   6.625
 7923SOL     OW24667   1.606   1.909   2.693
 7923SOL    HW124668   1.641   1.821   2.661
 7923SOL    HW224669   1.625   1.918   2.791
 7924SOL     OW24670   2.361   7.002   3.958
 7924SOL    HW124671   2.380   6.919   3.906
 7924SOL    HW224672   2.446   0.037   3.967
 7925SOL     OW24673   0.110   1.185   6.784
 7925SOL    HW124674   0.063   1.233   6.858
 7925SOL    HW224675   0.175   1.119   6.821
 7926SOL     OW24676   3.557   0.280   1.808
 7926SOL    HW124677   3.641   0.336   1.810
 7926SOL    HW224678   3.565   0.211   1.737
 7927SOL     OW24679   4.525   4.742   4.488
 7927SOL    HW124680   4.544   4.689   4.571
 7927SOL    HW224681   4.586   4.822   4.486
 7928SOL     OW24682   1.286   5.058   1.355
 7928SOL    HW124683   1.199   5.054   1.402
 7928SOL    HW224684   1.330   5.147   1.372
 7929SOL     OW24685   3.667   4.142   4.266
 7929SOL    HW124686   3.580   4.120   4.311
 7929SOL    HW224687   3.648   4.173   4.173
 7930SOL     OW24688   4.919   5.908   4.185
 7930SOL    HW124689   4.938   5.923   4.088
 7930SOL    HW224690   4.843   5.844   4.194
 7931SOL     OW24691   1.745   2.822   0.641
 7931SOL    HW124692   1.805   2.824   0.561
 7931SOL    HW224693   1.755   2.734   0.688
 7932SOL     OW24694   2.756   6.929   1.311
 7932SOL    HW124695   2.726   6.834   1.325
 7932SOL    HW224696   2.682   6.992   1.335
 7933SOL     OW24697   1.510   0.535   0.051
 7933SOL    HW124698   1.512   0.490   6.980
 7933SOL    HW224699   1.415   0.550   0.078
 7934SOL     OW24700   2.779   3.575   6.172
 7934SOL    HW124701   2.786   3.575   6.072
 7934SOL    HW224702   2.688   3.545   6.200
 7935SOL     OW24703   4.172   6.249   1.112
 7935SOL    HW124704   4.217   6.337   1.130
 7935SOL    HW224705   4.077   6.253   1.143
 7936SOL     OW24706   4.732   6.322   3.261
 7936SOL    HW124707   4.752   6.278   3.348
 7936SOL    HW224708   4.642   6.366   3.266
 7937SOL     OW24709   5.966   6.360   5.749
 7937SOL    HW124710   5.884   6.319   5.788
 7937SOL    HW224711   5.952   6.458   5.736
 7938SOL     OW24712   5.715   4.790   4.712
 7938SOL    HW124713   5.780   4.784   4.636
 7938SOL    HW224714   5.622   4.796   4.675
 7939SOL     OW24715   0.895   0.826   4.958
 7939SOL    HW124716   0.889   0.734   4.918
 7939SOL    HW224717   0.884   0.894   4.886
 7940SOL     OW24718   1.684   5.624   1.137
 7940SOL    HW124719   1.593   5.655   1.109
 7940SOL    HW224720   1.752   5.663   1.076
 7941SOL     OW24721   0.418   0.229   0.377
 7941SOL    HW124722   0.496   0.247   0.318
 7941SOL    HW224723   0.414   0.131   0.398
 7942SOL     OW24724   0.760   1.055   1.796
 7942SOL    HW124725   0.823   1.021   1.866
 7942SOL    HW224726   0.812   1.103   1.725
 7943SOL     OW24727   5.331   2.015   1.025
 7943SOL    HW124728   5.314   2.068   1.107
 7943SOL    HW224729   5.393   1.939   1.047
 7944SOL     OW24730   1.232   4.589   1.992
 7944SOL    HW124731   1.179   4.602   2.076
 7944SOL    HW224732   1.238   4.491   1.971
 7945SOL     OW24733   5.375   6.390   1.790
 7945SOL    HW124734   5.339   6.417   1.701
 7945SOL    HW224735   5.301   6.354   1.847
 7946SOL     OW24736   1.909   1.897   5.803
 7946SOL    HW124737   1.872   1.957   5.874
 7946SOL    HW224738   1.859   1.810   5.805
 7947SOL     OW24739   3.682   3.722   6.384
 7947SOL    HW124740   3.584   3.722   6.363
 7947SOL    HW224741   3.711   3.815   6.408
 7948SOL     OW24742   0.421   6.341   0.183
 7948SOL    HW124743   0.400   6.269   0.118
 7948SOL    HW224744   0.509   6.382   0.160
 7949SOL     OW24745   5.546   4.414   4.162
 7949SOL    HW124746   5.630   4.442   4.209
 7949SOL    HW224747   5.520   4.483   4.095
 7950SOL     OW24748   3.410   4.905   4.496
 7950SOL    HW124749   3.386   5.002   4.494
 7950SOL    HW224750   3.332   4.850   4.465
 7951SOL     OW24751   3.039   2.958   1.319
 7951SOL    HW124752   2.942   2.980   1.312
 7951SOL    HW224753   3.053   2.888   1.389
 7952SOL     OW24754   5.885   3.403   0.612
 7952SOL    HW124755   5.887   3.376   0.708
 7952SOL    HW224756   5.796   3.441   0.589
 7953SOL     OW24757   1.933   3.050   2.421
 7953SOL    HW124758   1.908   3.135   2.376
 7953SOL    HW224759   1.850   2.998   2.442
 7954SOL     OW24760   4.847   5.437   5.051
 7954SOL    HW124761   4.925   5.375   5.040
 7954SOL    HW224762   4.770   5.405   4.995
 7955SOL     OW24763   1.084   6.459   5.751
 7955SOL    HW124764   1.094   6.425   5.845
 7955SOL    HW224765   1.155   6.527   5.733
 7956SOL     OW24766   5.737   0.235   3.737
 7956SOL    HW124767   5.813   0.192   3.688
 7956SOL    HW224768   5.670   0.165   3.762
 7957SOL     OW24769   1.239   2.606   0.918
 7957SOL    HW124770   1.142   2.623   0.934
 7957SOL    HW224771   1.251   2.566   0.828
 7958SOL     OW24772   2.604   5.737   2.714
 7958SOL    HW124773   2.623   5.642   2.689
 7958SOL    HW224774   2.534   5.774   2.652
 7959SOL     OW24775   5.534   4.794   0.843
 7959SOL    HW124776   5.615   4.760   0.795
 7959SOL    HW224777   5.478   4.717   0.873
 7960SOL     OW24778   2.401   2.182   1.174
 7960SOL    HW124779   2.469   2.109   1.166
 7960SOL    HW224780   2.423   2.238   1.254
 7961SOL     OW24781   1.646   5.095   6.536
 7961SOL    HW124782   1.644   5.135   6.444
 7961SOL    HW224783   1.668   5.166   6.602
 7962SOL     OW24784   1.175   0.412   2.249
 7962SOL    HW124785   1.138   0.351   2.179
 7962SOL    HW224786   1.166   0.507   2.219
 7963SOL     OW24787   0.497   0.685   5.035
 7963SOL    HW124788   0.407   0.646   5.049
 7963SOL    HW224789   0.563   0.642   5.097
 7964SOL     OW24790   6.133   5.710   3.568
 7964SOL    HW124791   6.042   5.688   3.533
 7964SOL    HW224792   6.166   5.794   3.526
 7965SOL     OW24793   5.583   2.072   0.295
 7965SOL    HW124794   5.564   1.976   0.316
 7965SOL    HW224795   5.500   2.116   0.260
 7966SOL     OW24796   6.968   4.963   3.858
 7966SOL    HW124797   6.892   4.976   3.795
 7966SOL    HW224798   7.018   4.880   3.834
 7967SOL     OW24799   2.759   6.118   2.798
 7967SOL    HW124800   2.805   6.043   2.750
 7967SOL    HW224801   2.826   6.169   2.852
 7968SOL     OW24802   2.177   1.398   2.106
 7968SOL    HW124803   2.185   1.475   2.168
 7968SOL    HW224804   2.101   1.413   2.043
 7969SOL     OW24805   2.992   2.210   3.225
 7969SOL    HW124806   2.955   2.232   3.315
 7969SOL    HW224807   3.091   2.196   3.232
 7970SOL     OW24808   0.512   4.511   3.189
 7970SOL    HW124809   0.536   4.422   3.227
 7970SOL    HW224810   0.413   4.518   3.180
 7971SOL     OW24811   2.433   1.499   1.731
 7971SOL    HW124812   2.520   1.547   1.718
 7971SOL    HW224813   2.368   1.527   1.659
 7972SOL     OW24814   0.412   4.286   2.313
 7972SOL    HW124815   0.443   4.229   2.237
 7972SOL    HW224816   0.417   4.234   2.399
 7973SOL     OW24817   4.728   2.841   2.870
 7973SOL    HW124818   4.658   2.879   2.810
 7973SOL    HW224819   4.686   2.780   2.938
 7974SOL     OW24820   5.269   0.433   4.374
 7974SOL    HW124821   5.210   0.353   4.361
 7974SOL    HW224822   5.361   0.403   4.400
 7975SOL     OW24823   2.803   1.235   4.079
 7975SOL    HW124824   2.874   1.252   4.011
 7975SOL    HW224825   2.820   1.147   4.124
 7976SOL     OW24826   0.907   5.395   6.408
 7976SOL    HW124827   0.859   5.403   6.320
 7976SOL    HW224828   0.872   5.464   6.471
 7977SOL     OW24829   5.191   6.105   1.433
 7977SOL    HW124830   5.250   6.099   1.352
 7977SOL    HW224831   5.208   6.192   1.480
 7978SOL     OW24832   4.433   2.514   5.874
 7978SOL    HW124833   4.423   2.510   5.973
 7978SOL    HW224834   4.344   2.499   5.831
 7979SOL     OW24835   3.733   6.529   4.175
 7979SOL    HW124836   3.715   6.556   4.270
 7979SOL    HW224837   3.762   6.609   4.122
 7980SOL     OW24838   3.203   6.176   1.515
 7980SOL    HW124839   3.167   6.153   1.606
 7980SOL    HW224840   3.300   6.199   1.523
 7981SOL     OW24841   1.060   5.243   3.054
 7981SOL    HW124842   1.111   5.222   3.137
 7981SOL    HW224843   1.103   5.198   2.976
 7982SOL     OW24844   6.499   3.305   0.842
 7982SOL    HW124845   6.497   3.352   0.931
 7982SOL    HW224846   6.592   3.305   0.806
 7983SOL     OW24847   5.160   2.539   2.698
 7983SOL    HW124848   5.134   2.594   2.619
 7983SOL    HW224849   5.098   2.558   2.774
 7984SOL     OW24850   0.636   1.310   1.330
 7984SOL    HW124851   0.591   1.308   1.240
 7984SOL    HW224852   0.732   1.286   1.319
 7985SOL     OW24853   0.061   1.427   1.989
 7985SOL    HW124854   0.010   1.512   1.999
 7985SOL    HW224855   0.094   1.419   1.895
 7986SOL     OW24856   3.729   1.531   0.372
 7986SOL    HW124857   3.773   1.543   0.283
 7986SOL    HW224858   3.764   1.448   0.416
 7987SOL     OW24859   0.649   2.857   4.662
 7987SOL    HW124860   0.712   2.814   4.727
 7987SOL    HW224861   0.555   2.832   4.685
 7988SOL     OW24862   2.729   1.294   5.566
 7988SOL    HW124863   2.825   1.305   5.593
 7988SOL    HW224864   2.695   1.379   5.528
 7989SOL     OW24865   2.937   2.707   5.363
 7989SOL    HW124866   2.861   2.762   5.327
 7989SOL    HW224867   2.985   2.759   5.433
 7990SOL     OW24868   1.569   2.186   4.783
 7990SOL    HW124869   1.563   2.186   4.684
 7990SOL    HW224870   1.533   2.272   4.819
 7991SOL     OW24871   0.947   3.173   5.926
 7991SOL    HW124872   0.925   3.269   5.938
 7991SOL    HW224873   0.882   3.117   5.978
 7992SOL     OW24874   2.291   1.133   0.882
 7992SOL    HW124875   2.232   1.126   0.802
 7992SOL    HW224876   2.263   1.211   0.938
 7993SOL     OW24877   2.178   6.638   6.721
 7993SOL    HW124878   2.140   6.589   6.642
 7993SOL    HW224879   2.272   6.665   6.701
 7994SOL     OW24880   5.588   1.066   3.427
 7994SOL    HW124881   5.493   1.098   3.428
 7994SOL    HW224882   5.590   0.968   3.409
 7995SOL     OW24883   3.415   5.248   3.343
 7995SOL    HW124884   3.345   5.209   3.283
 7995SOL    HW224885   3.496   5.268   3.289
 7996SOL     OW24886   3.602   0.043   5.170
 7996SOL    HW124887   3.669   0.090   5.228
 7996SOL    HW224888   3.626   6.965   5.163
 7997SOL     OW24889   5.525   2.535   1.702
 7997SOL    HW124890   5.532   2.618   1.757
 7997SOL    HW224891   5.447   2.481   1.732
 7998SOL     OW24892   6.101   4.780   6.934
 7998SOL    HW124893   6.062   4.843   7.001
 7998SOL    HW224894   6.077   4.810   6.841
 7999SOL     OW24895   2.010   0.442   5.380
 7999SOL    HW124896   1.952   0.469   5.457
 7999SOL    HW224897   2.048   0.524   5.337
 8000SOL     OW24898   6.354   6.524   5.357
 8000SOL    HW124899   6.427   6.483   5.302
 8000SOL    HW224900   6.340   6.469   5.439
 8001SOL     OW24901   2.126   6.841   1.319
 8001SOL    HW124902   2.220   6.810   1.336
 8001SOL    HW224903   2.127   6.913   1.249
 8002SOL     OW24904   5.732   3.079   5.436
 8002SOL    HW124905   5.653   3.040   5.390
 8002SOL    HW224906   5.808   3.087   5.372
 8003SOL     OW24907   3.647   5.062   2.991
 8003SOL    HW124908   3.600   5.142   2.953
 8003SOL    HW224909   3.625   5.054   3.088
 8004SOL     OW24910   1.765   3.864   2.869
 8004SOL    HW124911   1.856   3.885   2.835
 8004SOL    HW224912   1.697   3.918   2.818
 8005SOL     OW24913   2.776   1.465   1.592
 8005SOL    HW124914   2.748   1.522   1.670
 8005SOL    HW224915   2.855   1.410   1.618
 8006SOL     OW24916   3.278   6.357   0.375
 8006SOL    HW124917   3.265   6.291   0.450
 8006SOL    HW224918   3.194   6.408   0.360
 8007SOL     OW24919   0.507   0.667   4.276
 8007SOL    HW124920   0.467   0.725   4.206
 8007SOL    HW224921   0.563   0.722   4.338
 8008SOL     OW24922   6.365   6.652   0.459
 8008SOL    HW124923   6.359   6.750   0.478
 8008SOL    HW224924   6.335   6.635   0.365
 8009SOL     OW24925   6.900   6.699   3.735
 8009SOL    HW124926   6.827   6.732   3.795
 8009SOL    HW224927   6.904   6.755   3.653
 8010SOL     OW24928   2.396   3.022   6.740
 8010SOL    HW124929   2.495   3.024   6.750
 8010SOL    HW224930   2.371   3.040   6.644
 8011SOL     OW24931   3.187   2.155   0.460
 8011SOL    HW124932   3.168   2.078   0.521
 8011SOL    HW224933   3.227   2.121   0.375
 8012SOL     OW24934   3.011   6.288   1.999
 8012SOL    HW124935   3.087   6.246   2.048
 8012SOL    HW224936   2.932   6.228   2.002
 8013SOL     OW24937   5.953   4.482   4.920
 8013SOL    HW124938   5.856   4.467   4.937
 8013SOL    HW224939   5.965   4.557   4.855
 8014SOL     OW24940   2.111   6.223   0.291
 8014SOL    HW124941   2.124   6.301   0.353
 8014SOL    HW224942   2.142   6.249   0.200
 8015SOL     OW24943   2.120   2.660   0.060
 8015SOL    HW124944   2.083   2.665   0.153
 8015SOL    HW224945   2.077   2.584   0.011
 8016SOL     OW24946   3.563   6.371   1.138
 8016SOL    HW124947   3.606   6.458   1.113
 8016SOL    HW224948   3.467   6.386   1.161
 8017SOL     OW24949   5.922   4.323   4.338
 8017SOL    HW124950   5.979   4.265   4.281
 8017SOL    HW224951   5.887   4.400   4.284
 8018SOL     OW24952   5.331   2.299   4.930
 8018SOL    HW124953   5.309   2.397   4.926
 8018SOL    HW224954   5.251   2.249   4.963
 8019SOL     OW24955   2.735   5.658   0.952
 8019SOL    HW124956   2.667   5.589   0.976
 8019SOL    HW224957   2.799   5.669   1.028
 8020SOL     OW24958   5.482   5.592   6.711
 8020SOL    HW124959   5.433   5.603   6.797
 8020SOL    HW224960   5.430   5.531   6.650
 8021SOL     OW24961   0.779   0.685   1.376
 8021SOL    HW124962   0.703   0.738   1.412
 8021SOL    HW224963   0.846   0.669   1.449
 8022SOL     OW24964   4.395   6.222   2.887
 8022SOL    HW124965   4.371   6.143   2.830
 8022SOL    HW224966   4.437   6.190   2.972
 8023SOL     OW24967   6.346   6.899   3.054
 8023SOL    HW124968   6.443   6.877   3.068
 8023SOL    HW224969   6.292   6.816   3.063
 8024SOL     OW24970   4.567   4.843   5.169
 8024SOL    HW124971   4.607   4.869   5.257
 8024SOL    HW224972   4.640   4.837   5.101
 8025SOL     OW24973   3.709   5.461   6.949
 8025SOL    HW124974   3.694   5.383   6.888
 8025SOL    HW224975   3.803   5.492   6.941
 8026SOL     OW24976   0.972   2.770   0.302
 8026SOL    HW124977   1.050   2.810   0.254
 8026SOL    HW224978   1.004   2.730   0.388
 8027SOL     OW24979   4.897   3.039   5.620
 8027SOL    HW124980   4.859   2.962   5.672
 8027SOL    HW224981   4.840   3.120   5.633
 8028SOL     OW24982   5.453   4.496   6.727
 8028SOL    HW124983   5.487   4.570   6.668
 8028SOL    HW224984   5.460   4.409   6.678
 8029SOL     OW24985   3.378   4.188   0.903
 8029SOL    HW124986   3.423   4.099   0.889
 8029SOL    HW224987   3.290   4.188   0.856
 8030SOL     OW24988   5.756   3.835   6.401
 8030SOL    HW124989   5.743   3.917   6.345
 8030SOL    HW224990   5.828   3.851   6.468
 8031SOL     OW24991   3.554   5.542   1.670
 8031SOL    HW124992   3.456   5.529   1.681
 8031SOL    HW224993   3.589   5.600   1.744
 8032SOL     OW24994   4.977   3.751   5.863
 8032SOL    HW124995   4.965   3.819   5.936
 8032SOL    HW224996   4.969   3.796   5.774
 8033SOL     OW24997   5.811   2.967   6.897
 8033SOL    HW124998   5.720   3.003   6.919
 8033SOL    HW224999   5.841   2.906   6.971
 8034SOL     OW25000   5.819   0.666   5.451
 8034SOL    HW125001   5.846   0.607   5.528
 8034SOL    HW225002   5.723   0.649   5.429
 8035SOL     OW25003   5.756   6.510   6.662
 8035SOL    HW125004   5.766   6.438   6.731
 8035SOL    HW225005   5.707   6.473   6.583
 8036SOL     OW25006   1.992   4.586   1.708
 8036SOL    HW125007   1.958   4.636   1.787
 8036SOL    HW225008   1.916   4.536   1.666
 8037SOL     OW25009   1.459   3.339   1.480
 8037SOL    HW125010   1.408   3.358   1.396
 8037SOL    HW225011   1.403   3.283   1.541
 8038SOL     OW25012   0.109   2.490   4.194
 8038SOL    HW125013   0.085   2.477   4.097
 8038SOL    HW225014   0.198   2.448   4.211
 8039SOL     OW25015   2.838   0.005   3.531
 8039SOL    HW125016   2.891   6.950   3.489
 8039SOL    HW225017   2.899   0.075   3.566
 8040SOL     OW25018   6.904   5.872   0.997
 8040SOL    HW125019   6.832   5.932   0.962
 8040SOL    HW225020   6.955   5.918   1.069
 8041SOL     OW25021   4.445   1.507   0.797
 8041SOL    HW125022   4.425   1.594   0.842
 8041SOL    HW225023   4.414   1.511   0.702
 8042SOL     OW25024   3.251   3.233   1.417
 8042SOL    HW125025   3.270   3.191   1.506
 8042SOL    HW225026   3.312   3.310   1.403
 8043SOL     OW25027   2.847   6.584   2.083
 8043SOL    HW125028   2.935   6.571   2.036
 8043SOL    HW225029   2.838   6.518   2.157
 8044SOL     OW25030   2.938   3.724   1.945
 8044SOL    HW125031   2.965   3.695   2.036
 8044SOL    HW225032   2.993   3.676   1.877
 8045SOL     OW25033   5.703   2.710   3.283
 8045SOL    HW125034   5.651   2.763   3.217
 8045SOL    HW225035   5.675   2.614   3.280
 8046SOL     OW25036   6.767   5.224   6.334
 8046SOL    HW125037   6.813   5.171   6.263
 8046SOL    HW225038   6.829   5.295   6.367
 8047SOL     OW25039   3.584   6.084   4.023
 8047SOL    HW125040   3.619   6.122   3.937
 8047SOL    HW225041   3.586   5.984   4.019
 8048SOL     OW25042   7.003   6.963   5.658
 8048SOL    HW125043   6.927   6.929   5.602
 8048SOL    HW225044   7.010   6.909   5.741
 8049SOL     OW25045   1.035   5.279   0.744
 8049SOL    HW125046   1.033   5.319   0.835
 8049SOL    HW225047   1.060   5.182   0.750
 8050SOL     OW25048   1.631   2.905   1.078
 8050SOL    HW125049   1.539   2.872   1.099
 8050SOL    HW225050   1.636   2.932   0.982
 8051SOL     OW25051   4.687   0.763   3.865
 8051SOL    HW125052   4.783   0.749   3.840
 8051SOL    HW225053   4.663   0.859   3.852
 8052SOL     OW25054   2.752   1.338   3.028
 8052SOL    HW125055   2.691   1.416   3.032
 8052SOL    HW225056   2.807   1.334   3.112
 8053SOL     OW25057   4.061   3.826   2.329
 8053SOL    HW125058   3.977   3.851   2.377
 8053SOL    HW225059   4.127   3.788   2.393
 8054SOL     OW25060   4.140   6.133   4.791
 8054SOL    HW125061   4.129   6.155   4.888
 8054SOL    HW225062   4.060   6.166   4.741
 8055SOL     OW25063   1.869   6.897   5.832
 8055SOL    HW125064   1.889   6.799   5.830
 8055SOL    HW225065   1.770   6.911   5.823
 8056SOL     OW25066   4.257   1.640   3.238
 8056SOL    HW125067   4.297   1.671   3.324
 8056SOL    HW225068   4.314   1.567   3.200
 8057SOL     OW25069   3.565   6.792   3.036
 8057SOL    HW125070   3.651   6.806   2.986
 8057SOL    HW225071   3.519   6.880   3.046
 8058SOL     OW25072   2.727   1.009   3.218
 8058SOL    HW125073   2.816   0.965   3.228
 8058SOL    HW225074   2.656   0.939   3.209
 8059SOL     OW25075   2.888   1.728   3.928
 8059SOL    HW125076   2.896   1.814   3.978
 8059SOL    HW225077   2.955   1.663   3.962
 8060SOL     OW25078   0.567   1.634   4.471
 8060SOL    HW125079   0.639   1.581   4.517
 8060SOL    HW225080   0.559   1.723   4.516
 8061SOL     OW25081   0.186   5.133   2.121
 8061SOL    HW125082   0.275   5.173   2.144
 8061SOL    HW225083   0.117   5.166   2.186
 8062SOL     OW25084   1.752   3.872   3.524
 8062SOL    HW125085   1.704   3.831   3.446
 8062SOL    HW225086   1.792   3.799   3.580
 8063SOL     OW25087   3.316   3.075   0.233
 8063SOL    HW125088   3.413   3.057   0.248
 8063SOL    HW225089   3.279   3.124   0.312
 8064SOL     OW25090   6.900   3.859   6.824
 8064SOL    HW125091   6.981   3.837   6.769
 8064SOL    HW225092   6.859   3.944   6.791
 8065SOL     OW25093   4.793   0.506   5.567
 8065SOL    HW125094   4.830   0.539   5.480
 8065SOL    HW225095   4.868   0.484   5.629
 8066SOL     OW25096   1.619   0.086   1.510
 8066SOL    HW125097   1.618   7.005   1.505
 8066SOL    HW225098   1.543   0.118   1.567
 8067SOL     OW25099   5.075   2.421   1.981
 8067SOL    HW125100   4.984   2.397   1.948
 8067SOL    HW225101   5.091   2.519   1.967
 8068SOL     OW25102   0.765   4.396   4.679
 8068SOL    HW125103   0.764   4.301   4.709
 8068SOL    HW225104   0.675   4.437   4.696
 8069SOL     OW25105   1.514   6.469   1.784
 8069SOL    HW125106   1.550   6.560   1.762
 8069SOL    HW225107   1.421   6.461   1.747
 8070SOL     OW25108   3.724   0.224   1.375
 8070SOL    HW125109   3.720   0.175   1.288
 8070SOL    HW225110   3.637   0.270   1.391
 8071SOL     OW25111   3.778   6.227   6.722
 8071SOL    HW125112   3.746   6.185   6.637
 8071SOL    HW225113   3.736   6.179   6.799
 8072SOL     OW25114   5.257   1.019   1.222
 8072SOL    HW125115   5.172   1.032   1.171
 8072SOL    HW225116   5.270   1.095   1.285
 8073SOL     OW25117   4.204   6.626   5.787
 8073SOL    HW125118   4.289   6.634   5.839
 8073SOL    HW225119   4.141   6.699   5.813
 8074SOL     OW25120   3.671   3.761   0.116
 8074SOL    HW125121   3.662   3.808   0.204
 8074SOL    HW225122   3.584   3.765   0.067
 8075SOL     OW25123   0.230   1.570   2.735
 8075SOL    HW125124   0.299   1.579   2.664
 8075SOL    HW225125   0.140   1.555   2.693
 8076SOL     OW25126   6.189   3.093   5.940
 8076SOL    HW125127   6.159   3.070   5.847
 8076SOL    HW225128   6.211   3.190   5.944
 8077SOL     OW25129   1.399   0.154   0.972
 8077SOL    HW125130   1.388   0.245   0.931
 8077SOL    HW225131   1.414   0.164   1.071
 8078SOL     OW25132   6.275   3.439   0.731
 8078SOL    HW125133   6.351   3.435   0.795
 8078SOL    HW225134   6.210   3.366   0.752
 8079SOL     OW25135   6.532   1.872   2.132
 8079SOL    HW125136   6.565   1.793   2.185
 8079SOL    HW225137   6.604   1.942   2.130
 8080SOL     OW25138   3.738   5.063   0.096
 8080SOL    HW125139   3.715   5.151   0.138
 8080SOL    HW225140   3.673   4.994   0.127
 8081SOL     OW25141   6.028   0.785   5.678
 8081SOL    HW125142   6.094   0.733   5.733
 8081SOL    HW225143   6.063   0.877   5.662
 8082SOL     OW25144   6.900   3.021   3.847
 8082SOL    HW125145   6.847   2.938   3.832
 8082SOL    HW225146   6.997   3.000   3.842
 8083SOL     OW25147   4.376   2.445   3.788
 8083SOL    HW125148   4.408   2.539   3.787
 8083SOL    HW225149   4.435   2.390   3.846
 8084SOL     OW25150   6.693   0.274   0.847
 8084SOL    HW125151   6.765   0.319   0.794
 8084SOL    HW225152   6.701   0.300   0.943
 8085SOL     OW25153   5.547   1.327   1.380
 8085SOL    HW125154   5.561   1.419   1.418
 8085SOL    HW225155   5.558   1.331   1.281
 8086SOL     OW25156   3.215   0.211   5.660
 8086SOL    HW125157   3.267   0.209   5.575
 8086SOL    HW225158   3.261   0.156   5.729
 8087SOL     OW25159   3.059   2.738   1.523
 8087SOL    HW125160   3.106   2.713   1.438
 8087SOL    HW225161   3.062   2.662   1.587
 8088SOL     OW25162   4.023   0.970   3.241
 8088SOL    HW125163   4.052   0.999   3.333
 8088SOL    HW225164   4.055   1.036   3.174
 8089SOL     OW25165   5.923   3.055   0.210
 8089SOL    HW125166   5.844   2.995   0.224
 8089SOL    HW225167   5.928   3.122   0.284
 8090SOL     OW25168   4.677   1.933   5.372
 8090SOL    HW125169   4.746   2.004   5.361
 8090SOL    HW225170   4.692   1.885   5.458
 8091SOL     OW25171   3.067   4.845   5.779
 8091SOL    HW125172   3.082   4.868   5.683
 8091SOL    HW225173   3.006   4.766   5.785
 8092SOL     OW25174   1.221   1.820   4.173
 8092SOL    HW125175   1.311   1.795   4.139
 8092SOL    HW225176   1.159   1.833   4.096
 8093SOL     OW25177   5.632   5.816   1.348
 8093SOL    HW125178   5.585   5.809   1.437
 8093SOL    HW225179   5.703   5.886   1.353
 8094SOL     OW25180   0.698   3.483   5.726
 8094SOL    HW125181   0.642   3.471   5.808
 8094SOL    HW225182   0.772   3.548   5.746
 8095SOL     OW25183   5.391   3.834   4.255
 8095SOL    HW125184   5.312   3.888   4.285
 8095SOL    HW225185   5.470   3.855   4.312
 8096SOL     OW25186   3.754   5.870   1.519
 8096SOL    HW125187   3.765   5.953   1.464
 8096SOL    HW225188   3.844   5.830   1.537
 8097SOL     OW25189   4.946   1.222   3.778
 8097SOL    HW125190   4.859   1.231   3.827
 8097SOL    HW225191   4.962   1.125   3.757
 8098SOL     OW25192   2.930   6.475   3.661
 8098SOL    HW125193   3.024   6.495   3.690
 8098SOL    HW225194   2.908   6.381   3.686
 8099SOL     OW25195   5.020   6.374   5.113
 8099SOL    HW125196   5.090   6.407   5.050
 8099SOL    HW225197   4.930   6.388   5.073
 8100SOL     OW25198   0.627   6.453   1.127
 8100SOL    HW125199   0.699   6.479   1.191
 8100SOL    HW225200   0.577   6.374   1.164
 8101SOL     OW25201   1.385   5.944   3.526
 8101SOL    HW125202   1.336   6.022   3.488
 8101SOL    HW225203   1.413   5.883   3.451
 8102SOL     OW25204   0.171   5.803   5.988
 8102SOL    HW125205   0.154   5.877   6.053
 8102SOL    HW225206   0.118   5.819   5.904
 8103SOL     OW25207   3.068   1.256   2.686
 8103SOL    HW125208   3.057   1.190   2.760
 8103SOL    HW225209   3.009   1.231   2.610
 8104SOL     OW25210   2.690   6.849   6.387
 8104SOL    HW125211   2.700   6.750   6.381
 8104SOL    HW225212   2.715   6.880   6.479
 8105SOL     OW25213   1.886   2.151   2.748
 8105SOL    HW125214   1.791   2.133   2.773
 8105SOL    HW225215   1.941   2.070   2.766
 8106SOL     OW25216   0.643   3.840   4.559
 8106SOL    HW125217   0.655   3.865   4.463
 8106SOL    HW225218   0.644   3.740   4.568
 8107SOL     OW25219   2.008   6.337   6.124
 8107SOL    HW125220   2.056   6.296   6.046
 8107SOL    HW225221   2.034   6.288   6.208
 8108SOL     OW25222   1.221   3.102   4.038
 8108SOL    HW125223   1.199   3.083   3.942
 8108SOL    HW225224   1.223   3.017   4.090
 8109SOL     OW25225   1.730   5.270   4.971
 8109SOL    HW125226   1.678   5.216   4.905
 8109SOL    HW225227   1.825   5.239   4.972
 8110SOL     OW25228   2.064   4.549   1.424
 8110SOL    HW125229   2.122   4.610   1.369
 8110SOL    HW225230   2.095   4.549   1.519
 8111SOL     OW25231   2.456   5.537   4.230
 8111SOL    HW125232   2.391   5.478   4.277
 8111SOL    HW225233   2.423   5.631   4.230
 8112SOL     OW25234   3.049   1.006   5.050
 8112SOL    HW125235   3.104   1.047   4.978
 8112SOL    HW225236   3.005   1.079   5.103
 8113SOL     OW25237   3.868   2.652   5.883
 8113SOL    HW125238   3.836   2.649   5.788
 8113SOL    HW225239   3.850   2.564   5.927
 8114SOL     OW25240   2.809   3.445   1.149
 8114SOL    HW125241   2.713   3.437   1.176
 8114SOL    HW225242   2.827   3.539   1.119
 8115SOL     OW25243   3.790   1.324   0.897
 8115SOL    HW125244   3.744   1.277   0.972
 8115SOL    HW225245   3.743   1.409   0.876
 8116SOL     OW25246   6.209   0.607   5.483
 8116SOL    HW125247   6.132   0.637   5.540
 8116SOL    HW225248   6.195   0.639   5.389
 8117SOL     OW25249   2.047   1.623   5.923
 8117SOL    HW125250   2.017   1.567   5.846
 8117SOL    HW225251   2.137   1.662   5.904
 8118SOL     OW25252   0.897   3.121   4.685
 8118SOL    HW125253   0.955   3.044   4.710
 8118SOL    HW225254   0.801   3.094   4.693
 8119SOL     OW25255   1.328   6.294   2.904
 8119SOL    HW125256   1.243   6.268   2.951
 8119SOL    HW225257   1.403   6.236   2.936
 8120SOL     OW25258   4.258   3.856   1.753
 8120SOL    HW125259   4.295   3.872   1.844
 8120SOL    HW225260   4.234   3.943   1.710
 8121SOL     OW25261   6.331   0.459   2.847
 8121SOL    HW125262   6.418   0.445   2.800
 8121SOL    HW225263   6.348   0.471   2.945
 8122SOL     OW25264   6.825   6.674   2.107
 8122SOL    HW125265   6.765   6.609   2.154
 8122SOL    HW225266   6.920   6.645   2.117
 8123SOL     OW25267   1.106   6.050   0.384
 8123SOL    HW125268   1.088   6.007   0.473
 8123SOL    HW225269   1.050   6.132   0.376
 8124SOL     OW25270   0.866   5.786   2.902
 8124SOL    HW125271   0.948   5.832   2.867
 8124SOL    HW225272   0.873   5.777   3.002
 8125SOL     OW25273   5.306   5.474   2.986
 8125SOL    HW125274   5.223   5.467   2.930
 8125SOL    HW225275   5.290   5.537   3.062
 8126SOL     OW25276   5.615   5.019   2.190
 8126SOL    HW125277   5.585   5.043   2.098
 8126SOL    HW225278   5.549   4.956   2.231
 8127SOL     OW25279   2.888   4.652   0.427
 8127SOL    HW125280   2.919   4.716   0.497
 8127SOL    HW225281   2.947   4.659   0.346
 8128SOL     OW25282   4.074   2.338   5.357
 8128SOL    HW125283   4.163   2.291   5.356
 8128SOL    HW225284   4.083   2.425   5.309
 8129SOL     OW25285   4.839   6.708   6.700
 8129SOL    HW125286   4.915   6.647   6.676
 8129SOL    HW225287   4.757   6.654   6.719
 8130SOL     OW25288   1.944   6.516   0.647
 8130SOL    HW125289   1.854   6.501   0.606
 8130SOL    HW225290   1.937   6.586   0.718
 8131SOL     OW25291   1.660   1.829   0.713
 8131SOL    HW125292   1.632   1.736   0.691
 8131SOL    HW225293   1.721   1.827   0.793
 8132SOL     OW25294   6.669   5.008   3.550
 8132SOL    HW125295   6.679   5.027   3.648
 8132SOL    HW225296   6.672   4.909   3.535
 8133SOL     OW25297   1.176   5.329   2.160
 8133SOL    HW125298   1.125   5.273   2.095
 8133SOL    HW225299   1.273   5.329   2.136
 8134SOL     OW25300   1.999   2.327   2.372
 8134SOL    HW125301   1.947   2.411   2.354
 8134SOL    HW225302   2.094   2.350   2.392
 8135SOL     OW25303   4.424   5.762   1.556
 8135SOL    HW125304   4.371   5.837   1.596
 8135SOL    HW225305   4.451   5.698   1.628
 8136SOL     OW25306   3.842   6.083   1.320
 8136SOL    HW125307   3.859   6.172   1.277
 8136SOL    HW225308   3.930   6.039   1.340
 8137SOL     OW25309   2.490   3.960   5.589
 8137SOL    HW125310   2.548   4.008   5.656
 8137SOL    HW225311   2.479   3.865   5.617
 8138SOL     OW25312   4.866   0.966   3.659
 8138SOL    HW125313   4.857   0.995   3.564
 8138SOL    HW225314   4.780   0.983   3.707
 8139SOL     OW25315   2.049   2.670   3.792
 8139SOL    HW125316   2.013   2.756   3.756
 8139SOL    HW225317   2.149   2.669   3.780
 8140SOL     OW25318   4.139   0.324   0.937
 8140SOL    HW125319   4.135   0.257   0.863
 8140SOL    HW225320   4.195   0.288   1.011
 8141SOL     OW25321   4.913   0.930   5.185
 8141SOL    HW125322   4.865   0.857   5.136
 8141SOL    HW225323   4.991   0.960   5.130
 8142SOL     OW25324   2.281   6.191   1.111
 8142SOL    HW125325   2.294   6.181   1.210
 8142SOL    HW225326   2.187   6.221   1.093
 8143SOL     OW25327   6.269   5.114   0.389
 8143SOL    HW125328   6.366   5.138   0.383
 8143SOL    HW225329   6.239   5.122   0.484
 8144SOL     OW25330   6.980   5.074   6.855
 8144SOL    HW125331   7.013   5.126   6.776
 8144SOL    HW225332   6.996   4.976   6.839
 8145SOL     OW25333   5.534   5.452   7.013
 8145SOL    HW125334   5.578   5.517   0.057
 8145SOL    HW225335   5.446   5.490   6.982
 8146SOL     OW25336   5.936   0.445   4.228
 8146SOL    HW125337   6.020   0.494   4.205
 8146SOL    HW225338   5.921   0.373   4.161
 8147SOL     OW25339   1.670   1.104   6.540
 8147SOL    HW125340   1.762   1.066   6.538
 8147SOL    HW225341   1.662   1.174   6.469
 8148SOL     OW25342   4.763   5.163   0.261
 8148SOL    HW125343   4.743   5.208   0.348
 8148SOL    HW225344   4.678   5.134   0.218
 8149SOL     OW25345   0.671   6.065   5.091
 8149SOL    HW125346   0.710   6.028   5.175
 8149SOL    HW225347   0.730   6.039   5.014
 8150SOL     OW25348   0.610   3.697   1.073
 8150SOL    HW125349   0.652   3.608   1.087
 8150SOL    HW225350   0.585   3.737   1.162
 8151SOL     OW25351   6.452   5.901   2.868
 8151SOL    HW125352   6.398   5.890   2.951
 8151SOL    HW225353   6.475   5.811   2.831
 8152SOL     OW25354   4.652   1.531   3.552
 8152SOL    HW125355   4.714   1.525   3.474
 8152SOL    HW225356   4.701   1.567   3.631
 8153SOL     OW25357   0.246   1.430   2.377
 8153SOL    HW125358   0.187   1.510   2.367
 8153SOL    HW225359   0.291   1.411   2.290
 8154SOL     OW25360   1.784   0.440   2.625
 8154SOL    HW125361   1.826   0.472   2.710
 8154SOL    HW225362   1.704   0.384   2.646
 8155SOL     OW25363   2.062   5.367   3.334
 8155SOL    HW125364   2.149   5.319   3.339
 8155SOL    HW225365   1.988   5.302   3.325
 8156SOL     OW25366   6.944   5.297   1.825
 8156SOL    HW125367   6.970   5.391   1.802
 8156SOL    HW225368   0.001   5.236   1.804
 8157SOL     OW25369   0.472   3.324   5.224
 8157SOL    HW125370   0.448   3.404   5.168
 8157SOL    HW225371   0.493   3.247   5.164
 8158SOL     OW25372   6.095   5.248   6.904
 8158SOL    HW125373   6.056   5.178   6.843
 8158SOL    HW225374   6.114   5.207   6.993
 8159SOL     OW25375   3.355   6.479   5.453
 8159SOL    HW125376   3.401   6.566   5.469
 8159SOL    HW225377   3.301   6.485   5.369
 8160SOL     OW25378   5.141   1.000   3.192
 8160SOL    HW125379   5.169   1.020   3.286
 8160SOL    HW225380   5.218   0.961   3.142
 8161SOL     OW25381   5.727   2.952   1.316
 8161SOL    HW125382   5.676   2.868   1.331
 8161SOL    HW225383   5.726   3.008   1.399
 8162SOL     OW25384   0.501   5.425   5.828
 8162SOL    HW125385   0.598   5.447   5.815
 8162SOL    HW225386   0.492   5.333   5.866
 8163SOL     OW25387   4.671   4.338   5.225
 8163SOL    HW125388   4.711   4.304   5.140
 8163SOL    HW225389   4.650   4.262   5.286
 8164SOL     OW25390   4.867   1.622   0.896
 8164SOL    HW125391   4.804   1.545   0.882
 8164SOL    HW225392   4.942   1.616   0.830
 8165SOL     OW25393   0.181   1.457   0.165
 8165SOL    HW125394   0.102   1.501   0.121
 8165SOL    HW225395   0.167   1.456   0.264
 8166SOL     OW25396   2.020   1.640   5.326
 8166SOL    HW125397   2.089   1.579   5.364
 8166SOL    HW225398   1.939   1.640   5.385
 8167SOL     OW25399   1.307   2.636   4.525
 8167SOL    HW125400   1.254   2.710   4.483
 8167SOL    HW225401   1.382   2.675   4.578
 8168SOL     OW25402   2.466   0.872   1.881
 8168SOL    HW125403   2.397   0.851   1.812
 8168SOL    HW225404   2.548   0.908   1.836
 8169SOL     OW25405   5.189   2.303   0.399
 8169SOL    HW125406   5.209   2.333   0.306
 8169SOL    HW225407   5.164   2.381   0.455
 8170SOL     OW25408   6.243   5.156   2.448
 8170SOL    HW125409   6.252   5.168   2.547
 8170SOL    HW225410   6.301   5.080   2.418
 8171SOL     OW25411   1.866   0.836   1.076
 8171SOL    HW125412   1.795   0.820   1.007
 8171SOL    HW225413   1.918   0.917   1.052
 8172SOL     OW25414   0.797   2.531   0.698
 8172SOL    HW125415   0.810   2.432   0.698
 8172SOL    HW225416   0.701   2.552   0.680
 8173SOL     OW25417   6.026   1.009   1.946
 8173SOL    HW125418   6.093   0.968   1.883
 8173SOL    HW225419   6.055   1.101   1.970
 8174SOL     OW25420   2.817   4.687   3.149
 8174SOL    HW125421   2.908   4.667   3.114
 8174SOL    HW225422   2.813   4.782   3.181
 8175SOL     OW25423   0.254   1.268   5.131
 8175SOL    HW125424   0.327   1.200   5.140
 8175SOL    HW225425   0.203   1.251   5.047
 8176SOL     OW25426   2.211   4.193   0.666
 8176SOL    HW125427   2.230   4.202   0.568
 8176SOL    HW225428   2.287   4.145   0.710
 8177SOL     OW25429   3.738   0.907   3.278
 8177SOL    HW125430   3.812   0.970   3.253
 8177SOL    HW225431   3.706   0.928   3.370
 8178SOL     OW25432   2.339   6.543   1.716
 8178SOL    HW125433   2.253   6.593   1.708
 8178SOL    HW225434   2.366   6.509   1.625
 8179SOL     OW25435   5.746   1.264   3.341
 8179SOL    HW125436   5.749   1.314   3.428
 8179SOL    HW225437   5.692   1.181   3.351
 8180SOL     OW25438   5.149   6.368   6.939
 8180SOL    HW125439   5.204   6.436   6.988
 8180SOL    HW225440   5.109   6.303   7.004
 8181SOL     OW25441   0.513   0.478   0.756
 8181SOL    HW125442   0.559   0.463   0.843
 8181SOL    HW225443   0.447   0.552   0.764
 8182SOL     OW25444   2.935   3.801   4.608
 8182SOL    HW125445   2.872   3.767   4.538
 8182SOL    HW225446   2.913   3.758   4.696
 8183SOL     OW25447   0.548   0.395   5.089
 8183SOL    HW125448   0.643   0.397   5.122
 8183SOL    HW225449   0.540   0.328   5.016
 8184SOL     OW25450   0.359   6.520   6.690
 8184SOL    HW125451   0.450   6.519   6.649
 8184SOL    HW225452   0.345   6.435   6.741
 8185SOL     OW25453   0.714   5.787   6.740
 8185SOL    HW125454   0.742   5.859   6.678
 8185SOL    HW225455   0.689   5.826   6.828
 8186SOL     OW25456   1.352   5.671   6.738
 8186SOL    HW125457   1.327   5.726   6.817
 8186SOL    HW225458   1.355   5.730   6.656
 8187SOL     OW25459   0.527   0.983   5.565
 8187SOL    HW125460   0.492   1.075   5.548
 8187SOL    HW225461   0.451   0.918   5.565
 8188SOL     OW25462   2.031   2.747   3.379
 8188SOL    HW125463   2.081   2.799   3.448
 8188SOL    HW225464   2.090   2.677   3.340
 8189SOL     OW25465   5.667   5.324   3.843
 8189SOL    HW125466   5.645   5.273   3.760
 8189SOL    HW225467   5.590   5.320   3.907
 8190SOL     OW25468   6.672   3.661   3.253
 8190SOL    HW125469   6.729   3.669   3.171
 8190SOL    HW225470   6.584   3.619   3.228
 8191SOL     OW25471   3.126   5.514   0.828
 8191SOL    HW125472   3.058   5.496   0.757
 8191SOL    HW225473   3.095   5.475   0.915
 8192SOL     OW25474   0.636   5.022   3.317
 8192SOL    HW125475   0.712   5.086   3.322
 8192SOL    HW225476   0.667   4.936   3.277
 8193SOL     OW25477   0.472   4.368   4.814
 8193SOL    HW125478   0.406   4.436   4.849
 8193SOL    HW225479   0.460   4.358   4.716
 8194SOL     OW25480   4.667   6.515   1.540
 8194SOL    HW125481   4.682   6.539   1.444
 8194SOL    HW225482   4.622   6.426   1.546
 8195SOL     OW25483   5.877   6.415   3.037
 8195SOL    HW125484   5.896   6.468   2.955
 8195SOL    HW225485   5.917   6.324   3.028
 8196SOL     OW25486   5.026   0.693   0.525
 8196SOL    HW125487   5.019   0.767   0.459
 8196SOL    HW225488   5.070   0.614   0.482
 8197SOL     OW25489   4.058   1.448   2.669
 8197SOL    HW125490   3.971   1.485   2.636
 8197SOL    HW225491   4.129   1.462   2.600
 8198SOL     OW25492   1.313   0.008   2.434
 8198SOL    HW125493   1.364   6.942   2.451
 8198SOL    HW225494   1.328   0.039   2.341
 8199SOL     OW25495   5.616   3.085   6.431
 8199SOL    HW125496   5.518   3.089   6.409
 8199SOL    HW225497   5.669   3.107   6.350
 8200SOL     OW25498   4.443   2.986   1.020
 8200SOL    HW125499   4.488   2.967   0.932
 8200SOL    HW225500   4.423   3.084   1.026
 8201SOL     OW25501   6.860   6.698   5.337
 8201SOL    HW125502   6.890   6.766   5.270
 8201SOL    HW225503   6.801   6.631   5.291
 8202SOL     OW25504   0.667   6.582   1.999
 8202SOL    HW125505   0.716   6.603   2.084
 8202SOL    HW225506   0.733   6.557   1.928
 8203SOL     OW25507   1.117   3.737   1.425
 8203SOL    HW125508   1.153   3.706   1.513
 8203SOL    HW225509   1.187   3.723   1.355
 8204SOL     OW25510   3.155   3.030   1.086
 8204SOL    HW125511   3.102   3.020   1.171
 8204SOL    HW225512   3.236   2.971   1.091
 8205SOL     OW25513   1.006   3.748   0.569
 8205SOL    HW125514   1.022   3.803   0.651
 8205SOL    HW225515   0.986   3.808   0.492
 8206SOL     OW25516   3.842   0.600   0.062
 8206SOL    HW125517   3.907   0.539   0.018
 8206SOL    HW225518   3.885   0.689   0.080
 8207SOL     OW25519   3.872   2.984   4.819
 8207SOL    HW125520   3.873   3.070   4.768
 8207SOL    HW225521   3.960   2.938   4.808
 8208SOL     OW25522   2.488   0.834   0.735
 8208SOL    HW125523   2.572   0.786   0.708
 8208SOL    HW225524   2.436   0.777   0.799
 8209SOL     OW25525   6.305   1.026   5.326
 8209SOL    HW125526   6.229   1.015   5.262
 8209SOL    HW225527   6.277   1.084   5.402
 8210SOL     OW25528   1.538   2.867   0.041
 8210SOL    HW125529   1.582   2.839   0.127
 8210SOL    HW225530   1.539   2.966   0.034
 8211SOL     OW25531   3.089   4.509   1.406
 8211SOL    HW125532   3.027   4.553   1.342
 8211SOL    HW225533   3.167   4.569   1.425
 8212SOL     OW25534   1.842   2.532   3.725
 8212SOL    HW125535   1.856   2.488   3.636
 8212SOL    HW225536   1.926   2.580   3.751
 8213SOL     OW25537   6.816   5.245   1.280
 8213SOL    HW125538   6.899   5.236   1.335
 8213SOL    HW225539   6.840   5.252   1.184
 8214SOL     OW25540   5.345   4.381   3.314
 8214SOL    HW125541   5.289   4.421   3.241
 8214SOL    HW225542   5.294   4.307   3.358
 8215SOL     OW25543   3.435   5.644   4.459
 8215SOL    HW125544   3.351   5.591   4.476
 8215SOL    HW225545   3.417   5.741   4.475
 8216SOL     OW25546   4.819   4.380   3.654
 8216SOL    HW125547   4.774   4.323   3.585
 8216SOL    HW225548   4.919   4.373   3.643
 8217SOL     OW25549   2.422   5.895   0.153
 8217SOL    HW125550   2.367   5.858   0.227
 8217SOL    HW225551   2.444   5.822   0.088
 8218SOL     OW25552   0.652   1.374   0.210
 8218SOL    HW125553   0.557   1.397   0.229
 8218SOL    HW225554   0.710   1.409   0.285
 8219SOL     OW25555   6.375   2.038   6.726
 8219SOL    HW125556   6.344   2.113   6.784
 8219SOL    HW225557   6.443   2.071   6.661
 8220SOL     OW25558   3.752   3.634   2.698
 8220SOL    HW125559   3.724   3.541   2.721
 8220SOL    HW225560   3.690   3.699   2.742
 8221SOL     OW25561   5.033   5.698   3.779
 8221SOL    HW125562   5.132   5.702   3.781
 8221SOL    HW225563   5.004   5.615   3.731
 8222SOL     OW25564   5.274   1.733   2.269
 8222SOL    HW125565   5.248   1.828   2.254
 8222SOL    HW225566   5.347   1.729   2.337
 8223SOL     OW25567   0.478   4.816   6.243
 8223SOL    HW125568   0.563   4.849   6.284
 8223SOL    HW225569   0.481   4.716   6.236
 8224SOL     OW25570   1.424   2.695   4.013
 8224SOL    HW125571   1.392   2.769   4.072
 8224SOL    HW225572   1.514   2.664   4.044
 8225SOL     OW25573   4.822   1.246   6.902
 8225SOL    HW125574   4.895   1.181   6.924
 8225SOL    HW225575   4.843   1.291   6.816
 8226SOL     OW25576   5.136   0.373   0.820
 8226SOL    HW125577   5.219   0.427   0.808
 8226SOL    HW225578   5.078   0.381   0.739
 8227SOL     OW25579   6.496   3.424   3.594
 8227SOL    HW125580   6.518   3.328   3.609
 8227SOL    HW225581   6.409   3.431   3.545
 8228SOL     OW25582   6.333   2.726   5.321
 8228SOL    HW125583   6.239   2.696   5.334
 8228SOL    HW225584   6.346   2.816   5.364
 8229SOL     OW25585   4.032   4.822   0.112
 8229SOL    HW125586   3.978   4.826   0.196
 8229SOL    HW225587   4.023   4.908   0.062
 8230SOL     OW25588   5.358   0.754   4.351
 8230SOL    HW125589   5.355   0.654   4.346
 8230SOL    HW225590   5.449   0.787   4.327
 8231SOL     OW25591   5.014   6.218   0.673
 8231SOL    HW125592   5.070   6.135   0.680
 8231SOL    HW225593   4.996   6.238   0.577
 8232SOL     OW25594   3.761   1.987   6.434
 8232SOL    HW125595   3.708   1.945   6.508
 8232SOL    HW225596   3.713   2.067   6.399
 8233SOL     OW25597   0.640   5.380   6.660
 8233SOL    HW125598   0.697   5.302   6.684
 8233SOL    HW225599   0.550   5.369   6.702
 8234SOL     OW25600   2.900   2.722   6.687
 8234SOL    HW125601   2.899   2.624   6.707
 8234SOL    HW225602   2.993   2.749   6.661
 8235SOL     OW25603   4.362   3.785   1.522
 8235SOL    HW125604   4.300   3.808   1.597
 8235SOL    HW225605   4.322   3.712   1.467
 8236SOL     OW25606   6.132   2.986   0.040
 8236SOL    HW125607   6.215   3.012   0.090
 8236SOL    HW225608   6.052   3.005   0.097
 8237SOL     OW25609   4.192   6.212   5.367
 8237SOL    HW125610   4.093   6.198   5.369
 8237SOL    HW225611   4.217   6.288   5.428
 8238SOL     OW25612   1.800   2.395   6.249
 8238SOL    HW125613   1.796   2.453   6.167
 8238SOL    HW225614   1.710   2.354   6.265
 8239SOL     OW25615   0.550   1.471   6.060
 8239SOL    HW125616   0.582   1.419   5.981
 8239SOL    HW225617   0.579   1.566   6.050
 8240SOL     OW25618   3.377   4.146   3.180
 8240SOL    HW125619   3.476   4.133   3.193
 8240SOL    HW225620   3.355   4.143   3.083
 8241SOL     OW25621   3.780   6.809   6.982
 8241SOL    HW125622   3.855   6.843   6.926
 8241SOL    HW225623   3.761   6.714   6.957
 8242SOL     OW25624   0.854   4.456   5.581
 8242SOL    HW125625   0.876   4.444   5.484
 8242SOL    HW225626   0.932   4.427   5.637
 8243SOL     OW25627   0.961   3.553   5.559
 8243SOL    HW125628   1.026   3.495   5.511
 8243SOL    HW225629   0.913   3.611   5.494
 8244SOL     OW25630   0.673   6.625   4.239
 8244SOL    HW125631   0.661   6.532   4.204
 8244SOL    HW225632   0.585   6.673   4.236
 8245SOL     OW25633   3.725   2.331   0.766
 8245SOL    HW125634   3.816   2.331   0.724
 8245SOL    HW225635   3.726   2.391   0.846
 8246SOL     OW25636   5.301   3.465   6.165
 8246SOL    HW125637   5.210   3.484   6.203
 8246SOL    HW225638   5.359   3.424   6.235
 8247SOL     OW25639   0.711   0.043   1.700
 8247SOL    HW125640   0.797   0.003   1.669
 8247SOL    HW225641   0.706   0.138   1.670
 8248SOL     OW25642   5.390   4.674   3.539
 8248SOL    HW125643   5.448   4.607   3.585
 8248SOL    HW225644   5.310   4.693   3.596
 8249SOL     OW25645   2.085   4.854   3.786
 8249SOL    HW125646   2.029   4.932   3.813
 8249SOL    HW225647   2.028   4.784   3.743
 8250SOL     OW25648   3.961   3.949   2.722
 8250SOL    HW125649   3.964   3.939   2.623
 8250SOL    HW225650   3.989   3.863   2.765
 8251SOL     OW25651   5.529   1.936   4.594
 8251SOL    HW125652   5.625   1.909   4.595
 8251SOL    HW225653   5.513   1.997   4.516
 8252SOL     OW25654   2.229   2.369   5.501
 8252SOL    HW125655   2.131   2.360   5.486
 8252SOL    HW225656   2.265   2.445   5.447
 8253SOL     OW25657   3.275   2.937   5.170
 8253SOL    HW125658   3.238   3.030   5.168
 8253SOL    HW225659   3.328   2.920   5.087
 8254SOL     OW25660   3.765   4.877   3.655
 8254SOL    HW125661   3.734   4.911   3.744
 8254SOL    HW225662   3.699   4.904   3.584
 8255SOL     OW25663   4.080   5.716   3.974
 8255SOL    HW125664   4.103   5.671   3.888
 8255SOL    HW225665   4.106   5.658   4.051
 8256SOL     OW25666   6.537   1.583   4.515
 8256SOL    HW125667   6.634   1.573   4.539
 8256SOL    HW225668   6.529   1.643   4.435
 8257SOL     OW25669   6.117   5.147   3.482
 8257SOL    HW125670   6.102   5.197   3.397
 8257SOL    HW225671   6.134   5.051   3.462
 8258SOL     OW25672   4.114   1.620   0.037
 8258SOL    HW125673   4.202   1.652   0.073
 8258SOL    HW225674   4.071   1.559   0.103
 8259SOL     OW25675   3.587   1.953   2.943
 8259SOL    HW125676   3.573   1.857   2.920
 8259SOL    HW225677   3.678   1.964   2.984
 8260SOL     OW25678   3.241   6.781   0.435
 8260SOL    HW125679   3.204   6.690   0.454
 8260SOL    HW225680   3.293   6.814   0.513
 8261SOL     OW25681   5.217   1.160   1.678
 8261SOL    HW125682   5.167   1.245   1.660
 8261SOL    HW225683   5.276   1.172   1.758
 8262SOL     OW25684   1.303   3.177   1.634
 8262SOL    HW125685   1.322   3.203   1.728
 8262SOL    HW225686   1.286   3.078   1.629
 8263SOL     OW25687   6.312   1.605   1.296
 8263SOL    HW125688   6.249   1.683   1.296
 8263SOL    HW225689   6.385   1.621   1.229
 8264SOL     OW25690   1.719   5.135   2.756
 8264SOL    HW125691   1.705   5.223   2.711
 8264SOL    HW225692   1.731   5.149   2.854
 8265SOL     OW25693   1.823   0.710   1.865
 8265SOL    HW125694   1.822   0.610   1.874
 8265SOL    HW225695   1.896   0.737   1.803
 8266SOL     OW25696   3.498   6.314   2.578
 8266SOL    HW125697   3.469   6.324   2.482
 8266SOL    HW225698   3.452   6.384   2.633
 8267SOL     OW25699   1.309   3.417   1.273
 8267SOL    HW125700   1.301   3.512   1.244
 8267SOL    HW225701   1.247   3.360   1.219
 8268SOL     OW25702   2.571   6.520   5.702
 8268SOL    HW125703   2.526   6.608   5.688
 8268SOL    HW225704   2.669   6.535   5.717
 8269SOL     OW25705   5.742   1.804   1.258
 8269SOL    HW125706   5.767   1.899   1.240
 8269SOL    HW225707   5.818   1.744   1.233
 8270SOL     OW25708   3.489   6.290   3.594
 8270SOL    HW125709   3.558   6.343   3.545
 8270SOL    HW225710   3.401   6.299   3.548
 8271SOL     OW25711   6.891   1.642   3.033
 8271SOL    HW125712   6.914   1.547   3.056
 8271SOL    HW225713   6.843   1.644   2.945
 8272SOL     OW25714   3.975   1.094   2.802
 8272SOL    HW125715   3.957   1.190   2.824
 8272SOL    HW225716   3.889   1.043   2.799
 8273SOL     OW25717   2.730   6.965   1.048
 8273SOL    HW125718   2.750   6.890   0.984
 8273SOL    HW225719   2.758   6.938   1.140
 8274SOL     OW25720   5.032   5.466   2.924
 8274SOL    HW125721   4.987   5.408   2.856
 8274SOL    HW225722   4.967   5.492   2.995
 8275SOL     OW25723   5.158   2.012   5.906
 8275SOL    HW125724   5.114   1.987   5.993
 8275SOL    HW225725   5.124   2.101   5.876
 8276SOL     OW25726   1.073   1.971   3.811
 8276SOL    HW125727   1.061   1.885   3.860
 8276SOL    HW225728   1.072   1.954   3.713
 8277SOL     OW25729   0.164   0.243   6.826
 8277SOL    HW125730   0.192   0.148   6.838
 8277SOL    HW225731   0.084   0.262   6.883
 8278SOL     OW25732   2.179   2.488   0.323
 8278SOL    HW125733   2.165   2.575   0.371
 8278SOL    HW225734   2.249   2.435   0.371
 8279SOL     OW25735   0.789   6.500   4.447
 8279SOL    HW125736   0.850   6.426   4.417
 8279SOL    HW225737   0.761   6.553   4.368
 8280SOL     OW25738   3.424   2.525   5.562
 8280SOL    HW125739   3.332   2.528   5.602
 8280SOL    HW225740   3.420   2.558   5.468
 8281SOL     OW25741   6.917   6.217   1.570
 8281SOL    HW125742   6.854   6.140   1.579
 8281SOL    HW225743   7.011   6.186   1.582
 8282SOL     OW25744   5.364   2.503   5.670
 8282SOL    HW125745   5.305   2.522   5.748
 8282SOL    HW225746   5.343   2.567   5.596
 8283SOL     OW25747   1.932   3.747   5.827
 8283SOL    HW125748   1.935   3.733   5.728
 8283SOL    HW225749   2.019   3.721   5.868
 8284SOL     OW25750   6.718   4.332   2.213
 8284SOL    HW125751   6.643   4.320   2.278
 8284SOL    HW225752   6.765   4.418   2.232
 8285SOL     OW25753   3.585   3.228   4.974
 8285SOL    HW125754   3.493   3.205   4.942
 8285SOL    HW225755   3.602   3.185   5.063
 8286SOL     OW25756   6.433   2.236   6.062
 8286SOL    HW125757   6.447   2.328   6.099
 8286SOL    HW225758   6.511   2.211   6.005
 8287SOL     OW25759   1.312   5.501   4.924
 8287SOL    HW125760   1.357   5.576   4.876
 8287SOL    HW225761   1.213   5.517   4.925
 8288SOL     OW25762   2.243   2.899   2.820
 8288SOL    HW125763   2.217   2.942   2.734
 8288SOL    HW225764   2.308   2.825   2.802
 8289SOL     OW25765   0.726   6.913   0.125
 8289SOL    HW125766   0.751   6.862   0.207
 8289SOL    HW225767   0.632   6.946   0.133
 8290SOL     OW25768   5.965   1.673   0.684
 8290SOL    HW125769   5.976   1.690   0.586
 8290SOL    HW225770   5.916   1.749   0.726
 8291SOL     OW25771   3.965   6.987   6.238
 8291SOL    HW125772   3.981   0.036   6.166
 8291SOL    HW225773   3.953   6.896   6.197
 8292SOL     OW25774   2.986   6.804   6.888
 8292SOL    HW125775   3.076   6.846   6.900
 8292SOL    HW225776   2.976   6.772   6.794
 8293SOL     OW25777   4.944   6.098   6.013
 8293SOL    HW125778   4.983   6.033   5.947
 8293SOL    HW225779   4.978   6.190   5.994
 8294SOL     OW25780   5.464   2.582   6.701
 8294SOL    HW125781   5.506   2.659   6.653
 8294SOL    HW225782   5.396   2.539   6.642
 8295SOL     OW25783   5.333   4.336   1.290
 8295SOL    HW125784   5.268   4.263   1.268
 8295SOL    HW225785   5.425   4.307   1.264
 8296SOL     OW25786   1.650   5.826   6.656
 8296SOL    HW125787   1.612   5.916   6.633
 8296SOL    HW225788   1.604   5.790   6.737
 8297SOL     OW25789   6.250   2.259   3.506
 8297SOL    HW125790   6.194   2.230   3.428
 8297SOL    HW225791   6.219   2.349   3.537
 8298SOL     OW25792   5.097   0.924   1.577
 8298SOL    HW125793   5.040   0.974   1.512
 8298SOL    HW225794   5.131   0.988   1.647
 8299SOL     OW25795   6.466   2.234   2.191
 8299SOL    HW125796   6.537   2.185   2.140
 8299SOL    HW225797   6.459   2.196   2.283
 8300SOL     OW25798   0.459   4.397   4.531
 8300SOL    HW125799   0.475   4.495   4.518
 8300SOL    HW225800   0.490   4.348   4.450
 8301SOL     OW25801   4.097   3.298   0.917
 8301SOL    HW125802   4.163   3.263   0.983
 8301SOL    HW225803   4.004   3.281   0.951
 8302SOL     OW25804   6.017   6.080   6.719
 8302SOL    HW125805   5.974   6.130   6.644
 8302SOL    HW225806   6.096   6.132   6.752
 8303SOL     OW25807   0.242   0.269   4.589
 8303SOL    HW125808   0.307   0.342   4.608
 8303SOL    HW225809   0.204   0.281   4.497
 8304SOL     OW25810   0.614   3.682   6.422
 8304SOL    HW125811   0.526   3.635   6.432
 8304SOL    HW225812   0.670   3.636   6.354
 8305SOL     OW25813   3.507   5.278   3.932
 8305SOL    HW125814   3.521   5.369   3.892
 8305SOL    HW225815   3.494   5.211   3.859
 8306SOL     OW25816   0.639   3.106   4.825
 8306SOL    HW125817   0.628   3.083   4.922
 8306SOL    HW225818   0.647   3.021   4.773
 8307SOL     OW25819   3.805   5.712   0.580
 8307SOL    HW125820   3.899   5.710   0.612
 8307SOL    HW225821   3.746   5.662   0.644
 8308SOL     OW25822   3.871   6.544   2.062
 8308SOL    HW125823   3.803   6.609   2.026
 8308SOL    HW225824   3.937   6.522   1.991
 8309SOL     OW25825   5.683   6.105   2.395
 8309SOL    HW125826   5.601   6.060   2.430
 8309SOL    HW225827   5.736   6.141   2.471
 8310SOL     OW25828   0.134   4.899   0.563
 8310SOL    HW125829   0.079   4.954   0.501
 8310SOL    HW225830   0.119   4.930   0.657
 8311SOL     OW25831   6.984   1.301   0.003
 8311SOL    HW125832   0.028   1.246   0.059
 8311SOL    HW225833   6.890   1.277   0.024
 8312SOL     OW25834   5.403   6.656   1.470
 8312SOL    HW125835   5.305   6.674   1.466
 8312SOL    HW225836   5.435   6.623   1.381
 8313SOL     OW25837   3.746   1.714   2.999
 8313SOL    HW125838   3.818   1.650   2.970
 8313SOL    HW225839   3.787   1.800   3.028
 8314SOL     OW25840   6.105   6.889   2.169
 8314SOL    HW125841   6.173   6.944   2.217
 8314SOL    HW225842   6.049   6.839   2.235
 8315SOL     OW25843   4.625   3.321   0.673
 8315SOL    HW125844   4.618   3.390   0.601
 8315SOL    HW225845   4.541   3.320   0.727
 8316SOL     OW25846   1.147   4.269   0.807
 8316SOL    HW125847   1.204   4.190   0.833
 8316SOL    HW225848   1.138   4.272   0.708
 8317SOL     OW25849   2.324   4.223   2.240
 8317SOL    HW125850   2.408   4.268   2.271
 8317SOL    HW225851   2.274   4.285   2.179
 8318SOL     OW25852   4.162   1.163   4.706
 8318SOL    HW125853   4.118   1.248   4.678
 8318SOL    HW225854   4.107   1.117   4.775
 8319SOL     OW25855   3.284   0.885   5.402
 8319SOL    HW125856   3.316   0.796   5.436
 8319SOL    HW225857   3.185   0.890   5.413
 8320SOL     OW25858   2.858   4.645   1.261
 8320SOL    HW125859   2.869   4.695   1.347
 8320SOL    HW225860   2.778   4.680   1.212
 8321SOL     OW25861   1.057   0.047   0.275
 8321SOL    HW125862   0.967   0.087   0.289
 8321SOL    HW225863   1.086   0.062   0.180
 8322SOL     OW25864   0.273   0.490   6.816
 8322SOL    HW125865   0.368   0.458   6.809
 8322SOL    HW225866   0.222   0.425   6.873
 8323SOL     OW25867   0.742   1.166   2.667
 8323SOL    HW125868   0.721   1.228   2.743
 8323SOL    HW225869   0.829   1.192   2.626
 8324SOL     OW25870   6.223   0.421   2.370
 8324SOL    HW125871   6.249   0.435   2.465
 8324SOL    HW225872   6.249   0.329   2.341
 8325SOL     OW25873   3.334   2.937   4.289
 8325SOL    HW125874   3.413   2.918   4.231
 8325SOL    HW225875   3.340   2.882   4.372
 8326SOL     OW25876   4.243   2.673   5.717
 8326SOL    HW125877   4.158   2.621   5.711
 8326SOL    HW225878   4.283   2.683   5.626
 8327SOL     OW25879   5.593   2.324   6.352
 8327SOL    HW125880   5.592   2.404   6.412
 8327SOL    HW225881   5.663   2.259   6.384
 8328SOL     OW25882   2.333   2.518   5.940
 8328SOL    HW125883   2.354   2.465   6.021
 8328SOL    HW225884   2.400   2.591   5.929
 8329SOL     OW25885   6.804   2.944   5.364
 8329SOL    HW125886   6.834   2.954   5.459
 8329SOL    HW225887   6.848   2.864   5.324
 8330SOL     OW25888   2.069   5.994   0.421
 8330SOL    HW125889   2.092   6.077   0.370
 8330SOL    HW225890   2.082   6.012   0.519
 8331SOL     OW25891   2.778   0.441   1.426
 8331SOL    HW125892   2.767   0.382   1.506
 8331SOL    HW225893   2.756   0.389   1.343
 8332SOL     OW25894   4.780   5.306   2.232
 8332SOL    HW125895   4.733   5.378   2.180
 8332SOL    HW225896   4.763   5.217   2.190
 8333SOL     OW25897   0.734   6.064   0.405
 8333SOL    HW125898   0.657   6.111   0.447
 8333SOL    HW225899   0.819   6.111   0.428
 8334SOL     OW25900   6.467   2.172   3.927
 8334SOL    HW125901   6.456   2.086   3.977
 8334SOL    HW225902   6.528   2.158   3.849
 8335SOL     OW25903   6.024   5.913   5.665
 8335SOL    HW125904   6.055   6.001   5.630
 8335SOL    HW225905   6.034   5.911   5.764
 8336SOL     OW25906   0.757   1.714   1.530
 8336SOL    HW125907   0.845   1.760   1.520
 8336SOL    HW225908   0.771   1.624   1.571
 8337SOL     OW25909   0.813   6.532   2.524
 8337SOL    HW125910   0.892   6.490   2.568
 8337SOL    HW225911   0.730   6.482   2.550
 8338SOL     OW25912   1.616   4.600   1.298
 8338SOL    HW125913   1.702   4.627   1.342
 8338SOL    HW225914   1.540   4.635   1.352
 8339SOL     OW25915   5.482   1.718   2.446
 8339SOL    HW125916   5.489   1.623   2.475
 8339SOL    HW225917   5.457   1.775   2.525
 8340SOL     OW25918   4.977   3.879   0.741
 8340SOL    HW125919   5.012   3.846   0.653
 8340SOL    HW225920   4.877   3.875   0.741
 8341SOL     OW25921   2.206   6.577   1.012
 8341SOL    HW125922   2.165   6.666   0.990
 8341SOL    HW225923   2.224   6.527   0.927
 8342SOL     OW25924   4.063   0.830   0.401
 8342SOL    HW125925   4.060   0.823   0.501
 8342SOL    HW225926   4.102   0.918   0.376
 8343SOL     OW25927   1.513   5.420   6.138
 8343SOL    HW125928   1.553   5.391   6.225
 8343SOL    HW225929   1.585   5.430   6.069
 8344SOL     OW25930   4.436   6.595   5.924
 8344SOL    HW125931   4.481   6.570   5.839
 8344SOL    HW225932   4.478   6.677   5.962
 8345SOL     OW25933   5.920   1.580   2.906
 8345SOL    HW125934   5.828   1.586   2.867
 8345SOL    HW225935   5.953   1.486   2.898
 8346SOL     OW25936   2.570   4.912   1.214
 8346SOL    HW125937   2.544   4.821   1.248
 8346SOL    HW225938   2.580   4.908   1.114
 8347SOL     OW25939   3.213   6.854   5.345
 8347SOL    HW125940   3.212   6.780   5.277
 8347SOL    HW225941   3.127   6.905   5.339
 8348SOL     OW25942   1.119   0.829   1.352
 8348SOL    HW125943   1.076   0.761   1.292
 8348SOL    HW225944   1.060   0.845   1.431
 8349SOL     OW25945   5.948   3.772   0.950
 8349SOL    HW125946   6.022   3.717   0.989
 8349SOL    HW225947   5.923   3.736   0.860
 8350SOL     OW25948   6.207   1.218   5.492
 8350SOL    HW125949   6.114   1.235   5.459
 8350SOL    HW225950   6.211   1.228   5.591
 8351SOL     OW25951   3.040   6.061   3.923
 8351SOL    HW125952   3.026   5.963   3.908
 8351SOL    HW225953   3.137   6.083   3.906
 8352SOL     OW25954   6.907   6.448   2.509
 8352SOL    HW125955   6.837   6.469   2.442
 8352SOL    HW225956   6.887   6.361   2.554
 8353SOL     OW25957   0.066   3.344   2.561
 8353SOL    HW125958   0.017   3.310   2.641
 8353SOL    HW225959   0.114   3.428   2.585
 8354SOL     OW25960   3.065   1.381   6.616
 8354SOL    HW125961   2.972   1.391   6.581
 8354SOL    HW225962   3.098   1.289   6.600
 8355SOL     OW25963   3.737   0.163   6.604
 8355SOL    HW125964   3.726   0.065   6.619
 8355SOL    HW225965   3.649   0.209   6.617
 8356SOL     OW25966   1.560   5.584   0.183
 8356SOL    HW125967   1.491   5.582   0.256
 8356SOL    HW225968   1.612   5.499   0.184
 8357SOL     OW25969   4.012   5.716   4.975
 8357SOL    HW125970   4.107   5.685   4.968
 8357SOL    HW225971   3.956   5.642   5.014
 8358SOL     OW25972   2.053   2.725   5.699
 8358SOL    HW125973   2.045   2.819   5.665
 8358SOL    HW225974   1.987   2.666   5.653
 8359SOL     OW25975   4.124   5.354   4.381
 8359SOL    HW125976   4.046   5.318   4.329
 8359SOL    HW225977   4.108   5.339   4.478
 8360SOL     OW25978   5.123   6.639   2.986
 8360SOL    HW125979   5.216   6.607   3.005
 8360SOL    HW225980   5.081   6.581   2.916
 8361SOL     OW25981   1.583   0.846   2.664
 8361SOL    HW125982   1.680   0.862   2.645
 8361SOL    HW225983   1.528   0.891   2.594
 8362SOL     OW25984   2.857   2.120   0.258
 8362SOL    HW125985   2.784   2.178   0.222
 8362SOL    HW225986   2.818   2.049   0.317
 8363SOL     OW25987   0.302   2.961   0.409
 8363SOL    HW125988   0.227   2.895   0.404
 8363SOL    HW225989   0.352   2.948   0.495
 8364SOL     OW25990   6.439   3.621   2.884
 8364SOL    HW125991   6.500   3.669   2.821
 8364SOL    HW225992   6.347   3.660   2.877
 8365SOL     OW25993   1.815   3.018   6.879
 8365SOL    HW125994   1.800   3.086   6.951
 8365SOL    HW225995   1.796   2.927   6.915
 8366SOL     OW25996   4.321   6.257   2.392
 8366SOL    HW125997   4.343   6.274   2.488
 8366SOL    HW225998   4.406   6.251   2.339
 8367SOL     OW25999   5.113   6.183   4.088
 8367SOL    HW126000   5.107   6.249   4.013
 8367SOL    HW226001   5.173   6.219   4.159
 8368SOL     OW26002   2.502   5.238   5.841
 8368SOL    HW126003   2.511   5.198   5.932
 8368SOL    HW226004   2.457   5.328   5.848
 8369SOL     OW26005   2.331   1.570   0.363
 8369SOL    HW126006   2.245   1.527   0.338
 8369SOL    HW226007   2.348   1.648   0.303
 8370SOL     OW26008   1.387   1.675   6.479
 8370SOL    HW126009   1.367   1.633   6.567
 8370SOL    HW226010   1.317   1.743   6.458
 8371SOL     OW26011   1.347   3.260   0.739
 8371SOL    HW126012   1.422   3.310   0.694
 8371SOL    HW226013   1.327   3.177   0.687
 8372SOL     OW26014   0.047   0.784   2.739
 8372SOL    HW126015   0.106   0.703   2.737
 8372SOL    HW226016   0.060   0.833   2.826
 8373SOL     OW26017   1.094   5.835   5.260
 8373SOL    HW126018   1.036   5.913   5.240
 8373SOL    HW226019   1.118   5.835   5.358
 8374SOL     OW26020   6.592   0.465   0.000
 8374SOL    HW126021   6.610   0.451   6.921
 8374SOL    HW226022   6.589   0.562   0.020
 8375SOL     OW26023   3.446   0.289   6.276
 8375SOL    HW126024   3.354   0.300   6.238
 8375SOL    HW226025   3.454   0.199   6.319
 8376SOL     OW26026   2.809   0.534   3.954
 8376SOL    HW126027   2.829   0.470   3.880
 8376SOL    HW226028   2.781   0.622   3.916
 8377SOL     OW26029   5.864   4.838   1.437
 8377SOL    HW126030   5.818   4.923   1.461
 8377SOL    HW226031   5.796   4.769   1.413
 8378SOL     OW26032   5.119   3.163   3.144
 8378SOL    HW126033   5.052   3.222   3.098
 8378SOL    HW226034   5.082   3.071   3.152
 8379SOL     OW26035   6.272   3.009   1.962
 8379SOL    HW126036   6.309   2.968   2.046
 8379SOL    HW226037   6.201   2.948   1.925
 8380SOL     OW26038   5.143   1.237   2.987
 8380SOL    HW126039   5.087   1.190   3.055
 8380SOL    HW226040   5.237   1.202   2.993
 8381SOL     OW26041   1.448   5.280   4.969
 8381SOL    HW126042   1.382   5.355   4.976
 8381SOL    HW226043   1.506   5.279   5.051
 8382SOL     OW26044   0.945   2.727   2.324
 8382SOL    HW126045   1.006   2.676   2.263
 8382SOL    HW226046   0.969   2.824   2.322
 8383SOL     OW26047   3.131   2.585   6.472
 8383SOL    HW126048   3.157   2.681   6.488
 8383SOL    HW226049   3.110   2.541   6.560
 8384SOL     OW26050   6.947   0.032   2.467
 8384SOL    HW126051   6.930   6.955   2.443
 8384SOL    HW226052   6.901   0.092   2.401
 8385SOL     OW26053   5.032   2.475   2.293
 8385SOL    HW126054   5.068   2.469   2.200
 8385SOL    HW226055   4.945   2.426   2.299
 8386SOL     OW26056   0.698   3.885   2.858
 8386SOL    HW126057   0.793   3.861   2.874
 8386SOL    HW226058   0.665   3.840   2.775
 8387SOL     OW26059   0.829   2.250   1.353
 8387SOL    HW126060   0.928   2.251   1.345
 8387SOL    HW226061   0.790   2.197   1.277
 8388SOL     OW26062   2.649   0.275   1.915
 8388SOL    HW126063   2.663   0.191   1.967
 8388SOL    HW226064   2.658   0.256   1.818
 8389SOL     OW26065   5.085   2.801   2.219
 8389SOL    HW126066   5.162   2.863   2.206
 8389SOL    HW226067   5.001   2.854   2.234
 8390SOL     OW26068   5.445   1.869   5.014
 8390SOL    HW126069   5.475   1.854   5.109
 8390SOL    HW226070   5.463   1.964   4.988
 8391SOL     OW26071   6.114   1.018   1.270
 8391SOL    HW126072   6.152   1.095   1.218
 8391SOL    HW226073   6.049   1.053   1.338
 8392SOL     OW26074   5.835   3.244   4.673
 8392SOL    HW126075   5.738   3.217   4.671
 8392SOL    HW226076   5.892   3.162   4.668
 8393SOL     OW26077   5.231   0.430   1.428
 8393SOL    HW126078   5.221   0.523   1.463
 8393SOL    HW226079   5.273   0.432   1.337
 8394SOL     OW26080   5.832   4.045   1.965
 8394SOL    HW126081   5.837   4.144   1.949
 8394SOL    HW226082   5.898   3.999   1.905
 8395SOL     OW26083   2.432   1.203   5.039
 8395SOL    HW126084   2.490   1.155   5.106
 8395SOL    HW226085   2.371   1.265   5.087
 8396SOL     OW26086   4.284   5.632   4.936
 8396SOL    HW126087   4.352   5.704   4.918
 8396SOL    HW226088   4.312   5.548   4.890
 8397SOL     OW26089   6.221   0.983   3.453
 8397SOL    HW126090   6.228   0.998   3.552
 8397SOL    HW226091   6.142   1.035   3.418
 8398SOL     OW26092   5.676   2.137   5.601
 8398SOL    HW126093   5.592   2.111   5.648
 8398SOL    HW226094   5.655   2.166   5.508
 8399SOL     OW26095   0.309   5.859   0.608
 8399SOL    HW126096   0.283   5.950   0.578
 8399SOL    HW226097   0.257   5.835   0.690
 8400SOL     OW26098   1.505   2.278   4.493
 8400SOL    HW126099   1.422   2.233   4.459
 8400SOL    HW226100   1.492   2.377   4.496
 8401SOL     OW26101   3.040   0.443   5.751
 8401SOL    HW126102   3.063   0.501   5.672
 8401SOL    HW226103   3.107   0.369   5.758
 8402SOL     OW26104   3.913   0.867   5.995
 8402SOL    HW126105   3.872   0.857   5.904
 8402SOL    HW226106   3.965   0.952   5.999
 8403SOL     OW26107   5.998   5.393   4.495
 8403SOL    HW126108   6.042   5.321   4.442
 8403SOL    HW226109   5.912   5.358   4.533
 8404SOL     OW26110   2.048   1.960   6.661
 8404SOL    HW126111   2.013   1.902   6.587
 8404SOL    HW226112   2.030   2.056   6.639
 8405SOL     OW26113   4.162   1.175   5.701
 8405SOL    HW126114   4.078   1.122   5.702
 8405SOL    HW226115   4.145   1.265   5.662
 8406SOL     OW26116   4.781   1.045   6.297
 8406SOL    HW126117   4.693   1.025   6.253
 8406SOL    HW226118   4.844   0.970   6.279
 8407SOL     OW26119   3.601   6.566   3.883
 8407SOL    HW126120   3.630   6.637   3.947
 8407SOL    HW226121   3.675   6.501   3.869
 8408SOL     OW26122   4.764   0.632   1.318
 8408SOL    HW126123   4.723   0.546   1.349
 8408SOL    HW226124   4.771   0.695   1.395
 8409SOL     OW26125   4.770   2.414   2.289
 8409SOL    HW126126   4.729   2.383   2.374
 8409SOL    HW226127   4.776   2.514   2.288
 8410SOL     OW26128   6.812   1.734   1.504
 8410SOL    HW126129   6.811   1.695   1.596
 8410SOL    HW226130   6.857   1.823   1.506
 8411SOL     OW26131   1.473   5.435   0.751
 8411SOL    HW126132   1.561   5.388   0.761
 8411SOL    HW226133   1.483   5.531   0.774
 8412SOL     OW26134   2.963   2.436   6.687
 8412SOL    HW126135   2.881   2.419   6.634
 8412SOL    HW226136   2.947   2.412   6.782
 8413SOL     OW26137   4.416   5.390   5.227
 8413SOL    HW126138   4.396   5.293   5.241
 8413SOL    HW226139   4.463   5.402   5.139
 8414SOL     OW26140   1.008   1.222   2.617
 8414SOL    HW126141   0.995   1.321   2.627
 8414SOL    HW226142   1.085   1.192   2.672
 8415SOL     OW26143   2.425   0.631   5.362
 8415SOL    HW126144   2.400   0.639   5.458
 8415SOL    HW226145   2.495   0.560   5.352
 8416SOL     OW26146   6.269   1.602   5.497
 8416SOL    HW126147   6.306   1.519   5.456
 8416SOL    HW226148   6.343   1.666   5.518
 8417SOL     OW26149   1.614   3.980   4.924
 8417SOL    HW126150   1.582   4.065   4.883
 8417SOL    HW226151   1.713   3.980   4.927
 8418SOL     OW26152   1.024   6.307   2.595
 8418SOL    HW126153   0.944   6.246   2.596
 8418SOL    HW226154   1.035   6.349   2.685
 8419SOL     OW26155   5.209   1.030   4.117
 8419SOL    HW126156   5.197   1.118   4.072
 8419SOL    HW226157   5.281   1.037   4.186
 8420SOL     OW26158   2.989   0.059   2.051
 8420SOL    HW126159   3.075   0.032   2.008
 8420SOL    HW226160   3.004   0.140   2.108
 8421SOL     OW26161   4.161   6.118   5.848
 8421SOL    HW126162   4.258   6.116   5.823
 8421SOL    HW226163   4.111   6.175   5.783
 8422SOL     OW26164   5.082   2.506   2.981
 8422SOL    HW126165   5.078   2.480   3.078
 8422SOL    HW226166   4.998   2.553   2.956
 8423SOL     OW26167   5.587   4.710   6.572
 8423SOL    HW126168   5.664   4.646   6.573
 8423SOL    HW226169   5.592   4.767   6.490
 8424SOL     OW26170   2.026   0.256   3.843
 8424SOL    HW126171   2.110   0.308   3.824
 8424SOL    HW226172   1.992   0.281   3.934
 8425SOL     OW26173   3.513   2.974   2.931
 8425SOL    HW126174   3.538   2.997   2.836
 8425SOL    HW226175   3.578   3.018   2.993
 8426SOL     OW26176   3.613   2.982   2.262
 8426SOL    HW126177   3.623   2.932   2.348
 8426SOL    HW226178   3.561   2.926   2.198
 8427SOL     OW26179   3.302   3.708   3.619
 8427SOL    HW126180   3.276   3.667   3.707
 8427SOL    HW226181   3.219   3.736   3.570
 8428SOL     OW26182   0.060   0.442   0.995
 8428SOL    HW126183   7.009   0.497   0.949
 8428SOL    HW226184   0.016   0.365   1.041
 8429SOL     OW26185   1.794   5.594   6.579
 8429SOL    HW126186   1.821   5.569   6.672
 8429SOL    HW226187   1.719   5.660   6.583
 8430SOL     OW26188   4.092   6.456   4.641
 8430SOL    HW126189   4.096   6.544   4.688
 8430SOL    HW226190   4.159   6.454   4.567
 8431SOL     OW26191   3.396   3.885   5.600
 8431SOL    HW126192   3.369   3.790   5.616
 8431SOL    HW226193   3.329   3.929   5.541
 8432SOL     OW26194   6.307   5.761   6.571
 8432SOL    HW126195   6.262   5.817   6.502
 8432SOL    HW226196   6.239   5.715   6.627
 8433SOL     OW26197   5.137   2.436   0.812
 8433SOL    HW126198   5.102   2.472   0.726
 8433SOL    HW226199   5.065   2.386   0.860
 8434SOL     OW26200   1.939   5.461   5.416
 8434SOL    HW126201   1.871   5.427   5.352
 8434SOL    HW226202   1.980   5.384   5.465
 8435SOL     OW26203   4.770   1.096   2.910
 8435SOL    HW126204   4.813   1.110   2.821
 8435SOL    HW226205   4.671   1.088   2.899
 8436SOL     OW26206   2.343   6.712   2.642
 8436SOL    HW126207   2.408   6.743   2.711
 8436SOL    HW226208   2.304   6.625   2.670
 8437SOL     OW26209   2.138   3.746   2.407
 8437SOL    HW126210   2.152   3.693   2.490
 8437SOL    HW226211   2.130   3.684   2.329
 8438SOL     OW26212   1.573   4.037   2.756
 8438SOL    HW126213   1.589   4.043   2.657
 8438SOL    HW226214   1.585   4.127   2.797
 8439SOL     OW26215   5.707   5.777   3.780
 8439SOL    HW126216   5.743   5.739   3.865
 8439SOL    HW226217   5.780   5.783   3.712
 8440SOL     OW26218   1.726   1.104   2.878
 8440SOL    HW126219   1.655   1.111   2.808
 8440SOL    HW226220   1.689   1.058   2.959
 8441SOL     OW26221   6.016   1.053   5.179
 8441SOL    HW126222   6.022   1.114   5.258
 8441SOL    HW226223   5.920   1.037   5.156
 8442SOL     OW26224   3.517   1.470   5.253
 8442SOL    HW126225   3.545   1.389   5.304
 8442SOL    HW226226   3.428   1.453   5.211
 8443SOL     OW26227   1.603   4.279   2.868
 8443SOL    HW126228   1.626   4.217   2.944
 8443SOL    HW226229   1.504   4.294   2.867
 8444SOL     OW26230   5.048   5.555   4.151
 8444SOL    HW126231   4.972   5.490   4.153
 8444SOL    HW226232   5.022   5.636   4.099
 8445SOL     OW26233   4.356   6.302   6.574
 8445SOL    HW126234   4.364   6.400   6.558
 8445SOL    HW226235   4.368   6.283   6.671
 8446SOL     OW26236   0.286   6.142   4.720
 8446SOL    HW126237   0.248   6.071   4.779
 8446SOL    HW226238   0.385   6.129   4.711
 8447SOL     OW26239   3.650   1.758   3.476
 8447SOL    HW126240   3.705   1.803   3.547
 8447SOL    HW226241   3.575   1.708   3.518
 8448SOL     OW26242   4.844   6.602   2.862
 8448SOL    HW126243   4.849   6.534   2.935
 8448SOL    HW226244   4.751   6.636   2.853
 8449SOL     OW26245   1.463   2.329   2.996
 8449SOL    HW126246   1.543   2.358   2.944
 8449SOL    HW226247   1.487   2.249   3.052
 8450SOL     OW26248   0.012   0.830   0.203
 8450SOL    HW126249   0.014   0.863   0.109
 8450SOL    HW226250   0.054   0.740   0.208
 8451SOL     OW26251   4.611   1.984   1.110
 8451SOL    HW126252   4.618   2.064   1.051
 8451SOL    HW226253   4.629   2.012   1.205
 8452SOL     OW26254   5.155   1.791   5.274
 8452SOL    HW126255   5.244   1.824   5.307
 8452SOL    HW226256   5.162   1.769   5.177
 8453SOL     OW26257   0.457   6.138   0.450
 8453SOL    HW126258   0.434   6.219   0.395
 8453SOL    HW226259   0.399   6.136   0.532
 8454SOL     OW26260   0.226   4.254   0.355
 8454SOL    HW126261   0.242   4.324   0.285
 8454SOL    HW226262   0.194   4.170   0.312
 8455SOL     OW26263   0.434   0.664   2.828
 8455SOL    HW126264   0.507   0.636   2.766
 8455SOL    HW226265   0.473   0.714   2.906
 8456SOL     OW26266   5.998   1.169   3.948
 8456SOL    HW126267   6.070   1.128   4.005
 8456SOL    HW226268   5.924   1.103   3.935
 8457SOL     OW26269   6.472   5.962   5.081
 8457SOL    HW126270   6.479   5.863   5.073
 8457SOL    HW226271   6.442   5.987   5.173
 8458SOL     OW26272   0.472   0.186   6.566
 8458SOL    HW126273   0.556   0.158   6.612
 8458SOL    HW226274   0.440   0.113   6.506
 8459SOL     OW26275   1.760   5.431   3.439
 8459SOL    HW126276   1.793   5.439   3.533
 8459SOL    HW226277   1.728   5.520   3.407
 8460SOL     OW26278   3.512   3.905   4.960
 8460SOL    HW126279   3.509   3.923   4.862
 8460SOL    HW226280   3.607   3.888   4.987
 8461SOL     OW26281   6.247   4.146   3.686
 8461SOL    HW126282   6.248   4.070   3.751
 8461SOL    HW226283   6.270   4.230   3.734
 8462SOL     OW26284   2.159   2.843   1.588
 8462SOL    HW126285   2.120   2.864   1.498
 8462SOL    HW226286   2.231   2.909   1.609
 8463SOL     OW26287   5.669   0.980   2.626
 8463SOL    HW126288   5.697   0.983   2.530
 8463SOL    HW226289   5.603   0.905   2.638
 8464SOL     OW26290   5.726   2.648   4.778
 8464SOL    HW126291   5.642   2.621   4.825
 8464SOL    HW226292   5.805   2.614   4.829
 8465SOL     OW26293   1.610   3.107   0.468
 8465SOL    HW126294   1.579   3.061   0.551
 8465SOL    HW226295   1.670   3.183   0.492
 8466SOL     OW26296   1.331   6.209   3.477
 8466SOL    HW126297   1.352   6.306   3.471
 8466SOL    HW226298   1.281   6.191   3.562
 8467SOL     OW26299   2.601   5.288   0.737
 8467SOL    HW126300   2.600   5.283   0.837
 8467SOL    HW226301   2.552   5.370   0.707
 8468SOL     OW26302   4.366   1.954   6.931
 8468SOL    HW126303   4.296   1.909   6.876
 8468SOL    HW226304   4.342   2.050   6.944
 8469SOL     OW26305   3.498   2.580   6.751
 8469SOL    HW126306   3.488   2.491   6.707
 8469SOL    HW226307   3.460   2.576   6.843
 8470SOL     OW26308   2.437   2.789   5.951
 8470SOL    HW126309   2.371   2.836   6.010
 8470SOL    HW226310   2.529   2.795   5.992
 8471SOL     OW26311   3.502   0.962   4.307
 8471SOL    HW126312   3.602   0.956   4.303
 8471SOL    HW226313   3.476   1.021   4.384
 8472SOL     OW26314   1.688   6.121   4.215
 8472SOL    HW126315   1.717   6.134   4.310
 8472SOL    HW226316   1.598   6.079   4.213
 8473SOL     OW26317   6.364   5.297   0.136
 8473SOL    HW126318   6.294   5.228   0.117
 8473SOL    HW226319   6.438   5.289   0.070
 8474SOL     OW26320   3.499   3.997   1.586
 8474SOL    HW126321   3.507   4.083   1.637
 8474SOL    HW226322   3.556   3.928   1.629
 8475SOL     OW26323   5.379   1.557   2.757
 8475SOL    HW126324   5.375   1.532   2.854
 8475SOL    HW226325   5.406   1.653   2.749
 8476SOL     OW26326   4.482   0.667   1.951
 8476SOL    HW126327   4.545   0.744   1.962
 8476SOL    HW226328   4.500   0.599   2.023
 8477SOL     OW26329   3.032   1.410   1.258
 8477SOL    HW126330   3.097   1.430   1.185
 8477SOL    HW226331   3.002   1.495   1.300
 8478SOL     OW26332   1.345   0.271   5.735
 8478SOL    HW126333   1.249   0.278   5.707
 8478SOL    HW226334   1.355   0.309   5.827
 8479SOL     OW26335   5.487   0.878   1.288
 8479SOL    HW126336   5.556   0.939   1.327
 8479SOL    HW226337   5.401   0.928   1.277
 8480SOL     OW26338   2.461   1.587   1.186
 8480SOL    HW126339   2.522   1.560   1.112
 8480SOL    HW226340   2.409   1.668   1.159
 8481SOL     OW26341   3.514   0.462   4.279
 8481SOL    HW126342   3.503   0.379   4.223
 8481SOL    HW226343   3.525   0.541   4.220
 8482SOL     OW26344   1.463   6.813   2.429
 8482SOL    HW126345   1.426   6.772   2.345
 8482SOL    HW226346   1.520   6.747   2.477
 8483SOL     OW26347   4.045   5.561   1.233
 8483SOL    HW126348   4.081   5.654   1.240
 8483SOL    HW226349   3.963   5.553   1.290
 8484SOL     OW26350   0.848   4.991   4.529
 8484SOL    HW126351   0.941   5.022   4.506
 8484SOL    HW226352   0.800   4.965   4.445
 8485SOL     OW26353   2.621   3.169   6.546
 8485SOL    HW126354   2.683   3.094   6.571
 8485SOL    HW226355   2.636   3.247   6.607
 8486SOL     OW26356   4.949   0.652   2.779
 8486SOL    HW126357   4.993   0.718   2.839
 8486SOL    HW226358   4.852   0.673   2.772
 8487SOL     OW26359   4.389   6.918   1.025
 8487SOL    HW126360   4.337   6.988   1.074
 8487SOL    HW226361   4.361   6.917   0.929
 8488SOL     OW26362   4.857   2.741   4.161
 8488SOL    HW126363   4.843   2.662   4.103
 8488SOL    HW226364   4.819   2.823   4.117
 8489SOL     OW26365   4.138   4.843   1.960
 8489SOL    HW126366   4.105   4.815   1.870
 8489SOL    HW226367   4.060   4.861   2.021
 8490SOL     OW26368   3.987   5.353   2.590
 8490SOL    HW126369   4.060   5.298   2.549
 8490SOL    HW226370   3.907   5.295   2.604
 8491SOL     OW26371   2.284   0.496   1.912
 8491SOL    HW126372   2.383   0.484   1.921
 8491SOL    HW226373   2.254   0.569   1.973
 8492SOL     OW26374   6.026   3.397   5.166
 8492SOL    HW126375   6.061   3.339   5.093
 8492SOL    HW226376   5.959   3.461   5.128
 8493SOL     OW26377   4.094   2.043   0.345
 8493SOL    HW126378   4.122   2.131   0.383
 8493SOL    HW226379   4.172   1.980   0.343
 8494SOL     OW26380   3.824   5.510   6.406
 8494SOL    HW126381   3.848   5.555   6.321
 8494SOL    HW226382   3.810   5.412   6.390
 8495SOL     OW26383   0.228   2.870   1.250
 8495SOL    HW126384   0.132   2.880   1.225
 8495SOL    HW226385   0.260   2.953   1.297
 8496SOL     OW26386   0.031   2.677   3.665
 8496SOL    HW126387   0.114   2.656   3.716
 8496SOL    HW226388   6.969   2.653   3.720
 8497SOL     OW26389   5.905   5.909   2.812
 8497SOL    HW126390   5.823   5.851   2.811
 8497SOL    HW226391   5.942   5.912   2.905
 8498SOL     OW26392   0.339   0.738   0.831
 8498SOL    HW126393   0.246   0.723   0.800
 8498SOL    HW226394   0.390   0.788   0.760
 8499SOL     OW26395   3.474   3.998   6.607
 8499SOL    HW126396   3.546   3.983   6.675
 8499SOL    HW226397   3.491   4.084   6.559
 8500SOL     OW26398   3.030   0.084   6.012
 8500SOL    HW126399   2.972   0.041   5.943
 8500SOL    HW226400   2.989   0.072   6.102
 8501SOL     OW26401   1.755   3.998   6.568
 8501SOL    HW126402   1.697   3.947   6.504
 8501SOL    HW226403   1.850   3.993   6.539
 8502SOL     OW26404   6.227   0.257   1.843
 8502SOL    HW126405   6.190   0.285   1.931
 8502SOL    HW226406   6.192   0.317   1.771
 8503SOL     OW26407   2.866   5.271   3.422
 8503SOL    HW126408   2.844   5.222   3.506
 8503SOL    HW226409   2.926   5.348   3.443
 8504SOL     OW26410   1.492   5.338   3.305
 8504SOL    HW126411   1.544   5.384   3.377
 8504SOL    HW226412   1.465   5.247   3.336
 8505SOL     OW26413   4.906   3.391   3.301
 8505SOL    HW126414   4.892   3.453   3.378
 8505SOL    HW226415   4.951   3.440   3.227
 8506SOL     OW26416   1.234   6.316   0.282
 8506SOL    HW126417   1.256   6.261   0.363
 8506SOL    HW226418   1.240   6.259   0.200
 8507SOL     OW26419   1.188   0.924   5.382
 8507SOL    HW126420   1.184   0.920   5.482
 8507SOL    HW226421   1.270   0.973   5.354
 8508SOL     OW26422   0.557   1.818   6.126
 8508SOL    HW126423   0.568   1.869   6.212
 8508SOL    HW226424   0.647   1.790   6.092
 8509SOL     OW26425   6.508   1.786   5.044
 8509SOL    HW126426   6.506   1.751   5.137
 8509SOL    HW226427   6.466   1.878   5.042
 8510SOL     OW26428   5.776   6.451   2.601
 8510SOL    HW126429   5.797   6.353   2.603
 8510SOL    HW226430   5.678   6.464   2.616
 8511SOL     OW26431   6.552   4.545   2.009
 8511SOL    HW126432   6.644   4.537   2.050
 8511SOL    HW226433   6.561   4.559   1.910
 8512SOL     OW26434   5.109   2.762   0.050
 8512SOL    HW126435   5.181   2.713   0.098
 8512SOL    HW226436   5.148   2.813   6.992
 8513SOL     OW26437   6.729   4.661   1.308
 8513SOL    HW126438   6.744   4.691   1.402
 8513SOL    HW226439   6.654   4.595   1.306
 8514SOL     OW26440   2.739   2.004   5.134
 8514SOL    HW126441   2.837   1.983   5.128
 8514SOL    HW226442   2.725   2.102   5.119
 8515SOL     OW26443   0.993   0.646   1.544
 8515SOL    HW126444   0.957   0.701   1.619
 8515SOL    HW226445   1.078   0.601   1.573
 8516SOL     OW26446   5.906   2.418   2.831
 8516SOL    HW126447   5.814   2.434   2.867
 8516SOL    HW226448   5.914   2.458   2.740
 8517SOL     OW26449   1.832   2.709   4.792
 8517SOL    HW126450   1.928   2.734   4.781
 8517SOL    HW226451   1.819   2.613   4.766
 8518SOL     OW26452   5.187   4.830   6.890
 8518SOL    HW126453   5.238   4.882   6.822
 8518SOL    HW226454   5.191   4.733   6.866
 8519SOL     OW26455   1.438   3.861   0.573
 8519SOL    HW126456   1.510   3.806   0.531
 8519SOL    HW226457   1.456   3.958   0.556
 8520SOL     OW26458   4.141   3.485   4.947
 8520SOL    HW126459   4.042   3.500   4.950
 8520SOL    HW226460   4.159   3.394   4.909
 8521SOL     OW26461   1.718   6.172   5.632
 8521SOL    HW126462   1.678   6.106   5.695
 8521SOL    HW226463   1.709   6.264   5.671
 8522SOL     OW26464   1.351   5.719   0.569
 8522SOL    HW126465   1.268   5.704   0.622
 8522SOL    HW226466   1.348   5.664   0.486
 8523SOL     OW26467   2.634   0.523   0.129
 8523SOL    HW126468   2.582   0.574   0.198
 8523SOL    HW226469   2.580   0.445   0.098
 8524SOL     OW26470   1.440   5.950   4.909
 8524SOL    HW126471   1.374   5.998   4.966
 8524SOL    HW226472   1.531   5.955   4.952
 8525SOL     OW26473   0.258   5.095   1.219
 8525SOL    HW126474   0.233   5.186   1.253
 8525SOL    HW226475   0.195   5.027   1.256
 8526SOL     OW26476   2.486   6.117   0.471
 8526SOL    HW126477   2.487   6.178   0.392
 8526SOL    HW226478   2.574   6.122   0.518
 8527SOL     OW26479   3.179   0.276   6.181
 8527SOL    HW126480   3.110   0.268   6.252
 8527SOL    HW226481   3.155   0.216   6.104
 8528SOL     OW26482   5.027   2.496   7.002
 8528SOL    HW126483   5.119   2.498   6.964
 8528SOL    HW226484   5.011   2.578   0.038
 8529SOL     OW26485   1.462   6.430   6.400
 8529SOL    HW126486   1.522   6.451   6.323
 8529SOL    HW226487   1.377   6.482   6.392
 8530SOL     OW26488   3.592   3.997   4.712
 8530SOL    HW126489   3.686   4.026   4.696
 8530SOL    HW226490   3.559   3.945   4.633
 8531SOL     OW26491   6.608   5.687   3.813
 8531SOL    HW126492   6.639   5.718   3.903
 8531SOL    HW226493   6.613   5.764   3.749
 8532SOL     OW26494   2.772   5.713   4.925
 8532SOL    HW126495   2.691   5.666   4.890
 8532SOL    HW226496   2.747   5.805   4.953
 8533SOL     OW26497   1.533   6.384   5.959
 8533SOL    HW126498   1.563   6.479   5.946
 8533SOL    HW226499   1.520   6.341   5.870
 8534SOL     OW26500   3.973   2.133   3.867
 8534SOL    HW126501   4.009   2.053   3.820
 8534SOL    HW226502   4.048   2.192   3.895
 8535SOL     OW26503   5.804   1.099   3.039
 8535SOL    HW126504   5.831   1.104   2.943
 8535SOL    HW226505   5.879   1.062   3.093
 8536SOL     OW26506   0.395   1.037   4.437
 8536SOL    HW126507   0.451   0.964   4.476
 8536SOL    HW226508   0.452   1.118   4.423
 8537SOL     OW26509   6.746   1.085   2.983
 8537SOL    HW126510   6.750   1.064   3.081
 8537SOL    HW226511   6.792   1.172   2.966
 8538SOL     OW26512   1.101   2.697   6.891
 8538SOL    HW126513   1.079   2.793   6.908
 8538SOL    HW226514   1.095   2.679   6.793
 8539SOL     OW26515   6.648   2.422   2.978
 8539SOL    HW126516   6.632   2.514   2.940
 8539SOL    HW226517   6.569   2.364   2.957
 8540SOL     OW26518   4.358   6.913   0.374
 8540SOL    HW126519   4.371   6.813   0.377
 8540SOL    HW226520   4.352   6.949   0.467
 8541SOL     OW26521   2.160   2.479   3.298
 8541SOL    HW126522   2.166   2.460   3.200
 8541SOL    HW226523   2.241   2.443   3.344
 8542SOL     OW26524   4.179   3.869   6.654
 8542SOL    HW126525   4.235   3.935   6.603
 8542SOL    HW226526   4.096   3.849   6.602
 8543SOL     OW26527   1.936   2.910   6.467
 8543SOL    HW126528   1.996   2.891   6.545
 8543SOL    HW226529   1.864   2.973   6.494
 8544SOL     OW26530   5.842   2.686   4.268
 8544SOL    HW126531   5.825   2.629   4.349
 8544SOL    HW226532   5.940   2.705   4.261
 8545SOL     OW26533   5.244   6.434   4.653
 8545SOL    HW126534   5.235   6.350   4.599
 8545SOL    HW226535   5.212   6.512   4.599
 8546SOL     OW26536   4.639   1.669   4.940
 8546SOL    HW126537   4.688   1.686   5.026
 8546SOL    HW226538   4.695   1.611   4.881
 8547SOL     OW26539   0.860   4.216   3.202
 8547SOL    HW126540   0.895   4.143   3.260
 8547SOL    HW226541   0.776   4.186   3.157
 8548SOL     OW26542   5.929   1.534   5.647
 8548SOL    HW126543   5.962   1.516   5.554
 8548SOL    HW226544   5.981   1.479   5.712
 8549SOL     OW26545   6.333   3.383   4.788
 8549SOL    HW126546   6.357   3.315   4.719
 8549SOL    HW226547   6.393   3.462   4.780
 8550SOL     OW26548   1.106   4.535   6.607
 8550SOL    HW126549   1.158   4.483   6.540
 8550SOL    HW226550   1.157   4.541   6.692
 8551SOL     OW26551   3.331   4.133   0.052
 8551SOL    HW126552   3.298   4.052   0.004
 8551SOL    HW226553   3.312   4.215   7.015
 8552SOL     OW26554   2.062   6.445   4.066
 8552SOL    HW126555   2.091   6.527   4.017
 8552SOL    HW226556   2.112   6.366   4.031
 8553SOL     OW26557   5.583   7.008   0.317
 8553SOL    HW126558   5.501   6.963   0.353
 8553SOL    HW226559   5.557   0.052   0.243
 8554SOL     OW26560   6.553   3.915   6.667
 8554SOL    HW126561   6.596   3.990   6.618
 8554SOL    HW226562   6.506   3.951   6.748
 8555SOL     OW26563   1.158   6.670   3.753
 8555SOL    HW126564   1.218   6.700   3.678
 8555SOL    HW226565   1.066   6.706   3.737
 8556SOL     OW26566   6.060   0.615   3.549
 8556SOL    HW126567   6.008   0.602   3.634
 8556SOL    HW226568   6.157   0.620   3.571
 8557SOL     OW26569   0.139   0.407   1.435
 8557SOL    HW126570   0.219   0.409   1.375
 8557SOL    HW226571   0.151   0.336   1.505
 8558SOL     OW26572   1.049   5.154   1.965
 8558SOL    HW126573   1.127   5.157   1.901
 8558SOL    HW226574   1.036   5.060   1.997
 8559SOL     OW26575   1.045   0.193   0.742
 8559SOL    HW126576   1.022   0.096   0.734
 8559SOL    HW226577   1.142   0.205   0.722
 8560SOL     OW26578   6.388   1.886   0.110
 8560SOL    HW126579   6.420   1.880   0.016
 8560SOL    HW226580   6.288   1.893   0.111
 8561SOL     OW26581   4.684   6.478   3.517
 8561SOL    HW126582   4.734   6.543   3.460
 8561SOL    HW226583   4.735   6.392   3.522
 8562SOL     OW26584   3.287   6.382   3.926
 8562SOL    HW126585   3.337   6.449   3.982
 8562SOL    HW226586   3.217   6.429   3.872
 8563SOL     OW26587   2.771   2.883   6.286
 8563SOL    HW126588   2.850   2.858   6.229
 8563SOL    HW226589   2.690   2.893   6.228
 8564SOL     OW26590   1.411   0.152   3.638
 8564SOL    HW126591   1.429   0.119   3.731
 8564SOL    HW226592   1.376   0.245   3.641
 8565SOL     OW26593   3.749   6.753   1.976
 8565SOL    HW126594   3.688   6.766   2.054
 8565SOL    HW226595   3.701   6.702   1.905
 8566SOL     OW26596   1.931   2.397   3.500
 8566SOL    HW126597   2.011   2.426   3.448
 8566SOL    HW226598   1.862   2.361   3.437
 8567SOL     OW26599   5.173   0.707   1.460
 8567SOL    HW126600   5.148   0.703   1.363
 8567SOL    HW226601   5.151   0.797   1.497
 8568SOL     OW26602   5.346   1.189   0.473
 8568SOL    HW126603   5.426   1.247   0.488
 8568SOL    HW226604   5.363   1.098   0.511
 8569SOL     OW26605   4.125   1.774   4.474
 8569SOL    HW126606   4.041   1.793   4.525
 8569SOL    HW226607   4.102   1.735   4.384
 8570SOL     OW26608   0.040   4.204   0.047
 8570SOL    HW126609   0.104   4.209   6.988
 8570SOL    HW226610   0.056   4.120   0.099
 8571SOL     OW26611   6.670   4.256   5.403
 8571SOL    HW126612   6.640   4.302   5.487
 8571SOL    HW226613   6.703   4.325   5.338
 8572SOL     OW26614   2.567   5.035   5.074
 8572SOL    HW126615   2.638   5.084   5.025
 8572SOL    HW226616   2.608   4.978   5.145
 8573SOL     OW26617   3.190   5.989   5.541
 8573SOL    HW126618   3.279   6.013   5.501
 8573SOL    HW226619   3.202   5.973   5.639
 8574SOL     OW26620   0.638   3.934   5.301
 8574SOL    HW126621   0.575   3.870   5.258
 8574SOL    HW226622   0.730   3.920   5.265
 8575SOL     OW26623   3.602   3.029   0.222
 8575SOL    HW126624   3.646   2.942   0.198
 8575SOL    HW226625   3.643   3.103   0.169
 8576SOL     OW26626   1.394   6.838   1.464
 8576SOL    HW126627   1.404   6.873   1.371
 8576SOL    HW226628   1.481   6.845   1.513
 8577SOL     OW26629   6.672   6.003   3.295
 8577SOL    HW126630   6.684   6.100   3.318
 8577SOL    HW226631   6.701   5.988   3.201
 8578SOL     OW26632   4.190   6.833   3.585
 8578SOL    HW126633   4.181   6.910   3.523
 8578SOL    HW226634   4.226   6.754   3.535
 8579SOL     OW26635   1.223   4.624   3.064
 8579SOL    HW126636   1.145   4.629   3.126
 8579SOL    HW226637   1.278   4.707   3.072
 8580SOL     OW26638   2.198   4.910   6.859
 8580SOL    HW126639   2.216   4.881   6.953
 8580SOL    HW226640   2.112   4.870   6.827
 8581SOL     OW26641   3.413   1.862   1.506
 8581SOL    HW126642   3.503   1.872   1.465
 8581SOL    HW226643   3.352   1.815   1.442
 8582SOL     OW26644   4.223   4.115   1.673
 8582SOL    HW126645   4.263   4.185   1.733
 8582SOL    HW226646   4.252   4.131   1.579
 8583SOL     OW26647   6.056   0.268   6.101
 8583SOL    HW126648   6.067   0.234   6.194
 8583SOL    HW226649   6.067   0.192   6.036
 8584SOL     OW26650   6.774   5.848   0.558
 8584SOL    HW126651   6.858   5.902   0.558
 8584SOL    HW226652   6.796   5.752   0.539
 8585SOL     OW26653   0.497   1.112   0.272
 8585SOL    HW126654   0.596   1.102   0.259
 8585SOL    HW226655   0.479   1.140   0.366
 8586SOL     OW26656   3.850   5.540   3.428
 8586SOL    HW126657   3.870   5.489   3.512
 8586SOL    HW226658   3.793   5.619   3.451
 8587SOL     OW26659   0.430   1.720   1.255
 8587SOL    HW126660   0.457   1.758   1.343
 8587SOL    HW226661   0.487   1.641   1.234
 8588SOL     OW26662   4.589   2.812   0.048
 8588SOL    HW126663   4.539   2.727   0.033
 8588SOL    HW226664   4.686   2.796   0.030
 8589SOL     OW26665   3.335   2.121   4.648
 8589SOL    HW126666   3.294   2.114   4.739
 8589SOL    HW226667   3.265   2.103   4.578
 8590SOL     OW26668   6.090   4.890   5.395
 8590SOL    HW126669   5.992   4.872   5.396
 8590SOL    HW226670   6.106   4.988   5.382
 8591SOL     OW26671   0.922   3.485   6.598
 8591SOL    HW126672   0.975   3.512   6.517
 8591SOL    HW226673   0.933   3.553   6.670
 8592SOL     OW26674   5.810   4.518   0.128
 8592SOL    HW126675   5.844   4.522   0.222
 8592SOL    HW226676   5.733   4.581   0.118
 8593SOL     OW26677   1.041   0.552   2.801
 8593SOL    HW126678   1.022   0.471   2.855
 8593SOL    HW226679   1.058   0.526   2.706
 8594SOL     OW26680   3.825   3.791   4.213
 8594SOL    HW126681   3.746   3.767   4.270
 8594SOL    HW226682   3.908   3.789   4.268
 8595SOL     OW26683   1.835   1.761   2.380
 8595SOL    HW126684   1.795   1.852   2.394
 8595SOL    HW226685   1.810   1.728   2.289
 8596SOL     OW26686   6.280   5.402   1.898
 8596SOL    HW126687   6.369   5.449   1.898
 8596SOL    HW226688   6.288   5.317   1.949
 8597SOL     OW26689   2.373   1.370   1.044
 8597SOL    HW126690   2.412   1.296   1.099
 8597SOL    HW226691   2.337   1.440   1.105
 8598SOL     OW26692   5.668   5.073   0.879
 8598SOL    HW126693   5.639   5.144   0.943
 8598SOL    HW226694   5.626   4.986   0.905
 8599SOL     OW26695   1.825   2.819   2.543
 8599SOL    HW126696   1.768   2.845   2.620
 8599SOL    HW226697   1.818   2.720   2.528
 8600SOL     OW26698   6.523   4.402   6.690
 8600SOL    HW126699   6.459   4.334   6.654
 8600SOL    HW226700   6.478   4.491   6.693
 8601SOL     OW26701   0.502   0.211   4.260
 8601SOL    HW126702   0.528   0.257   4.345
 8601SOL    HW226703   0.513   0.112   4.271
 8602SOL     OW26704   2.908   5.357   2.340
 8602SOL    HW126705   2.909   5.290   2.415
 8602SOL    HW226706   2.957   5.319   2.261
 8603SOL     OW26707   3.794   3.488   1.034
 8603SOL    HW126708   3.891   3.506   1.017
 8603SOL    HW226709   3.776   3.493   1.132
 8604SOL     OW26710   5.224   3.085   3.458
 8604SOL    HW126711   5.201   3.142   3.379
 8604SOL    HW226712   5.229   3.142   3.540
 8605SOL     OW26713   2.329   6.096   2.433
 8605SOL    HW126714   2.230   6.103   2.417
 8605SOL    HW226715   2.369   6.187   2.435
 8606SOL     OW26716   3.894   4.504   5.550
 8606SOL    HW126717   3.863   4.437   5.618
 8606SOL    HW226718   3.842   4.491   5.465
 8607SOL     OW26719   4.478   5.668   1.312
 8607SOL    HW126720   4.568   5.625   1.308
 8607SOL    HW226721   4.464   5.708   1.403
 8608SOL     OW26722   4.853   5.805   1.697
 8608SOL    HW126723   4.923   5.739   1.673
 8608SOL    HW226724   4.801   5.831   1.616
 8609SOL     OW26725   3.571   0.759   5.194
 8609SOL    HW126726   3.485   0.806   5.175
 8609SOL    HW226727   3.585   0.686   5.126
 8610SOL     OW26728   0.602   6.377   4.160
 8610SOL    HW126729   0.576   6.404   4.067
 8610SOL    HW226730   0.533   6.316   4.198
 8611SOL     OW26731   1.894   1.709   3.699
 8611SOL    HW126732   1.795   1.701   3.710
 8611SOL    HW226733   1.933   1.618   3.683
 8612SOL     OW26734   4.297   2.922   5.309
 8612SOL    HW126735   4.378   2.962   5.265
 8612SOL    HW226736   4.215   2.970   5.279
 8613SOL     OW26737   1.641   1.404   1.224
 8613SOL    HW126738   1.703   1.463   1.173
 8613SOL    HW226739   1.565   1.376   1.165
 8614SOL     OW26740   0.919   1.852   3.214
 8614SOL    HW126741   0.901   1.935   3.267
 8614SOL    HW226742   1.000   1.867   3.157
 8615SOL     OW26743   4.485   2.489   5.082
 8615SOL    HW126744   4.540   2.437   5.147
 8615SOL    HW226745   4.388   2.467   5.095
 8616SOL     OW26746   1.150   4.438   0.271
 8616SOL    HW126747   1.224   4.474   0.327
 8616SOL    HW226748   1.063   4.479   0.300
 8617SOL     OW26749   5.976   2.763   1.416
 8617SOL    HW126750   5.899   2.818   1.384
 8617SOL    HW226751   5.983   2.680   1.360
 8618SOL     OW26752   4.811   0.011   3.632
 8618SOL    HW126753   4.748   6.952   3.640
 8618SOL    HW226754   4.902   6.996   3.607
 8619SOL     OW26755   4.538   5.251   6.936
 8619SOL    HW126756   4.557   5.176   6.999
 8619SOL    HW226757   4.542   5.218   6.842
 8620SOL     OW26758   6.424   6.302   3.076
 8620SOL    HW126759   6.494   6.243   3.036
 8620SOL    HW226760   6.430   6.394   3.036
 8621SOL     OW26761   5.637   0.803   3.385
 8621SOL    HW126762   5.605   0.743   3.458
 8621SOL    HW226763   5.736   0.813   3.391
 8622SOL     OW26764   4.811   5.290   0.485
 8622SOL    HW126765   4.766   5.250   0.564
 8622SOL    HW226766   4.899   5.330   0.512
 8623SOL     OW26767   6.787   3.464   2.632
 8623SOL    HW126768   6.847   3.460   2.552
 8623SOL    HW226769   6.784   3.374   2.676
 8624SOL     OW26770   0.378   4.183   2.991
 8624SOL    HW126771   0.376   4.090   3.028
 8624SOL    HW226772   0.468   4.202   2.953
 8625SOL     OW26773   3.638   0.199   4.437
 8625SOL    HW126774   3.543   0.179   4.459
 8625SOL    HW226775   3.661   0.290   4.470
 8626SOL     OW26776   3.046   3.606   3.454
 8626SOL    HW126777   3.039   3.705   3.444
 8626SOL    HW226778   3.047   3.563   3.364
 8627SOL     OW26779   1.665   6.908   0.055
 8627SOL    HW126780   1.682   6.851   0.135
 8627SOL    HW226781   1.696   7.001   0.073
 8628SOL     OW26782   5.404   0.851   6.677
 8628SOL    HW126783   5.314   0.811   6.697
 8628SOL    HW226784   5.470   0.821   6.745
 8629SOL     OW26785   1.509   4.157   4.279
 8629SOL    HW126786   1.436   4.093   4.252
 8629SOL    HW226787   1.526   4.221   4.205
 8630SOL     OW26788   5.686   4.869   3.885
 8630SOL    HW126789   5.681   4.769   3.880
 8630SOL    HW226790   5.598   4.908   3.860
 8631SOL     OW26791   3.722   5.642   5.269
 8631SOL    HW126792   3.686   5.619   5.360
 8631SOL    HW226793   3.647   5.646   5.204
 8632SOL     OW26794   4.086   0.237   3.739
 8632SOL    HW126795   4.174   0.256   3.783
 8632SOL    HW226796   4.096   0.247   3.640
 8633SOL     OW26797   6.348   1.256   3.806
 8633SOL    HW126798   6.338   1.299   3.895
 8633SOL    HW226799   6.281   1.182   3.796
 8634SOL     OW26800   6.553   5.160   1.954
 8634SOL    HW126801   6.491   5.189   2.027
 8634SOL    HW226802   6.519   5.192   1.866
 8635SOL     OW26803   5.969   3.808   5.374
 8635SOL    HW126804   6.008   3.798   5.282
 8635SOL    HW226805   5.877   3.769   5.375
 8636SOL     OW26806   6.523   5.844   0.940
 8636SOL    HW126807   6.499   5.875   1.032
 8636SOL    HW226808   6.440   5.818   0.891
 8637SOL     OW26809   2.189   0.861   1.263
 8637SOL    HW126810   2.164   0.799   1.188
 8637SOL    HW226811   2.268   0.916   1.236
 8638SOL     OW26812   3.432   4.603   0.255
 8638SOL    HW126813   3.345   4.599   0.304
 8638SOL    HW226814   3.424   4.553   0.168
 8639SOL     OW26815   6.714   3.193   2.395
 8639SOL    HW126816   6.764   3.120   2.348
 8639SOL    HW226817   6.707   3.170   2.493
 8640SOL     OW26818   4.996   5.895   0.800
 8640SOL    HW126819   5.095   5.908   0.794
 8640SOL    HW226820   4.962   5.857   0.714
 8641SOL     OW26821   6.130   4.624   3.487
 8641SOL    HW126822   6.059   4.582   3.431
 8641SOL    HW226823   6.142   4.572   3.572
 8642SOL     OW26824   4.025   1.523   1.145
 8642SOL    HW126825   4.007   1.583   1.223
 8642SOL    HW226826   4.046   1.578   1.065
 8643SOL     OW26827   4.951   0.280   5.953
 8643SOL    HW126828   5.024   0.317   5.896
 8643SOL    HW226829   4.863   0.292   5.907
 8644SOL     OW26830   6.286   3.197   5.233
 8644SOL    HW126831   6.282   3.182   5.332
 8644SOL    HW226832   6.222   3.269   5.208
 8645SOL     OW26833   6.278   4.645   1.567
 8645SOL    HW126834   6.314   4.735   1.590
 8645SOL    HW226835   6.182   4.639   1.594
 8646SOL     OW26836   5.296   0.878   0.286
 8646SOL    HW126837   5.343   0.884   0.374
 8646SOL    HW226838   5.199   0.859   0.301
 8647SOL     OW26839   4.486   5.193   0.481
 8647SOL    HW126840   4.460   5.268   0.420
 8647SOL    HW226841   4.535   5.231   0.560
 8648SOL     OW26842   5.434   1.510   4.181
 8648SOL    HW126843   5.464   1.437   4.120
 8648SOL    HW226844   5.334   1.519   4.175
 8649SOL     OW26845   6.394   4.568   5.542
 8649SOL    HW126846   6.492   4.581   5.556
 8649SOL    HW226847   6.368   4.478   5.574
 8650SOL     OW26848   2.156   4.959   3.251
 8650SOL    HW126849   2.182   4.865   3.230
 8650SOL    HW226850   2.083   4.987   3.189
 8651SOL     OW26851   3.465   1.493   0.480
 8651SOL    HW126852   3.553   1.521   0.441
 8651SOL    HW226853   3.480   1.459   0.573
 8652SOL     OW26854   1.599   3.549   3.775
 8652SOL    HW126855   1.687   3.570   3.817
 8652SOL    HW226856   1.550   3.635   3.755
 8653SOL     OW26857   0.380   3.387   6.965
 8653SOL    HW126858   0.374   3.430   6.875
 8653SOL    HW226859   0.352   3.452   0.016
 8654SOL     OW26860   0.789   0.385   3.473
 8654SOL    HW126861   0.787   0.321   3.396
 8654SOL    HW226862   0.697   0.416   3.493
 8655SOL     OW26863   6.417   6.216   4.635
 8655SOL    HW126864   6.356   6.147   4.597
 8655SOL    HW226865   6.398   6.227   4.733
 8656SOL     OW26866   6.183   1.716   1.061
 8656SOL    HW126867   6.202   1.648   0.990
 8656SOL    HW226868   6.262   1.777   1.071
 8657SOL     OW26869   3.814   3.946   6.540
 8657SOL    HW126870   3.887   4.002   6.501
 8657SOL    HW226871   3.753   4.003   6.595
 8658SOL     OW26872   6.527   5.254   6.918
 8658SOL    HW126873   6.441   5.257   6.866
 8658SOL    HW226874   6.597   5.209   6.862
 8659SOL     OW26875   5.310   0.938   4.546
 8659SOL    HW126876   5.245   0.912   4.616
 8659SOL    HW226877   5.312   0.868   4.474
 8660SOL     OW26878   5.603   4.015   1.203
 8660SOL    HW126879   5.698   4.031   1.230
 8660SOL    HW226880   5.600   3.953   1.125
 8661SOL     OW26881   6.880   3.912   1.628
 8661SOL    HW126882   6.849   3.908   1.723
 8661SOL    HW226883   6.858   4.001   1.589
 8662SOL     OW26884   0.162   0.070   0.625
 8662SOL    HW126885   0.174   0.027   0.714
 8662SOL    HW226886   0.228   0.033   0.560
 8663SOL     OW26887   2.424   5.322   0.367
 8663SOL    HW126888   2.453   5.392   0.301
 8663SOL    HW226889   2.412   5.364   0.457
 8664SOL     OW26890   4.656   5.962   6.995
 8664SOL    HW126891   4.655   6.047   0.030
 8664SOL    HW226892   4.750   5.941   6.968
 8665SOL     OW26893   5.252   5.345   5.442
 8665SOL    HW126894   5.266   5.431   5.492
 8665SOL    HW226895   5.318   5.339   5.368
 8666SOL     OW26896   5.124   2.801   4.310
 8666SOL    HW126897   5.125   2.747   4.394
 8666SOL    HW226898   5.032   2.803   4.272
 8667SOL     OW26899   4.757   1.250   4.369
 8667SOL    HW126900   4.754   1.341   4.329
 8667SOL    HW226901   4.685   1.193   4.327
 8668SOL     OW26902   3.822   1.854   4.020
 8668SOL    HW126903   3.736   1.902   4.001
 8668SOL    HW226904   3.885   1.915   4.068
 8669SOL     OW26905   4.221   0.575   5.423
 8669SOL    HW126906   4.122   0.567   5.435
 8669SOL    HW226907   4.242   0.659   5.372
 8670SOL     OW26908   3.878   5.413   4.014
 8670SOL    HW126909   3.806   5.475   4.046
 8670SOL    HW226910   3.934   5.461   3.947
 8671SOL     OW26911   5.879   6.908   3.646
 8671SOL    HW126912   5.856   6.868   3.734
 8671SOL    HW226913   5.978   6.925   3.642
 8672SOL     OW26914   3.902   4.915   4.609
 8672SOL    HW126915   3.984   4.870   4.646
 8672SOL    HW226916   3.903   5.012   4.635
 8673SOL     OW26917   5.814   2.062   0.477
 8673SOL    HW126918   5.895   2.056   0.419
 8673SOL    HW226919   5.733   2.039   0.423
 8674SOL     OW26920   6.969   6.965   3.044
 8674SOL    HW126921   6.991   0.001   3.125
 8674SOL    HW226922   0.034   6.949   2.991
 8675SOL     OW26923   2.067   0.915   2.379
 8675SOL    HW126924   2.151   0.880   2.419
 8675SOL    HW226925   2.006   0.839   2.358
 8676SOL     OW26926   4.626   6.768   2.872
 8676SOL    HW126927   4.551   6.725   2.820
 8676SOL    HW226928   4.620   6.867   2.862
 8677SOL     OW26929   2.478   4.625   5.649
 8677SOL    HW126930   2.523   4.571   5.720
 8677SOL    HW226931   2.382   4.599   5.644
 8678SOL     OW26932   0.917   6.694   6.141
 8678SOL    HW126933   0.897   6.672   6.046
 8678SOL    HW226934   0.943   6.790   6.148
 8679SOL     OW26935   6.502   2.576   5.157
 8679SOL    HW126936   6.521   2.636   5.079
 8679SOL    HW226937   6.445   2.624   5.223
 8680SOL     OW26938   1.586   3.434   6.881
 8680SOL    HW126939   1.678   3.473   6.894
 8680SOL    HW226940   1.554   3.455   6.789
 8681SOL     OW26941   3.380   4.226   0.473
 8681SOL    HW126942   3.399   4.203   0.569
 8681SOL    HW226943   3.463   4.212   0.419
 8682SOL     OW26944   2.353   6.323   3.025
 8682SOL    HW126945   2.320   6.230   3.040
 8682SOL    HW226946   2.336   6.350   2.930
 8683SOL     OW26947   7.005   3.112   0.499
 8683SOL    HW126948   7.017   3.128   0.401
 8683SOL    HW226949   0.023   3.190   0.550
 8684SOL     OW26950   6.112   3.598   4.493
 8684SOL    HW126951   6.094   3.602   4.592
 8684SOL    HW226952   6.028   3.615   4.443
 8685SOL     OW26953   0.665   2.239   5.924
 8685SOL    HW126954   0.662   2.330   5.964
 8685SOL    HW226955   0.759   2.217   5.897
 8686SOL     OW26956   6.644   2.246   3.269
 8686SOL    HW126957   6.562   2.262   3.214
 8686SOL    HW226958   6.715   2.204   3.212
 8687SOL     OW26959   3.545   0.133   2.760
 8687SOL    HW126960   3.499   0.050   2.729
 8687SOL    HW226961   3.493   0.213   2.730
 8688SOL     OW26962   2.469   0.407   1.606
 8688SOL    HW126963   2.516   0.489   1.574
 8688SOL    HW226964   2.371   0.424   1.611
 8689SOL     OW26965   4.768   5.694   0.105
 8689SOL    HW126966   4.743   5.627   0.035
 8689SOL    HW226967   4.806   5.775   0.061
 8690SOL     OW26968   0.258   1.297   3.065
 8690SOL    HW126969   0.264   1.396   3.057
 8690SOL    HW226970   0.313   1.255   2.992
 8691SOL     OW26971   5.316   2.002   0.238
 8691SOL    HW126972   5.235   2.061   0.229
 8691SOL    HW226973   5.291   1.908   0.214
 8692SOL     OW26974   2.220   1.531   3.978
 8692SOL    HW126975   2.287   1.536   3.904
 8692SOL    HW226976   2.135   1.491   3.943
 8693SOL     OW26977   5.445   2.037   0.768
 8693SOL    HW126978   5.411   2.021   0.860
 8693SOL    HW226979   5.506   2.117   0.768
 8694SOL     OW26980   4.662   6.960   5.946
 8694SOL    HW126981   4.586   6.961   6.011
 8694SOL    HW226982   4.726   0.014   5.970
 8695SOL     OW26983   4.744   4.684   5.563
 8695SOL    HW126984   4.757   4.673   5.465
 8695SOL    HW226985   4.794   4.612   5.612
 8696SOL     OW26986   2.320   5.741   1.612
 8696SOL    HW126987   2.360   5.708   1.526
 8696SOL    HW226988   2.381   5.810   1.653
 8697SOL     OW26989   6.260   4.177   0.510
 8697SOL    HW126990   6.276   4.132   0.422
 8697SOL    HW226991   6.322   4.254   0.519
 8698SOL     OW26992   5.630   6.171   4.735
 8698SOL    HW126993   5.706   6.226   4.700
 8698SOL    HW226994   5.618   6.090   4.678
 8699SOL     OW26995   1.057   1.837   5.455
 8699SOL    HW126996   0.991   1.847   5.381
 8699SOL    HW226997   1.149   1.825   5.417
 8700SOL     OW26998   3.270   1.213   5.592
 8700SOL    HW126999   3.178   1.216   5.554
 8700SOL    HW227000   3.295   1.304   5.625
 8701SOL     OW27001   0.389   1.495   4.836
 8701SOL    HW127002   0.392   1.592   4.862
 8701SOL    HW227003   0.352   1.486   4.743
 8702SOL     OW27004   5.077   5.434   0.317
 8702SOL    HW127005   5.125   5.354   0.282
 8702SOL    HW227006   5.137   5.485   0.378
 8703SOL     OW27007   2.559   5.467   1.044
 8703SOL    HW127008   2.566   5.368   1.039
 8703SOL    HW227009   2.473   5.492   1.090
 8704SOL     OW27010   0.328   4.673   2.022
 8704SOL    HW127011   0.327   4.733   2.102
 8704SOL    HW227012   0.287   4.585   2.046
 8705SOL     OW27013   4.934   0.184   6.195
 8705SOL    HW127014   4.858   0.229   6.243
 8705SOL    HW227015   4.941   0.222   6.102
 8706SOL     OW27016   5.108   1.778   0.283
 8706SOL    HW127017   5.047   1.858   0.281
 8706SOL    HW227018   5.101   1.733   0.372
 8707SOL     OW27019   5.172   2.850   6.008
 8707SOL    HW127020   5.104   2.851   6.082
 8707SOL    HW227021   5.173   2.939   5.963
 8708SOL     OW27022   4.040   1.259   1.066
 8708SOL    HW127023   4.035   1.357   1.088
 8708SOL    HW227024   3.965   1.236   1.003
 8709SOL     OW27025   6.528   4.166   1.188
 8709SOL    HW127026   6.595   4.096   1.214
 8709SOL    HW227027   6.436   4.128   1.195
 8710SOL     OW27028   2.208   3.053   3.285
 8710SOL    HW127029   2.306   3.038   3.276
 8710SOL    HW227030   2.164   3.043   3.196
 8711SOL     OW27031   6.717   1.041   3.259
 8711SOL    HW127032   6.788   1.035   3.329
 8711SOL    HW227033   6.628   1.050   3.303
 8712SOL     OW27034   3.175   1.819   4.995
 8712SOL    HW127035   3.120   1.795   5.075
 8712SOL    HW227036   3.272   1.823   5.020
 8713SOL     OW27037   6.867   4.510   3.970
 8713SOL    HW127038   6.915   4.578   3.914
 8713SOL    HW227039   6.924   4.429   3.981
 8714SOL     OW27040   1.463   1.002   5.417
 8714SOL    HW127041   1.491   0.909   5.442
 8714SOL    HW227042   1.493   1.023   5.324
 8715SOL     OW27043   6.244   2.285   1.577
 8715SOL    HW127044   6.307   2.291   1.655
 8715SOL    HW227045   6.202   2.194   1.575
 8716SOL     OW27046   1.264   1.550   1.118
 8716SOL    HW127047   1.212   1.601   1.049
 8716SOL    HW227048   1.244   1.452   1.108
 8717SOL     OW27049   4.118   3.636   1.812
 8717SOL    HW127050   4.146   3.729   1.787
 8717SOL    HW227051   4.102   3.631   1.910
 8718SOL     OW27052   6.182   3.089   5.509
 8718SOL    HW127053   6.120   3.107   5.432
 8718SOL    HW227054   6.130   3.050   5.585
 8719SOL     OW27055   0.617   0.331   5.457
 8719SOL    HW127056   0.609   0.286   5.368
 8719SOL    HW227057   0.644   0.264   5.526
 8720SOL     OW27058   5.367   4.314   5.490
 8720SOL    HW127059   5.415   4.252   5.427
 8720SOL    HW227060   5.270   4.288   5.493
 8721SOL     OW27061   7.006   2.385   4.755
 8721SOL    HW127062   6.932   2.427   4.702
 8721SOL    HW227063   6.980   2.381   4.851
 8722SOL     OW27064   3.792   2.810   0.366
 8722SOL    HW127065   3.720   2.742   0.365
 8722SOL    HW227066   3.767   2.885   0.428
 8723SOL     OW27067   6.689   5.418   1.489
 8723SOL    HW127068   6.641   5.503   1.466
 8723SOL    HW227069   6.751   5.393   1.415
 8724SOL     OW27070   5.603   0.353   5.618
 8724SOL    HW127071   5.625   0.263   5.582
 8724SOL    HW227072   5.533   0.344   5.690
 8725SOL     OW27073   2.375   6.317   0.286
 8725SOL    HW127074   2.330   6.300   0.198
 8725SOL    HW227075   2.353   6.409   0.317
 8726SOL     OW27076   6.135   0.431   1.650
 8726SOL    HW127077   6.042   0.412   1.618
 8726SOL    HW227078   6.196   0.437   1.570
 8727SOL     OW27079   6.423   6.382   1.315
 8727SOL    HW127080   6.480   6.341   1.386
 8727SOL    HW227081   6.383   6.466   1.349
 8728SOL     OW27082   2.794   6.722   4.747
 8728SOL    HW127083   2.861   6.753   4.815
 8728SOL    HW227084   2.703   6.722   4.788
 8729SOL     OW27085   4.463   5.885   3.669
 8729SOL    HW127086   4.526   5.929   3.733
 8729SOL    HW227087   4.478   5.922   3.577
 8730SOL     OW27088   0.135   6.181   2.529
 8730SOL    HW127089   0.122   6.106   2.464
 8730SOL    HW227090   0.191   6.252   2.488
 8731SOL     OW27091   0.997   1.488   2.694
 8731SOL    HW127092   0.969   1.537   2.777
 8731SOL    HW227093   1.041   1.551   2.630
 8732SOL     OW27094   5.634   3.472   1.741
 8732SOL    HW127095   5.673   3.499   1.653
 8732SOL    HW227096   5.564   3.538   1.768
 8733SOL     OW27097   1.406   6.229   1.458
 8733SOL    HW127098   1.467   6.222   1.379
 8733SOL    HW227099   1.364   6.320   1.460
 8734SOL     OW27100   6.927   6.015   1.287
 8734SOL    HW127101   6.919   5.975   1.378
 8734SOL    HW227102   6.836   6.039   1.253
 8735SOL     OW27103   0.076   2.070   6.662
 8735SOL    HW127104   0.023   2.101   6.583
 8735SOL    HW227105   0.045   1.979   6.689
 8736SOL     OW27106   0.635   4.824   6.680
 8736SOL    HW127107   0.712   4.771   6.643
 8736SOL    HW227108   0.581   4.860   6.605
 8737SOL     OW27109   3.854   5.701   6.160
 8737SOL    HW127110   3.768   5.653   6.141
 8737SOL    HW227111   3.925   5.669   6.097
 8738SOL     OW27112   1.172   3.715   3.971
 8738SOL    HW127113   1.241   3.650   4.003
 8738SOL    HW227114   1.082   3.688   4.008
 8739SOL     OW27115   0.287   3.480   5.590
 8739SOL    HW127116   0.234   3.464   5.674
 8739SOL    HW227117   0.275   3.403   5.528
 8740SOL     OW27118   2.899   6.737   0.829
 8740SOL    HW127119   2.807   6.704   0.850
 8740SOL    HW227120   2.953   6.741   0.913
 8741SOL     OW27121   1.547   3.339   2.740
 8741SOL    HW127122   1.574   3.370   2.831
 8741SOL    HW227123   1.625   3.297   2.694
 8742SOL     OW27124   4.395   0.080   1.658
 8742SOL    HW127125   4.329   0.124   1.596
 8742SOL    HW227126   4.393   6.999   1.643
 8743SOL     OW27127   2.406   4.943   2.601
 8743SOL    HW127128   2.373   5.001   2.526
 8743SOL    HW227129   2.365   4.973   2.687
 8744SOL     OW27130   4.132   2.129   6.384
 8744SOL    HW127131   4.167   2.222   6.398
 8744SOL    HW227132   4.197   2.077   6.329
 8745SOL     OW27133   6.230   2.341   5.893
 8745SOL    HW127134   6.321   2.320   5.928
 8745SOL    HW227135   6.215   2.440   5.896
 8746SOL     OW27136   5.472   5.025   5.832
 8746SOL    HW127137   5.499   5.023   5.735
 8746SOL    HW227138   5.464   4.931   5.866
 8747SOL     OW27139   2.023   2.022   4.023
 8747SOL    HW127140   2.010   2.079   3.942
 8747SOL    HW227141   1.988   1.930   4.005
 8748SOL     OW27142   1.647   0.158   6.642
 8748SOL    HW127143   1.582   0.082   6.632
 8748SOL    HW227144   1.608   0.241   6.601
 8749SOL     OW27145   4.207   0.659   3.735
 8749SOL    HW127146   4.187   0.616   3.647
 8749SOL    HW227147   4.137   0.727   3.756
 8750SOL     OW27148   1.761   1.560   5.412
 8750SOL    HW127149   1.740   1.479   5.466
 8750SOL    HW227150   1.773   1.534   5.316
 8751SOL     OW27151   1.100   0.118   2.572
 8751SOL    HW127152   1.179   0.105   2.512
 8751SOL    HW227153   1.128   0.110   2.667
 8752SOL     OW27154   1.544   2.316   6.281
 8752SOL    HW127155   1.516   2.234   6.231
 8752SOL    HW227156   1.479   2.333   6.356
 8753SOL     OW27157   5.057   1.604   4.743
 8753SOL    HW127158   5.103   1.690   4.767
 8753SOL    HW227159   5.115   1.527   4.768
 8754SOL     OW27160   1.691   1.736   5.875
 8754SOL    HW127161   1.720   1.716   5.969
 8754SOL    HW227162   1.591   1.744   5.872
 8755SOL     OW27163   2.016   1.880   0.741
 8755SOL    HW127164   1.966   1.899   0.825
 8755SOL    HW227165   2.106   1.842   0.763
 8756SOL     OW27166   2.208   3.101   4.185
 8756SOL    HW127167   2.242   3.006   4.184
 8756SOL    HW227168   2.127   3.107   4.127
 8757SOL     OW27169   4.745   6.399   5.005
 8757SOL    HW127170   4.669   6.335   5.010
 8757SOL    HW227171   4.758   6.427   4.909
 8758SOL     OW27172   5.987   6.866   1.142
 8758SOL    HW127173   6.004   6.933   1.214
 8758SOL    HW227174   5.950   6.783   1.182
 8759SOL     OW27175   5.138   0.677   5.595
 8759SOL    HW127176   5.235   0.672   5.620
 8759SOL    HW227177   5.109   0.773   5.592
 8760SOL     OW27178   1.602   1.705   3.722
 8760SOL    HW127179   1.570   1.622   3.676
 8760SOL    HW227180   1.546   1.783   3.692
 8761SOL     OW27181   4.299   6.802   0.116
 8761SOL    HW127182   4.208   6.798   0.074
 8761SOL    HW227183   4.299   6.872   0.187
 8762SOL     OW27184   0.968   4.440   0.949
 8762SOL    HW127185   0.941   4.523   0.902
 8762SOL    HW227186   1.044   4.396   0.899
 8763SOL     OW27187   0.356   6.393   6.408
 8763SOL    HW127188   0.278   6.421   6.353
 8763SOL    HW227189   0.355   6.442   6.495
 8764SOL     OW27190   4.334   1.936   4.758
 8764SOL    HW127191   4.314   2.030   4.786
 8764SOL    HW227192   4.257   1.878   4.782
 8765SOL     OW27193   5.817   0.261   4.443
 8765SOL    HW127194   5.895   0.198   4.437
 8765SOL    HW227195   5.845   0.352   4.410
 8766SOL     OW27196   2.123   4.673   2.574
 8766SOL    HW127197   2.077   4.684   2.662
 8766SOL    HW227198   2.090   4.590   2.529
 8767SOL     OW27199   4.167   0.970   3.947
 8767SOL    HW127200   4.213   0.958   4.035
 8767SOL    HW227201   4.200   1.055   3.904
 8768SOL     OW27202   1.966   3.203   6.695
 8768SOL    HW127203   1.882   3.216   6.747
 8768SOL    HW227204   2.006   3.114   6.718
 8769SOL     OW27205   1.949   0.130   5.754
 8769SOL    HW127206   1.940   0.038   5.790
 8769SOL    HW227207   2.046   0.154   5.748
 8770SOL     OW27208   5.298   2.996   1.570
 8770SOL    HW127209   5.365   3.009   1.643
 8770SOL    HW227210   5.213   3.043   1.594
 8771SOL     OW27211   0.937   1.704   6.340
 8771SOL    HW127212   0.917   1.694   6.438
 8771SOL    HW227213   0.882   1.638   6.289
 8772SOL     OW27214   5.852   1.291   6.666
 8772SOL    HW127215   5.847   1.206   6.613
 8772SOL    HW227216   5.766   1.341   6.656
 8773SOL     OW27217   2.389   2.690   2.721
 8773SOL    HW127218   2.468   2.630   2.735
 8773SOL    HW227219   2.391   2.726   2.628
 8774SOL     OW27220   1.390   0.855   1.212
 8774SOL    HW127221   1.394   0.922   1.286
 8774SOL    HW227222   1.323   0.884   1.144
 8775SOL     OW27223   6.461   6.971   3.687
 8775SOL    HW127224   6.505   6.985   3.599
 8775SOL    HW227225   6.458   6.873   3.707
 8776SOL     OW27226   3.428   2.924   4.893
 8776SOL    HW127227   3.485   2.890   4.818
 8776SOL    HW227228   3.385   3.010   4.866
 8777SOL     OW27229   6.519   6.192   1.877
 8777SOL    HW127230   6.559   6.111   1.836
 8777SOL    HW227231   6.517   6.182   1.977
 8778SOL     OW27232   0.375   2.297   3.763
 8778SOL    HW127233   0.341   2.241   3.687
 8778SOL    HW227234   0.348   2.256   3.850
 8779SOL     OW27235   0.822   5.068   0.572
 8779SOL    HW127236   0.910   5.028   0.598
 8779SOL    HW227237   0.793   5.133   0.642
 8780SOL     OW27238   1.280   5.556   4.478
 8780SOL    HW127239   1.377   5.562   4.501
 8780SOL    HW227240   1.268   5.575   4.380
 8781SOL     OW27241   0.655   2.042   2.431
 8781SOL    HW127242   0.617   1.987   2.506
 8781SOL    HW227243   0.602   2.127   2.422
 8782SOL     OW27244   4.548   1.037   3.189
 8782SOL    HW127245   4.624   1.082   3.236
 8782SOL    HW227246   4.565   1.038   3.090
 8783SOL     OW27247   5.770   3.480   4.759
 8783SOL    HW127248   5.802   3.389   4.734
 8783SOL    HW227249   5.673   3.489   4.738
 8784SOL     OW27250   5.271   5.025   5.394
 8784SOL    HW127251   5.197   5.049   5.457
 8784SOL    HW227252   5.301   5.107   5.345
 8785SOL     OW27253   6.225   4.842   6.403
 8785SOL    HW127254   6.236   4.743   6.394
 8785SOL    HW227255   6.172   4.877   6.326
 8786SOL     OW27256   1.872   6.530   0.234
 8786SOL    HW127257   1.836   6.437   0.244
 8786SOL    HW227258   1.800   6.590   0.201
 8787SOL     OW27259   1.515   3.829   0.903
 8787SOL    HW127260   1.535   3.891   0.827
 8787SOL    HW227261   1.578   3.847   0.979
 8788SOL     OW27262   1.117   1.437   5.592
 8788SOL    HW127263   1.020   1.463   5.586
 8788SOL    HW227264   1.149   1.406   5.503
 8789SOL     OW27265   6.762   0.559   6.242
 8789SOL    HW127266   6.796   0.474   6.281
 8789SOL    HW227267   6.685   0.539   6.181
 8790SOL     OW27268   5.840   1.800   0.058
 8790SOL    HW127269   5.755   1.751   0.080
 8790SOL    HW227270   5.818   1.885   0.011
 8791SOL     OW27271   4.940   6.595   5.478
 8791SOL    HW127272   4.858   6.622   5.427
 8791SOL    HW227273   4.915   6.528   5.548
 8792SOL     OW27274   5.051   0.125   2.960
 8792SOL    HW127275   5.054   0.135   2.861
 8792SOL    HW227276   4.998   0.200   3.000
 8793SOL     OW27277   1.111   5.861   3.967
 8793SOL    HW127278   1.182   5.907   3.914
 8793SOL    HW227279   1.150   5.781   4.013
 8794SOL     OW27280   1.996   0.026   2.628
 8794SOL    HW127281   1.978   6.949   2.605
 8794SOL    HW227282   1.927   0.059   2.692
 8795SOL     OW27283   1.983   6.123   5.582
 8795SOL    HW127284   1.896   6.171   5.588
 8795SOL    HW227285   1.982   6.061   5.503
 8796SOL     OW27286   4.887   2.701   5.487
 8796SOL    HW127287   4.788   2.718   5.488
 8796SOL    HW227288   4.907   2.619   5.540
 8797SOL     OW27289   0.183   6.965   6.877
 8797SOL    HW127290   0.206   7.008   6.965
 8797SOL    HW227291   0.087   6.983   6.855
 8798SOL     OW27292   4.667   3.700   5.518
 8798SOL    HW127293   4.599   3.688   5.446
 8798SOL    HW227294   4.755   3.664   5.486
 8799SOL     OW27295   3.102   5.276   2.976
 8799SOL    HW127296   3.056   5.258   2.889
 8799SOL    HW227297   3.039   5.327   3.036
 8800SOL     OW27298   4.471   4.728   6.786
 8800SOL    HW127299   4.437   4.660   6.850
 8800SOL    HW227300   4.398   4.793   6.765
 8801SOL     OW27301   2.561   1.156   4.718
 8801SOL    HW127302   2.597   1.215   4.646
 8801SOL    HW227303   2.480   1.199   4.758
 8802SOL     OW27304   3.090   6.150   2.539
 8802SOL    HW127305   3.152   6.200   2.600
 8802SOL    HW227306   3.030   6.092   2.593
 8803SOL     OW27307   3.492   5.900   0.353
 8803SOL    HW127308   3.460   5.824   0.296
 8803SOL    HW227309   3.426   5.916   0.427
 8804SOL     OW27310   4.828   0.450   0.865
 8804SOL    HW127311   4.728   0.451   0.870
 8804SOL    HW227312   4.856   0.473   0.772
 8805SOL     OW27313   0.428   0.482   3.091
 8805SOL    HW127314   0.432   0.525   3.181
 8805SOL    HW227315   0.360   0.529   3.035
 8806SOL     OW27316   1.747   4.790   6.815
 8806SOL    HW127317   1.845   4.793   6.797
 8806SOL    HW227318   1.710   4.703   6.783
 8807SOL     OW27319   1.276   6.084   6.060
 8807SOL    HW127320   1.255   6.103   5.964
 8807SOL    HW227321   1.191   6.074   6.112
 8808SOL     OW27322   5.394   1.538   1.120
 8808SOL    HW127323   5.314   1.491   1.157
 8808SOL    HW227324   5.463   1.471   1.094
 8809SOL     OW27325   6.059   4.081   1.546
 8809SOL    HW127326   5.987   4.020   1.580
 8809SOL    HW227327   6.063   4.162   1.604
 8810SOL     OW27328   3.755   1.408   4.515
 8810SOL    HW127329   3.764   1.373   4.422
 8810SOL    HW227330   3.707   1.496   4.514
 8811SOL     OW27331   1.191   1.145   2.818
 8811SOL    HW127332   1.245   1.096   2.886
 8811SOL    HW227333   1.109   1.183   2.861
 8812SOL     OW27334   2.111   0.722   1.039
 8812SOL    HW127335   2.097   0.651   0.970
 8812SOL    HW227336   2.024   0.767   1.059
 8813SOL     OW27337   2.164   6.155   1.650
 8813SOL    HW127338   2.105   6.119   1.578
 8813SOL    HW227339   2.109   6.209   1.714
 8814SOL     OW27340   6.101   0.983   6.175
 8814SOL    HW127341   6.132   0.892   6.148
 8814SOL    HW227342   6.168   1.025   6.236
 8815SOL     OW27343   0.207   6.322   2.768
 8815SOL    HW127344   0.275   6.394   2.752
 8815SOL    HW227345   0.195   6.268   2.685
 8816SOL     OW27346   1.262   5.666   1.681
 8816SOL    HW127347   1.204   5.709   1.612
 8816SOL    HW227348   1.335   5.729   1.706
 8817SOL     OW27349   1.243   4.981   5.277
 8817SOL    HW127350   1.154   4.974   5.231
 8817SOL    HW227351   1.230   5.017   5.369
 8818SOL     OW27352   0.329   5.682   4.058
 8818SOL    HW127353   0.279   5.676   4.144
 8818SOL    HW227354   0.276   5.637   3.986
 8819SOL     OW27355   4.625   6.493   4.406
 8819SOL    HW127356   4.708   6.512   4.458
 8819SOL    HW227357   4.591   6.402   4.430
 8820SOL     OW27358   1.604   2.125   3.822
 8820SOL    HW127359   1.597   2.221   3.850
 8820SOL    HW227360   1.632   2.069   3.900
 8821SOL     OW27361   2.229   0.888   6.434
 8821SOL    HW127362   2.319   0.898   6.475
 8821SOL    HW227363   2.239   0.878   6.335
 8822SOL     OW27364   0.546   2.114   3.320
 8822SOL    HW127365   0.517   2.032   3.271
 8822SOL    HW227366   0.466   2.160   3.358
 8823SOL     OW27367   1.857   5.775   1.565
 8823SOL    HW127368   1.828   5.871   1.568
 8823SOL    HW227369   1.784   5.719   1.524
 8824SOL     OW27370   3.477   3.937   0.826
 8824SOL    HW127371   3.430   3.859   0.866
 8824SOL    HW227372   3.543   3.905   0.758
 8825SOL     OW27373   0.876   1.549   2.191
 8825SOL    HW127374   0.827   1.509   2.268
 8825SOL    HW227375   0.855   1.647   2.186
 8826SOL     OW27376   5.133   1.863   6.548
 8826SOL    HW127377   5.127   1.949   6.497
 8826SOL    HW227378   5.189   1.876   6.630
 8827SOL     OW27379   1.255   1.808   3.340
 8827SOL    HW127380   1.167   1.761   3.332
 8827SOL    HW227381   1.329   1.741   3.331
 8828SOL     OW27382   2.949   0.062   2.763
 8828SOL    HW127383   3.020   0.094   2.700
 8828SOL    HW227384   2.929   6.984   2.745
 8829SOL     OW27385   0.069   2.193   0.479
 8829SOL    HW127386   0.145   2.129   0.465
 8829SOL    HW227387   7.017   2.149   0.534
 8830SOL     OW27388   0.493   2.148   0.839
 8830SOL    HW127389   0.435   2.158   0.920
 8830SOL    HW227390   0.456   2.204   0.765
 8831SOL     OW27391   6.777   0.641   2.907
 8831SOL    HW127392   6.786   0.662   3.005
 8831SOL    HW227393   6.698   0.688   2.870
 8832SOL     OW27394   6.373   0.944   2.397
 8832SOL    HW127395   6.359   0.845   2.387
 8832SOL    HW227396   6.464   0.961   2.434
 8833SOL     OW27397   2.150   4.449   3.555
 8833SOL    HW127398   2.130   4.440   3.653
 8833SOL    HW227399   2.173   4.544   3.535
 8834SOL     OW27400   5.740   4.008   5.145
 8834SOL    HW127401   5.707   3.915   5.163
 8834SOL    HW227402   5.838   4.005   5.124
 8835SOL     OW27403   6.896   0.102   6.363
 8835SOL    HW127404   6.996   0.102   6.354
 8835SOL    HW227405   6.865   0.192   6.390
 8836SOL     OW27406   4.672   1.220   0.336
 8836SOL    HW127407   4.600   1.176   0.284
 8836SOL    HW227408   4.652   1.214   0.434
 8837SOL     OW27409   6.961   1.188   2.028
 8837SOL    HW127410   7.011   1.126   2.089
 8837SOL    HW227411   7.004   1.278   2.030
 8838SOL     OW27412   2.409   5.437   3.955
 8838SOL    HW127413   2.426   5.462   4.050
 8838SOL    HW227414   2.438   5.343   3.940
 8839SOL     OW27415   6.451   0.143   3.861
 8839SOL    HW127416   6.433   0.061   3.805
 8839SOL    HW227417   6.538   0.132   3.909
 8840SOL     OW27418   5.369   2.578   2.327
 8840SOL    HW127419   5.275   2.549   2.344
 8840SOL    HW227420   5.428   2.498   2.319
 8841SOL     OW27421   1.553   1.646   4.985
 8841SOL    HW127422   1.461   1.686   4.982
 8841SOL    HW227423   1.561   1.586   5.065
 8842SOL     OW27424   2.207   3.125   1.412
 8842SOL    HW127425   2.138   3.188   1.448
 8842SOL    HW227426   2.273   3.104   1.484
 8843SOL     OW27427   0.741   3.015   5.354
 8843SOL    HW127428   0.818   2.981   5.407
 8843SOL    HW227429   0.656   3.002   5.405
 8844SOL     OW27430   6.978   1.446   6.450
 8844SOL    HW127431   0.059   1.443   6.445
 8844SOL    HW227432   6.948   1.402   6.535
 8845SOL     OW27433   5.455   4.503   7.002
 8845SOL    HW127434   5.470   4.523   6.905
 8845SOL    HW227435   5.407   4.579   0.027
 8846SOL     OW27436   1.720   4.713   3.864
 8846SOL    HW127437   1.790   4.710   3.792
 8846SOL    HW227438   1.764   4.706   3.953
 8847SOL     OW27439   3.025   0.841   2.652
 8847SOL    HW127440   2.999   0.907   2.722
 8847SOL    HW227441   3.103   0.875   2.601
 8848SOL     OW27442   1.485   0.458   3.052
 8848SOL    HW127443   1.511   0.504   2.967
 8848SOL    HW227444   1.503   0.518   3.129
 8849SOL     OW27445   3.151   6.718   1.226
 8849SOL    HW127446   3.093   6.785   1.272
 8849SOL    HW227447   3.148   6.631   1.276
 8850SOL     OW27448   3.472   2.829   6.614
 8850SOL    HW127449   3.524   2.897   6.666
 8850SOL    HW227450   3.483   2.739   6.656
 8851SOL     OW27451   1.151   3.084   3.198
 8851SOL    HW127452   1.143   3.022   3.276
 8851SOL    HW227453   1.061   3.099   3.158
 8852SOL     OW27454   0.787   1.729   6.004
 8852SOL    HW127455   0.762   1.734   5.907
 8852SOL    HW227456   0.791   1.633   6.031
 8853SOL     OW27457   4.297   0.460   0.635
 8853SOL    HW127458   4.296   0.507   0.546
 8853SOL    HW227459   4.346   0.517   0.702
 8854SOL     OW27460   1.269   2.963   4.926
 8854SOL    HW127461   1.276   2.951   5.025
 8854SOL    HW227462   1.248   3.058   4.905
 8855SOL     OW27463   5.526   5.391   1.192
 8855SOL    HW127464   5.562   5.344   1.273
 8855SOL    HW227465   5.576   5.476   1.178
 8856SOL     OW27466   0.059   5.923   5.308
 8856SOL    HW127467   0.072   6.008   5.257
 8856SOL    HW227468   0.126   5.918   5.382
 8857SOL     OW27469   6.448   1.642   5.801
 8857SOL    HW127470   6.350   1.659   5.790
 8857SOL    HW227471   6.473   1.651   5.897
 8858SOL     OW27472   6.829   5.252   4.258
 8858SOL    HW127473   6.840   5.348   4.286
 8858SOL    HW227474   6.918   5.213   4.234
 8859SOL     OW27475   0.991   0.007   3.908
 8859SOL    HW127476   0.920   6.988   3.967
 8859SOL    HW227477   0.950   0.075   3.847
 8860SOL     OW27478   0.426   3.219   2.073
 8860SOL    HW127479   0.327   3.227   2.060
 8860SOL    HW227480   0.452   3.262   2.160
 8861SOL     OW27481   4.487   2.707   1.467
 8861SOL    HW127482   4.539   2.770   1.524
 8861SOL    HW227483   4.419   2.757   1.413
 8862SOL     OW27484   4.624   4.615   4.722
 8862SOL    HW127485   4.716   4.636   4.691
 8862SOL    HW227486   4.616   4.517   4.741
 8863SOL     OW27487   2.215   4.046   3.333
 8863SOL    HW127488   2.235   4.072   3.427
 8863SOL    HW227489   2.232   3.948   3.322
 8864SOL     OW27490   6.044   1.851   4.956
 8864SOL    HW127491   6.061   1.759   4.992
 8864SOL    HW227492   6.112   1.915   4.993
 8865SOL     OW27493   2.295   1.687   6.502
 8865SOL    HW127494   2.246   1.643   6.576
 8865SOL    HW227495   2.233   1.745   6.450
 8866SOL     OW27496   5.862   6.298   1.951
 8866SOL    HW127497   5.796   6.365   1.985
 8866SOL    HW227498   5.880   6.316   1.854
 8867SOL     OW27499   6.031   4.326   2.846
 8867SOL    HW127500   6.077   4.245   2.811
 8867SOL    HW227501   6.077   4.408   2.813
 8868SOL     OW27502   6.962   3.191   3.626
 8868SOL    HW127503   0.040   3.174   3.605
 8868SOL    HW227504   6.934   3.131   3.702
 8869SOL     OW27505   3.479   0.019   3.016
 8869SOL    HW127506   3.506   0.061   2.930
 8869SOL    HW227507   3.498   0.082   3.092
 8870SOL     OW27508   1.341   0.810   3.664
 8870SOL    HW127509   1.347   0.900   3.707
 8870SOL    HW227510   1.422   0.756   3.688
 8871SOL     OW27511   0.251   0.894   2.968
 8871SOL    HW127512   0.237   0.984   2.928
 8871SOL    HW227513   0.338   0.856   2.936
 8872SOL     OW27514   0.126   5.191   4.527
 8872SOL    HW127515   0.059   5.219   4.596
 8872SOL    HW227516   0.192   5.128   4.568
 8873SOL     OW27517   2.195   1.215   2.687
 8873SOL    HW127518   2.116   1.260   2.728
 8873SOL    HW227519   2.185   1.212   2.588
 8874SOL     OW27520   3.501   6.486   0.768
 8874SOL    HW127521   3.485   6.489   0.669
 8874SOL    HW227522   3.592   6.521   0.787
 8875SOL     OW27523   6.668   3.171   3.906
 8875SOL    HW127524   6.756   3.125   3.893
 8875SOL    HW227525   6.684   3.268   3.925
 8876SOL     OW27526   3.746   0.736   6.345
 8876SOL    HW127527   3.796   0.822   6.344
 8876SOL    HW227528   3.725   0.708   6.251
 8877SOL     OW27529   1.507   4.343   1.207
 8877SOL    HW127530   1.408   4.357   1.212
 8877SOL    HW227531   1.554   4.421   1.250
 8878SOL     OW27532   5.270   3.861   0.848
 8878SOL    HW127533   5.174   3.884   0.858
 8878SOL    HW227534   5.294   3.859   0.751
 8879SOL     OW27535   5.791   4.938   2.999
 8879SOL    HW127536   5.751   5.005   2.936
 8879SOL    HW227537   5.767   4.846   2.969
 8880SOL     OW27538   4.119   0.978   4.439
 8880SOL    HW127539   4.071   0.907   4.491
 8880SOL    HW227540   4.112   1.065   4.488
 8881SOL     OW27541   4.085   4.977   4.405
 8881SOL    HW127542   4.120   4.885   4.420
 8881SOL    HW227543   3.985   4.974   4.402
 8882SOL     OW27544   4.601   0.186   0.672
 8882SOL    HW127545   4.588   0.260   0.738
 8882SOL    HW227546   4.679   0.129   0.700
 8883SOL     OW27547   6.612   6.278   4.858
 8883SOL    HW127548   6.606   6.179   4.858
 8883SOL    HW227549   6.574   6.314   4.773
 8884SOL     OW27550   5.334   3.390   5.192
 8884SOL    HW127551   5.258   3.385   5.128
 8884SOL    HW227552   5.385   3.304   5.189
 8885SOL     OW27553   6.322   5.985   0.679
 8885SOL    HW127554   6.314   5.886   0.676
 8885SOL    HW227555   6.294   6.018   0.769
 8886SOL     OW27556   4.298   5.938   6.096
 8886SOL    HW127557   4.310   6.023   6.147
 8886SOL    HW227558   4.367   5.932   6.025
 8887SOL     OW27559   4.687   0.829   1.523
 8887SOL    HW127560   4.611   0.777   1.483
 8887SOL    HW227561   4.658   0.924   1.537
 8888SOL     OW27562   2.555   2.023   2.949
 8888SOL    HW127563   2.474   2.043   3.003
 8888SOL    HW227564   2.628   1.989   3.009
 8889SOL     OW27565   0.608   6.069   6.640
 8889SOL    HW127566   0.534   6.083   6.574
 8889SOL    HW227567   0.693   6.052   6.591
 8890SOL     OW27568   0.223   6.516   0.275
 8890SOL    HW127569   0.295   6.449   0.258
 8890SOL    HW227570   0.175   6.491   0.359
 8891SOL     OW27571   6.133   3.698   6.792
 8891SOL    HW127572   6.179   3.787   6.788
 8891SOL    HW227573   6.053   3.704   6.851
 8892SOL     OW27574   3.406   4.993   4.024
 8892SOL    HW127575   3.474   4.966   4.091
 8892SOL    HW227576   3.314   4.970   4.057
 8893SOL     OW27577   1.091   5.080   4.544
 8893SOL    HW127578   1.099   5.179   4.553
 8893SOL    HW227579   1.180   5.037   4.559
 8894SOL     OW27580   4.838   1.850   0.433
 8894SOL    HW127581   4.905   1.777   0.426
 8894SOL    HW227582   4.746   1.812   0.430
 8895SOL     OW27583   6.996   3.865   0.676
 8895SOL    HW127584   0.054   3.812   0.713
 8895SOL    HW227585   0.013   3.937   0.616
 8896SOL     OW27586   0.306   2.677   4.997
 8896SOL    HW127587   0.234   2.744   5.016
 8896SOL    HW227588   0.267   2.601   4.945
 8897SOL     OW27589   2.174   3.807   3.769
 8897SOL    HW127590   2.182   3.907   3.763
 8897SOL    HW227591   2.081   3.779   3.745
 8898SOL     OW27592   4.672   4.359   2.732
 8898SOL    HW127593   4.715   4.269   2.741
 8898SOL    HW227594   4.635   4.388   2.820
 8899SOL     OW27595   1.045   3.553   4.729
 8899SOL    HW127596   1.001   3.487   4.789
 8899SOL    HW227597   0.998   3.555   4.641
 8900SOL     OW27598   4.815   2.554   3.966
 8900SOL    HW127599   4.745   2.615   3.928
 8900SOL    HW227600   4.888   2.541   3.899
 8901SOL     OW27601   1.556   3.451   4.729
 8901SOL    HW127602   1.470   3.432   4.681
 8901SOL    HW227603   1.544   3.531   4.788
 8902SOL     OW27604   0.368   4.769   0.508
 8902SOL    HW127605   0.294   4.835   0.518
 8902SOL    HW227606   0.347   4.687   0.560
 8903SOL     OW27607   1.434   6.739   5.341
 8903SOL    HW127608   1.340   6.740   5.306
 8903SOL    HW227609   1.497   6.713   5.268
 8904SOL     OW27610   0.210   0.651   3.077
 8904SOL    HW127611   0.137   0.641   3.145
 8904SOL    HW227612   0.206   0.743   3.038
 8905SOL     OW27613   1.572   3.779   2.428
 8905SOL    HW127614   1.521   3.758   2.345
 8905SOL    HW227615   1.538   3.723   2.503
 8906SOL     OW27616   6.383   0.191   0.522
 8906SOL    HW127617   6.351   0.210   0.429
 8906SOL    HW227618   6.460   0.250   0.544
 8907SOL     OW27619   2.918   3.194   5.041
 8907SOL    HW127620   2.844   3.185   4.974
 8907SOL    HW227621   2.887   3.158   5.129
 8908SOL     OW27622   1.267   5.097   0.271
 8908SOL    HW127623   1.218   5.034   0.211
 8908SOL    HW227624   1.203   5.161   0.313
 8909SOL     OW27625   2.584   6.541   0.579
 8909SOL    HW127626   2.558   6.633   0.610
 8909SOL    HW227627   2.505   6.496   0.539
 8910SOL     OW27628   2.544   0.841   3.752
 8910SOL    HW127629   2.544   0.801   3.661
 8910SOL    HW227630   2.490   0.925   3.752
 8911SOL     OW27631   4.461   2.160   3.879
 8911SOL    HW127632   4.550   2.122   3.903
 8911SOL    HW227633   4.418   2.102   3.810
 8912SOL     OW27634   3.792   3.546   4.486
 8912SOL    HW127635   3.778   3.490   4.567
 8912SOL    HW227636   3.829   3.635   4.513
 8913SOL     OW27637   5.334   6.763   6.486
 8913SOL    HW127638   5.332   6.682   6.545
 8913SOL    HW227639   5.374   6.839   6.536
 8914SOL     OW27640   4.278   5.357   6.530
 8914SOL    HW127641   4.376   5.375   6.536
 8914SOL    HW227642   4.230   5.441   6.503
 8915SOL     OW27643   1.185   1.634   3.862
 8915SOL    HW127644   1.217   1.546   3.896
 8915SOL    HW227645   1.221   1.650   3.771
 8916SOL     OW27646   4.336   1.377   0.310
 8916SOL    HW127647   4.418   1.353   0.258
 8916SOL    HW227648   4.256   1.336   0.267
 8917SOL     OW27649   5.600   1.802   0.378
 8917SOL    HW127650   5.691   1.767   0.400
 8917SOL    HW227651   5.542   1.799   0.460
 8918SOL     OW27652   0.920   3.710   2.622
 8918SOL    HW127653   0.918   3.770   2.702
 8918SOL    HW227654   0.959   3.621   2.648
 8919SOL     OW27655   6.187   3.632   1.371
 8919SOL    HW127656   6.134   3.547   1.376
 8919SOL    HW227657   6.230   3.650   1.459
 8920SOL     OW27658   6.467   1.826   6.874
 8920SOL    HW127659   6.435   1.894   6.808
 8920SOL    HW227660   6.567   1.819   6.870
 8921SOL     OW27661   1.976   2.788   2.011
 8921SOL    HW127662   2.043   2.857   2.036
 8921SOL    HW227663   2.010   2.734   1.934
 8922SOL     OW27664   3.578   6.850   3.387
 8922SOL    HW127665   3.616   6.871   3.477
 8922SOL    HW227666   3.609   6.760   3.357
 8923SOL     OW27667   1.821   2.454   4.717
 8923SOL    HW127668   1.838   2.391   4.642
 8923SOL    HW227669   1.785   2.404   4.796
 8924SOL     OW27670   5.426   5.502   5.085
 8924SOL    HW127671   5.393   5.434   5.021
 8924SOL    HW227672   5.349   5.555   5.121
 8925SOL     OW27673   1.327   6.693   3.157
 8925SOL    HW127674   1.335   6.667   3.061
 8925SOL    HW227675   1.269   6.627   3.205
 8926SOL     OW27676   5.638   2.625   6.384
 8926SOL    HW127677   5.731   2.622   6.348
 8926SOL    HW227678   5.629   2.701   6.448
 8927SOL     OW27679   0.978   1.138   5.977
 8927SOL    HW127680   0.954   1.076   5.901
 8927SOL    HW227681   1.002   1.227   5.940
 8928SOL     OW27682   1.683   6.714   5.074
 8928SOL    HW127683   1.671   6.647   5.001
 8928SOL    HW227684   1.761   6.688   5.130
 8929SOL     OW27685   6.982   2.971   4.713
 8929SOL    HW127686   6.907   2.905   4.713
 8929SOL    HW227687   6.946   3.062   4.734
 8930SOL     OW27688   1.799   4.314   3.375
 8930SOL    HW127689   1.752   4.229   3.402
 8930SOL    HW227690   1.758   4.348   3.291
 8931SOL     OW27691   4.177   2.236   1.577
 8931SOL    HW127692   4.118   2.271   1.649
 8931SOL    HW227693   4.240   2.308   1.547
 8932SOL     OW27694   0.248   3.012   3.559
 8932SOL    HW127695   0.278   3.106   3.542
 8932SOL    HW227696   0.325   2.950   3.551
 8933SOL     OW27697   3.515   1.786   5.455
 8933SOL    HW127698   3.433   1.744   5.417
 8933SOL    HW227699   3.573   1.716   5.495
 8934SOL     OW27700   3.412   5.912   3.211
 8934SOL    HW127701   3.329   5.925   3.155
 8934SOL    HW227702   3.474   5.989   3.196
 8935SOL     OW27703   0.295   4.474   1.320
 8935SOL    HW127704   0.332   4.476   1.413
 8935SOL    HW227705   0.344   4.541   1.263
 8936SOL     OW27706   2.167   2.715   0.462
 8936SOL    HW127707   2.136   2.699   0.556
 8936SOL    HW227708   2.206   2.807   0.455
 8937SOL     OW27709   0.768   5.860   5.333
 8937SOL    HW127710   0.862   5.881   5.306
 8937SOL    HW227711   0.752   5.890   5.427
 8938SOL     OW27712   6.002   5.572   1.226
 8938SOL    HW127713   6.023   5.617   1.313
 8938SOL    HW227714   6.004   5.473   1.239
 8939SOL     OW27715   5.103   2.057   4.422
 8939SOL    HW127716   5.076   2.081   4.329
 8939SOL    HW227717   5.044   2.106   4.487
 8940SOL     OW27718   5.750   0.704   3.022
 8940SOL    HW127719   5.826   0.760   3.055
 8940SOL    HW227720   5.766   0.608   3.046
 8941SOL     OW27721   5.295   2.312   6.025
 8941SOL    HW127722   5.365   2.383   6.038
 8941SOL    HW227723   5.269   2.309   5.929
 8942SOL     OW27724   0.754   2.328   5.459
 8942SOL    HW127725   0.687   2.398   5.484
 8942SOL    HW227726   0.842   2.371   5.441
 8943SOL     OW27727   5.208   4.132   1.170
 8943SOL    HW127728   5.281   4.125   1.102
 8943SOL    HW227729   5.124   4.164   1.126
 8944SOL     OW27730   4.587   5.601   0.674
 8944SOL    HW127731   4.506   5.569   0.724
 8944SOL    HW227732   4.577   5.580   0.577
 8945SOL     OW27733   2.363   1.148   4.331
 8945SOL    HW127734   2.382   1.086   4.255
 8945SOL    HW227735   2.345   1.240   4.296
 8946SOL     OW27736   3.324   1.884   4.388
 8946SOL    HW127737   3.368   1.800   4.354
 8946SOL    HW227738   3.226   1.879   4.371
 8947SOL     OW27739   4.358   4.170   5.287
 8947SOL    HW127740   4.324   4.244   5.228
 8947SOL    HW227741   4.282   4.117   5.322
 8948SOL     OW27742   6.210   5.420   3.076
 8948SOL    HW127743   6.186   5.435   3.172
 8948SOL    HW227744   6.135   5.372   3.030
 8949SOL     OW27745   2.168   5.971   7.013
 8949SOL    HW127746   2.250   5.956   0.050
 8949SOL    HW227747   2.189   6.033   6.938
 8950SOL     OW27748   4.807   2.721   4.426
 8950SOL    HW127749   4.827   2.714   4.328
 8950SOL    HW227750   4.806   2.817   4.453
 8951SOL     OW27751   1.960   2.287   5.499
 8951SOL    HW127752   1.911   2.241   5.424
 8951SOL    HW227753   1.980   2.220   5.571
 8952SOL     OW27754   0.118   1.001   2.162
 8952SOL    HW127755   0.048   1.000   2.234
 8952SOL    HW227756   0.204   0.966   2.200
 8953SOL     OW27757   1.262   3.150   0.020
 8953SOL    HW127758   1.321   3.151   0.101
 8953SOL    HW227759   1.237   3.244   7.015
 8954SOL     OW27760   2.025   6.130   6.306
 8954SOL    HW127761   1.952   6.063   6.317
 8954SOL    HW227762   2.113   6.082   6.295
 8955SOL     OW27763   6.482   4.040   3.544
 8955SOL    HW127764   6.454   4.112   3.481
 8955SOL    HW227765   6.404   4.014   3.601
 8956SOL     OW27766   1.340   0.781   6.061
 8956SOL    HW127767   1.430   0.786   6.019
 8956SOL    HW227768   1.277   0.841   6.012
 8957SOL     OW27769   3.008   5.015   2.419
 8957SOL    HW127770   2.951   4.936   2.442
 8957SOL    HW227771   2.979   5.053   2.331
 8958SOL     OW27772   1.786   6.532   4.210
 8958SOL    HW127773   1.770   6.448   4.160
 8958SOL    HW227774   1.884   6.550   4.216
 8959SOL     OW27775   1.735   4.599   0.330
 8959SOL    HW127776   1.699   4.595   0.424
 8959SOL    HW227777   1.750   4.506   0.297
 8960SOL     OW27778   3.700   5.479   1.070
 8960SOL    HW127779   3.670   5.395   1.024
 8960SOL    HW227780   3.619   5.532   1.096
 8961SOL     OW27781   1.051   1.926   3.512
 8961SOL    HW127782   1.113   1.973   3.449
 8961SOL    HW227783   1.059   1.827   3.498
 8962SOL     OW27784   5.806   0.364   3.406
 8962SOL    HW127785   5.819   0.268   3.383
 8962SOL    HW227786   5.839   0.381   3.499
 8963SOL     OW27787   6.171   1.049   4.102
 8963SOL    HW127788   6.271   1.049   4.096
 8963SOL    HW227789   6.142   0.974   4.161
 8964SOL     OW27790   5.389   4.854   2.755
 8964SOL    HW127791   5.347   4.934   2.711
 8964SOL    HW227792   5.484   4.845   2.723
 8965SOL     OW27793   1.379   5.155   2.047
 8965SOL    HW127794   1.444   5.231   2.048
 8965SOL    HW227795   1.380   5.111   1.957
 8966SOL     OW27796   2.342   2.792   5.674
 8966SOL    HW127797   2.255   2.743   5.670
 8966SOL    HW227798   2.382   2.781   5.765
 8967SOL     OW27799   4.500   0.256   0.035
 8967SOL    HW127800   4.526   0.221   0.125
 8967SOL    HW227801   4.411   0.218   0.010
 8968SOL     OW27802   4.731   5.533   1.640
 8968SOL    HW127803   4.822   5.571   1.647
 8968SOL    HW227804   4.667   5.586   1.696
 8969SOL     OW27805   6.430   0.945   4.145
 8969SOL    HW127806   6.515   0.973   4.100
 8969SOL    HW227807   6.436   0.967   4.243
 8970SOL     OW27808   3.533   1.787   1.730
 8970SOL    HW127809   3.503   1.816   1.638
 8970SOL    HW227810   3.524   1.864   1.793
 8971SOL     OW27811   4.026   5.416   2.241
 8971SOL    HW127812   4.050   5.329   2.285
 8971SOL    HW227813   4.016   5.403   2.143
 8972SOL     OW27814   5.498   0.156   5.026
 8972SOL    HW127815   5.408   0.166   5.070
 8972SOL    HW227816   5.546   0.244   5.028
 8973SOL     OW27817   1.503   5.129   0.175
 8973SOL    HW127818   1.547   5.084   0.097
 8973SOL    HW227819   1.418   5.082   0.196
 8974SOL     OW27820   0.672   3.508   4.985
 8974SOL    HW127821   0.740   3.437   4.973
 8974SOL    HW227822   0.706   3.594   4.947
 8975SOL     OW27823   2.903   6.899   0.618
 8975SOL    HW127824   2.866   6.841   0.546
 8975SOL    HW227825   2.922   6.843   0.699
 8976SOL     OW27826   1.499   5.375   4.224
 8976SOL    HW127827   1.553   5.346   4.303
 8976SOL    HW227828   1.411   5.327   4.224
 8977SOL     OW27829   6.437   1.392   6.088
 8977SOL    HW127830   6.492   1.343   6.156
 8977SOL    HW227831   6.495   1.423   6.014
 8978SOL     OW27832   5.850   6.913   0.257
 8978SOL    HW127833   5.758   6.946   0.275
 8978SOL    HW227834   5.865   6.827   0.306
 8979SOL     OW27835   1.899   3.973   4.924
 8979SOL    HW127836   1.965   3.985   4.997
 8979SOL    HW227837   1.901   4.053   4.863
 8980SOL     OW27838   3.697   2.897   4.326
 8980SOL    HW127839   3.680   2.811   4.374
 8980SOL    HW227840   3.736   2.964   4.390
 8981SOL     OW27841   3.775   1.569   5.202
 8981SOL    HW127842   3.680   1.546   5.226
 8981SOL    HW227843   3.799   1.657   5.242
 8982SOL     OW27844   2.581   4.391   0.657
 8982SOL    HW127845   2.572   4.439   0.744
 8982SOL    HW227846   2.508   4.323   0.648
 8983SOL     OW27847   4.586   5.597   0.410
 8983SOL    HW127848   4.570   5.684   0.363
 8983SOL    HW227849   4.682   5.571   0.397
 8984SOL     OW27850   1.778   5.709   3.316
 8984SOL    HW127851   1.862   5.743   3.359
 8984SOL    HW227852   1.699   5.760   3.350
 8985SOL     OW27853   3.980   3.160   6.464
 8985SOL    HW127854   4.055   3.134   6.525
 8985SOL    HW227855   3.968   3.090   6.394
 8986SOL     OW27856   3.902   5.064   2.838
 8986SOL    HW127857   3.881   5.118   2.756
 8986SOL    HW227858   3.817   5.038   2.884
 8987SOL     OW27859   5.606   6.441   1.984
 8987SOL    HW127860   5.601   6.387   2.069
 8987SOL    HW227861   5.527   6.418   1.926
 8988SOL     OW27862   0.670   5.237   4.453
 8988SOL    HW127863   0.689   5.139   4.457
 8988SOL    HW227864   0.590   5.253   4.395
 8989SOL     OW27865   3.937   2.953   6.298
 8989SOL    HW127866   3.995   2.883   6.255
 8989SOL    HW227867   3.849   2.912   6.322
 8990SOL     OW27868   6.874   5.459   3.433
 8990SOL    HW127869   6.820   5.397   3.375
 8990SOL    HW227870   6.869   5.430   3.528
 8991SOL     OW27871   1.412   2.292   5.257
 8991SOL    HW127872   1.489   2.349   5.284
 8991SOL    HW227873   1.446   2.204   5.223
 8992SOL     OW27874   6.047   2.127   6.725
 8992SOL    HW127875   6.127   2.172   6.765
 8992SOL    HW227876   5.988   2.196   6.682
 8993SOL     OW27877   4.879   2.571   6.553
 8993SOL    HW127878   4.871   2.524   6.465
 8993SOL    HW227879   4.975   2.584   6.576
 8994SOL     OW27880   1.813   5.070   4.365
 8994SOL    HW127881   1.832   5.109   4.455
 8994SOL    HW227882   1.716   5.046   4.359
 8995SOL     OW27883   6.948   1.667   1.287
 8995SOL    HW127884   7.017   1.603   1.320
 8995SOL    HW227885   6.880   1.682   1.359
 8996SOL     OW27886   4.945   4.764   5.982
 8996SOL    HW127887   4.846   4.756   5.966
 8996SOL    HW227888   4.994   4.722   5.906
 8997SOL     OW27889   4.941   1.292   4.898
 8997SOL    HW127890   5.037   1.267   4.889
 8997SOL    HW227891   4.887   1.245   4.828
 8998SOL     OW27892   6.090   3.962   4.356
 8998SOL    HW127893   6.096   4.046   4.302
 8998SOL    HW227894   6.028   3.898   4.312
 8999SOL     OW27895   4.794   6.736   5.941
 8999SOL    HW127896   4.780   6.702   6.033
 8999SOL    HW227897   4.734   6.815   5.925
 9000SOL     OW27898   1.792   4.043   1.558
 9000SOL    HW127899   1.874   3.988   1.544
 9000SOL    HW227900   1.784   4.109   1.483
 9001SOL     OW27901   0.761   4.778   2.066
 9001SOL    HW127902   0.714   4.822   2.143
 9001SOL    HW227903   0.732   4.683   2.060
 9002SOL     OW27904   1.291   4.615   6.220
 9002SOL    HW127905   1.191   4.624   6.214
 9002SOL    HW227906   1.328   4.696   6.266
 9003SOL     OW27907   5.806   1.382   1.607
 9003SOL    HW127908   5.807   1.317   1.683
 9003SOL    HW227909   5.713   1.417   1.594
 9004SOL     OW27910   4.076   4.534   0.589
 9004SOL    HW127911   4.156   4.512   0.533
 9004SOL    HW227912   4.096   4.615   0.644
 9005SOL     OW27913   5.665   1.032   5.342
 9005SOL    HW127914   5.658   1.003   5.247
 9005SOL    HW227915   5.756   1.007   5.377
 9006SOL     OW27916   3.760   6.830   0.920
 9006SOL    HW127917   3.663   6.819   0.942
 9006SOL    HW227918   3.769   6.886   0.838
 9007SOL     OW27919   2.769   1.247   2.777
 9007SOL    HW127920   2.786   1.339   2.742
 9007SOL    HW227921   2.761   1.251   2.877
 9008SOL     OW27922   0.419   5.656   2.837
 9008SOL    HW127923   0.505   5.622   2.875
 9008SOL    HW227924   0.342   5.612   2.884
 9009SOL     OW27925   4.150   5.663   0.139
 9009SOL    HW127926   4.180   5.696   0.228
 9009SOL    HW227927   4.208   5.586   0.110
 9010SOL     OW27928   1.693   6.767   4.045
 9010SOL    HW127929   1.644   6.728   3.967
 9010SOL    HW227930   1.718   6.694   4.108
 9011SOL     OW27931   4.170   0.700   2.921
 9011SOL    HW127932   4.255   0.697   2.974
 9011SOL    HW227933   4.178   0.771   2.851
 9012SOL     OW27934   1.924   5.841   6.990
 9012SOL    HW127935   1.875   5.880   6.911
 9012SOL    HW227936   2.009   5.890   7.004
 9013SOL     OW27937   1.800   6.301   4.068
 9013SOL    HW127938   1.897   6.304   4.093
 9013SOL    HW227939   1.759   6.217   4.106
 9014SOL     OW27940   5.978   2.188   2.397
 9014SOL    HW127941   6.037   2.215   2.473
 9014SOL    HW227942   6.018   2.109   2.351
 9015SOL     OW27943   5.629   1.825   0.725
 9015SOL    HW127944   5.710   1.879   0.750
 9015SOL    HW227945   5.546   1.879   0.741
 9016SOL     OW27946   5.694   5.422   6.043
 9016SOL    HW127947   5.621   5.407   6.108
 9016SOL    HW227948   5.667   5.492   5.977
 9017SOL     OW27949   3.351   0.396   5.017
 9017SOL    HW127950   3.362   0.303   5.053
 9017SOL    HW227951   3.313   0.392   4.925
 9018SOL     OW27952   4.242   3.088   6.530
 9018SOL    HW127953   4.261   3.050   6.439
 9018SOL    HW227954   4.287   3.177   6.538
 9019SOL     OW27955   0.464   2.621   3.372
 9019SOL    HW127956   0.365   2.628   3.363
 9019SOL    HW227957   0.487   2.611   3.469
 9020SOL     OW27958   6.057   6.095   1.926
 9020SOL    HW127959   5.987   6.165   1.941
 9020SOL    HW227960   6.060   6.034   2.005
 9021SOL     OW27961   6.863   0.731   3.855
 9021SOL    HW127962   6.957   0.696   3.850
 9021SOL    HW227963   6.841   0.752   3.950
 9022SOL     OW27964   4.244   2.668   6.427
 9022SOL    HW127965   4.313   2.617   6.479
 9022SOL    HW227966   4.168   2.692   6.488
 9023SOL     OW27967   4.750   3.562   0.780
 9023SOL    HW127968   4.659   3.526   0.762
 9023SOL    HW227969   4.761   3.650   0.733
 9024SOL     OW27970   1.667   5.147   6.285
 9024SOL    HW127971   1.594   5.139   6.217
 9024SOL    HW227972   1.754   5.161   6.239
 9025SOL     OW27973   0.506   5.793   0.800
 9025SOL    HW127974   0.450   5.853   0.742
 9025SOL    HW227975   0.452   5.764   0.879
 9026SOL     OW27976   3.902   1.904   0.206
 9026SOL    HW127977   3.909   1.808   0.179
 9026SOL    HW227978   3.975   1.926   0.271
 9027SOL     OW27979   0.420   3.749   3.619
 9027SOL    HW127980   0.371   3.833   3.597
 9027SOL    HW227981   0.423   3.690   3.538
 9028SOL     OW27982   3.547   4.079   5.742
 9028SOL    HW127983   3.510   3.994   5.704
 9028SOL    HW227984   3.587   4.134   5.669
 9029SOL     OW27985   4.041   6.748   4.729
 9029SOL    HW127986   3.982   6.827   4.708
 9029SOL    HW227987   4.129   6.781   4.764
 9030SOL     OW27988   2.449   1.870   3.511
 9030SOL    HW127989   2.538   1.908   3.485
 9030SOL    HW227990   2.462   1.783   3.557
 9031SOL     OW27991   4.583   0.323   4.450
 9031SOL    HW127992   4.582   0.224   4.439
 9031SOL    HW227993   4.596   0.367   4.360
 9032SOL     OW27994   4.517   3.561   1.651
 9032SOL    HW127995   4.504   3.659   1.634
 9032SOL    HW227996   4.610   3.545   1.685
 9033SOL     OW27997   1.409   5.684   3.358
 9033SOL    HW127998   1.331   5.660   3.300
 9033SOL    HW227999   1.405   5.630   3.442
 9034SOL     OW28000   3.251   6.278   4.601
 9034SOL    HW128001   3.187   6.354   4.587
 9034SOL    HW228002   3.213   6.195   4.562
 9035SOL     OW28003   1.523   5.090   0.779
 9035SOL    HW128004   1.596   5.158   0.768
 9035SOL    HW228005   1.438   5.135   0.805
 9036SOL     OW28006   1.292   3.603   5.770
 9036SOL    HW128007   1.374   3.604   5.713
 9036SOL    HW228008   1.239   3.521   5.751
 9037SOL     OW28009   0.707   2.052   3.036
 9037SOL    HW128010   0.737   1.994   3.112
 9037SOL    HW228011   0.700   2.147   3.067
 9038SOL     OW28012   4.081   2.930   6.068
 9038SOL    HW128013   4.123   2.869   6.001
 9038SOL    HW228014   4.152   2.970   6.127
 9039SOL     OW28015   3.328   5.387   0.147
 9039SOL    HW128016   3.397   5.334   0.097
 9039SOL    HW228017   3.240   5.340   0.140
 9040SOL     OW28018   1.912   2.092   1.016
 9040SOL    HW128019   2.005   2.097   1.054
 9040SOL    HW228020   1.850   2.146   1.073
 9041SOL     OW28021   0.105   2.427   0.837
 9041SOL    HW128022   0.044   2.372   0.780
 9041SOL    HW228023   0.093   2.524   0.815
 9042SOL     OW28024   3.796   5.924   6.309
 9042SOL    HW128025   3.843   5.854   6.256
 9042SOL    HW228026   3.861   5.997   6.332
 9043SOL     OW28027   2.748   1.137   0.281
 9043SOL    HW128028   2.706   1.068   0.339
 9043SOL    HW228029   2.738   1.111   0.185
 9044SOL     OW28030   0.641   0.433   6.444
 9044SOL    HW128031   0.555   0.382   6.454
 9044SOL    HW228032   0.641   0.481   6.357
 9045SOL     OW28033   4.437   0.101   2.933
 9045SOL    HW128034   4.361   0.052   2.888
 9045SOL    HW228035   4.399   0.170   2.994
 9046SOL     OW28036   3.081   3.981   2.853
 9046SOL    HW128037   2.997   4.013   2.897
 9046SOL    HW228038   3.065   3.966   2.756
 9047SOL     OW28039   1.201   4.261   5.940
 9047SOL    HW128040   1.231   4.176   5.897
 9047SOL    HW228041   1.177   4.243   6.035
 9048SOL     OW28042   6.400   1.953   5.917
 9048SOL    HW128043   6.320   1.966   5.975
 9048SOL    HW228044   6.372   1.915   5.829
 9049SOL     OW28045   3.301   6.518   6.257
 9049SOL    HW128046   3.359   6.457   6.203
 9049SOL    HW228047   3.254   6.582   6.197
 9050SOL     OW28048   0.595   4.717   1.509
 9050SOL    HW128049   0.503   4.748   1.534
 9050SOL    HW228050   0.645   4.691   1.591
 9051SOL     OW28051   2.237   2.369   0.795
 9051SOL    HW128052   2.164   2.382   0.728
 9051SOL    HW228053   2.305   2.306   0.758
 9052SOL     OW28054   1.541   3.111   4.841
 9052SOL    HW128055   1.446   3.143   4.836
 9052SOL    HW228056   1.598   3.181   4.882
 9053SOL     OW28057   1.595   1.823   1.193
 9053SOL    HW128058   1.630   1.743   1.144
 9053SOL    HW228059   1.517   1.861   1.143
 9054SOL     OW28060   2.475   5.657   3.357
 9054SOL    HW128061   2.538   5.684   3.285
 9054SOL    HW228062   2.385   5.699   3.341
 9055SOL     OW28063   0.307   4.094   4.709
 9055SOL    HW128064   0.402   4.116   4.732
 9055SOL    HW228065   0.249   4.105   4.790
 9056SOL     OW28066   6.641   1.721   2.508
 9056SOL    HW128067   6.570   1.697   2.574
 9056SOL    HW228068   6.683   1.808   2.535
 9057SOL     OW28069   4.549   1.483   4.047
 9057SOL    HW128070   4.580   1.578   4.056
 9057SOL    HW228071   4.508   1.454   4.133
 9058SOL     OW28072   1.964   0.812   6.654
 9058SOL    HW128073   2.017   0.734   6.620
 9058SOL    HW228074   2.012   0.897   6.633
 9059SOL     OW28075   1.595   1.615   2.258
 9059SOL    HW128076   1.614   1.595   2.162
 9059SOL    HW228077   1.626   1.708   2.280
 9060SOL     OW28078   5.426   2.766   4.684
 9060SOL    HW128079   5.446   2.668   4.682
 9060SOL    HW228080   5.455   2.808   4.598
 9061SOL     OW28081   5.290   5.736   2.456
 9061SOL    HW128082   5.287   5.720   2.555
 9061SOL    HW228083   5.208   5.700   2.413
 9062SOL     OW28084   1.489   5.266   1.463
 9062SOL    HW128085   1.587   5.286   1.466
 9062SOL    HW228086   1.437   5.350   1.449
 9063SOL     OW28087   3.420   2.088   2.529
 9063SOL    HW128088   3.440   2.117   2.435
 9063SOL    HW228089   3.329   2.119   2.555
 9064SOL     OW28090   6.260   3.264   0.017
 9064SOL    HW128091   6.218   3.209   6.964
 9064SOL    HW228092   6.341   3.310   6.999
 9065SOL     OW28093   2.091   1.061   0.662
 9065SOL    HW128094   2.165   1.078   0.596
 9065SOL    HW228095   2.069   0.963   0.662
 9066SOL     OW28096   4.498   6.606   7.014
 9066SOL    HW128097   4.574   6.573   0.052
 9066SOL    HW228098   4.460   6.688   0.037
 9067SOL     OW28099   1.686   6.810   3.746
 9067SOL    HW128100   1.596   6.849   3.725
 9067SOL    HW228101   1.741   6.876   3.795
 9068SOL     OW28102   1.867   5.520   6.866
 9068SOL    HW128103   1.793   5.578   6.900
 9068SOL    HW228104   1.902   5.463   6.941
 9069SOL     OW28105   1.797   2.411   6.512
 9069SOL    HW128106   1.781   2.502   6.551
 9069SOL    HW228107   1.831   2.420   6.419
 9070SOL     OW28108   1.406   4.734   4.164
 9070SOL    HW128109   1.383   4.786   4.082
 9070SOL    HW228110   1.341   4.755   4.236
 9071SOL     OW28111   6.023   6.916   6.674
 9071SOL    HW128112   5.983   6.843   6.730
 9071SOL    HW228113   6.068   6.876   6.594
 9072SOL     OW28114   5.753   4.237   6.494
 9072SOL    HW128115   5.751   4.188   6.581
 9072SOL    HW228116   5.737   4.173   6.419
 9073SOL     OW28117   1.943   0.466   1.553
 9073SOL    HW128118   1.905   0.374   1.563
 9073SOL    HW228119   1.869   0.533   1.557
 9074SOL     OW28120   1.320   7.005   3.162
 9074SOL    HW128121   1.304   6.929   3.224
 9074SOL    HW228122   1.412   0.023   3.177
 9075SOL     OW28123   6.949   1.040   2.611
 9075SOL    HW128124   6.905   0.951   2.624
 9075SOL    HW228125   6.989   1.070   2.698
 9076SOL     OW28126   6.586   1.266   5.871
 9076SOL    HW128127   6.543   1.179   5.846
 9076SOL    HW228128   6.533   1.342   5.832
 9077SOL     OW28129   6.111   6.666   2.332
 9077SOL    HW128130   6.096   6.629   2.240
 9077SOL    HW228131   6.201   6.637   2.365
 9078SOL     OW28132   3.822   2.921   5.113
 9078SOL    HW128133   3.870   2.944   5.028
 9078SOL    HW228134   3.875   2.854   5.165
 9079SOL     OW28135   3.877   0.467   5.837
 9079SOL    HW128136   3.969   0.445   5.870
 9079SOL    HW228137   3.828   0.519   5.907
 9080SOL     OW28138   5.142   1.873   0.719
 9080SOL    HW128139   5.203   1.913   0.650
 9080SOL    HW228140   5.096   1.946   0.769
 9081SOL     OW28141   5.585   6.922   2.050
 9081SOL    HW128142   5.630   6.978   2.120
 9081SOL    HW228143   5.645   6.847   2.024
 9082SOL     OW28144   3.496   1.527   3.542
 9082SOL    HW128145   3.420   1.510   3.604
 9082SOL    HW228146   3.462   1.526   3.447
 9083SOL     OW28147   4.353   4.669   4.761
 9083SOL    HW128148   4.447   4.699   4.779
 9083SOL    HW228149   4.333   4.589   4.818
 9084SOL     OW28150   3.097   3.451   3.209
 9084SOL    HW128151   3.023   3.387   3.228
 9084SOL    HW228152   3.184   3.402   3.206
 9085SOL     OW28153   0.930   2.214   0.722
 9085SOL    HW128154   0.948   2.187   0.628
 9085SOL    HW228155   0.925   2.133   0.780
 9086SOL     OW28156   0.460   4.390   0.851
 9086SOL    HW128157   0.468   4.298   0.813
 9086SOL    HW228158   0.368   4.403   0.889
 9087SOL     OW28159   4.798   3.564   1.708
 9087SOL    HW128160   4.875   3.558   1.644
 9087SOL    HW228161   4.814   3.502   1.785
 9088SOL     OW28162   5.116   6.941   0.269
 9088SOL    HW128163   5.152   0.011   0.240
 9088SOL    HW228164   5.163   6.868   0.219
 9089SOL     OW28165   4.725   0.192   5.586
 9089SOL    HW128166   4.653   0.151   5.530
 9089SOL    HW228167   4.747   0.284   5.553
 9090SOL     OW28168   6.321   1.443   4.469
 9090SOL    HW128169   6.407   1.490   4.488
 9090SOL    HW228170   6.259   1.452   4.547
 9091SOL     OW28171   2.835   3.236   6.849
 9091SOL    HW128172   2.744   3.198   6.834
 9091SOL    HW228173   2.902   3.161   6.853
 9092SOL     OW28174   7.018   2.506   6.978
 9092SOL    HW128175   0.069   2.575   6.957
 9092SOL    HW228176   0.028   2.418   6.939
 9093SOL     OW28177   1.192   6.160   5.826
 9093SOL    HW128178   1.171   6.098   5.750
 9093SOL    HW228179   1.260   6.227   5.797
 9094SOL     OW28180   0.913   3.483   1.851
 9094SOL    HW128181   0.950   3.539   1.926
 9094SOL    HW228182   0.940   3.388   1.864
 9095SOL     OW28183   6.202   6.376   4.808
 9095SOL    HW128184   6.215   6.426   4.893
 9095SOL    HW228185   6.210   6.278   4.825
 9096SOL     OW28186   6.349   5.911   3.225
 9096SOL    HW128187   6.439   5.931   3.266
 9096SOL    HW228188   6.328   5.980   3.156
 9097SOL     OW28189   1.255   2.534   6.048
 9097SOL    HW128190   1.344   2.535   6.094
 9097SOL    HW228191   1.269   2.523   5.949
 9098SOL     OW28192   1.901   3.742   4.335
 9098SOL    HW128193   1.832   3.702   4.395
 9098SOL    HW228194   1.875   3.835   4.311
 9099SOL     OW28195   2.591   2.706   6.688
 9099SOL    HW128196   2.675   2.731   6.641
 9099SOL    HW228197   2.605   2.713   6.787
 9100SOL     OW28198   0.840   4.889   3.181
 9100SOL    HW128199   0.842   4.887   3.081
 9100SOL    HW228200   0.811   4.801   3.216
 9101SOL     OW28201   1.119   2.633   1.648
 9101SOL    HW128202   1.041   2.695   1.662
 9101SOL    HW228203   1.086   2.548   1.607
 9102SOL     OW28204   4.271   6.598   3.137
 9102SOL    HW128205   4.311   6.553   3.057
 9102SOL    HW228206   4.192   6.652   3.109
 9103SOL     OW28207   6.533   1.345   0.514
 9103SOL    HW128208   6.520   1.392   0.426
 9103SOL    HW228209   6.451   1.358   0.570
 9104SOL     OW28210   6.062   1.486   6.736
 9104SOL    HW128211   5.984   1.430   6.708
 9104SOL    HW228212   6.134   1.428   6.773
 9105SOL     OW28213   2.282   0.594   6.169
 9105SOL    HW128214   2.200   0.549   6.206
 9105SOL    HW228215   2.266   0.692   6.163
 9106SOL     OW28216   1.486   4.294   0.935
 9106SOL    HW128217   1.553   4.335   0.996
 9106SOL    HW228218   1.394   4.310   0.970
 9107SOL     OW28219   2.541   1.420   0.001
 9107SOL    HW128220   2.566   1.402   0.097
 9107SOL    HW228221   2.459   1.368   6.996
 9108SOL     OW28222   5.860   5.624   6.556
 9108SOL    HW128223   5.902   5.708   6.522
 9108SOL    HW228224   5.832   5.566   6.479
 9109SOL     OW28225   5.188   3.547   2.398
 9109SOL    HW128226   5.212   3.492   2.318
 9109SOL    HW228227   5.096   3.584   2.387
 9110SOL     OW28228   1.337   6.102   4.542
 9110SOL    HW128229   1.257   6.050   4.511
 9110SOL    HW228230   1.413   6.088   4.478
 9111SOL     OW28231   4.512   2.366   6.441
 9111SOL    HW128232   4.428   2.388   6.490
 9111SOL    HW228233   4.548   2.448   6.397
 9112SOL     OW28234   1.000   5.442   1.822
 9112SOL    HW128235   0.950   5.356   1.810
 9112SOL    HW228236   1.098   5.425   1.812
 9113SOL     OW28237   5.650   1.291   3.951
 9113SOL    HW128238   5.665   1.379   3.907
 9113SOL    HW228239   5.718   1.226   3.920
 9114SOL     OW28240   1.234   6.265   5.515
 9114SOL    HW128241   1.188   6.179   5.537
 9114SOL    HW228242   1.179   6.317   5.449
 9115SOL     OW28243   5.088   4.370   3.621
 9115SOL    HW128244   5.140   4.452   3.646
 9115SOL    HW228245   5.141   4.315   3.556
 9116SOL     OW28246   1.411   6.902   3.680
 9116SOL    HW128247   1.414   6.850   3.594
 9116SOL    HW228248   1.398   6.999   3.660
 9117SOL     OW28249   3.010   6.903   0.298
 9117SOL    HW128250   3.044   6.954   0.219
 9117SOL    HW228251   3.087   6.859   0.345
 9118SOL     OW28252   6.077   4.362   1.694
 9118SOL    HW128253   6.164   4.314   1.706
 9118SOL    HW228254   6.082   4.421   1.614
 9119SOL     OW28255   3.608   0.388   0.443
 9119SOL    HW128256   3.557   0.322   0.388
 9119SOL    HW228257   3.641   0.343   0.526
 9120SOL     OW28258   5.972   4.042   4.992
 9120SOL    HW128259   6.028   4.125   4.985
 9120SOL    HW228260   5.903   4.043   4.920
 9121SOL     OW28261   3.258   0.781   5.086
 9121SOL    HW128262   3.221   0.813   4.998
 9121SOL    HW228263   3.187   0.789   5.156
 9122SOL     OW28264   1.463   3.744   2.172
 9122SOL    HW128265   1.404   3.824   2.163
 9122SOL    HW228266   1.541   3.753   2.110
 9123SOL     OW28267   0.146   0.311   4.207
 9123SOL    HW128268   0.079   0.260   4.262
 9123SOL    HW228269   0.197   0.373   4.267
 9124SOL     OW28270   2.514   5.214   1.015
 9124SOL    HW128271   2.415   5.222   1.031
 9124SOL    HW228272   2.537   5.120   0.991
 9125SOL     OW28273   4.840   6.267   1.038
 9125SOL    HW128274   4.787   6.208   0.978
 9125SOL    HW228275   4.903   6.322   0.983
 9126SOL     OW28276   3.847   4.425   0.477
 9126SOL    HW128277   3.929   4.473   0.508
 9126SOL    HW228278   3.770   4.488   0.475
 9127SOL     OW28279   0.037   4.659   4.191
 9127SOL    HW128280   6.997   4.579   4.206
 9127SOL    HW228281   6.997   4.740   4.178
 9128SOL     OW28282   5.541   4.204   6.004
 9128SOL    HW128283   5.525   4.226   5.908
 9128SOL    HW228284   5.522   4.106   6.019
 9129SOL     OW28285   1.028   3.074   0.926
 9129SOL    HW128286   1.097   3.010   0.962
 9129SOL    HW228287   0.942   3.061   0.975
 9130SOL     OW28288   2.944   3.979   4.963
 9130SOL    HW128289   2.929   4.022   5.052
 9130SOL    HW228290   2.884   4.021   4.895
 9131SOL     OW28291   4.620   2.615   0.452
 9131SOL    HW128292   4.704   2.634   0.400
 9131SOL    HW228293   4.644   2.593   0.547
 9132SOL     OW28294   6.980   3.907   3.738
 9132SOL    HW128295   6.923   3.841   3.786
 9132SOL    HW228296   6.993   3.878   3.643
 9133SOL     OW28297   4.795   0.819   0.782
 9133SOL    HW128298   4.758   0.809   0.875
 9133SOL    HW228299   4.763   0.744   0.725
 9134SOL     OW28300   4.759   4.904   0.816
 9134SOL    HW128301   4.809   4.888   0.901
 9134SOL    HW228302   4.688   4.834   0.804
 9135SOL     OW28303   6.486   6.607   2.249
 9135SOL    HW128304   6.441   6.616   2.338
 9135SOL    HW228305   6.481   6.694   2.200
 9136SOL     OW28306   6.383   4.740   0.121
 9136SOL    HW128307   6.406   4.821   0.067
 9136SOL    HW228308   6.352   4.768   0.211
 9137SOL     OW28309   5.298   6.424   5.787
 9137SOL    HW128310   5.261   6.338   5.751
 9137SOL    HW228311   5.372   6.403   5.851
 9138SOL     OW28312   2.842   3.326   0.301
 9138SOL    HW128313   2.826   3.232   0.273
 9138SOL    HW228314   2.814   3.339   0.396
 9139SOL     OW28315   6.587   0.055   0.755
 9139SOL    HW128316   6.489   0.064   0.771
 9139SOL    HW228317   6.635   0.134   0.793
 9140SOL     OW28318   1.341   3.629   3.542
 9140SOL    HW128319   1.318   3.536   3.572
 9140SOL    HW228320   1.348   3.689   3.621
 9141SOL     OW28321   6.729   5.758   4.826
 9141SOL    HW128322   6.787   5.680   4.805
 9141SOL    HW228323   6.650   5.758   4.764
 9142SOL     OW28324   1.533   4.186   4.719
 9142SOL    HW128325   1.434   4.187   4.707
 9142SOL    HW228326   1.576   4.237   4.645
 9143SOL     OW28327   6.579   4.208   2.694
 9143SOL    HW128328   6.506   4.225   2.761
 9143SOL    HW228329   6.641   4.139   2.731
 9144SOL     OW28330   2.577   4.820   5.259
 9144SOL    HW128331   2.595   4.850   5.353
 9144SOL    HW228332   2.623   4.732   5.243
 9145SOL     OW28333   1.567   6.001   5.788
 9145SOL    HW128334   1.481   6.002   5.839
 9145SOL    HW228335   1.641   5.970   5.847
 9146SOL     OW28336   5.418   2.655   3.252
 9146SOL    HW128337   5.401   2.636   3.156
 9146SOL    HW228338   5.407   2.753   3.270
 9147SOL     OW28339   4.013   0.145   5.128
 9147SOL    HW128340   4.073   0.223   5.108
 9147SOL    HW228341   3.928   0.154   5.077
 9148SOL     OW28342   5.622   5.811   1.637
 9148SOL    HW128343   5.545   5.839   1.695
 9148SOL    HW228344   5.662   5.728   1.674
 9149SOL     OW28345   0.353   4.161   1.249
 9149SOL    HW128346   0.263   4.204   1.256
 9149SOL    HW228347   0.364   4.095   1.323
 9150SOL     OW28348   2.434   3.028   7.000
 9150SOL    HW128349   2.432   3.032   6.901
 9150SOL    HW228350   2.443   2.933   0.012
 9151SOL     OW28351   1.340   3.394   3.699
 9151SOL    HW128352   1.319   3.311   3.648
 9151SOL    HW228353   1.401   3.372   3.775
 9152SOL     OW28354   1.778   3.980   1.987
 9152SOL    HW128355   1.771   3.889   1.946
 9152SOL    HW228356   1.844   3.978   2.062
 9153SOL     OW28357   0.558   3.109   5.956
 9153SOL    HW128358   0.540   3.197   5.912
 9153SOL    HW228359   0.533   3.034   5.894
 9154SOL     OW28360   5.681   5.351   2.972
 9154SOL    HW128361   5.662   5.264   2.925
 9154SOL    HW228362   5.608   5.370   3.037
 9155SOL     OW28363   1.332   6.605   2.896
 9155SOL    HW128364   1.333   6.511   2.861
 9155SOL    HW228365   1.314   6.668   2.820
 9156SOL     OW28366   6.699   3.872   6.257
 9156SOL    HW128367   6.606   3.907   6.256
 9156SOL    HW228368   6.746   3.906   6.339
 9157SOL     OW28369   1.567   4.625   6.331
 9157SOL    HW128370   1.527   4.591   6.246
 9157SOL    HW228371   1.526   4.713   6.354
 9158SOL     OW28372   6.606   4.214   4.859
 9158SOL    HW128373   6.569   4.133   4.813
 9158SOL    HW228374   6.677   4.186   4.924
 9159SOL     OW28375   2.816   1.470   4.262
 9159SOL    HW128376   2.791   1.389   4.209
 9159SOL    HW228377   2.855   1.441   4.350
 9160SOL     OW28378   0.992   4.149   1.700
 9160SOL    HW128379   0.930   4.209   1.749
 9160SOL    HW228380   0.942   4.069   1.666
 9161SOL     OW28381   6.691   4.043   2.381
 9161SOL    HW128382   6.654   3.950   2.383
 9161SOL    HW228383   6.616   4.108   2.387
 9162SOL     OW28384   4.385   2.086   1.782
 9162SOL    HW128385   4.318   2.111   1.852
 9162SOL    HW228386   4.356   2.001   1.738
 9163SOL     OW28387   2.170   2.131   3.014
 9163SOL    HW128388   2.142   2.227   3.008
 9163SOL    HW228389   2.166   2.090   2.923
 9164SOL     OW28390   2.688   6.163   6.552
 9164SOL    HW128391   2.743   6.194   6.474
 9164SOL    HW228392   2.744   6.165   6.635
 9165SOL     OW28393   6.019   1.727   5.878
 9165SOL    HW128394   6.063   1.773   5.955
 9165SOL    HW228395   5.920   1.723   5.894
 9166SOL     OW28396   4.935   6.170   1.493
 9166SOL    HW128397   5.021   6.140   1.451
 9166SOL    HW228398   4.878   6.215   1.424
 9167SOL     OW28399   1.857   1.412   4.921
 9167SOL    HW128400   1.901   1.328   4.888
 9167SOL    HW228401   1.765   1.418   4.883
 9168SOL     OW28402   6.340   6.161   4.926
 9168SOL    HW128403   6.401   6.111   4.988
 9168SOL    HW228404   6.267   6.100   4.895
 9169SOL     OW28405   6.829   6.283   1.939
 9169SOL    HW128406   6.840   6.212   1.870
 9169SOL    HW228407   6.740   6.326   1.929
 9170SOL     OW28408   1.530   0.830   6.500
 9170SOL    HW128409   1.588   0.847   6.420
 9170SOL    HW228410   1.511   0.916   6.546
 9171SOL     OW28411   3.738   5.231   6.416
 9171SOL    HW128412   3.686   5.276   6.489
 9171SOL    HW228413   3.815   5.182   6.456
 9172SOL     OW28414   4.621   1.864   4.752
 9172SOL    HW128415   4.525   1.893   4.742
 9172SOL    HW228416   4.626   1.783   4.810
 9173SOL     OW28417   5.605   3.761   5.179
 9173SOL    HW128418   5.510   3.738   5.201
 9173SOL    HW228419   5.620   3.753   5.080
 9174SOL     OW28420   6.792   4.993   0.914
 9174SOL    HW128421   6.869   4.939   0.949
 9174SOL    HW228422   6.786   4.981   0.815
 9175SOL     OW28423   2.032   6.755   0.252
 9175SOL    HW128424   2.003   6.660   0.261
 9175SOL    HW228425   2.129   6.762   0.273
 9176SOL     OW28426   1.796   1.842   2.094
 9176SOL    HW128427   1.874   1.901   2.075
 9176SOL    HW228428   1.713   1.885   2.057
 9177SOL     OW28429   0.328   5.536   3.689
 9177SOL    HW128430   0.241   5.513   3.646
 9177SOL    HW228431   0.324   5.516   3.787
 9178SOL     OW28432   1.474   4.828   1.405
 9178SOL    HW128433   1.442   4.765   1.476
 9178SOL    HW228434   1.407   4.901   1.393
 9179SOL     OW28435   3.207   5.237   3.919
 9179SOL    HW128436   3.202   5.330   3.955
 9179SOL    HW228437   3.301   5.216   3.895
 9180SOL     OW28438   0.294   1.529   5.254
 9180SOL    HW128439   0.309   1.456   5.188
 9180SOL    HW228440   0.199   1.525   5.287
 9181SOL     OW28441   2.374   2.320   3.416
 9181SOL    HW128442   2.334   2.235   3.450
 9181SOL    HW228443   2.460   2.338   3.464
 9182SOL     OW28444   0.610   1.822   2.634
 9182SOL    HW128445   0.661   1.901   2.668
 9182SOL    HW228446   0.672   1.760   2.587
 9183SOL     OW28447   1.704   1.700   6.151
 9183SOL    HW128448   1.741   1.651   6.230
 9183SOL    HW228449   1.611   1.669   6.133
 9184SOL     OW28450   3.916   3.765   0.670
 9184SOL    HW128451   4.002   3.791   0.714
 9184SOL    HW228452   3.935   3.719   0.583
 9185SOL     OW28453   1.746   0.798   6.304
 9185SOL    HW128454   1.803   0.873   6.338
 9185SOL    HW228455   1.788   0.759   6.222
 9186SOL     OW28456   5.119   1.193   6.528
 9186SOL    HW128457   5.155   1.273   6.574
 9186SOL    HW228458   5.045   1.220   6.466
 9187SOL     OW28459   5.388   2.525   0.418
 9187SOL    HW128460   5.413   2.573   0.502
 9187SOL    HW228461   5.383   2.427   0.436
 9188SOL     OW28462   1.542   0.246   1.993
 9188SOL    HW128463   1.493   0.321   2.039
 9188SOL    HW228464   1.597   0.284   1.918
 9189SOL     OW28465   4.619   1.204   5.940
 9189SOL    HW128466   4.576   1.175   5.854
 9189SOL    HW228467   4.696   1.143   5.961
 9190SOL     OW28468   5.597   1.816   5.472
 9190SOL    HW128469   5.501   1.817   5.496
 9190SOL    HW228470   5.608   1.848   5.378
 9191SOL     OW28471   5.527   0.303   0.906
 9191SOL    HW128472   5.617   0.260   0.900
 9191SOL    HW228473   5.530   0.378   0.971
 9192SOL     OW28474   4.884   3.831   4.115
 9192SOL    HW128475   4.880   3.930   4.102
 9192SOL    HW228476   4.799   3.789   4.083
 9193SOL     OW28477   3.362   2.965   3.154
 9193SOL    HW128478   3.431   2.949   3.084
 9193SOL    HW228479   3.282   2.908   3.134
 9194SOL     OW28480   4.082   5.742   2.916
 9194SOL    HW128481   4.010   5.798   2.872
 9194SOL    HW228482   4.068   5.646   2.892
 9195SOL     OW28483   6.904   2.725   2.748
 9195SOL    HW128484   6.955   2.690   2.669
 9195SOL    HW228485   6.806   2.717   2.730
 9196SOL     OW28486   5.134   6.787   3.803
 9196SOL    HW128487   5.091   6.859   3.749
 9196SOL    HW228488   5.159   6.823   3.893
 9197SOL     OW28489   4.111   2.445   5.949
 9197SOL    HW128490   4.013   2.447   5.931
 9197SOL    HW228491   4.138   2.351   5.971
 9198SOL     OW28492   6.001   2.080   5.500
 9198SOL    HW128493   5.946   2.161   5.518
 9198SOL    HW228494   5.948   1.998   5.521
 9199SOL     OW28495   2.049   3.176   6.237
 9199SOL    HW128496   2.011   3.146   6.325
 9199SOL    HW228497   1.998   3.135   6.162
 9200SOL     OW28498   5.631   6.470   1.100
 9200SOL    HW128499   5.630   6.393   1.164
 9200SOL    HW228500   5.693   6.450   1.025
 9201SOL     OW28501   1.383   3.939   2.896
 9201SOL    HW128502   1.463   3.981   2.854
 9201SOL    HW228503   1.335   4.007   2.952
 9202SOL     OW28504   3.272   5.502   3.982
 9202SOL    HW128505   3.370   5.503   4.003
 9202SOL    HW228506   3.223   5.563   4.044
 9203SOL     OW28507   4.435   0.782   6.083
 9203SOL    HW128508   4.445   0.882   6.087
 9203SOL    HW228509   4.363   0.754   6.146
 9204SOL     OW28510   5.255   4.531   2.351
 9204SOL    HW128511   5.173   4.575   2.315
 9204SOL    HW228512   5.232   4.477   2.432
 9205SOL     OW28513   4.977   3.209   2.099
 9205SOL    HW128514   4.991   3.233   2.195
 9205SOL    HW228515   4.891   3.159   2.088
 9206SOL     OW28516   1.139   6.366   3.098
 9206SOL    HW128517   1.226   6.404   3.129
 9206SOL    HW228518   1.078   6.440   3.071
 9207SOL     OW28519   4.209   6.049   6.703
 9207SOL    HW128520   4.222   6.125   6.767
 9207SOL    HW228521   4.178   6.084   6.615
 9208SOL     OW28522   4.676   4.165   1.779
 9208SOL    HW128523   4.585   4.165   1.820
 9208SOL    HW228524   4.738   4.218   1.837
 9209SOL     OW28525   3.892   6.939   3.152
 9209SOL    HW128526   3.800   6.937   3.191
 9209SOL    HW228527   3.957   6.971   3.222
 9210SOL     OW28528   1.013   6.479   0.329
 9210SOL    HW128529   1.008   6.426   0.413
 9210SOL    HW228530   1.099   6.459   0.281
 9211SOL     OW28531   5.118   1.260   6.055
 9211SOL    HW128532   5.137   1.319   6.133
 9211SOL    HW228533   5.204   1.234   6.011
 9212SOL     OW28534   5.372   3.651   5.254
 9212SOL    HW128535   5.347   3.555   5.244
 9212SOL    HW228536   5.309   3.696   5.317
 9213SOL     OW28537   6.524   6.764   2.658
 9213SOL    HW128538   6.542   6.814   2.743
 9213SOL    HW228539   6.547   6.821   2.580
 9214SOL     OW28540   2.397   2.140   5.431
 9214SOL    HW128541   2.467   2.210   5.418
 9214SOL    HW228542   2.312   2.183   5.462
 9215SOL     OW28543   6.919   2.774   3.018
 9215SOL    HW128544   6.924   2.742   2.924
 9215SOL    HW228545   6.956   2.704   3.080
 9216SOL     OW28546   2.789   5.860   3.712
 9216SOL    HW128547   2.805   5.859   3.614
 9216SOL    HW228548   2.853   5.798   3.757
 9217SOL     OW28549   3.643   1.319   6.611
 9217SOL    HW128550   3.689   1.404   6.637
 9217SOL    HW228551   3.662   1.299   6.515
 9218SOL     OW28552   5.427   5.482   6.237
 9218SOL    HW128553   5.365   5.524   6.171
 9218SOL    HW228554   5.482   5.554   6.281
 9219SOL     OW28555   3.259   2.178   5.618
 9219SOL    HW128556   3.256   2.273   5.650
 9219SOL    HW228557   3.246   2.175   5.519
 9220SOL     OW28558   0.565   6.844   3.289
 9220SOL    HW128559   0.470   6.875   3.300
 9220SOL    HW228560   0.626   6.923   3.297
 9221SOL     OW28561   2.317   1.765   0.178
 9221SOL    HW128562   2.343   1.861   0.189
 9221SOL    HW228563   2.277   1.751   0.088
 9222SOL     OW28564   1.478   3.149   4.328
 9222SOL    HW128565   1.442   3.055   4.321
 9222SOL    HW228566   1.508   3.180   4.238
 9223SOL     OW28567   0.586   3.006   5.075
 9223SOL    HW128568   0.499   3.006   5.123
 9223SOL    HW228569   0.660   2.986   5.140
 9224SOL     OW28570   2.627   4.608   3.352
 9224SOL    HW128571   2.586   4.517   3.349
 9224SOL    HW228572   2.710   4.609   3.295
 9225SOL     OW28573   5.729   5.738   6.136
 9225SOL    HW128574   5.822   5.702   6.148
 9225SOL    HW228575   5.667   5.689   6.198
 9226SOL     OW28576   1.006   0.605   0.471
 9226SOL    HW128577   1.033   0.514   0.502
 9226SOL    HW228578   0.945   0.596   0.392
 9227SOL     OW28579   3.061   3.989   0.490
 9227SOL    HW128580   3.110   4.006   0.404
 9227SOL    HW228581   2.992   4.060   0.504
 9228SOL     OW28582   3.492   3.514   5.050
 9228SOL    HW128583   3.519   3.515   4.954
 9228SOL    HW228584   3.569   3.543   5.106
 9229SOL     OW28585   6.799   5.115   0.404
 9229SOL    HW128586   6.898   5.124   0.410
 9229SOL    HW228587   6.776   5.038   0.344
 9230SOL     OW28588   3.945   1.360   5.410
 9230SOL    HW128589   4.044   1.375   5.417
 9230SOL    HW228590   3.909   1.415   5.334
 9231SOL     OW28591   6.801   5.935   2.529
 9231SOL    HW128592   6.893   5.903   2.505
 9231SOL    HW228593   6.803   6.034   2.543
 9232SOL     OW28594   1.003   4.859   2.432
 9232SOL    HW128595   1.067   4.824   2.364
 9232SOL    HW228596   1.010   4.959   2.437
 9233SOL     OW28597   1.073   6.460   6.015
 9233SOL    HW128598   1.149   6.425   6.070
 9233SOL    HW228599   1.010   6.511   6.075
 9234SOL     OW28600   2.643   3.406   6.679
 9234SOL    HW128601   2.568   3.468   6.657
 9234SOL    HW228602   2.704   3.450   6.745
 9235SOL     OW28603   1.904   1.842   3.166
 9235SOL    HW128604   1.835   1.879   3.228
 9235SOL    HW228605   1.994   1.844   3.210
 9236SOL     OW28606   1.637   3.125   6.225
 9236SOL    HW128607   1.672   3.217   6.245
 9236SOL    HW228608   1.595   3.087   6.307
 9237SOL     OW28609   5.956   5.352   2.975
 9237SOL    HW128610   5.861   5.360   3.005
 9237SOL    HW228611   5.958   5.322   2.879
 9238SOL     OW28612   1.714   3.062   4.602
 9238SOL    HW128613   1.674   3.015   4.523
 9238SOL    HW228614   1.648   3.066   4.677
 9239SOL     OW28615   1.241   4.600   6.844
 9239SOL    HW128616   1.197   4.624   6.931
 9239SOL    HW228617   1.340   4.614   6.852
 9240SOL     OW28618   4.450   1.674   3.411
 9240SOL    HW128619   4.512   1.736   3.363
 9240SOL    HW228620   4.498   1.632   3.488
 9241SOL     OW28621   5.504   0.255   0.640
 9241SOL    HW128622   5.413   0.216   0.631
 9241SOL    HW228623   5.513   0.298   0.731
 9242SOL     OW28624   1.936   2.487   0.205
 9242SOL    HW128625   2.029   2.467   0.236
 9242SOL    HW228626   1.876   2.500   0.285
 9243SOL     OW28627   1.614   0.161   6.909
 9243SOL    HW128628   1.694   0.194   6.960
 9243SOL    HW228629   1.639   0.144   6.814
 9244SOL     OW28630   3.950   6.727   6.133
 9244SOL    HW128631   4.013   6.656   6.163
 9244SOL    HW228632   3.862   6.687   6.110
 9245SOL     OW28633   1.229   4.510   2.828
 9245SOL    HW128634   1.173   4.569   2.770
 9245SOL    HW228635   1.215   4.534   2.924
 9246SOL     OW28636   5.054   0.019   6.802
 9246SOL    HW128637   4.955   0.005   6.804
 9246SOL    HW228638   5.080   0.060   6.715
 9247SOL     OW28639   4.095   5.473   2.832
 9247SOL    HW128640   4.061   5.415   2.758
 9247SOL    HW228641   4.174   5.429   2.876
 9248SOL     OW28642   2.391   0.733   6.717
 9248SOL    HW128643   2.329   0.783   6.777
 9248SOL    HW228644   2.480   0.778   6.715
 9249SOL     OW28645   2.242   6.642   0.529
 9249SOL    HW128646   2.273   6.661   0.436
 9249SOL    HW228647   2.194   6.554   0.532
 9250SOL     OW28648   0.494   2.665   4.072
 9250SOL    HW128649   0.436   2.584   4.081
 9250SOL    HW228650   0.509   2.706   4.162
 9251SOL     OW28651   2.749   2.073   0.732
 9251SOL    HW128652   2.718   2.116   0.817
 9251SOL    HW228653   2.837   2.111   0.706
 9252SOL     OW28654   5.679   1.347   5.249
 9252SOL    HW128655   5.641   1.263   5.211
 9252SOL    HW228656   5.631   1.370   5.334
 9253SOL     OW28657   1.299   6.019   5.150
 9253SOL    HW128658   1.232   5.950   5.178
 9253SOL    HW228659   1.336   6.065   5.231
 9254SOL     OW28660   0.585   4.923   2.295
 9254SOL    HW128661   0.492   4.888   2.282
 9254SOL    HW228662   0.584   5.023   2.298
 9255SOL     OW28663   6.688   4.434   0.820
 9255SOL    HW128664   6.677   4.525   0.859
 9255SOL    HW228665   6.658   4.435   0.725
 9256SOL     OW28666   2.875   6.530   1.142
 9256SOL    HW128667   2.888   6.445   1.193
 9256SOL    HW228668   2.866   6.509   1.045
 9257SOL     OW28669   5.970   5.786   4.376
 9257SOL    HW128670   6.022   5.706   4.408
 9257SOL    HW228671   5.965   5.853   4.450
 9258SOL     OW28672   3.553   5.239   1.125
 9258SOL    HW128673   3.628   5.242   1.191
 9258SOL    HW228674   3.470   5.277   1.167
 9259SOL     OW28675   1.549   2.002   0.156
 9259SOL    HW128676   1.500   2.015   0.070
 9259SOL    HW228677   1.508   1.926   0.207
 9260SOL     OW28678   5.349   4.031   4.609
 9260SOL    HW128679   5.340   3.931   4.610
 9260SOL    HW228680   5.413   4.060   4.680
 9261SOL     OW28681   3.127   2.269   1.566
 9261SOL    HW128682   3.161   2.176   1.557
 9261SOL    HW228683   3.027   2.268   1.569
 9262SOL     OW28684   6.605   6.076   6.066
 9262SOL    HW128685   6.605   6.175   6.075
 9262SOL    HW228686   6.625   6.034   6.155
 9263SOL     OW28687   1.898   4.544   3.208
 9263SOL    HW128688   1.898   4.448   3.181
 9263SOL    HW228689   1.993   4.577   3.214
 9264SOL     OW28690   5.403   4.160   6.387
 9264SOL    HW128691   5.381   4.221   6.463
 9264SOL    HW228692   5.351   4.188   6.306
 9265SOL     OW28693   5.942   1.607   1.698
 9265SOL    HW128694   5.881   1.536   1.661
 9265SOL    HW228695   6.037   1.581   1.680
 9266SOL     OW28696   1.225   4.292   1.363
 9266SOL    HW128697   1.214   4.257   1.456
 9266SOL    HW228698   1.161   4.245   1.302
 9267SOL     OW28699   6.664   0.475   4.316
 9267SOL    HW128700   6.656   0.570   4.284
 9267SOL    HW228701   6.624   0.414   4.248
 9268SOL     OW28702   0.423   6.935   1.194
 9268SOL    HW128703   0.471   6.918   1.108
 9268SOL    HW228704   0.334   6.978   1.174
 9269SOL     OW28705   3.132   0.921   0.435
 9269SOL    HW128706   3.210   0.899   0.494
 9269SOL    HW228707   3.108   0.840   0.381
 9270SOL     OW28708   2.560   0.434   6.779
 9270SOL    HW128709   2.594   0.343   6.755
 9270SOL    HW228710   2.629   0.482   6.833
 9271SOL     OW28711   1.492   5.676   5.098
 9271SOL    HW128712   1.458   5.770   5.099
 9271SOL    HW228713   1.431   5.619   5.044
 9272SOL     OW28714   7.008   6.559   6.154
 9272SOL    HW128715   6.999   6.464   6.182
 9272SOL    HW228716   0.063   6.567   6.086
 9273SOL     OW28717   5.221   4.190   3.449
 9273SOL    HW128718   5.183   4.122   3.386
 9273SOL    HW228719   5.285   4.145   3.511
 9274SOL     OW28720   0.615   3.203   0.505
 9274SOL    HW128721   0.620   3.162   0.596
 9274SOL    HW228722   0.690   3.268   0.493
 9275SOL     OW28723   5.883   0.862   0.594
 9275SOL    HW128724   5.935   0.896   0.671
 9275SOL    HW228725   5.910   0.911   0.511
 9276SOL     OW28726   2.662   5.112   0.086
 9276SOL    HW128727   2.650   5.175   0.162
 9276SOL    HW228728   2.591   5.128   0.018
 9277SOL     OW28729   5.207   5.187   2.250
 9277SOL    HW128730   5.164   5.234   2.327
 9277SOL    HW228731   5.217   5.090   2.270
 9278SOL     OW28732   0.956   0.033   5.229
 9278SOL    HW128733   0.918   0.032   5.136
 9278SOL    HW228734   0.890   0.076   5.291
 9279SOL     OW28735   3.289   5.493   1.696
 9279SOL    HW128736   3.283   5.539   1.607
 9279SOL    HW228737   3.248   5.551   1.766
 9280SOL     OW28738   2.024   6.502   2.822
 9280SOL    HW128739   1.980   6.543   2.902
 9280SOL    HW228740   2.016   6.402   2.828
 9281SOL     OW28741   2.106   5.821   0.766
 9281SOL    HW128742   2.060   5.754   0.709
 9281SOL    HW228743   2.135   5.778   0.852
 9282SOL     OW28744   3.224   6.861   4.925
 9282SOL    HW128745   3.324   6.858   4.928
 9282SOL    HW228746   3.193   6.956   4.928
 9283SOL     OW28747   4.316   6.464   1.203
 9283SOL    HW128748   4.352   6.548   1.243
 9283SOL    HW228749   4.306   6.394   1.274
 9284SOL     OW28750   4.582   4.349   5.720
 9284SOL    HW128751   4.522   4.356   5.640
 9284SOL    HW228752   4.550   4.275   5.779
 9285SOL     OW28753   0.415   5.068   2.959
 9285SOL    HW128754   0.397   5.156   3.003
 9285SOL    HW228755   0.329   5.027   2.929
 9286SOL     OW28756   4.153   0.203   1.590
 9286SOL    HW128757   4.093   0.169   1.662
 9286SOL    HW228758   4.098   0.231   1.511
 9287SOL     OW28759   3.979   4.006   5.787
 9287SOL    HW128760   4.014   3.943   5.857
 9287SOL    HW228761   3.925   3.955   5.720
 9288SOL     OW28762   3.449   1.485   2.342
 9288SOL    HW128763   3.361   1.484   2.389
 9288SOL    HW228764   3.434   1.475   2.244
 9289SOL     OW28765   4.954   6.799   0.415
 9289SOL    HW128766   5.006   6.713   0.416
 9289SOL    HW228767   4.990   6.858   0.343
 9290SOL     OW28768   5.243   1.384   4.398
 9290SOL    HW128769   5.197   1.466   4.365
 9290SOL    HW228770   5.177   1.327   4.448
 9291SOL     OW28771   0.959   4.042   6.340
 9291SOL    HW128772   0.937   4.116   6.403
 9291SOL    HW228773   0.979   4.080   6.250
 9292SOL     OW28774   0.999   0.728   6.974
 9292SOL    HW128775   0.910   0.703   6.937
 9292SOL    HW228776   0.987   0.795   0.029
 9293SOL     OW28777   4.850   2.223   4.341
 9293SOL    HW128778   4.776   2.172   4.298
 9293SOL    HW228779   4.813   2.293   4.401
 9294SOL     OW28780   4.231   6.915   6.268
 9294SOL    HW128781   4.294   6.992   6.270
 9294SOL    HW228782   4.138   6.948   6.280
 9295SOL     OW28783   0.011   1.137   4.978
 9295SOL    HW128784   0.061   1.137   4.891
 9295SOL    HW228785   6.934   1.163   4.961
 9296SOL     OW28786   2.293   5.199   6.313
 9296SOL    HW128787   2.324   5.266   6.245
 9296SOL    HW228788   2.210   5.234   6.358
 9297SOL     OW28789   6.094   6.058   2.576
 9297SOL    HW128790   6.125   6.029   2.485
 9297SOL    HW228791   6.117   5.987   2.643
 9298SOL     OW28792   1.245   4.171   6.305
 9298SOL    HW128793   1.296   4.091   6.275
 9298SOL    HW228794   1.258   4.184   6.403
 9299SOL     OW28795   2.473   2.615   4.444
 9299SOL    HW128796   2.411   2.685   4.481
 9299SOL    HW228797   2.448   2.526   4.482
 9300SOL     OW28798   1.959   5.954   5.081
 9300SOL    HW128799   1.911   6.017   5.142
 9300SOL    HW228800   2.007   5.885   5.135
 9301SOL     OW28801   0.151   4.121   4.195
 9301SOL    HW128802   0.217   4.094   4.125
 9301SOL    HW228803   0.197   4.131   4.283
 9302SOL     OW28804   2.075   3.615   4.686
 9302SOL    HW128805   2.083   3.599   4.588
 9302SOL    HW228806   2.128   3.696   4.712
 9303SOL     OW28807   2.574   4.622   6.917
 9303SOL    HW128808   2.532   4.543   6.870
 9303SOL    HW228809   2.516   4.702   6.904
 9304SOL     OW28810   4.988   5.454   6.633
 9304SOL    HW128811   4.943   5.514   6.566
 9304SOL    HW228812   4.959   5.359   6.618
 9305SOL     OW28813   1.593   2.307   0.902
 9305SOL    HW128814   1.668   2.304   0.968
 9305SOL    HW228815   1.538   2.224   0.911
 9306SOL     OW28816   7.012   6.424   4.725
 9306SOL    HW128817   0.049   6.386   4.651
 9306SOL    HW228818   7.002   6.357   4.798
 9307SOL     OW28819   1.871   3.618   1.305
 9307SOL    HW128820   1.871   3.667   1.218
 9307SOL    HW228821   1.802   3.546   1.304
 9308SOL     OW28822   1.865   3.086   1.663
 9308SOL    HW128823   1.833   3.016   1.599
 9308SOL    HW228824   1.949   3.056   1.707
 9309SOL     OW28825   5.101   5.144   6.628
 9309SOL    HW128826   5.158   5.168   6.706
 9309SOL    HW228827   5.142   5.068   6.578
 9310SOL     OW28828   6.086   5.663   6.721
 9310SOL    HW128829   6.017   5.607   6.674
 9310SOL    HW228830   6.042   5.743   6.762
 9311SOL     OW28831   5.123   3.830   0.501
 9311SOL    HW128832   5.093   3.759   0.438
 9311SOL    HW228833   5.197   3.796   0.558
 9312SOL     OW28834   0.465   2.736   3.009
 9312SOL    HW128835   0.408   2.810   3.046
 9312SOL    HW228836   0.429   2.648   3.041
 9313SOL     OW28837   0.385   0.614   2.171
 9313SOL    HW128838   0.424   0.585   2.258
 9313SOL    HW228839   0.391   0.539   2.105
 9314SOL     OW28840   5.249   4.328   0.906
 9314SOL    HW128841   5.165   4.318   0.852
 9314SOL    HW228842   5.290   4.238   0.920
 9315SOL     OW28843   5.120   6.444   6.227
 9315SOL    HW128844   5.060   6.424   6.304
 9315SOL    HW228845   5.156   6.537   6.236
 9316SOL     OW28846   5.394   0.987   6.030
 9316SOL    HW128847   5.432   1.041   6.105
 9316SOL    HW228848   5.377   0.893   6.061
 9317SOL     OW28849   3.438   6.330   2.927
 9317SOL    HW128850   3.470   6.423   2.909
 9317SOL    HW228851   3.417   6.320   3.024
 9318SOL     OW28852   3.856   7.006   2.018
 9318SOL    HW128853   3.842   6.908   2.004
 9318SOL    HW228854   3.772   0.037   1.998
 9319SOL     OW28855   3.715   2.231   6.803
 9319SOL    HW128856   3.695   2.139   6.837
 9319SOL    HW228857   3.716   2.296   6.879
 9320SOL     OW28858   6.604   6.833   6.679
 9320SOL    HW128859   6.560   6.824   6.589
 9320SOL    HW228860   6.534   6.846   6.749
 9321SOL     OW28861   0.347   3.025   5.201
 9321SOL    HW128862   0.268   3.051   5.145
 9321SOL    HW228863   0.318   3.010   5.295
 9322SOL     OW28864   5.932   3.241   6.931
 9322SOL    HW128865   5.922   3.148   6.896
 9322SOL    HW228866   5.877   3.251   7.014
 9323SOL     OW28867   0.743   1.645   5.721
 9323SOL    HW128868   0.687   1.664   5.640
 9323SOL    HW228869   0.839   1.646   5.695
 9324SOL     OW28870   0.650   4.048   1.999
 9324SOL    HW128871   0.575   4.052   2.065
 9324SOL    HW228872   0.697   3.960   2.007
 9325SOL     OW28873   0.954   4.020   3.363
 9325SOL    HW128874   1.025   3.954   3.388
 9325SOL    HW228875   0.907   4.051   3.446
 9326SOL     OW28876   4.874   4.038   1.602
 9326SOL    HW128877   4.790   4.066   1.648
 9326SOL    HW228878   4.898   3.945   1.629
 9327SOL     OW28879   2.885   0.675   3.139
 9327SOL    HW128880   2.975   0.710   3.113
 9327SOL    HW228881   2.834   0.649   3.057
 9328SOL     OW28882   2.383   0.760   3.970
 9328SOL    HW128883   2.322   0.713   3.907
 9328SOL    HW228884   2.474   0.768   3.930
 9329SOL     OW28885   6.994   5.635   6.977
 9329SOL    HW128886   0.068   5.654   6.944
 9329SOL    HW228887   6.974   5.537   6.967
 9330SOL     OW28888   6.499   6.399   6.977
 9330SOL    HW128889   6.538   6.437   0.042
 9330SOL    HW228890   6.467   6.306   6.995
 9331SOL     OW28891   2.099   3.295   3.762
 9331SOL    HW128892   2.003   3.268   3.769
 9331SOL    HW228893   2.157   3.218   3.787
 9332SOL     OW28894   5.551   6.179   1.013
 9332SOL    HW128895   5.463   6.188   0.966
 9332SOL    HW228896   5.568   6.082   1.033
 9333SOL     OW28897   3.501   3.467   1.057
 9333SOL    HW128898   3.460   3.380   1.083
 9333SOL    HW228899   3.595   3.451   1.027
 9334SOL     OW28900   6.031   6.072   5.935
 9334SOL    HW128901   6.042   6.130   6.016
 9334SOL    HW228902   5.963   6.001   5.954
 9335SOL     OW28903   1.028   3.238   1.966
 9335SOL    HW128904   0.957   3.207   2.029
 9335SOL    HW228905   1.111   3.261   2.018
 9336SOL     OW28906   5.359   0.401   5.743
 9336SOL    HW128907   5.346   0.497   5.717
 9336SOL    HW228908   5.326   0.342   5.669
 9337SOL     OW28909   2.250   0.709   5.762
 9337SOL    HW128910   2.216   0.736   5.673
 9337SOL    HW228911   2.197   0.631   5.796
 9338SOL     OW28912   5.651   6.367   0.281
 9338SOL    HW128913   5.613   6.361   0.189
 9338SOL    HW228914   5.678   6.461   0.300
 9339SOL     OW28915   6.811   3.990   5.778
 9339SOL    HW128916   6.733   3.964   5.722
 9339SOL    HW228917   6.782   4.057   5.847
 9340SOL     OW28918   3.308   5.020   1.174
 9340SOL    HW128919   3.398   4.991   1.143
 9340SOL    HW228920   3.282   4.966   1.255
 9341SOL     OW28921   5.158   4.915   6.453
 9341SOL    HW128922   5.068   4.929   6.412
 9341SOL    HW228923   5.229   4.927   6.382
 9342SOL     OW28924   3.300   0.183   4.239
 9342SOL    HW128925   3.337   0.174   4.332
 9342SOL    HW228926   3.366   0.230   4.181
 9343SOL     OW28927   4.459   3.971   0.907
 9343SOL    HW128928   4.440   4.067   0.887
 9343SOL    HW228929   4.389   3.914   0.864
 9344SOL     OW28930   5.956   0.167   5.335
 9344SOL    HW128931   5.877   0.106   5.326
 9344SOL    HW228932   5.925   0.262   5.327
 9345SOL     OW28933   0.378   5.099   0.008
 9345SOL    HW128934   0.463   5.152   0.001
 9345SOL    HW228935   0.400   5.003   0.021
 9346SOL     OW28936   5.961   6.450   1.275
 9346SOL    HW128937   6.033   6.383   1.258
 9346SOL    HW228938   5.933   6.493   1.189
 9347SOL     OW28939   3.798   5.285   0.836
 9347SOL    HW128940   3.829   5.239   0.753
 9347SOL    HW228941   3.877   5.304   0.895
 9348SOL     OW28942   2.159   5.730   2.338
 9348SOL    HW128943   2.102   5.665   2.389
 9348SOL    HW228944   2.133   5.727   2.241
 9349SOL     OW28945   6.725   6.007   2.190
 9349SOL    HW128946   6.629   6.035   2.184
 9349SOL    HW228947   6.776   6.074   2.244
 9350SOL     OW28948   6.669   0.803   6.377
 9350SOL    HW128949   6.699   0.715   6.339
 9350SOL    HW228950   6.569   0.805   6.381
 9351SOL     OW28951   3.964   3.067   5.790
 9351SOL    HW128952   4.053   3.035   5.758
 9351SOL    HW228953   3.899   2.991   5.788
 9352SOL     OW28954   3.760   2.587   6.358
 9352SOL    HW128955   3.674   2.638   6.358
 9352SOL    HW228956   3.816   2.618   6.435
 9353SOL     OW28957   0.476   4.095   0.755
 9353SOL    HW128958   0.573   4.079   0.737
 9353SOL    HW228959   0.456   4.073   0.850
 9354SOL     OW28960   4.888   1.733   2.101
 9354SOL    HW128961   4.977   1.691   2.085
 9354SOL    HW228962   4.816   1.666   2.081
 9355SOL     OW28963   6.369   0.869   3.022
 9355SOL    HW128964   6.420   0.865   3.108
 9355SOL    HW228965   6.271   0.873   3.041
 9356SOL     OW28966   4.298   4.649   2.462
 9356SOL    HW128967   4.203   4.632   2.488
 9356SOL    HW228968   4.358   4.634   2.541
 9357SOL     OW28969   3.430   2.975   0.678
 9357SOL    HW128970   3.343   2.970   0.629
 9357SOL    HW228971   3.484   3.051   0.641
 9358SOL     OW28972   5.420   4.261   2.104
 9358SOL    HW128973   5.468   4.184   2.062
 9358SOL    HW228974   5.365   4.308   2.035
 9359SOL     OW28975   5.245   4.253   6.177
 9359SOL    HW128976   5.209   4.345   6.192
 9359SOL    HW228977   5.225   4.224   6.083
 9360SOL     OW28978   2.099   0.490   5.809
 9360SOL    HW128979   2.066   0.453   5.895
 9360SOL    HW228980   2.149   0.419   5.759
 9361SOL     OW28981   2.876   0.807   2.296
 9361SOL    HW128982   2.957   0.865   2.285
 9361SOL    HW228983   2.826   0.834   2.378
 9362SOL     OW28984   2.377   1.810   2.908
 9362SOL    HW128985   2.393   1.762   2.995
 9362SOL    HW228986   2.453   1.872   2.890
 9363SOL     OW28987   2.398   6.070   2.115
 9363SOL    HW128988   2.388   6.115   2.204
 9363SOL    HW228989   2.457   6.126   2.057
 9364SOL     OW28990   5.561   5.114   0.301
 9364SOL    HW128991   5.627   5.179   0.338
 9364SOL    HW228992   5.530   5.052   0.374
 9365SOL     OW28993   2.266   1.342   5.280
 9365SOL    HW128994   2.336   1.320   5.348
 9365SOL    HW228995   2.296   1.420   5.225
 9366SOL     OW28996   3.144   1.942   0.635
 9366SOL    HW128997   3.186   1.870   0.580
 9366SOL    HW228998   3.053   1.912   0.665
 9367SOL     OW28999   6.954   6.004   2.818
 9367SOL    HW129000   6.993   5.931   2.762
 9367SOL    HW229001   6.998   6.004   2.908
 9368SOL     OW29002   3.737   2.739   1.326
 9368SOL    HW129003   3.829   2.777   1.330
 9368SOL    HW229004   3.671   2.813   1.315
 9369SOL     OW29005   0.210   2.417   5.209
 9369SOL    HW129006   0.204   2.397   5.307
 9369SOL    HW229007   0.303   2.448   5.187
 9370SOL     OW29008   6.125   1.076   3.072
 9370SOL    HW129009   6.136   1.041   2.979
 9370SOL    HW229010   6.180   1.159   3.083
 9371SOL     OW29011   0.716   6.602   0.469
 9371SOL    HW129012   0.656   6.680   0.485
 9371SOL    HW229013   0.783   6.625   0.398
 9372SOL     OW29014   6.580   6.482   5.938
 9372SOL    HW129015   6.522   6.540   5.881
 9372SOL    HW229016   6.654   6.537   5.977
 9373SOL     OW29017   4.382   1.406   3.475
 9373SOL    HW129018   4.384   1.407   3.575
 9373SOL    HW229019   4.474   1.424   3.440
 9374SOL     OW29020   5.354   3.714   0.621
 9374SOL    HW129021   5.424   3.720   0.693
 9374SOL    HW229022   5.336   3.617   0.601
 9375SOL     OW29023   0.811   1.181   4.118
 9375SOL    HW129024   0.821   1.084   4.137
 9375SOL    HW229025   0.721   1.213   4.150
 9376SOL     OW29026   1.904   3.142   2.072
 9376SOL    HW129027   1.850   3.064   2.040
 9376SOL    HW229028   1.869   3.226   2.031
 9377SOL     OW29029   5.939   5.700   3.991
 9377SOL    HW129030   6.023   5.702   3.937
 9377SOL    HW229031   5.899   5.609   3.988
 9378SOL     OW29032   3.086   6.524   0.663
 9378SOL    HW129033   2.986   6.516   0.659
 9378SOL    HW229034   3.111   6.620   0.677
 9379SOL     OW29035   5.377   4.652   4.900
 9379SOL    HW129036   5.386   4.575   4.963
 9379SOL    HW229037   5.281   4.681   4.896
 9380SOL     OW29038   6.239   6.625   6.394
 9380SOL    HW129039   6.316   6.571   6.428
 9380SOL    HW229040   6.212   6.592   6.303
 9381SOL     OW29041   2.500   1.207   6.633
 9381SOL    HW129042   2.437   1.181   6.706
 9381SOL    HW229043   2.485   1.303   6.610
 9382SOL     OW29044   4.573   2.551   2.670
 9382SOL    HW129045   4.659   2.511   2.638
 9382SOL    HW229046   4.561   2.530   2.767
 9383SOL     OW29047   4.784   5.762   5.351
 9383SOL    HW129048   4.775   5.663   5.347
 9383SOL    HW229049   4.859   5.786   5.413
 9384SOL     OW29050   5.179   5.749   1.318
 9384SOL    HW129051   5.279   5.754   1.311
 9384SOL    HW229052   5.138   5.812   1.253
 9385SOL     OW29053   3.851   1.362   3.261
 9385SOL    HW129054   3.804   1.315   3.186
 9385SOL    HW229055   3.835   1.460   3.254
 9386SOL     OW29056   3.418   6.766   4.200
 9386SOL    HW129057   3.437   6.776   4.298
 9386SOL    HW229058   3.429   6.670   4.175
 9387SOL     OW29059   4.183   0.035   6.804
 9387SOL    HW129060   4.214   0.103   6.738
 9387SOL    HW229061   4.247   6.976   6.804
 9388SOL     OW29062   6.635   0.441   3.041
 9388SOL    HW129063   6.691   0.503   2.986
 9388SOL    HW229064   6.635   0.350   3.000
 9389SOL     OW29065   2.857   0.662   6.502
 9389SOL    HW129066   2.922   0.695   6.434
 9389SOL    HW229067   2.772   0.714   6.494
 9390SOL     OW29068   3.353   5.730   2.291
 9390SOL    HW129069   3.394   5.722   2.382
 9390SOL    HW229070   3.423   5.752   2.224
 9391SOL     OW29071   0.355   1.228   5.518
 9391SOL    HW129072   0.390   1.321   5.504
 9391SOL    HW229073   0.340   1.184   5.429
 9392SOL     OW29074   1.114   6.104   4.830
 9392SOL    HW129075   1.137   6.018   4.782
 9392SOL    HW229076   1.196   6.140   4.873
 9393SOL     OW29077   3.752   2.151   5.213
 9393SOL    HW129078   3.664   2.125   5.252
 9393SOL    HW229079   3.782   2.081   5.149
 9394SOL     OW29080   5.791   2.238   2.587
 9394SOL    HW129081   5.857   2.212   2.517
 9394SOL    HW229082   5.755   2.155   2.631
 9395SOL     OW29083   2.184   3.351   6.709
 9395SOL    HW129084   2.100   3.298   6.709
 9395SOL    HW229085   2.223   3.351   6.616
 9396SOL     OW29086   6.480   0.406   6.402
 9396SOL    HW129087   6.404   0.462   6.435
 9396SOL    HW229088   6.477   0.400   6.302
 9397SOL     OW29089   2.921   0.636   0.975
 9397SOL    HW129090   2.854   0.708   0.959
 9397SOL    HW229091   2.874   0.552   1.001
 9398SOL     OW29092   2.677   1.568   6.370
 9398SOL    HW129093   2.699   1.646   6.428
 9398SOL    HW229094   2.753   1.551   6.308
 9399SOL     OW29095   6.788   0.585   5.454
 9399SOL    HW129096   6.847   0.520   5.407
 9399SOL    HW229097   6.756   0.545   5.540
 9400SOL     OW29098   5.325   2.318   2.614
 9400SOL    HW129099   5.263   2.387   2.651
 9400SOL    HW229100   5.273   2.234   2.595
 9401SOL     OW29101   3.225   0.236   2.879
 9401SOL    HW129102   3.245   0.233   2.977
 9401SOL    HW229103   3.155   0.305   2.861
 9402SOL     OW29104   2.544   5.160   6.470
 9402SOL    HW129105   2.480   5.171   6.395
 9402SOL    HW229106   2.638   5.164   6.435
 9403SOL     OW29107   5.436   1.122   4.351
 9403SOL    HW129108   5.392   1.079   4.430
 9403SOL    HW229109   5.410   1.219   4.348
 9404SOL     OW29110   0.947   4.130   6.043
 9404SOL    HW129111   0.967   4.148   5.947
 9404SOL    HW229112   0.854   4.160   6.064
 9405SOL     OW29113   5.735   6.987   1.187
 9405SOL    HW129114   5.811   6.991   1.122
 9405SOL    HW229115   5.693   6.896   1.184
 9406SOL     OW29116   0.023   1.236   5.533
 9406SOL    HW129117   0.050   1.154   5.483
 9406SOL    HW229118   0.076   1.314   5.501
 9407SOL     OW29119   3.380   6.073   2.615
 9407SOL    HW129120   3.427   6.159   2.596
 9407SOL    HW229121   3.330   6.043   2.534
 9408SOL     OW29122   3.838   1.823   5.843
 9408SOL    HW129123   3.741   1.840   5.828
 9408SOL    HW229124   3.865   1.860   5.931
 9409SOL     OW29125   5.468   4.412   3.550
 9409SOL    HW129126   5.417   4.425   3.465
 9409SOL    HW229127   5.527   4.331   3.542
 9410SOL     OW29128   4.438   6.334   2.624
 9410SOL    HW129129   4.444   6.434   2.626
 9410SOL    HW229130   4.500   6.295   2.691
 9411SOL     OW29131   5.044   5.347   0.817
 9411SOL    HW129132   4.968   5.400   0.855
 9411SOL    HW229133   5.103   5.315   0.891
 9412SOL     OW29134   6.353   2.614   1.156
 9412SOL    HW129135   6.258   2.589   1.178
 9412SOL    HW229136   6.353   2.694   1.097
 9413SOL     OW29137   3.899   6.051   5.982
 9413SOL    HW129138   3.872   6.024   6.074
 9413SOL    HW229139   3.999   6.047   5.973
 9414SOL     OW29140   2.859   1.843   1.741
 9414SOL    HW129141   2.924   1.826   1.816
 9414SOL    HW229142   2.832   1.939   1.741
 9415SOL     OW29143   2.725   0.012   1.971
 9415SOL    HW129144   2.816   0.027   2.009
 9415SOL    HW229145   2.695   6.937   1.989
 9416SOL     OW29146   0.908   2.815   1.634
 9416SOL    HW129147   0.887   2.912   1.650
 9416SOL    HW229148   0.848   2.758   1.690
 9417SOL     OW29149   2.387   6.039   4.831
 9417SOL    HW129150   2.384   5.976   4.754
 9417SOL    HW229151   2.480   6.076   4.840
 9418SOL     OW29152   3.358   5.292   0.734
 9418SOL    HW129153   3.406   5.339   0.659
 9418SOL    HW229154   3.390   5.328   0.821
 9419SOL     OW29155   3.557   6.646   5.519
 9419SOL    HW129156   3.617   6.668   5.595
 9419SOL    HW229157   3.557   6.721   5.453
 9420SOL     OW29158   0.231   1.456   4.305
 9420SOL    HW129159   0.207   1.388   4.235
 9420SOL    HW229160   0.322   1.492   4.286
 9421SOL     OW29161   1.543   4.340   5.434
 9421SOL    HW129162   1.547   4.410   5.362
 9421SOL    HW229163   1.581   4.377   5.518
 9422SOL     OW29164   4.260   1.127   2.551
 9422SOL    HW129165   4.313   1.194   2.604
 9422SOL    HW229166   4.245   1.045   2.606
 9423SOL     OW29167   4.449   0.925   5.036
 9423SOL    HW129168   4.409   1.010   5.000
 9423SOL    HW229169   4.389   0.887   5.106
 9424SOL     OW29170   3.092   6.551   4.466
 9424SOL    HW129171   3.080   6.614   4.389
 9424SOL    HW229172   3.129   6.600   4.544
 9425SOL     OW29173   1.300   3.232   4.544
 9425SOL    HW129174   1.374   3.204   4.482
 9425SOL    HW229175   1.292   3.331   4.543
 9426SOL     OW29176   3.542   0.234   0.216
 9426SOL    HW129177   3.513   0.307   0.155
 9426SOL    HW229178   3.639   0.215   0.202
 9427SOL     OW29179   2.864   5.387   4.211
 9427SOL    HW129180   2.806   5.311   4.240
 9427SOL    HW229181   2.927   5.410   4.286
 9428SOL     OW29182   5.265   6.621   2.665
 9428SOL    HW129183   5.285   6.705   2.714
 9428SOL    HW229184   5.221   6.642   2.578
 9429SOL     OW29185   0.095   3.827   2.807
 9429SOL    HW129186   0.092   3.926   2.791
 9429SOL    HW229187   0.173   3.788   2.758
 9430SOL     OW29188   6.228   6.756   1.590
 9430SOL    HW129189   6.273   6.845   1.580
 9430SOL    HW229190   6.201   6.744   1.685
 9431SOL     OW29191   6.421   4.051   2.108
 9431SOL    HW129192   6.365   4.094   2.179
 9431SOL    HW229193   6.480   4.120   2.066
 9432SOL     OW29194   6.670   6.815   3.931
 9432SOL    HW129195   6.698   6.762   4.011
 9432SOL    HW229196   6.696   6.911   3.944
 9433SOL     OW29197   3.260   4.916   4.953
 9433SOL    HW129198   3.265   4.990   5.020
 9433SOL    HW229199   3.233   4.831   4.999
 9434SOL     OW29200   4.716   4.979   2.610
 9434SOL    HW129201   4.740   4.947   2.519
 9434SOL    HW229202   4.621   5.011   2.611
 9435SOL     OW29203   1.405   0.648   4.519
 9435SOL    HW129204   1.340   0.637   4.594
 9435SOL    HW229205   1.495   0.616   4.547
 9436SOL     OW29206   2.402   2.813   6.445
 9436SOL    HW129207   2.392   2.912   6.439
 9436SOL    HW229208   2.473   2.790   6.511
 9437SOL     OW29209   1.198   4.815   4.022
 9437SOL    HW129210   1.115   4.777   4.062
 9437SOL    HW229211   1.176   4.859   3.935
 9438SOL     OW29212   1.278   6.297   2.655
 9438SOL    HW129213   1.294   6.298   2.753
 9438SOL    HW229214   1.180   6.306   2.637
 9439SOL     OW29215   0.393   2.579   1.684
 9439SOL    HW129216   0.451   2.607   1.608
 9439SOL    HW229217   0.451   2.549   1.760
 9440SOL     OW29218   4.986   6.590   5.804
 9440SOL    HW129219   5.077   6.630   5.797
 9440SOL    HW229220   4.931   6.643   5.868
 9441SOL     OW29221   1.564   4.537   5.235
 9441SOL    HW129222   1.513   4.508   5.154
 9441SOL    HW229223   1.585   4.634   5.228
 9442SOL     OW29224   0.123   3.800   1.421
 9442SOL    HW129225   0.049   3.742   1.452
 9442SOL    HW229226   0.136   3.790   1.323
 9443SOL     OW29227   1.763   3.761   1.535
 9443SOL    HW129228   1.768   3.858   1.558
 9443SOL    HW229229   1.838   3.738   1.473
 9444SOL     OW29230   0.104   3.737   6.681
 9444SOL    HW129231   0.075   3.642   6.699
 9444SOL    HW229232   0.130   3.746   6.585
 9445SOL     OW29233   5.722   3.622   1.513
 9445SOL    HW129234   5.762   3.683   1.445
 9445SOL    HW229235   5.663   3.673   1.575
 9446SOL     OW29236   6.567   5.958   1.749
 9446SOL    HW129237   6.623   5.877   1.766
 9446SOL    HW229238   6.498   5.937   1.679
 9447SOL     OW29239   5.732   3.060   1.830
 9447SOL    HW129240   5.757   2.967   1.801
 9447SOL    HW229241   5.792   3.088   1.905
 9448SOL     OW29242   6.226   6.628   0.222
 9448SOL    HW129243   6.219   6.680   0.138
 9448SOL    HW229244   6.226   6.530   0.201
 9449SOL     OW29245   6.784   5.039   5.146
 9449SOL    HW129246   6.839   4.979   5.088
 9449SOL    HW229247   6.688   5.014   5.138
 9450SOL     OW29248   3.104   5.013   4.055
 9450SOL    HW129249   3.071   5.048   4.142
 9450SOL    HW229250   3.156   5.084   4.007
 9451SOL     OW29251   4.769   5.051   5.934
 9451SOL    HW129252   4.856   5.073   5.890
 9451SOL    HW229253   4.740   4.959   5.907
 9452SOL     OW29254   2.357   4.513   1.622
 9452SOL    HW129255   2.331   4.447   1.693
 9452SOL    HW229256   2.323   4.604   1.646
 9453SOL     OW29257   3.157   5.128   2.615
 9453SOL    HW129258   3.249   5.147   2.580
 9453SOL    HW229259   3.100   5.093   2.541
 9454SOL     OW29260   2.030   2.934   5.328
 9454SOL    HW129261   1.962   2.869   5.292
 9454SOL    HW229262   2.052   3.002   5.258
 9455SOL     OW29263   3.767   1.839   2.276
 9455SOL    HW129264   3.770   1.776   2.198
 9455SOL    HW229265   3.789   1.932   2.244
 9456SOL     OW29266   1.143   3.307   1.093
 9456SOL    HW129267   1.053   3.334   1.128
 9456SOL    HW229268   1.134   3.224   1.038
 9457SOL     OW29269   0.713   3.547   0.828
 9457SOL    HW129270   0.698   3.582   0.920
 9457SOL    HW229271   0.775   3.469   0.832
 9458SOL     OW29272   6.754   5.690   5.097
 9458SOL    HW129273   6.740   5.725   5.004
 9458SOL    HW229274   6.802   5.603   5.092
 9459SOL     OW29275   6.071   5.532   1.809
 9459SOL    HW129276   6.003   5.466   1.837
 9459SOL    HW229277   6.162   5.501   1.837
 9460SOL     OW29278   1.243   2.191   5.539
 9460SOL    HW129279   1.207   2.265   5.595
 9460SOL    HW229280   1.224   2.209   5.442
 9461SOL     OW29281   1.077   1.142   4.065
 9461SOL    HW129282   1.116   1.053   4.039
 9461SOL    HW229283   0.995   1.128   4.119
 9462SOL     OW29284   0.695   3.443   2.181
 9462SOL    HW129285   0.684   3.380   2.104
 9462SOL    HW229286   0.753   3.401   2.251
 9463SOL     OW29287   5.508   1.427   0.420
 9463SOL    HW129288   5.489   1.437   0.322
 9463SOL    HW229289   5.467   1.504   0.469
 9464SOL     OW29290   5.697   0.427   6.119
 9464SOL    HW129291   5.730   0.406   6.211
 9464SOL    HW229292   5.684   0.341   6.068
 9465SOL     OW29293   6.372   1.371   4.042
 9465SOL    HW129294   6.424   1.357   4.127
 9465SOL    HW229295   6.388   1.464   4.008
 9466SOL     OW29296   3.237   2.310   6.580
 9466SOL    HW129297   3.219   2.314   6.482
 9466SOL    HW229298   3.157   2.343   6.630
 9467SOL     OW29299   2.158   3.140   1.918
 9467SOL    HW129300   2.173   3.239   1.909
 9467SOL    HW229301   2.086   3.124   1.985
 9468SOL     OW29302   7.002   3.075   6.065
 9468SOL    HW129303   6.971   3.168   6.086
 9468SOL    HW229304   0.046   3.078   5.987
 9469SOL     OW29305   6.253   4.833   1.918
 9469SOL    HW129306   6.230   4.750   1.867
 9469SOL    HW229307   6.293   4.808   2.006
 9470SOL     OW29308   5.045   3.509   0.771
 9470SOL    HW129309   5.125   3.483   0.824
 9470SOL    HW229310   4.980   3.557   0.830
 9471SOL     OW29311   0.401   1.938   5.410
 9471SOL    HW129312   0.418   1.916   5.506
 9471SOL    HW229313   0.392   2.037   5.400
 9472SOL     OW29314   6.236   3.959   3.912
 9472SOL    HW129315   6.216   3.875   3.963
 9472SOL    HW229316   6.302   4.014   3.963
 9473SOL     OW29317   2.961   5.152   5.581
 9473SOL    HW129318   3.050   5.197   5.569
 9473SOL    HW229319   2.974   5.053   5.582
 9474SOL     OW29320   4.428   5.028   2.232
 9474SOL    HW129321   4.360   4.960   2.206
 9474SOL    HW229322   4.389   5.119   2.221
 9475SOL     OW29323   2.446   3.499   1.403
 9475SOL    HW129324   2.410   3.570   1.343
 9475SOL    HW229325   2.509   3.441   1.351
 9476SOL     OW29326   3.520   3.397   5.742
 9476SOL    HW129327   3.515   3.329   5.669
 9476SOL    HW229328   3.615   3.410   5.769
 9477SOL     OW29329   1.435   2.652   1.535
 9477SOL    HW129330   1.409   2.714   1.609
 9477SOL    HW229331   1.528   2.619   1.550
 9478SOL     OW29332   5.728   4.579   5.572
 9478SOL    HW129333   5.698   4.572   5.667
 9478SOL    HW229334   5.649   4.570   5.511
 9479SOL     OW29335   6.230   5.825   6.307
 9479SOL    HW129336   6.242   5.730   6.280
 9479SOL    HW229337   6.234   5.884   6.227
 9480SOL     OW29338   5.810   4.950   6.965
 9480SOL    HW129339   5.718   4.931   6.931
 9480SOL    HW229340   5.857   5.013   6.903
 9481SOL     OW29341   0.311   3.921   2.369
 9481SOL    HW129342   0.227   3.868   2.354
 9481SOL    HW229343   0.391   3.862   2.354
 9482SOL     OW29344   4.591   1.004   1.918
 9482SOL    HW129345   4.562   1.046   2.004
 9482SOL    HW229346   4.681   1.040   1.892
 9483SOL     OW29347   1.759   1.794   6.979
 9483SOL    HW129348   1.848   1.838   6.993
 9483SOL    HW229349   1.695   1.861   6.939
 9484SOL     OW29350   6.687   1.677   3.802
 9484SOL    HW129351   6.753   1.733   3.852
 9484SOL    HW229352   6.615   1.736   3.765
 9485SOL     OW29353   0.853   0.473   2.361
 9485SOL    HW129354   0.836   0.567   2.391
 9485SOL    HW229355   0.940   0.441   2.398
 9486SOL     OW29356   3.166   6.076   1.772
 9486SOL    HW129357   3.215   5.998   1.733
 9486SOL    HW229358   3.167   6.069   1.872
 9487SOL     OW29359   2.897   3.459   4.044
 9487SOL    HW129360   2.902   3.389   4.116
 9487SOL    HW229361   2.851   3.540   4.080
 9488SOL     OW29362   1.490   6.486   1.120
 9488SOL    HW129363   1.420   6.426   1.081
 9488SOL    HW229364   1.503   6.566   1.061
 9489SOL     OW29365   3.646   5.068   0.491
 9489SOL    HW129366   3.546   5.073   0.484
 9489SOL    HW229367   3.687   5.135   0.428
 9490SOL     OW29368   4.664   1.122   1.468
 9490SOL    HW129369   4.624   1.115   1.559
 9490SOL    HW229370   4.593   1.148   1.402
 9491SOL     OW29371   5.597   4.891   6.376
 9491SOL    HW129372   5.593   4.974   6.431
 9491SOL    HW229373   5.656   4.906   6.296
 9492SOL     OW29374   3.158   3.962   1.647
 9492SOL    HW129375   3.227   3.988   1.579
 9492SOL    HW229376   3.200   3.957   1.737
 9493SOL     OW29377   4.886   6.464   3.085
 9493SOL    HW129378   4.844   6.426   3.168
 9493SOL    HW229379   4.972   6.508   3.109
 9494SOL     OW29380   4.146   3.415   5.319
 9494SOL    HW129381   4.169   3.473   5.242
 9494SOL    HW229382   4.148   3.319   5.291
 9495SOL     OW29383   5.971   2.327   5.282
 9495SOL    HW129384   5.993   2.252   5.344
 9495SOL    HW229385   5.923   2.291   5.202
 9496SOL     OW29386   5.486   4.220   6.924
 9496SOL    HW129387   5.455   4.304   6.969
 9496SOL    HW229388   5.471   4.227   6.825
 9497SOL     OW29389   5.701   5.918   6.486
 9497SOL    HW129390   5.798   5.898   6.477
 9497SOL    HW229391   5.670   5.893   6.577
 9498SOL     OW29392   3.626   0.343   6.063
 9498SOL    HW129393   3.568   0.318   6.140
 9498SOL    HW229394   3.661   0.436   6.076
 9499SOL     OW29395   3.413   4.069   5.275
 9499SOL    HW129396   3.432   4.130   5.198
 9499SOL    HW229397   3.429   3.974   5.247
 9500SOL     OW29398   5.104   5.823   1.858
 9500SOL    HW129399   5.180   5.770   1.895
 9500SOL    HW229400   5.101   5.811   1.758
 9501SOL     OW29401   3.114   1.486   4.826
 9501SOL    HW129402   3.206   1.462   4.795
 9501SOL    HW229403   3.118   1.571   4.880
 9502SOL     OW29404   6.203   2.724   5.629
 9502SOL    HW129405   6.286   2.770   5.598
 9502SOL    HW229406   6.169   2.663   5.558
 9503SOL     OW29407   1.158   6.742   1.087
 9503SOL    HW129408   1.222   6.791   1.028
 9503SOL    HW229409   1.071   6.731   1.040
 9504SOL     OW29410   0.629   3.019   6.521
 9504SOL    HW129411   0.702   2.979   6.576
 9504SOL    HW229412   0.587   3.094   6.572
 9505SOL     OW29413   5.868   3.101   3.256
 9505SOL    HW129414   5.925   3.132   3.331
 9505SOL    HW229415   5.922   3.095   3.172
 9506SOL     OW29416   6.557   4.033   0.423
 9506SOL    HW129417   6.487   3.989   0.479
 9506SOL    HW229418   6.641   3.979   0.428
 9507SOL     OW29419   0.876   1.585   3.665
 9507SOL    HW129420   0.874   1.548   3.758
 9507SOL    HW229421   0.784   1.615   3.640
 9508SOL     OW29422   5.739   2.176   0.914
 9508SOL    HW129423   5.661   2.174   0.976
 9508SOL    HW229424   5.824   2.183   0.966
 9509SOL     OW29425   2.243   6.226   5.533
 9509SOL    HW129426   2.151   6.191   5.550
 9509SOL    HW229427   2.310   6.161   5.568
 9510SOL     OW29428   6.406   4.760   3.492
 9510SOL    HW129429   6.331   4.707   3.454
 9510SOL    HW229430   6.370   4.830   3.553
 9511SOL     OW29431   0.440   1.683   0.903
 9511SOL    HW129432   0.367   1.747   0.882
 9511SOL    HW229433   0.493   1.664   0.820
 9512SOL     OW29434   1.321   2.383   3.869
 9512SOL    HW129435   1.380   2.437   3.929
 9512SOL    HW229436   1.293   2.299   3.917
 9513SOL     OW29437   2.297   4.121   4.191
 9513SOL    HW129438   2.238   4.124   4.271
 9513SOL    HW229439   2.262   4.054   4.126
 9514SOL     OW29440   2.422   2.489   6.650
 9514SOL    HW129441   2.331   2.506   6.612
 9514SOL    HW229442   2.478   2.571   6.639
 9515SOL     OW29443   1.916   5.479   6.343
 9515SOL    HW129444   1.869   5.543   6.404
 9515SOL    HW229445   1.906   5.510   6.248
 9516SOL     OW29446   4.960   3.704   4.378
 9516SOL    HW129447   5.055   3.674   4.389
 9516SOL    HW229448   4.949   3.749   4.289
 9517SOL     OW29449   0.380   5.658   2.053
 9517SOL    HW129450   0.419   5.625   2.139
 9517SOL    HW229451   0.344   5.581   2.001
 9518SOL     OW29452   0.916   2.505   6.428
 9518SOL    HW129453   0.913   2.571   6.503
 9518SOL    HW229454   0.953   2.419   6.462
 9519SOL     OW29455   3.697   3.826   3.100
 9519SOL    HW129456   3.664   3.825   3.006
 9519SOL    HW229457   3.620   3.813   3.162
 9520SOL     OW29458   6.653   0.132   5.436
 9520SOL    HW129459   6.654   0.208   5.371
 9520SOL    HW229460   6.704   0.056   5.398
 9521SOL     OW29461   3.409   0.732   1.071
 9521SOL    HW129462   3.426   0.654   1.010
 9521SOL    HW229463   3.324   0.716   1.122
 9522SOL     OW29464   3.684   6.292   2.113
 9522SOL    HW129465   3.715   6.387   2.106
 9522SOL    HW229466   3.584   6.289   2.104
 9523SOL     OW29467   2.447   5.020   4.116
 9523SOL    HW129468   2.479   5.027   4.021
 9523SOL    HW229469   2.367   4.959   4.119
 9524SOL     OW29470   1.533   4.402   1.675
 9524SOL    HW129471   1.537   4.305   1.703
 9524SOL    HW229472   1.604   4.419   1.607
 9525SOL     OW29473   1.970   2.987   5.588
 9525SOL    HW129474   1.999   3.082   5.602
 9525SOL    HW229475   1.974   2.965   5.490
 9526SOL     OW29476   5.202   4.563   6.878
 9526SOL    HW129477   5.280   4.539   6.819
 9526SOL    HW229478   5.117   4.553   6.826
 9527SOL     OW29479   4.045   6.731   3.070
 9527SOL    HW129480   3.994   6.681   3.140
 9527SOL    HW229481   4.008   6.824   3.062
 9528SOL     OW29482   5.529   1.794   1.089
 9528SOL    HW129483   5.471   1.712   1.094
 9528SOL    HW229484   5.609   1.781   1.147
 9529SOL     OW29485   6.186   1.522   1.640
 9529SOL    HW129486   6.265   1.581   1.625
 9529SOL    HW229487   6.216   1.438   1.686
 9530SOL     OW29488   0.741   5.720   3.787
 9530SOL    HW129489   0.768   5.756   3.876
 9530SOL    HW229490   0.713   5.796   3.728
 9531SOL     OW29491   3.755   5.204   2.628
 9531SOL    HW129492   3.709   5.119   2.605
 9531SOL    HW229493   3.687   5.274   2.649
 9532SOL     OW29494   5.871   4.989   2.367
 9532SOL    HW129495   5.888   5.012   2.271
 9532SOL    HW229496   5.803   5.052   2.404
 9533SOL     OW29497   2.186   4.676   3.192
 9533SOL    HW129498   2.280   4.673   3.227
 9533SOL    HW229499   2.187   4.700   3.095
 9534SOL     OW29500   5.408   4.439   5.048
 9534SOL    HW129501   5.359   4.364   5.003
 9534SOL    HW229502   5.390   4.437   5.146
 9535SOL     OW29503   0.748   0.847   5.615
 9535SOL    HW129504   0.744   0.757   5.660
 9535SOL    HW229505   0.656   0.872   5.585
 9536SOL     OW29506   4.160   3.603   4.685
 9536SOL    HW129507   4.096   3.539   4.729
 9536SOL    HW229508   4.223   3.639   4.754
 9537SOL     OW29509   1.443   1.186   3.562
 9537SOL    HW129510   1.393   1.158   3.480
 9537SOL    HW229511   1.382   1.182   3.641
 9538SOL     OW29512   3.544   0.971   4.909
 9538SOL    HW129513   3.449   0.945   4.891
 9538SOL    HW229514   3.547   1.066   4.939
 9539SOL     OW29515   3.807   2.985   2.677
 9539SOL    HW129516   3.813   2.949   2.770
 9539SOL    HW229517   3.895   3.024   2.651
 9540SOL     OW29518   4.747   4.916   4.197
 9540SOL    HW129519   4.742   4.825   4.157
 9540SOL    HW229520   4.675   4.927   4.265
 9541SOL     OW29521   1.771   5.713   5.275
 9541SOL    HW129522   1.859   5.756   5.258
 9541SOL    HW229523   1.751   5.647   5.202
 9542SOL     OW29524   6.147   4.185   4.183
 9542SOL    HW129525   6.237   4.201   4.224
 9542SOL    HW229526   6.131   4.253   4.112
 9543SOL     OW29527   2.389   0.490   5.936
 9543SOL    HW129528   2.484   0.484   5.966
 9543SOL    HW229529   2.332   0.523   6.012
 9544SOL     OW29530   5.473   3.730   3.952
 9544SOL    HW129531   5.426   3.754   3.868
 9544SOL    HW229532   5.434   3.782   4.028
 9545SOL     OW29533   1.537   4.517   1.933
 9545SOL    HW129534   1.517   4.614   1.947
 9545SOL    HW229535   1.525   4.494   1.837
 9546SOL     OW29536   2.825   1.792   6.520
 9546SOL    HW129537   2.787   1.879   6.488
 9546SOL    HW229538   2.910   1.773   6.470
 9547SOL     OW29539   3.656   6.156   3.765
 9547SOL    HW129540   3.589   6.205   3.710
 9547SOL    HW229541   3.729   6.120   3.706
 9548SOL     OW29542   1.050   4.587   0.041
 9548SOL    HW129543   1.057   4.510   0.105
 9548SOL    HW229544   0.971   4.573   7.000
 9549SOL     OW29545   4.301   2.438   1.418
 9549SOL    HW129546   4.302   2.497   1.338
 9549SOL    HW229547   4.271   2.491   1.498
 9550SOL     OW29548   5.144   2.776   1.609
 9550SOL    HW129549   5.225   2.835   1.606
 9550SOL    HW229550   5.063   2.832   1.627
 9551SOL     OW29551   0.108   2.396   6.716
 9551SOL    HW129552   0.063   2.311   6.740
 9551SOL    HW229553   0.039   2.466   6.695
 9552SOL     OW29554   3.259   1.532   6.728
 9552SOL    HW129555   3.206   1.616   6.726
 9552SOL    HW229556   3.221   1.467   6.663
 9553SOL     OW29557   5.655   1.942   6.631
 9553SOL    HW129558   5.702   1.964   6.546
 9553SOL    HW229559   5.714   1.883   6.688
 9554SOL     OW29560   2.187   6.678   3.986
 9554SOL    HW129561   2.226   6.752   3.931
 9554SOL    HW229562   2.253   6.653   4.057
 9555SOL     OW29563   6.302   0.791   3.958
 9555SOL    HW129564   6.276   0.695   3.970
 9555SOL    HW229565   6.343   0.826   4.043
 9556SOL     OW29566   1.922   4.349   0.620
 9556SOL    HW129567   1.979   4.431   0.625
 9556SOL    HW229568   1.871   4.349   0.534
 9557SOL     OW29569   4.976   0.430   1.803
 9557SOL    HW129570   4.898   0.473   1.757
 9557SOL    HW229571   4.943   0.381   1.884
 9558SOL     OW29572   5.205   6.745   6.239
 9558SOL    HW129573   5.142   6.815   6.206
 9558SOL    HW229574   5.233   6.766   6.333
 9559SOL     OW29575   1.882   3.903   0.183
 9559SOL    HW129576   1.800   3.848   0.197
 9559SOL    HW229577   1.858   3.986   0.131
 9560SOL     OW29578   3.099   6.540   1.971
 9560SOL    HW129579   3.131   6.570   1.882
 9560SOL    HW229580   3.077   6.443   1.969
 9561SOL     OW29581   0.947   0.725   1.158
 9561SOL    HW129582   0.869   0.737   1.221
 9561SOL    HW229583   0.926   0.652   1.093
 9562SOL     OW29584   2.944   5.311   3.759
 9562SOL    HW129585   2.896   5.297   3.846
 9562SOL    HW229586   3.013   5.240   3.747
 9563SOL     OW29587   1.155   5.708   1.367
 9563SOL    HW129588   1.064   5.717   1.406
 9563SOL    HW229589   1.152   5.728   1.269
 9564SOL     OW29590   1.684   6.737   0.565
 9564SOL    HW129591   1.656   6.641   0.562
 9564SOL    HW229592   1.713   6.760   0.658
 9565SOL     OW29593   3.438   1.326   4.158
 9565SOL    HW129594   3.374   1.350   4.231
 9565SOL    HW229595   3.411   1.238   4.118
 9566SOL     OW29596   2.176   6.974   0.511
 9566SOL    HW129597   2.216   6.992   0.421
 9566SOL    HW229598   2.112   6.898   0.505
 9567SOL     OW29599   6.596   4.693   0.970
 9567SOL    HW129600   6.659   4.727   1.039
 9567SOL    HW229601   6.505   4.681   1.010
 9568SOL     OW29602   4.213   1.589   6.609
 9568SOL    HW129603   4.214   1.510   6.670
 9568SOL    HW229604   4.295   1.588   6.552
 9569SOL     OW29605   5.397   0.515   1.863
 9569SOL    HW129606   5.308   0.556   1.840
 9569SOL    HW229607   5.419   0.444   1.797
 9570SOL     OW29608   0.046   3.169   1.045
 9570SOL    HW129609   0.082   3.195   1.134
 9570SOL    HW229610   7.011   3.245   1.007
 9571SOL     OW29611   2.954   2.370   6.953
 9571SOL    HW129612   2.997   2.370   0.025
 9571SOL    HW229613   2.873   2.312   6.954
 9572SOL     OW29614   2.149   3.785   3.488
 9572SOL    HW129615   2.215   3.780   3.562
 9572SOL    HW229616   2.058   3.762   3.522
 9573SOL     OW29617   6.768   0.996   4.327
 9573SOL    HW129618   6.790   1.092   4.346
 9573SOL    HW229619   6.692   0.966   4.386
 9574SOL     OW29620   3.780   3.060   1.412
 9574SOL    HW129621   3.840   2.993   1.456
 9574SOL    HW229622   3.802   3.152   1.445
 9575SOL     OW29623   6.192   6.521   1.780
 9575SOL    HW129624   6.196   6.423   1.801
 9575SOL    HW229625   6.097   6.551   1.775
 9576SOL     OW29626   1.160   0.384   6.953
 9576SOL    HW129627   1.246   0.371   6.903
 9576SOL    HW229628   1.165   0.469   7.006
 9577SOL     OW29629   6.511   5.291   1.649
 9577SOL    HW129630   6.420   5.290   1.608
 9577SOL    HW229631   6.574   5.343   1.591
 9578SOL     OW29632   1.238   2.523   2.778
 9578SOL    HW129633   1.289   2.441   2.801
 9578SOL    HW229634   1.147   2.498   2.745
 9579SOL     OW29635   5.599   6.736   2.458
 9579SOL    HW129636   5.696   6.741   2.432
 9579SOL    HW229637   5.588   6.774   2.550
 9580SOL     OW29638   4.712   4.825   1.733
 9580SOL    HW129639   4.704   4.772   1.817
 9580SOL    HW229640   4.806   4.821   1.700
 9581SOL     OW29641   6.012   1.339   0.044
 9581SOL    HW129642   5.980   1.282   6.987
 9581SOL    HW229643   6.095   1.388   0.016
 9582SOL     OW29644   4.097   5.594   4.252
 9582SOL    HW129645   4.174   5.652   4.280
 9582SOL    HW229646   4.115   5.500   4.280
 9583SOL     OW29647   3.493   4.689   1.641
 9583SOL    HW129648   3.552   4.719   1.716
 9583SOL    HW229649   3.491   4.589   1.638
 9584SOL     OW29650   1.920   4.233   4.391
 9584SOL    HW129651   2.007   4.206   4.434
 9584SOL    HW229652   1.937   4.302   4.321
 9585SOL     OW29653   5.196   5.879   1.581
 9585SOL    HW129654   5.205   5.968   1.537
 9585SOL    HW229655   5.202   5.807   1.512
 9586SOL     OW29656   4.549   5.187   1.657
 9586SOL    HW129657   4.496   5.223   1.580
 9586SOL    HW229658   4.617   5.123   1.622
 9587SOL     OW29659   2.575   6.337   1.291
 9587SOL    HW129660   2.644   6.269   1.315
 9587SOL    HW229661   2.534   6.374   1.374
 9588SOL     OW29662   6.686   6.000   0.796
 9588SOL    HW129663   6.621   5.952   0.855
 9588SOL    HW229664   6.703   5.945   0.714
 9589SOL     OW29665   1.537   3.892   6.389
 9589SOL    HW129666   1.476   3.915   6.465
 9589SOL    HW229667   1.484   3.882   6.305
 9590SOL     OW29668   5.386   1.549   2.101
 9590SOL    HW129669   5.367   1.579   2.007
 9590SOL    HW229670   5.372   1.626   2.163
 9591SOL     OW29671   3.205   0.254   6.618
 9591SOL    HW129672   3.122   0.308   6.607
 9591SOL    HW229673   3.182   0.157   6.624
 9592SOL     OW29674   2.758   4.600   6.608
 9592SOL    HW129675   2.796   4.682   6.566
 9592SOL    HW229676   2.672   4.576   6.562
 9593SOL     OW29677   1.306   1.809   5.327
 9593SOL    HW129678   1.398   1.839   5.350
 9593SOL    HW229679   1.310   1.719   5.284
 9594SOL     OW29680   1.009   5.589   4.204
 9594SOL    HW129681   1.097   5.596   4.157
 9594SOL    HW229682   0.973   5.496   4.196
 9595SOL     OW29683   0.339   3.109   4.278
 9595SOL    HW129684   0.320   3.060   4.193
 9595SOL    HW229685   0.351   3.043   4.353
 9596SOL     OW29686   0.205   6.017   1.032
 9596SOL    HW129687   0.258   5.934   1.015
 9596SOL    HW229688   0.199   6.035   1.130
 9597SOL     OW29689   0.956   3.856   2.889
 9597SOL    HW129690   0.996   3.789   2.952
 9597SOL    HW229691   1.012   3.939   2.890
 9598SOL     OW29692   1.579   3.506   2.967
 9598SOL    HW129693   1.509   3.576   2.984
 9598SOL    HW229694   1.662   3.549   2.931
 9599SOL     OW29695   3.312   0.086   3.525
 9599SOL    HW129696   3.286   0.092   3.622
 9599SOL    HW229697   3.231   0.102   3.468
 9600SOL     OW29698   3.133   0.696   1.133
 9600SOL    HW129699   3.060   0.656   1.077
 9600SOL    HW229700   3.094   0.756   1.202
 9601SOL     OW29701   6.571   4.401   1.320
 9601SOL    HW129702   6.483   4.446   1.315
 9601SOL    HW229703   6.571   4.319   1.263
 9602SOL     OW29704   4.992   3.855   5.608
 9602SOL    HW129705   4.966   3.778   5.551
 9602SOL    HW229706   4.955   3.940   5.570
 9603SOL     OW29707   5.717   6.839   5.709
 9603SOL    HW129708   5.631   6.881   5.739
 9603SOL    HW229709   5.747   6.881   5.624
 9604SOL     OW29710   5.544   0.363   0.378
 9604SOL    HW129711   5.546   0.458   0.409
 9604SOL    HW229712   5.500   0.306   0.447
 9605SOL     OW29713   6.643   5.323   3.608
 9605SOL    HW129714   6.594   5.240   3.581
 9605SOL    HW229715   6.584   5.403   3.594
 9606SOL     OW29716   0.922   1.295   6.362
 9606SOL    HW129717   0.990   1.347   6.413
 9606SOL    HW229718   0.940   1.197   6.373
 9607SOL     OW29719   3.549   2.381   5.837
 9607SOL    HW129720   3.462   2.425   5.814
 9607SOL    HW229721   3.599   2.438   5.903
 9608SOL     OW29722   6.366   4.249   2.882
 9608SOL    HW129723   6.351   4.266   2.979
 9608SOL    HW229724   6.292   4.192   2.846
 9609SOL     OW29725   4.207   2.378   6.446
 9609SOL    HW129726   4.160   2.334   6.523
 9609SOL    HW229727   4.193   2.477   6.451
 9610SOL     OW29728   1.807   3.587   2.814
 9610SOL    HW129729   1.805   3.685   2.833
 9610SOL    HW229730   1.902   3.556   2.808
 9611SOL     OW29731   1.761   0.061   1.249
 9611SOL    HW129732   1.701   0.097   1.319
 9611SOL    HW229733   1.834   0.007   1.292
 9612SOL     OW29734   0.667   2.870   2.658
 9612SOL    HW129735   0.568   2.864   2.665
 9612SOL    HW229736   0.709   2.817   2.732
 9613SOL     OW29737   6.440   6.056   3.689
 9613SOL    HW129738   6.451   6.146   3.648
 9613SOL    HW229739   6.504   5.992   3.646
 9614SOL     OW29740   4.505   2.231   3.150
 9614SOL    HW129741   4.592   2.195   3.116
 9614SOL    HW229742   4.431   2.167   3.127
 9615SOL     OW29743   2.471   2.767   1.329
 9615SOL    HW129744   2.422   2.701   1.386
 9615SOL    HW229745   2.406   2.833   1.291
 9616SOL     OW29746   3.847   2.881   0.904
 9616SOL    HW129747   3.753   2.865   0.935
 9616SOL    HW229748   3.882   2.799   0.859
 9617SOL     OW29749   2.200   3.018   3.782
 9617SOL    HW129750   2.264   2.964   3.838
 9617SOL    HW229751   2.200   2.983   3.689
 9618SOL     OW29752   2.805   1.028   0.595
 9618SOL    HW129753   2.900   1.042   0.568
 9618SOL    HW229754   2.775   0.937   0.569
 9619SOL     OW29755   2.019   0.724   5.287
 9619SOL    HW129756   1.945   0.752   5.348
 9619SOL    HW229757   2.036   0.795   5.219
 9620SOL     OW29758   4.875   0.259   4.906
 9620SOL    HW129759   4.821   0.292   4.983
 9620SOL    HW229760   4.823   0.268   4.821
 9621SOL     OW29761   1.597   2.701   2.171
 9621SOL    HW129762   1.528   2.757   2.217
 9621SOL    HW229763   1.585   2.605   2.195
 9622SOL     OW29764   5.833   1.004   1.160
 9622SOL    HW129765   5.864   1.086   1.113
 9622SOL    HW229766   5.798   1.029   1.250
 9623SOL     OW29767   3.543   3.032   6.330
 9623SOL    HW129768   3.549   2.936   6.357
 9623SOL    HW229769   3.521   3.039   6.233
 9624SOL     OW29770   5.656   3.149   3.094
 9624SOL    HW129771   5.713   3.125   3.172
 9624SOL    HW229772   5.576   3.200   3.125
 9625SOL     OW29773   5.925   6.207   0.467
 9625SOL    HW129774   6.020   6.205   0.435
 9625SOL    HW229775   5.899   6.300   0.489
 9626SOL     OW29776   3.967   5.413   0.158
 9626SOL    HW129777   4.004   5.485   0.218
 9626SOL    HW229778   3.902   5.454   0.094
 9627SOL     OW29779   1.399   6.017   6.285
 9627SOL    HW129780   1.349   6.028   6.198
 9627SOL    HW229781   1.488   6.062   6.278
 9628SOL     OW29782   4.501   6.067   1.133
 9628SOL    HW129783   4.554   6.000   1.080
 9628SOL    HW229784   4.525   6.159   1.103
 9629SOL     OW29785   2.823   0.238   1.238
 9629SOL    HW129786   2.875   0.239   1.152
 9629SOL    HW229787   2.774   0.151   1.246
 9630SOL     OW29788   6.446   0.299   5.863
 9630SOL    HW129789   6.353   0.330   5.884
 9630SOL    HW229790   6.447   0.200   5.857
 9631SOL     OW29791   6.469   0.138   6.370
 9631SOL    HW129792   6.494   0.231   6.396
 9631SOL    HW229793   6.529   0.073   6.416
 9632SOL     OW29794   1.778   6.266   2.024
 9632SOL    HW129795   1.726   6.347   2.050
 9632SOL    HW229796   1.769   6.196   2.095
 9633SOL     OW29797   6.262   5.425   6.785
 9633SOL    HW129798   6.224   5.517   6.773
 9633SOL    HW229799   6.198   5.370   6.838
 9634SOL     OW29800   1.387   6.297   4.741
 9634SOL    HW129801   1.362   6.223   4.678
 9634SOL    HW229802   1.304   6.338   4.778
 9635SOL     OW29803   2.762   5.251   4.518
 9635SOL    HW129804   2.805   5.177   4.570
 9635SOL    HW229805   2.665   5.254   4.541
 9636SOL     OW29806   4.228   1.177   5.268
 9636SOL    HW129807   4.191   1.264   5.301
 9636SOL    HW229808   4.268   1.190   5.177
 9637SOL     OW29809   1.881   1.780   6.515
 9637SOL    HW129810   1.892   1.698   6.459
 9637SOL    HW229811   1.818   1.843   6.469
 9638SOL     OW29812   6.539   3.227   5.414
 9638SOL    HW129813   6.519   3.238   5.512
 9638SOL    HW229814   6.605   3.296   5.386
 9639SOL     OW29815   4.409   1.317   2.674
 9639SOL    HW129816   4.442   1.393   2.618
 9639SOL    HW229817   4.387   1.350   2.766
 9640SOL     OW29818   2.019   2.709   2.963
 9640SOL    HW129819   1.928   2.721   3.003
 9640SOL    HW229820   2.019   2.748   2.870
 9641SOL     OW29821   5.976   6.657   0.348
 9641SOL    HW129822   6.066   6.629   0.315
 9641SOL    HW229823   5.952   6.605   0.430
 9642SOL     OW29824   3.016   0.780   4.603
 9642SOL    HW129825   2.918   0.760   4.613
 9642SOL    HW229826   3.046   0.841   4.676
 9643SOL     OW29827   4.935   5.025   3.633
 9643SOL    HW129828   4.899   4.964   3.703
 9643SOL    HW229829   4.986   5.100   3.677
 9644SOL     OW29830   1.528   2.590   6.197
 9644SOL    HW129831   1.622   2.616   6.174
 9644SOL    HW229832   1.529   2.509   6.255
 9645SOL     OW29833   3.028   5.186   4.979
 9645SOL    HW129834   3.114   5.160   5.022
 9645SOL    HW229835   3.046   5.240   4.897
 9646SOL     OW29836   4.070   4.810   2.826
 9646SOL    HW129837   4.041   4.775   2.736
 9646SOL    HW229838   4.027   4.899   2.842
 9647SOL     OW29839   6.743   3.557   0.963
 9647SOL    HW129840   6.773   3.586   0.872
 9647SOL    HW229841   6.643   3.557   0.967
 9648SOL     OW29842   4.560   2.793   1.162
 9648SOL    HW129843   4.527   2.880   1.125
 9648SOL    HW229844   4.617   2.810   1.242
 9649SOL     OW29845   2.199   5.774   0.327
 9649SOL    HW129846   2.146   5.858   0.344
 9649SOL    HW229847   2.286   5.780   0.376
 9650SOL     OW29848   6.529   5.506   1.973
 9650SOL    HW129849   6.550   5.596   1.936
 9650SOL    HW229850   6.612   5.450   1.976
 9651SOL     OW29851   0.831   0.883   6.609
 9651SOL    HW129852   0.822   0.922   6.701
 9651SOL    HW229853   0.741   0.852   6.577
 9652SOL     OW29854   0.181   5.077   3.203
 9652SOL    HW129855   0.199   5.053   3.108
 9652SOL    HW229856   0.146   5.170   3.208
 9653SOL     OW29857   5.658   4.936   4.462
 9653SOL    HW129858   5.753   4.963   4.474
 9653SOL    HW229859   5.606   4.960   4.545
 9654SOL     OW29860   2.398   2.958   1.615
 9654SOL    HW129861   2.496   2.942   1.605
 9654SOL    HW229862   2.382   3.056   1.632
 9655SOL     OW29863   6.996   1.867   6.989
 9655SOL    HW129864   0.055   1.829   6.938
 9655SOL    HW229865   0.011   1.913   0.052
 9656SOL     OW29866   3.454   0.374   2.704
 9656SOL    HW129867   3.497   0.404   2.788
 9656SOL    HW229868   3.355   0.390   2.709
 9657SOL     OW29869   6.550   0.869   4.524
 9657SOL    HW129870   6.519   0.773   4.523
 9657SOL    HW229871   6.561   0.899   4.619
 9658SOL     OW29872   6.534   2.612   1.879
 9658SOL    HW129873   6.471   2.668   1.825
 9658SOL    HW229874   6.483   2.554   1.942
 9659SOL     OW29875   0.645   4.359   0.022
 9659SOL    HW129876   0.573   4.409   6.992
 9659SOL    HW229877   0.647   4.264   7.009
 9660SOL     OW29878   0.447   5.308   0.290
 9660SOL    HW129879   0.423   5.222   0.335
 9660SOL    HW229880   0.464   5.379   0.358
 9661SOL     OW29881   4.249   6.252   0.829
 9661SOL    HW129882   4.332   6.300   0.803
 9661SOL    HW229883   4.261   6.209   0.919
 9662SOL     OW29884   6.116   1.383   4.642
 9662SOL    HW129885   6.019   1.384   4.664
 9662SOL    HW229886   6.168   1.419   4.719
 9663SOL     OW29887   2.283   5.331   3.042
 9663SOL    HW129888   2.312   5.427   3.042
 9663SOL    HW229889   2.279   5.298   3.137
 9664SOL     OW29890   3.860   6.178   1.900
 9664SOL    HW129891   3.792   6.211   1.966
 9664SOL    HW229892   3.906   6.256   1.857
 9665SOL     OW29893   5.452   4.242   4.368
 9665SOL    HW129894   5.481   4.287   4.284
 9665SOL    HW229895   5.361   4.201   4.354
 9666SOL     OW29896   5.772   4.481   3.457
 9666SOL    HW129897   5.757   4.566   3.407
 9666SOL    HW229898   5.688   4.428   3.458
 9667SOL     OW29899   4.083   3.506   3.935
 9667SOL    HW129900   4.072   3.604   3.949
 9667SOL    HW229901   4.150   3.490   3.863
 9668SOL     OW29902   0.083   0.918   5.582
 9668SOL    HW129903   0.071   0.820   5.564
 9668SOL    HW229904   0.145   0.957   5.513
 9669SOL     OW29905   1.513   5.692   0.813
 9669SOL    HW129906   1.472   5.715   0.901
 9669SOL    HW229907   1.444   5.703   0.741
 9670SOL     OW29908   4.880   4.876   6.848
 9670SOL    HW129909   4.828   4.961   6.834
 9670SOL    HW229910   4.958   4.894   6.907
 9671SOL     OW29911   0.028   5.802   5.752
 9671SOL    HW129912   7.015   5.766   5.665
 9671SOL    HW229913   6.978   5.784   5.823
 9672SOL     OW29914   0.594   6.363   4.810
 9672SOL    HW129915   0.504   6.374   4.853
 9672SOL    HW229916   0.586   6.384   4.713
 9673SOL     OW29917   3.256   4.343   6.929
 9673SOL    HW129918   3.205   4.312   6.849
 9673SOL    HW229919   3.194   4.392   6.990
 9674SOL     OW29920   3.341   5.992   2.318
 9674SOL    HW129921   3.335   6.039   2.230
 9674SOL    HW229922   3.344   5.893   2.301
 9675SOL     OW29923   6.387   2.213   1.797
 9675SOL    HW129924   6.482   2.219   1.766
 9675SOL    HW229925   6.381   2.147   1.872
 9676SOL     OW29926   0.488   3.573   4.549
 9676SOL    HW129927   0.429   3.652   4.568
 9676SOL    HW229928   0.526   3.538   4.635
 9677SOL     OW29929   1.911   3.365   6.037
 9677SOL    HW129930   1.916   3.340   6.134
 9677SOL    HW229931   1.873   3.289   5.985
 9678SOL     OW29932   3.501   3.500   2.988
 9678SOL    HW129933   3.440   3.426   2.957
 9678SOL    HW229934   3.562   3.526   2.913
 9679SOL     OW29935   1.303   2.898   1.906
 9679SOL    HW129936   1.271   2.944   1.989
 9679SOL    HW229937   1.398   2.924   1.888
 9680SOL     OW29938   5.696   5.758   3.487
 9680SOL    HW129939   5.766   5.701   3.530
 9680SOL    HW229940   5.717   5.769   3.390
 9681SOL     OW29941   2.407   0.773   2.531
 9681SOL    HW129942   2.428   0.700   2.466
 9681SOL    HW229943   2.423   0.862   2.487
 9682SOL     OW29944   5.687   4.711   3.326
 9682SOL    HW129945   5.647   4.788   3.376
 9682SOL    HW229946   5.631   4.691   3.245
 9683SOL     OW29947   4.595   6.175   6.586
 9683SOL    HW129948   4.506   6.212   6.560
 9683SOL    HW229949   4.583   6.107   6.658
 9684SOL     OW29950   1.027   3.611   5.066
 9684SOL    HW129951   1.024   3.519   5.105
 9684SOL    HW229952   1.104   3.661   5.105
 9685SOL     OW29953   1.136   3.072   0.503
 9685SOL    HW129954   1.112   3.120   0.587
 9685SOL    HW229955   1.119   3.130   0.424
 9686SOL     OW29956   6.450   0.680   1.286
 9686SOL    HW129957   6.396   0.641   1.211
 9686SOL    HW229958   6.390   0.698   1.364
 9687SOL     OW29959   2.996   0.136   3.680
 9687SOL    HW129960   3.088   0.131   3.719
 9687SOL    HW229961   2.950   0.219   3.710
 9688SOL     OW29962   6.891   1.338   2.923
 9688SOL    HW129963   6.954   1.369   2.994
 9688SOL    HW229964   6.875   1.412   2.858
 9689SOL     OW29965   2.534   6.395   6.211
 9689SOL    HW129966   2.503   6.311   6.255
 9689SOL    HW229967   2.546   6.380   6.113
 9690SOL     OW29968   6.355   5.118   1.263
 9690SOL    HW129969   6.320   5.042   1.209
 9690SOL    HW229970   6.434   5.088   1.316
 9691SOL     OW29971   2.067   4.882   2.363
 9691SOL    HW129972   2.037   4.948   2.433
 9691SOL    HW229973   2.091   4.796   2.407
 9692SOL     OW29974   2.643   5.254   1.544
 9692SOL    HW129975   2.581   5.185   1.503
 9692SOL    HW229976   2.592   5.309   1.610
 9693SOL     OW29977   6.233   6.255   1.847
 9693SOL    HW129978   6.175   6.179   1.877
 9693SOL    HW229979   6.317   6.256   1.901
 9694SOL     OW29980   1.465   2.633   6.633
 9694SOL    HW129981   1.427   2.693   6.704
 9694SOL    HW229982   1.563   2.624   6.647
 9695SOL     OW29983   6.667   4.330   1.745
 9695SOL    HW129984   6.628   4.414   1.709
 9695SOL    HW229985   6.633   4.252   1.691
 9696SOL     OW29986   4.090   3.241   1.498
 9696SOL    HW129987   4.051   3.242   1.590
 9696SOL    HW229988   4.188   3.265   1.503
 9697SOL     OW29989   0.694   5.664   0.127
 9697SOL    HW129990   0.628   5.705   0.065
 9697SOL    HW229991   0.699   5.718   0.211
 9698SOL     OW29992   5.740   2.010   4.988
 9698SOL    HW129993   5.662   2.050   4.940
 9698SOL    HW229994   5.767   1.925   4.943
 9699SOL     OW29995   1.839   3.582   6.936
 9699SOL    HW129996   1.829   3.677   6.906
 9699SOL    HW229997   1.919   3.574   6.995
 9700SOL     OW29998   3.780   3.910   4.976
 9700SOL    HW129999   3.854   3.903   5.043
 9700SOL    HW230000   3.784   3.999   4.931
 9701SOL     OW30001   4.667   5.448   4.761
 9701SOL    HW130002   4.688   5.403   4.674
 9701SOL    HW230003   4.679   5.547   4.752
 9702SOL     OW30004   4.732   0.941   0.537
 9702SOL    HW130005   4.753   0.893   0.622
 9702SOL    HW230006   4.727   0.874   0.462
 9703SOL     OW30007   2.989   5.807   4.275
 9703SOL    HW130008   2.945   5.745   4.211
 9703SOL    HW230009   2.989   5.766   4.366
 9704SOL     OW30010   3.670   0.225   3.077
 9704SOL    HW130011   3.638   0.318   3.059
 9704SOL    HW230012   3.692   0.215   3.174
 9705SOL     OW30013   3.389   4.530   0.619
 9705SOL    HW130014   3.374   4.440   0.579
 9705SOL    HW230015   3.380   4.600   0.548
 9706SOL     OW30016   5.325   2.726   2.868
 9706SOL    HW130017   5.253   2.659   2.883
 9706SOL    HW230018   5.314   2.766   2.777
 9707SOL     OW30019   2.547   5.213   2.356
 9707SOL    HW130020   2.454   5.183   2.378
 9707SOL    HW230021   2.544   5.298   2.303
 9708SOL     OW30022   2.298   1.397   3.173
 9708SOL    HW130023   2.373   1.343   3.211
 9708SOL    HW230024   2.230   1.335   3.133
 9709SOL     OW30025   1.812   5.960   3.060
 9709SOL    HW130026   1.842   6.052   3.084
 9709SOL    HW230027   1.885   5.914   3.009
 9710SOL     OW30028   0.472   0.715   3.305
 9710SOL    HW130029   0.463   0.812   3.285
 9710SOL    HW230030   0.568   0.694   3.326
 9711SOL     OW30031   1.548   3.747   5.322
 9711SOL    HW130032   1.628   3.751   5.383
 9711SOL    HW230033   1.552   3.823   5.257
 9712SOL     OW30034   5.054   1.864   4.090
 9712SOL    HW130035   5.107   1.848   4.173
 9712SOL    HW230036   5.046   1.962   4.074
 9713SOL     OW30037   6.943   5.129   2.898
 9713SOL    HW130038   6.936   5.225   2.871
 9713SOL    HW230039   6.897   5.115   2.985
 9714SOL     OW30040   2.338   2.636   1.519
 9714SOL    HW130041   2.367   2.622   1.614
 9714SOL    HW230042   2.295   2.725   1.510
 9715SOL     OW30043   5.046   6.092   5.026
 9715SOL    HW130044   5.118   6.135   5.081
 9715SOL    HW230045   5.087   6.048   4.946
 9716SOL     OW30046   4.331   1.969   6.288
 9716SOL    HW130047   4.344   1.888   6.231
 9716SOL    HW230048   4.366   1.950   6.380
 9717SOL     OW30049   5.835   5.452   4.028
 9717SOL    HW130050   5.874   5.373   4.076
 9717SOL    HW230051   5.762   5.421   3.968
 9718SOL     OW30052   4.356   3.296   1.450
 9718SOL    HW130053   4.372   3.200   1.473
 9718SOL    HW230054   4.415   3.355   1.507
 9719SOL     OW30055   0.498   2.018   0.015
 9719SOL    HW130056   0.468   1.954   6.963
 9719SOL    HW230057   0.586   1.986   0.053
 9720SOL     OW30058   6.756   0.184   1.641
 9720SOL    HW130059   6.832   0.135   1.599
 9720SOL    HW230060   6.707   0.123   1.703
 9721SOL     OW30061   6.612   3.778   2.401
 9721SOL    HW130062   6.526   3.775   2.349
 9721SOL    HW230063   6.689   3.777   2.338
 9722SOL     OW30064   0.732   0.682   3.945
 9722SOL    HW130065   0.813   0.732   3.914
 9722SOL    HW230066   0.679   0.740   4.007
 9723SOL     OW30067   0.381   1.181   3.579
 9723SOL    HW130068   0.313   1.109   3.564
 9723SOL    HW230069   0.335   1.264   3.611
 9724SOL     OW30070   3.814   2.336   1.430
 9724SOL    HW130071   3.769   2.280   1.499
 9724SOL    HW230072   3.896   2.378   1.469
 9725SOL     OW30073   4.365   3.338   5.461
 9725SOL    HW130074   4.285   3.387   5.426
 9725SOL    HW230075   4.341   3.242   5.477
 9726SOL     OW30076   4.726   6.429   4.706
 9726SOL    HW130077   4.723   6.337   4.667
 9726SOL    HW230078   4.633   6.461   4.724
 9727SOL     OW30079   1.585   2.798   5.740
 9727SOL    HW130080   1.491   2.820   5.769
 9727SOL    HW230081   1.645   2.875   5.763
 9728SOL     OW30082   2.727   6.008   6.944
 9728SOL    HW130083   2.796   5.945   6.979
 9728SOL    HW230084   2.642   5.958   6.926
 9729SOL     OW30085   2.659   5.067   2.827
 9729SOL    HW130086   2.737   5.005   2.836
 9729SOL    HW230087   2.576   5.013   2.812
 9730SOL     OW30088   6.200   2.804   2.678
 9730SOL    HW130089   6.222   2.865   2.602
 9730SOL    HW230090   6.101   2.803   2.693
 9731SOL     OW30091   3.557   4.852   0.970
 9731SOL    HW130092   3.571   4.772   0.911
 9731SOL    HW230093   3.554   4.935   0.915
 9732SOL     OW30094   6.601   6.303   2.639
 9732SOL    HW130095   6.557   6.384   2.678
 9732SOL    HW230096   6.681   6.279   2.694
 9733SOL     OW30097   4.817   4.623   5.305
 9733SOL    HW130098   4.867   4.564   5.369
 9733SOL    HW230099   4.793   4.571   5.223
 9734SOL     OW30100   5.304   2.447   4.332
 9734SOL    HW130101   5.246   2.467   4.253
 9734SOL    HW230102   5.248   2.411   4.406
 9735SOL     OW30103   1.812   4.716   1.472
 9735SOL    HW130104   1.787   4.771   1.552
 9735SOL    HW230105   1.904   4.680   1.483
 9736SOL     OW30106   4.276   1.097   6.955
 9736SOL    HW130107   4.210   1.025   6.938
 9736SOL    HW230108   4.248   1.180   6.906
 9737SOL     OW30109   4.049   2.205   5.063
 9737SOL    HW130110   4.119   2.272   5.037
 9737SOL    HW230111   3.995   2.242   5.139
 9738SOL     OW30112   1.565   0.867   2.952
 9738SOL    HW130113   1.543   0.868   2.854
 9738SOL    HW230114   1.662   0.844   2.963
 9739SOL     OW30115   5.960   4.899   1.801
 9739SOL    HW130116   6.015   4.969   1.755
 9739SOL    HW230117   5.866   4.931   1.808
 9740SOL     OW30118   6.724   4.999   3.029
 9740SOL    HW130119   6.677   5.078   2.989
 9740SOL    HW230120   6.678   4.973   3.114
 9741SOL     OW30121   4.291   2.336   2.249
 9741SOL    HW130122   4.327   2.371   2.335
 9741SOL    HW230123   4.362   2.342   2.178
 9742SOL     OW30124   5.227   1.256   3.911
 9742SOL    HW130125   5.256   1.338   3.860
 9742SOL    HW230126   5.144   1.219   3.870
 9743SOL     OW30127   1.803   2.974   5.813
 9743SOL    HW130128   1.874   2.979   5.743
 9743SOL    HW230129   1.738   3.049   5.800
 9744SOL     OW30130   2.421   0.998   2.114
 9744SOL    HW130131   2.339   1.054   2.107
 9744SOL    HW230132   2.444   0.961   2.024
 9745SOL     OW30133   6.948   2.632   5.009
 9745SOL    HW130134   7.002   2.714   4.984
 9745SOL    HW230135   6.901   2.648   5.096
 9746SOL     OW30136   6.072   0.953   4.754
 9746SOL    HW130137   5.996   0.971   4.816
 9746SOL    HW230138   6.149   0.913   4.804
 9747SOL     OW30139   0.567   0.038   6.217
 9747SOL    HW130140   0.478   0.023   6.260
 9747SOL    HW230141   0.636   0.050   6.288
 9748SOL     OW30142   0.840   6.276   4.023
 9748SOL    HW130143   0.795   6.294   4.110
 9748SOL    HW230144   0.916   6.339   4.010
 9749SOL     OW30145   0.509   4.139   4.296
 9749SOL    HW130146   0.503   4.180   4.205
 9749SOL    HW230147   0.418   4.137   4.338
 9750SOL     OW30148   4.044   4.866   3.662
 9750SOL    HW130149   4.039   4.838   3.757
 9750SOL    HW230150   3.955   4.852   3.618
 9751SOL     OW30151   1.645   2.553   0.336
 9751SOL    HW130152   1.576   2.597   0.394
 9751SOL    HW230153   1.624   2.569   0.240
 9752SOL     OW30154   4.288   1.272   6.125
 9752SOL    HW130155   4.246   1.319   6.203
 9752SOL    HW230156   4.375   1.316   6.103
 9753SOL     OW30157   6.959   5.468   5.075
 9753SOL    HW130158   0.036   5.499   5.071
 9753SOL    HW230159   6.954   5.385   5.131
 9754SOL     OW30160   1.078   1.416   6.535
 9754SOL    HW130161   1.153   1.437   6.598
 9754SOL    HW230162   0.991   1.429   6.582
 9755SOL     OW30163   3.734   4.745   5.569
 9755SOL    HW130164   3.694   4.700   5.489
 9755SOL    HW230165   3.810   4.692   5.604
 9756SOL     OW30166   6.033   2.332   6.126
 9756SOL    HW130167   6.078   2.305   6.041
 9756SOL    HW230168   6.061   2.425   6.151
 9757SOL     OW30169   5.846   2.376   3.761
 9757SOL    HW130170   5.800   2.455   3.802
 9757SOL    HW230171   5.936   2.364   3.804
 9758SOL     OW30172   2.884   0.507   0.315
 9758SOL    HW130173   2.839   0.572   0.255
 9758SOL    HW230174   2.906   0.552   0.402
 9759SOL     OW30175   3.095   6.142   1.264
 9759SOL    HW130176   3.160   6.129   1.190
 9759SOL    HW230177   3.143   6.140   1.351
 9760SOL     OW30178   5.987   4.549   5.894
 9760SOL    HW130179   6.026   4.550   5.802
 9760SOL    HW230180   6.060   4.547   5.962
 9761SOL     OW30181   5.481   5.378   1.672
 9761SOL    HW130182   5.440   5.286   1.669
 9761SOL    HW230183   5.539   5.386   1.754
 9762SOL     OW30184   2.236   1.539   4.797
 9762SOL    HW130185   2.158   1.600   4.782
 9762SOL    HW230186   2.250   1.528   4.896
 9763SOL     OW30187   2.439   2.044   0.784
 9763SOL    HW130188   2.504   2.022   0.712
 9763SOL    HW230189   2.488   2.087   0.861
 9764SOL     OW30190   0.989   1.808   1.973
 9764SOL    HW130191   0.929   1.830   2.049
 9764SOL    HW230192   1.015   1.712   1.977
 9765SOL     OW30193   0.663   1.888   5.314
 9765SOL    HW130194   0.682   1.963   5.378
 9765SOL    HW230195   0.564   1.875   5.307
 9766SOL     OW30196   2.848   0.515   2.280
 9766SOL    HW130197   2.819   0.507   2.185
 9766SOL    HW230198   2.857   0.611   2.305
 9767SOL     OW30199   5.454   0.367   4.707
 9767SOL    HW130200   5.399   0.298   4.756
 9767SOL    HW230201   5.403   0.453   4.703
 9768SOL     OW30202   4.390   2.384   2.507
 9768SOL    HW130203   4.309   2.350   2.556
 9768SOL    HW230204   4.421   2.469   2.550
 9769SOL     OW30205   0.935   1.762   1.171
 9769SOL    HW130206   0.842   1.773   1.137
 9769SOL    HW230207   0.936   1.691   1.242
 9770SOL     OW30208   5.745   4.934   6.170
 9770SOL    HW130209   5.722   4.883   6.088
 9770SOL    HW230210   5.830   4.986   6.154
 9771SOL     OW30211   4.014   5.523   5.964
 9771SOL    HW130212   4.045   5.487   5.876
 9771SOL    HW230213   4.093   5.550   6.019
 9772SOL     OW30214   6.379   0.735   1.569
 9772SOL    HW130215   6.377   0.834   1.553
 9772SOL    HW230216   6.347   0.716   1.661
 9773SOL     OW30217   6.370   5.676   3.364
 9773SOL    HW130218   6.283   5.628   3.382
 9773SOL    HW230219   6.351   5.770   3.336
 9774SOL     OW30220   6.610   4.551   3.241
 9774SOL    HW130221   6.667   4.618   3.289
 9774SOL    HW230222   6.515   4.581   3.241
 9775SOL     OW30223   2.093   2.473   4.744
 9775SOL    HW130224   2.129   2.553   4.695
 9775SOL    HW230225   1.993   2.475   4.743
 9776SOL     OW30226   0.525   6.274   5.160
 9776SOL    HW130227   0.476   6.332   5.095
 9776SOL    HW230228   0.548   6.187   5.116
 9777SOL     OW30229   5.504   4.453   6.090
 9777SOL    HW130230   5.510   4.353   6.084
 9777SOL    HW230231   5.458   4.478   6.175
 9778SOL     OW30232   4.720   6.968   2.344
 9778SOL    HW130233   4.711   7.007   2.435
 9778SOL    HW230234   4.649   7.005   2.284
 9779SOL     OW30235   2.721   1.750   5.784
 9779SOL    HW130236   2.670   1.827   5.747
 9779SOL    HW230237   2.661   1.693   5.840
 9780SOL     OW30238   3.421   4.526   7.005
 9780SOL    HW130239   3.353   4.459   6.976
 9780SOL    HW230240   3.480   4.549   6.928
 9781SOL     OW30241   1.396   5.025   4.558
 9781SOL    HW130242   1.344   4.958   4.610
 9781SOL    HW230243   1.430   5.096   4.620
 9782SOL     OW30244   6.694   0.346   1.103
 9782SOL    HW130245   6.741   0.433   1.119
 9782SOL    HW230246   6.642   0.320   1.185
 9783SOL     OW30247   5.302   1.101   2.053
 9783SOL    HW130248   5.219   1.066   2.010
 9783SOL    HW230249   5.279   1.180   2.111
 9784SOL     OW30250   4.997   0.781   3.823
 9784SOL    HW130251   4.970   0.691   3.790
 9784SOL    HW230252   4.963   0.851   3.760
 9785SOL     OW30253   0.802   2.975   1.857
 9785SOL    HW130254   0.766   2.882   1.863
 9785SOL    HW230255   0.861   2.993   1.936
 9786SOL     OW30256   2.967   5.982   4.803
 9786SOL    HW130257   2.915   6.032   4.734
 9786SOL    HW230258   3.064   6.002   4.792
 9787SOL     OW30259   4.935   4.185   2.000
 9787SOL    HW130260   4.856   4.216   2.051
 9787SOL    HW230261   4.965   4.256   1.936
 9788SOL     OW30262   6.844   1.366   5.998
 9788SOL    HW130263   6.830   1.323   5.909
 9788SOL    HW230264   6.813   1.305   6.070
 9789SOL     OW30265   2.370   5.880   4.595
 9789SOL    HW130266   2.279   5.868   4.557
 9789SOL    HW230267   2.425   5.799   4.576
 9790SOL     OW30268   6.175   2.130   4.627
 9790SOL    HW130269   6.117   2.140   4.708
 9790SOL    HW230270   6.267   2.161   4.648
 9791SOL     OW30271   0.670   2.359   1.056
 9791SOL    HW130272   0.669   2.281   1.119
 9791SOL    HW230273   0.736   2.343   0.983
 9792SOL     OW30274   4.308   5.424   1.313
 9792SOL    HW130275   4.369   5.504   1.312
 9792SOL    HW230276   4.216   5.451   1.286
 9793SOL     OW30277   4.826   6.296   1.910
 9793SOL    HW130278   4.842   6.201   1.881
 9793SOL    HW230279   4.826   6.300   2.010
 9794SOL     OW30280   4.006   2.767   6.557
 9794SOL    HW130281   4.079   2.799   6.617
 9794SOL    HW230282   3.923   2.751   6.610
 9795SOL     OW30283   1.731   3.006   3.934
 9795SOL    HW130284   1.719   3.047   4.024
 9795SOL    HW230285   1.659   3.039   3.873
 9796SOL     OW30286   3.175   5.118   6.845
 9796SOL    HW130287   3.105   5.065   6.798
 9796SOL    HW230288   3.244   5.148   6.778
 9797SOL     OW30289   4.561   3.061   5.333
 9797SOL    HW130290   4.529   3.045   5.426
 9797SOL    HW230291   4.620   3.141   5.331
 9798SOL     OW30292   2.124   1.873   1.326
 9798SOL    HW130293   2.110   1.946   1.260
 9798SOL    HW230294   2.049   1.874   1.393
 9799SOL     OW30295   3.044   3.968   1.916
 9799SOL    HW130296   2.967   3.990   1.855
 9799SOL    HW230297   3.032   3.877   1.954
 9800SOL     OW30298   4.275   4.917   6.759
 9800SOL    HW130299   4.240   4.997   6.808
 9800SOL    HW230300   4.221   4.903   6.676
 9801SOL     OW30301   4.253   5.117   0.104
 9801SOL    HW130302   4.163   5.099   0.065
 9801SOL    HW230303   4.264   5.216   0.117
 9802SOL     OW30304   6.821   3.645   0.722
 9802SOL    HW130305   6.822   3.574   0.652
 9802SOL    HW230306   6.873   3.724   0.690
 9803SOL     OW30307   6.055   0.960   6.712
 9803SOL    HW130308   5.976   0.959   6.650
 9803SOL    HW230309   6.024   0.979   6.805
 9804SOL     OW30310   6.003   5.631   4.609
 9804SOL    HW130311   6.003   5.545   4.558
 9804SOL    HW230312   5.909   5.666   4.614
 9805SOL     OW30313   2.299   5.368   6.889
 9805SOL    HW130314   2.313   5.332   6.981
 9805SOL    HW230315   2.290   5.468   6.893
 9806SOL     OW30316   6.769   1.609   2.798
 9806SOL    HW130317   6.822   1.611   2.713
 9806SOL    HW230318   6.678   1.645   2.782
 9807SOL     OW30319   3.768   2.537   0.955
 9807SOL    HW130320   3.868   2.542   0.949
 9807SOL    HW230321   3.741   2.529   1.051
 9808SOL     OW30322   1.169   1.460   4.929
 9808SOL    HW130323   1.183   1.491   4.835
 9808SOL    HW230324   1.110   1.525   4.977
 9809SOL     OW30325   0.878   1.020   4.788
 9809SOL    HW130326   0.796   0.996   4.737
 9809SOL    HW230327   0.863   1.107   4.836
 9810SOL     OW30328   3.713   0.955   3.545
 9810SOL    HW130329   3.776   0.927   3.618
 9810SOL    HW230330   3.710   1.054   3.540
 9811SOL     OW30331   0.720   6.544   2.971
 9811SOL    HW130332   0.631   6.567   3.010
 9811SOL    HW230333   0.726   6.581   2.878
 9812SOL     OW30334   4.874   2.486   5.660
 9812SOL    HW130335   4.818   2.522   5.735
 9812SOL    HW230336   4.832   2.403   5.624
 9813SOL     OW30337   6.624   4.907   0.478
 9813SOL    HW130338   6.679   4.879   0.399
 9813SOL    HW230339   6.575   4.991   0.455
 9814SOL     OW30340   0.332   0.214   5.533
 9814SOL    HW130341   0.314   0.227   5.631
 9814SOL    HW230342   0.425   0.245   5.513
 9815SOL     OW30343   6.272   3.659   2.568
 9815SOL    HW130344   6.175   3.636   2.570
 9815SOL    HW230345   6.283   3.752   2.532
 9816SOL     OW30346   0.047   6.837   6.237
 9816SOL    HW130347   0.022   6.741   6.247
 9816SOL    HW230348   7.007   6.880   6.168
 9817SOL     OW30349   2.775   6.707   0.039
 9817SOL    HW130350   2.697   6.666   7.010
 9817SOL    HW230351   2.831   6.758   6.992
 9818SOL     OW30352   0.585   0.100   3.440
 9818SOL    HW130353   0.678   0.110   3.403
 9818SOL    HW230354   0.589   0.056   3.530
 9819SOL     OW30355   6.939   3.532   4.943
 9819SOL    HW130356   6.958   3.533   5.042
 9819SOL    HW230357   6.889   3.449   4.919
 9820SOL     OW30358   4.194   1.856   5.518
 9820SOL    HW130359   4.108   1.898   5.547
 9820SOL    HW230360   4.217   1.782   5.582
 9821SOL     OW30361   4.127   3.119   1.243
 9821SOL    HW130362   4.067   3.051   1.200
 9821SOL    HW230363   4.083   3.154   1.325
 9822SOL     OW30364   3.675   6.379   5.537
 9822SOL    HW130365   3.608   6.450   5.520
 9822SOL    HW230366   3.692   6.327   5.453
 9823SOL     OW30367   2.324   0.325   2.894
 9823SOL    HW130368   2.260   0.359   2.825
 9823SOL    HW230369   2.418   0.343   2.864
 9824SOL     OW30370   1.092   6.428   5.347
 9824SOL    HW130371   0.993   6.415   5.356
 9824SOL    HW230372   1.121   6.403   5.254
 9825SOL     OW30373   5.723   6.396   5.401
 9825SOL    HW130374   5.677   6.484   5.394
 9825SOL    HW230375   5.821   6.410   5.417
 9826SOL     OW30376   2.081   5.595   4.763
 9826SOL    HW130377   2.134   5.535   4.822
 9826SOL    HW230378   1.985   5.595   4.791
 9827SOL     OW30379   1.271   5.065   1.760
 9827SOL    HW130380   1.230   5.123   1.690
 9827SOL    HW230381   1.366   5.046   1.735
 9828SOL     OW30382   4.576   2.311   4.369
 9828SOL    HW130383   4.531   2.328   4.457
 9828SOL    HW230384   4.517   2.342   4.295
 9829SOL     OW30385   4.496   5.457   5.608
 9829SOL    HW130386   4.460   5.516   5.536
 9829SOL    HW230387   4.539   5.377   5.567
 9830SOL     OW30388   5.866   2.302   3.156
 9830SOL    HW130389   5.900   2.298   3.062
 9830SOL    HW230390   5.776   2.345   3.157
 9831SOL     OW30391   0.576   3.629   3.071
 9831SOL    HW130392   0.591   3.554   3.136
 9831SOL    HW230393   0.622   3.711   3.103
 9832SOL     OW30394   4.526   5.019   4.946
 9832SOL    HW130395   4.622   5.006   4.921
 9832SOL    HW230396   4.507   4.974   5.033
 9833SOL     OW30397   4.041   3.799   3.521
 9833SOL    HW130398   4.005   3.813   3.613
 9833SOL    HW230399   3.966   3.782   3.458
 9834SOL     OW30400   2.837   6.529   5.848
 9834SOL    HW130401   2.773   6.553   5.920
 9834SOL    HW230402   2.871   6.436   5.862
 9835SOL     OW30403   3.925   3.857   3.783
 9835SOL    HW130404   3.917   3.931   3.849
 9835SOL    HW230405   4.009   3.805   3.801
 9836SOL     OW30406   0.560   4.088   5.927
 9836SOL    HW130407   0.541   3.990   5.926
 9836SOL    HW230408   0.581   4.119   5.835
 9837SOL     OW30409   5.433   1.861   3.114
 9837SOL    HW130410   5.467   1.805   3.190
 9837SOL    HW230411   5.341   1.892   3.135
 9838SOL     OW30412   1.676   6.842   1.480
 9838SOL    HW130413   1.669   6.792   1.393
 9838SOL    HW230414   1.767   6.881   1.489
 9839SOL     OW30415   5.241   0.118   3.891
 9839SOL    HW130416   5.153   0.156   3.920
 9839SOL    HW230417   5.288   0.183   3.833
 9840SOL     OW30418   6.254   1.638   6.934
 9840SOL    HW130419   6.217   1.636   6.841
 9840SOL    HW230420   6.344   1.681   6.933
 9841SOL     OW30421   0.457   6.559   3.050
 9841SOL    HW130422   0.389   6.598   2.988
 9841SOL    HW230423   0.445   6.460   3.054
 9842SOL     OW30424   3.312   1.121   6.355
 9842SOL    HW130425   3.368   1.057   6.302
 9842SOL    HW230426   3.223   1.131   6.311
 9843SOL     OW30427   0.487   0.207   1.204
 9843SOL    HW130428   0.466   0.296   1.244
 9843SOL    HW230429   0.442   0.135   1.256
 9844SOL     OW30430   4.366   0.050   3.964
 9844SOL    HW130431   4.292   0.026   4.026
 9844SOL    HW230432   4.349   0.140   3.924
 9845SOL     OW30433   2.054   3.463   2.542
 9845SOL    HW130434   1.991   3.534   2.511
 9845SOL    HW230435   2.037   3.379   2.490
 9846SOL     OW30436   5.730   2.350   1.654
 9846SOL    HW130437   5.667   2.420   1.688
 9846SOL    HW230438   5.680   2.266   1.634
 9847SOL     OW30439   4.133   4.202   6.692
 9847SOL    HW130440   4.052   4.149   6.713
 9847SOL    HW230441   4.144   4.209   6.593
 9848SOL     OW30442   3.296   4.065   5.865
 9848SOL    HW130443   3.263   3.977   5.902
 9848SOL    HW230444   3.391   4.055   5.838
 9849SOL     OW30445   0.350   2.325   4.411
 9849SOL    HW130446   0.418   2.253   4.418
 9849SOL    HW230447   0.272   2.302   4.470
 9850SOL     OW30448   1.143   0.592   4.445
 9850SOL    HW130449   1.153   0.493   4.453
 9850SOL    HW230450   1.233   0.636   4.447
 9851SOL     OW30451   3.683   5.394   4.868
 9851SOL    HW130452   3.703   5.446   4.785
 9851SOL    HW230453   3.672   5.457   4.945
 9852SOL     OW30454   2.157   0.460   0.077
 9852SOL    HW130455   2.106   0.543   0.101
 9852SOL    HW230456   2.185   0.465   7.000
 9853SOL     OW30457   6.821   4.531   3.572
 9853SOL    HW130458   6.745   4.467   3.580
 9853SOL    HW230459   6.899   4.484   3.530
 9854SOL     OW30460   0.950   4.074   5.772
 9854SOL    HW130461   0.877   4.111   5.715
 9854SOL    HW230462   0.975   3.983   5.738
 9855SOL     OW30463   0.974   4.821   1.203
 9855SOL    HW130464   1.000   4.885   1.274
 9855SOL    HW230465   0.980   4.727   1.238
 9856SOL     OW30466   5.871   4.057   3.190
 9856SOL    HW130467   5.809   4.033   3.115
 9856SOL    HW230468   5.884   4.156   3.191
 9857SOL     OW30469   4.235   0.374   5.145
 9857SOL    HW130470   4.287   0.352   5.062
 9857SOL    HW230471   4.296   0.414   5.213
 9858SOL     OW30472   6.445   6.230   2.405
 9858SOL    HW130473   6.500   6.265   2.480
 9858SOL    HW230474   6.349   6.255   2.419
 9859SOL     OW30475   0.063   4.918   3.368
 9859SOL    HW130476   0.125   4.970   3.309
 9859SOL    HW230477   7.010   4.876   3.312
 9860SOL     OW30478   1.395   2.620   4.805
 9860SOL    HW130479   1.458   2.685   4.846
 9860SOL    HW230480   1.332   2.668   4.744
 9861SOL     OW30481   3.295   2.107   3.239
 9861SOL    HW130482   3.306   2.137   3.333
 9861SOL    HW230483   3.326   2.012   3.230
 9862SOL     OW30484   0.989   4.198   0.350
 9862SOL    HW130485   1.042   4.181   0.433
 9862SOL    HW230486   1.044   4.252   0.286
 9863SOL     OW30487   4.051   5.995   0.835
 9863SOL    HW130488   4.133   6.034   0.876
 9863SOL    HW230489   4.073   5.907   0.793
 9864SOL     OW30490   2.335   5.652   5.439
 9864SOL    HW130491   2.248   5.665   5.486
 9864SOL    HW230492   2.337   5.562   5.396
 9865SOL     OW30493   0.585   5.657   5.374
 9865SOL    HW130494   0.544   5.664   5.465
 9865SOL    HW230495   0.656   5.727   5.364
 9866SOL     OW30496   6.482   4.981   5.193
 9866SOL    HW130497   6.421   4.953   5.119
 9866SOL    HW230498   6.449   5.068   5.231
 9867SOL     OW30499   4.029   1.733   2.427
 9867SOL    HW130500   4.119   1.721   2.468
 9867SOL    HW230501   3.968   1.777   2.493
 9868SOL     OW30502   2.338   4.359   4.051
 9868SOL    HW130503   2.330   4.280   4.112
 9868SOL    HW230504   2.361   4.328   3.959
 9869SOL     OW30505   6.362   3.062   0.820
 9869SOL    HW130506   6.381   3.161   0.822
 9869SOL    HW230507   6.432   3.016   0.767
 9870SOL     OW30508   2.558   2.086   2.197
 9870SOL    HW130509   2.583   2.006   2.142
 9870SOL    HW230510   2.462   2.109   2.180
 9871SOL     OW30511   6.203   5.203   4.027
 9871SOL    HW130512   6.140   5.255   3.970
 9871SOL    HW230513   6.275   5.163   3.969
 9872SOL     OW30514   0.739   4.979   6.284
 9872SOL    HW130515   0.717   5.028   6.199
 9872SOL    HW230516   0.831   4.942   6.279
 9873SOL     OW30517   1.317   1.559   5.741
 9873SOL    HW130518   1.388   1.498   5.777
 9873SOL    HW230519   1.277   1.518   5.659
 9874SOL     OW30520   0.152   3.138   5.045
 9874SOL    HW130521   0.111   3.202   5.110
 9874SOL    HW230522   0.172   3.187   4.960
 9875SOL     OW30523   6.613   5.986   1.174
 9875SOL    HW130524   6.604   5.975   1.273
 9875SOL    HW230525   6.621   6.083   1.152
 9876SOL     OW30526   1.221   6.516   3.529
 9876SOL    HW130527   1.281   6.502   3.608
 9876SOL    HW230528   1.126   6.519   3.560
 9877SOL     OW30529   0.715   4.932   5.009
 9877SOL    HW130530   0.750   4.990   4.936
 9877SOL    HW230531   0.769   4.946   5.092
 9878SOL     OW30532   3.212   2.869   6.490
 9878SOL    HW130533   3.176   2.960   6.514
 9878SOL    HW230534   3.306   2.861   6.522
 9879SOL     OW30535   6.731   4.929   6.095
 9879SOL    HW130536   6.796   4.908   6.169
 9879SOL    HW230537   6.749   4.868   6.017
 9880SOL     OW30538   2.456   1.521   0.832
 9880SOL    HW130539   2.429   1.452   0.899
 9880SOL    HW230540   2.516   1.588   0.875
 9881SOL     OW30541   6.250   1.376   3.552
 9881SOL    HW130542   6.179   1.306   3.546
 9881SOL    HW230543   6.316   1.350   3.623
 9882SOL     OW30544   3.501   3.004   5.354
 9882SOL    HW130545   3.591   3.047   5.345
 9882SOL    HW230546   3.466   2.980   5.264
 9883SOL     OW30547   2.121   0.246   1.982
 9883SOL    HW130548   2.156   0.339   1.983
 9883SOL    HW230549   2.047   0.237   2.049
 9884SOL     OW30550   3.161   2.522   5.625
 9884SOL    HW130551   3.123   2.496   5.536
 9884SOL    HW230552   3.086   2.538   5.690
 9885SOL     OW30553   5.237   3.119   5.296
 9885SOL    HW130554   5.303   3.185   5.331
 9885SOL    HW230555   5.162   3.108   5.361
 9886SOL     OW30556   3.545   5.999   1.629
 9886SOL    HW130557   3.619   5.933   1.616
 9886SOL    HW230558   3.457   5.954   1.615
 9887SOL     OW30559   3.080   0.853   6.869
 9887SOL    HW130560   3.124   0.764   6.883
 9887SOL    HW230561   3.078   0.904   6.956
 9888SOL     OW30562   6.499   6.299   3.583
 9888SOL    HW130563   6.498   6.385   3.532
 9888SOL    HW230564   6.591   6.258   3.578
 9889SOL     OW30565   0.043   5.961   3.082
 9889SOL    HW130566   7.008   6.019   3.143
 9889SOL    HW230567   0.071   5.879   3.131
 9890SOL     OW30568   0.831   3.724   1.435
 9890SOL    HW130569   0.923   3.757   1.418
 9890SOL    HW230570   0.835   3.639   1.487
 9891SOL     OW30571   5.844   5.388   1.372
 9891SOL    HW130572   5.750   5.355   1.368
 9891SOL    HW230573   5.850   5.462   1.439
 9892SOL     OW30574   1.485   5.183   3.922
 9892SOL    HW130575   1.418   5.185   3.997
 9892SOL    HW230576   1.531   5.094   3.922
 9893SOL     OW30577   5.169   5.000   4.538
 9893SOL    HW130578   5.098   4.959   4.481
 9893SOL    HW230579   5.250   5.019   4.483
 9894SOL     OW30580   4.505   2.991   5.600
 9894SOL    HW130581   4.471   3.013   5.692
 9894SOL    HW230582   4.511   2.892   5.589
 9895SOL     OW30583   5.415   2.089   6.701
 9895SOL    HW130584   5.349   2.014   6.713
 9895SOL    HW230585   5.504   2.051   6.677
 9896SOL     OW30586   4.475   3.383   0.381
 9896SOL    HW130587   4.424   3.299   0.399
 9896SOL    HW230588   4.485   3.395   0.282
 9897SOL     OW30589   6.771   1.933   3.991
 9897SOL    HW130590   6.804   2.017   4.034
 9897SOL    HW230591   6.672   1.941   3.974
 9898SOL     OW30592   1.131   5.331   5.340
 9898SOL    HW130593   1.119   5.399   5.269
 9898SOL    HW230594   1.046   5.279   5.351
 9899SOL     OW30595   4.984   5.150   2.054
 9899SOL    HW130596   5.066   5.163   2.110
 9899SOL    HW230597   4.974   5.054   2.030
 9900SOL     OW30598   0.889   3.188   3.152
 9900SOL    HW130599   0.824   3.191   3.228
 9900SOL    HW230600   0.840   3.167   3.067
 9901SOL     OW30601   2.629   1.774   5.271
 9901SOL    HW130602   2.635   1.853   5.209
 9901SOL    HW230603   2.536   1.766   5.307
 9902SOL     OW30604   4.696   3.815   6.947
 9902SOL    HW130605   4.690   3.736   7.008
 9902SOL    HW230606   4.611   3.868   6.952
 9903SOL     OW30607   3.857   1.042   1.354
 9903SOL    HW130608   3.916   1.122   1.363
 9903SOL    HW230609   3.762   1.069   1.368
 9904SOL     OW30610   6.918   0.253   2.142
 9904SOL    HW130611   6.998   0.309   2.119
 9904SOL    HW230612   6.865   0.299   2.213
 9905SOL     OW30613   1.658   6.075   6.268
 9905SOL    HW130614   1.668   6.164   6.223
 9905SOL    HW230615   1.719   6.071   6.347
 9906SOL     OW30616   3.476   3.708   6.041
 9906SOL    HW130617   3.528   3.624   6.055
 9906SOL    HW230618   3.538   3.784   6.022
 9907SOL     OW30619   1.728   6.584   2.847
 9907SOL    HW130620   1.629   6.567   2.855
 9907SOL    HW230621   1.769   6.513   2.789
 9908SOL     OW30622   0.994   3.349   5.137
 9908SOL    HW130623   0.920   3.343   5.204
 9908SOL    HW230624   1.072   3.296   5.169
 9909SOL     OW30625   3.538   6.758   2.595
 9909SOL    HW130626   3.600   6.724   2.524
 9909SOL    HW230627   3.498   6.844   2.567
 9910SOL     OW30628   0.475   4.175   1.839
 9910SOL    HW130629   0.555   4.131   1.880
 9910SOL    HW230630   0.460   4.264   1.883
 9911SOL     OW30631   3.294   4.935   3.203
 9911SOL    HW130632   3.294   4.994   3.122
 9911SOL    HW230633   3.321   4.842   3.177
 9912SOL     OW30634   4.458   0.164   1.341
 9912SOL    HW130635   4.515   0.082   1.348
 9912SOL    HW230636   4.510   0.236   1.295
 9913SOL     OW30637   4.295   1.919   2.733
 9913SOL    HW130638   4.348   2.000   2.760
 9913SOL    HW230639   4.267   1.869   2.815
 9914SOL     OW30640   1.782   5.390   5.665
 9914SOL    HW130641   1.762   5.458   5.595
 9914SOL    HW230642   1.740   5.303   5.640
 9915SOL     OW30643   5.305   3.775   4.684
 9915SOL    HW130644   5.372   3.711   4.645
 9915SOL    HW230645   5.257   3.731   4.760
 9916SOL     OW30646   2.519   2.966   1.003
 9916SOL    HW130647   2.615   2.953   0.978
 9916SOL    HW230648   2.501   3.063   1.021
 9917SOL     OW30649   2.457   3.304   5.324
 9917SOL    HW130650   2.454   3.216   5.277
 9917SOL    HW230651   2.416   3.295   5.414
 9918SOL     OW30652   2.081   1.153   4.802
 9918SOL    HW130653   2.092   1.112   4.893
 9918SOL    HW230654   1.984   1.164   4.781
 9919SOL     OW30655   0.120   5.407   2.660
 9919SOL    HW130656   0.188   5.384   2.729
 9919SOL    HW230657   0.143   5.495   2.619
 9920SOL     OW30658   4.184   6.689   1.997
 9920SOL    HW130659   4.186   6.610   2.059
 9920SOL    HW230660   4.277   6.717   1.975
 9921SOL     OW30661   4.628   6.801   3.619
 9921SOL    HW130662   4.564   6.793   3.695
 9921SOL    HW230663   4.578   6.833   3.538
 9922SOL     OW30664   4.540   3.469   1.142
 9922SOL    HW130665   4.610   3.404   1.171
 9922SOL    HW230666   4.556   3.557   1.186
 9923SOL     OW30667   6.618   0.968   6.146
 9923SOL    HW130668   6.586   1.060   6.171
 9923SOL    HW230669   6.652   0.922   6.228
 9924SOL     OW30670   5.386   0.921   2.780
 9924SOL    HW130671   5.403   0.888   2.687
 9924SOL    HW230672   5.473   0.948   2.821
 9925SOL     OW30673   2.931   2.278   4.502
 9925SOL    HW130674   2.963   2.290   4.596
 9925SOL    HW230675   2.841   2.321   4.492
 9926SOL     OW30676   1.503   1.197   0.366
 9926SOL    HW130677   1.527   1.294   0.368
 9926SOL    HW230678   1.582   1.142   0.394
 9927SOL     OW30679   0.711   2.427   2.507
 9927SOL    HW130680   0.624   2.378   2.512
 9927SOL    HW230681   0.759   2.418   2.595
 9928SOL     OW30682   6.652   2.906   2.411
 9928SOL    HW130683   6.601   2.990   2.393
 9928SOL    HW230684   6.725   2.895   2.344
 9929SOL     OW30685   1.625   4.207   5.772
 9929SOL    HW130686   1.699   4.144   5.748
 9929SOL    HW230687   1.639   4.294   5.725
 9930SOL     OW30688   0.523   5.820   7.000
 9930SOL    HW130689   0.556   5.898   0.034
 9930SOL    HW230690   0.431   5.795   0.014
 9931SOL     OW30691   3.046   5.481   0.027
 9931SOL    HW130692   3.045   5.400   0.086
 9931SOL    HW230693   2.972   5.475   6.979
 9932SOL     OW30694   1.891   2.777   0.420
 9932SOL    HW130695   1.903   2.876   0.412
 9932SOL    HW230696   1.980   2.734   0.435
 9933SOL     OW30697   0.779   1.405   2.411
 9933SOL    HW130698   0.701   1.404   2.474
 9933SOL    HW230699   0.813   1.312   2.398
 9934SOL     OW30700   4.670   1.519   6.654
 9934SOL    HW130701   4.659   1.574   6.737
 9934SOL    HW230702   4.761   1.477   6.654
 9935SOL     OW30703   2.631   2.187   0.967
 9935SOL    HW130704   2.640   2.206   1.064
 9935SOL    HW230705   2.620   2.273   0.917
 9936SOL     OW30706   6.086   6.235   6.140
 9936SOL    HW130707   5.992   6.250   6.168
 9936SOL    HW230708   6.142   6.212   6.220
 9937SOL     OW30709   1.142   0.204   3.527
 9937SOL    HW130710   1.105   0.120   3.567
 9937SOL    HW230711   1.237   0.190   3.502
 9938SOL     OW30712   6.851   1.819   3.238
 9938SOL    HW130713   6.869   1.770   3.153
 9938SOL    HW230714   6.771   1.781   3.282
 9939SOL     OW30715   3.342   4.288   1.400
 9939SOL    HW130716   3.391   4.359   1.349
 9939SOL    HW230717   3.311   4.217   1.338
 9940SOL     OW30718   0.044   0.756   3.537
 9940SOL    HW130719   0.002   0.673   3.575
 9940SOL    HW230720   0.073   0.815   3.612
 9941SOL     OW30721   5.301   4.755   0.479
 9941SOL    HW130722   5.319   4.673   0.533
 9941SOL    HW230723   5.221   4.802   0.515
 9942SOL     OW30724   5.423   5.190   3.031
 9942SOL    HW130725   5.392   5.285   3.033
 9942SOL    HW230726   5.363   5.137   2.970
 9943SOL     OW30727   1.532   3.990   5.931
 9943SOL    HW130728   1.541   3.916   5.865
 9943SOL    HW230729   1.553   4.078   5.888
 9944SOL     OW30730   0.700   5.170   6.066
 9944SOL    HW130731   0.601   5.159   6.055
 9944SOL    HW230732   0.719   5.233   6.141
 9945SOL     OW30733   6.503   4.144   6.426
 9945SOL    HW130734   6.448   4.206   6.482
 9945SOL    HW230735   6.465   4.051   6.434
 9946SOL     OW30736   5.153   1.994   1.421
 9946SOL    HW130737   5.075   1.932   1.422
 9946SOL    HW230738   5.192   2.001   1.513
 9947SOL     OW30739   0.618   1.929   3.647
 9947SOL    HW130740   0.703   1.977   3.627
 9947SOL    HW230741   0.590   1.875   3.568
 9948SOL     OW30742   5.732   0.384   4.690
 9948SOL    HW130743   5.635   0.362   4.699
 9948SOL    HW230744   5.769   0.340   4.608
 9949SOL     OW30745   6.534   4.917   3.204
 9949SOL    HW130746   6.502   4.899   3.298
 9949SOL    HW230747   6.464   4.888   3.139
 9950SOL     OW30748   4.948   4.086   5.274
 9950SOL    HW130749   5.000   4.008   5.243
 9950SOL    HW230750   4.857   4.056   5.304
 9951SOL     OW30751   0.229   1.882   3.204
 9951SOL    HW130752   0.201   1.791   3.236
 9951SOL    HW230753   0.213   1.948   3.277
 9952SOL     OW30754   1.183   4.796   2.248
 9952SOL    HW130755   1.133   4.819   2.164
 9952SOL    HW230756   1.258   4.734   2.226
 9953SOL     OW30757   5.950   3.204   3.871
 9953SOL    HW130758   5.997   3.289   3.893
 9953SOL    HW230759   5.862   3.201   3.918
 9954SOL     OW30760   3.899   1.198   0.024
 9954SOL    HW130761   3.825   1.138   0.055
 9954SOL    HW230762   3.885   1.223   6.947
 9955SOL     OW30763   5.582   4.295   1.195
 9955SOL    HW130764   5.679   4.319   1.185
 9955SOL    HW230765   5.575   4.201   1.227
 9956SOL     OW30766   2.245   2.842   3.559
 9956SOL    HW130767   2.282   2.864   3.469
 9956SOL    HW230768   2.292   2.761   3.596
 9957SOL     OW30769   5.542   0.491   0.156
 9957SOL    HW130770   5.625   0.546   0.163
 9957SOL    HW230771   5.520   0.451   0.245
 9958SOL     OW30772   5.670   5.874   0.235
 9958SOL    HW130773   5.700   5.814   0.309
 9958SOL    HW230774   5.700   5.967   0.253
 9959SOL     OW30775   5.076   5.085   0.757
 9959SOL    HW130776   5.173   5.075   0.738
 9959SOL    HW230777   5.047   5.179   0.737
 9960SOL     OW30778   0.163   0.327   0.292
 9960SOL    HW130779   0.260   0.308   0.306
 9960SOL    HW230780   0.109   0.269   0.354
 9961SOL     OW30781   3.085   5.385   1.062
 9961SOL    HW130782   3.163   5.370   1.122
 9961SOL    HW230783   3.008   5.421   1.115
 9962SOL     OW30784   2.934   0.242   1.652
 9962SOL    HW130785   2.991   0.302   1.708
 9962SOL    HW230786   2.847   0.226   1.698
 9963SOL     OW30787   0.957   0.746   5.911
 9963SOL    HW130788   1.012   0.829   5.903
 9963SOL    HW230789   0.987   0.693   5.990
 9964SOL     OW30790   4.471   4.601   5.888
 9964SOL    HW130791   4.507   4.521   5.840
 9964SOL    HW230792   4.546   4.661   5.914
 9965SOL     OW30793   2.859   5.195   3.999
 9965SOL    HW130794   2.926   5.122   3.986
 9965SOL    HW230795   2.881   5.247   4.081
 9966SOL     OW30796   3.618   4.972   2.583
 9966SOL    HW130797   3.641   4.927   2.496
 9966SOL    HW230798   3.533   5.025   2.571
 9967SOL     OW30799   6.533   7.001   3.421
 9967SOL    HW130800   6.604   0.052   3.410
 9967SOL    HW230801   6.445   0.020   3.390
 9968SOL     OW30802   3.880   6.519   0.183
 9968SOL    HW130803   3.935   6.436   0.184
 9968SOL    HW230804   3.788   6.497   0.150
 9969SOL     OW30805   0.942   5.998   3.803
 9969SOL    HW130806   0.998   5.941   3.864
 9969SOL    HW230807   0.884   6.058   3.858
 9970SOL     OW30808   6.781   3.645   1.605
 9970SOL    HW130809   6.822   3.736   1.600
 9970SOL    HW230810   6.820   3.595   1.682
 9971SOL     OW30811   0.585   4.940   3.597
 9971SOL    HW130812   0.624   4.983   3.516
 9971SOL    HW230813   0.502   4.988   3.623
 9972SOL     OW30814   2.977   4.159   6.501
 9972SOL    HW130815   3.045   4.195   6.564
 9972SOL    HW230816   2.906   4.228   6.486
 9973SOL     OW30817   2.248   2.503   2.982
 9973SOL    HW130818   2.178   2.574   2.970
 9973SOL    HW230819   2.297   2.490   2.896
 9974SOL     OW30820   1.051   2.364   2.567
 9974SOL    HW130821   0.960   2.379   2.528
 9974SOL    HW230822   1.118   2.422   2.519
 9975SOL     OW30823   2.584   4.855   0.193
 9975SOL    HW130824   2.622   4.876   0.283
 9975SOL    HW230825   2.583   4.938   0.137
 9976SOL     OW30826   4.006   4.895   6.062
 9976SOL    HW130827   3.937   4.887   5.990
 9976SOL    HW230828   3.998   4.985   6.106
 9977SOL     OW30829   4.572   6.871   5.380
 9977SOL    HW130830   4.592   6.968   5.373
 9977SOL    HW230831   4.530   6.851   5.469
 9978SOL     OW30832   1.042   3.659   6.778
 9978SOL    HW130833   1.022   3.752   6.749
 9978SOL    HW230834   1.009   3.645   6.871
 9979SOL     OW30835   3.266   3.457   5.188
 9979SOL    HW130836   3.193   3.524   5.173
 9979SOL    HW230837   3.339   3.472   5.121
 9980SOL     OW30838   2.256   1.854   0.889
 9980SOL    HW130839   2.318   1.913   0.837
 9980SOL    HW230840   2.270   1.869   0.987
 9981SOL     OW30841   6.138   1.996   0.714
 9981SOL    HW130842   6.039   1.995   0.727
 9981SOL    HW230843   6.161   1.942   0.633
 9982SOL     OW30844   2.213   2.005   4.368
 9982SOL    HW130845   2.208   2.102   4.391
 9982SOL    HW230846   2.158   1.986   4.286
 9983SOL     OW30847   0.773   3.075   2.492
 9983SOL    HW130848   0.802   3.135   2.566
 9983SOL    HW230849   0.758   2.983   2.528
 9984SOL     OW30850   0.176   5.337   1.323
 9984SOL    HW130851   0.202   5.422   1.278
 9984SOL    HW230852   0.188   5.345   1.421
 9985SOL     OW30853   5.063   4.770   0.109
 9985SOL    HW130854   5.127   4.800   0.037
 9985SOL    HW230855   5.013   4.690   0.077
 9986SOL     OW30856   5.505   5.150   0.018
 9986SOL    HW130857   5.539   5.107   0.101
 9986SOL    HW230858   5.515   5.250   0.026
 9987SOL     OW30859   5.613   2.697   1.384
 9987SOL    HW130860   5.627   2.639   1.304
 9987SOL    HW230861   5.517   2.694   1.412
 9988SOL     OW30862   5.905   6.280   3.873
 9988SOL    HW130863   5.823   6.279   3.816
 9988SOL    HW230864   5.884   6.240   3.963
 9989SOL     OW30865   0.092   5.292   2.346
 9989SOL    HW130866   0.132   5.256   2.430
 9989SOL    HW230867   7.011   5.299   2.356
 9990SOL     OW30868   0.189   6.818   3.881
 9990SOL    HW130869   0.149   6.852   3.796
 9990SOL    HW230870   0.215   6.722   3.870
 9991SOL     OW30871   1.766   4.965   3.317
 9991SOL    HW130872   1.754   4.982   3.415
 9991SOL    HW230873   1.731   4.875   3.294
 9992SOL     OW30874   2.735   4.714   1.027
 9992SOL    HW130875   2.735   4.649   0.950
 9992SOL    HW230876   2.794   4.791   1.006
 9993SOL     OW30877   3.494   6.361   4.342
 9993SOL    HW130878   3.581   6.386   4.384
 9993SOL    HW230879   3.474   6.265   4.363
 9994SOL     OW30880   5.858   5.078   4.946
 9994SOL    HW130881   5.789   5.148   4.931
 9994SOL    HW230882   5.838   5.029   5.031
 9995SOL     OW30883   2.930   0.508   5.411
 9995SOL    HW130884   2.897   0.420   5.378
 9995SOL    HW230885   2.914   0.578   5.340
 9996SOL     OW30886   2.991   3.604   0.769
 9996SOL    HW130887   2.987   3.687   0.713
 9996SOL    HW230888   2.904   3.591   0.815
 9997SOL     OW30889   6.319   2.589   3.328
 9997SOL    HW130890   6.289   2.561   3.237
 9997SOL    HW230891   6.259   2.547   3.397
 9998SOL     OW30892   4.814   4.459   2.381
 9998SOL    HW130893   4.827   4.498   2.472
 9998SOL    HW230894   4.771   4.526   2.321
 9999SOL     OW30895   0.650   0.085   3.709
 9999SOL    HW130896   0.627   0.180   3.732
 9999SOL    HW230897   0.586   0.023   3.755
10000SOL     OW30898   4.865   2.196   1.073
10000SOL    HW130899   4.879   2.161   1.166
10000SOL    HW230900   4.929   2.152   1.011
10001SOL     OW30901   4.307   5.986   1.683
10001SOL    HW130902   4.370   6.020   1.613
10001SOL    HW230903   4.272   6.063   1.736
10002SOL     OW30904   3.153   1.435   2.025
10002SOL    HW130905   3.251   1.423   2.006
10002SOL    HW230906   3.132   1.399   2.116
10003SOL     OW30907   1.306   1.201   3.788
10003SOL    HW130908   1.344   1.135   3.853
10003SOL    HW230909   1.282   1.285   3.836
10004SOL     OW30910   6.230   4.154   4.716
10004SOL    HW130911   6.209   4.215   4.640
10004SOL    HW230912   6.313   4.102   4.694
10005SOL     OW30913   2.281   5.219   3.297
10005SOL    HW130914   2.375   5.237   3.326
10005SOL    HW230915   2.269   5.121   3.283
10006SOL     OW30916   5.845   0.390   5.239
10006SOL    HW130917   5.796   0.471   5.273
10006SOL    HW230918   5.786   0.340   5.176
10007SOL     OW30919   1.564   4.987   4.325
10007SOL    HW130920   1.514   4.980   4.411
10007SOL    HW230921   1.506   5.028   4.255
10008SOL     OW30922   4.067   1.357   5.964
10008SOL    HW130923   4.122   1.376   6.046
10008SOL    HW230924   4.128   1.332   5.889
10009SOL     OW30925   1.215   3.331   2.481
10009SOL    HW130926   1.265   3.259   2.432
10009SOL    HW230927   1.238   3.420   2.442
10010SOL     OW30928   2.681   3.962   0.360
10010SOL    HW130929   2.721   3.944   0.270
10010SOL    HW230930   2.753   3.991   0.423
10011SOL     OW30931   2.039   3.534   0.099
10011SOL    HW130932   1.954   3.527   0.151
10011SOL    HW230933   2.054   3.450   0.047
10012SOL     OW30934   5.616   2.394   3.075
10012SOL    HW130935   5.580   2.301   3.088
10012SOL    HW230936   5.562   2.441   3.006
10013SOL     OW30937   0.381   5.984   5.132
10013SOL    HW130938   0.355   6.014   5.224
10013SOL    HW230939   0.467   6.028   5.106
10014SOL     OW30940   1.328   0.513   3.348
10014SOL    HW130941   1.270   0.589   3.379
10014SOL    HW230942   1.275   0.453   3.288
10015SOL     OW30943   4.091   4.933   5.641
10015SOL    HW130944   4.097   4.835   5.621
10015SOL    HW230945   4.009   4.971   5.598
10016SOL     OW30946   2.177   0.512   3.559
10016SOL    HW130947   2.079   0.523   3.575
10016SOL    HW230948   2.194   0.506   3.460
10017SOL     OW30949   2.442   2.529   2.264
10017SOL    HW130950   2.402   2.531   2.172
10017SOL    HW230951   2.535   2.491   2.258
10018SOL     OW30952   6.913   3.319   6.171
10018SOL    HW130953   6.974   3.366   6.235
10018SOL    HW230954   6.820   3.353   6.182
10019SOL     OW30955   0.544   2.084   2.010
10019SOL    HW130956   0.480   2.009   2.028
10019SOL    HW230957   0.520   2.163   2.066
10020SOL     OW30958   6.386   0.664   2.427
10020SOL    HW130959   6.377   0.600   2.351
10020SOL    HW230960   6.318   0.641   2.497
10021SOL     OW30961   0.837   3.334   2.369
10021SOL    HW130962   0.890   3.250   2.362
10021SOL    HW230963   0.800   3.343   2.462
10022SOL     OW30964   2.816   5.592   6.861
10022SOL    HW130965   2.740   5.531   6.885
10022SOL    HW230966   2.790   5.649   6.783
10023SOL     OW30967   1.485   0.378   6.357
10023SOL    HW130968   1.548   0.401   6.431
10023SOL    HW230969   1.454   0.283   6.368
10024SOL     OW30970   1.544   4.676   2.273
10024SOL    HW130971   1.612   4.606   2.250
10024SOL    HW230972   1.565   4.760   2.222
10025SOL     OW30973   0.916   4.521   1.942
10025SOL    HW130974   0.916   4.511   2.042
10025SOL    HW230975   1.010   4.523   1.909
10026SOL     OW30976   5.163   1.808   4.345
10026SOL    HW130977   5.143   1.894   4.391
10026SOL    HW230978   5.256   1.779   4.367
10027SOL     OW30979   2.855   1.628   5.529
10027SOL    HW130980   2.861   1.716   5.483
10027SOL    HW230981   2.759   1.606   5.546
10028SOL     OW30982   4.381   0.552   1.150
10028SOL    HW130983   4.305   0.542   1.214
10028SOL    HW230984   4.376   0.642   1.107
10029SOL     OW30985   0.466   3.770   5.161
10029SOL    HW130986   0.432   3.815   5.078
10029SOL    HW230987   0.392   3.721   5.205
10030SOL     OW30988   2.281   6.951   4.680
10030SOL    HW130989   2.201   6.974   4.735
10030SOL    HW230990   2.356   7.013   4.701
10031SOL     OW30991   2.701   4.720   3.709
10031SOL    HW130992   2.734   4.645   3.767
10031SOL    HW230993   2.779   4.766   3.667
10032SOL     OW30994   3.004   6.386   5.005
10032SOL    HW130995   2.997   6.457   5.074
10032SOL    HW230996   3.038   6.425   4.920
10033SOL     OW30997   3.227   1.225   3.371
10033SOL    HW130998   3.215   1.321   3.348
10033SOL    HW230999   3.246   1.172   3.288
10034SOL     OW31000   2.751   0.817   3.934
10034SOL    HW131001   2.835   0.808   3.881
10034SOL    HW231002   2.672   0.818   3.872
10035SOL     OW31003   5.747   2.913   2.357
10035SOL    HW131004   5.730   2.834   2.299
10035SOL    HW231005   5.743   2.996   2.302
10036SOL     OW31006   0.344   1.096   6.859
10036SOL    HW131007   0.362   1.137   6.948
10036SOL    HW231008   0.360   0.997   6.864
10037SOL     OW31009   6.147   0.351   6.677
10037SOL    HW131010   6.175   0.322   6.769
10037SOL    HW231011   6.113   0.272   6.627
10038SOL     OW31012   4.419   6.555   6.515
10038SOL    HW131013   4.490   6.559   6.446
10038SOL    HW231014   4.452   6.596   6.600
10039SOL     OW31015   6.467   5.448   2.927
10039SOL    HW131016   6.524   5.508   2.982
10039SOL    HW231017   6.376   5.440   2.968
10040SOL     OW31018   3.694   6.595   1.081
10040SOL    HW131019   3.709   6.626   0.987
10040SOL    HW231020   3.727   6.664   1.144
10041SOL     OW31021   6.979   5.175   4.742
10041SOL    HW131022   6.902   5.236   4.762
10041SOL    HW231023   6.944   5.088   4.708
10042SOL     OW31024   0.491   0.715   4.741
10042SOL    HW131025   0.499   0.627   4.694
10042SOL    HW231026   0.506   0.702   4.839
10043SOL     OW31027   0.769   0.696   3.373
10043SOL    HW131028   0.799   0.682   3.467
10043SOL    HW231029   0.829   0.646   3.311
10044SOL     OW31030   2.904   1.654   6.151
10044SOL    HW131031   2.934   1.639   6.056
10044SOL    HW231032   2.881   1.750   6.164
10045SOL     OW31033   3.719   6.808   5.032
10045SOL    HW131034   3.660   6.741   5.078
10045SOL    HW231035   3.808   6.812   5.079
10046SOL     OW31036   0.157   2.638   1.340
10046SOL    HW131037   0.062   2.635   1.310
10046SOL    HW231038   0.206   2.708   1.288
10047SOL     OW31039   6.902   2.076   4.925
10047SOL    HW131040   6.939   2.152   4.978
10047SOL    HW231041   6.872   2.109   4.835
10048SOL     OW31042   3.974   1.742   1.654
10048SOL    HW131043   4.014   1.833   1.648
10048SOL    HW231044   3.943   1.713   1.563
10049SOL     OW31045   1.817   6.740   5.561
10049SOL    HW131046   1.888   6.705   5.623
10049SOL    HW231047   1.843   6.830   5.527
10050SOL     OW31048   4.794   3.028   3.933
10050SOL    HW131049   4.877   3.004   3.883
10050SOL    HW231050   4.742   3.096   3.881
10051SOL     OW31051   5.953   2.989   5.033
10051SOL    HW131052   6.042   3.006   4.992
10051SOL    HW231053   5.882   2.990   4.962
10052SOL     OW31054   0.864   3.489   1.581
10052SOL    HW131055   0.938   3.434   1.542
10052SOL    HW231056   0.869   3.485   1.681
10053SOL     OW31057   3.290   5.832   3.450
10053SOL    HW131058   3.319   5.772   3.525
10053SOL    HW231059   3.350   5.817   3.371
10054SOL     OW31060   3.882   5.521   5.087
10054SOL    HW131061   3.826   5.559   5.161
10054SOL    HW231062   3.891   5.423   5.100
10055SOL     OW31063   6.091   2.600   5.423
10055SOL    HW131064   6.004   2.577   5.379
10055SOL    HW231065   6.155   2.524   5.413
10056SOL     OW31066   6.169   4.573   1.901
10056SOL    HW131067   6.224   4.500   1.940
10056SOL    HW231068   6.118   4.539   1.822
10057SOL     OW31069   3.727   2.155   4.141
10057SOL    HW131070   3.817   2.176   4.179
10057SOL    HW231071   3.656   2.194   4.200
10058SOL     OW31072   0.904   5.512   3.864
10058SOL    HW131073   0.846   5.593   3.852
10058SOL    HW231074   0.849   5.435   3.894
10059SOL     OW31075   5.786   0.762   1.009
10059SOL    HW131076   5.721   0.722   1.074
10059SOL    HW231077   5.806   0.856   1.037
10060SOL     OW31078   2.668   2.914   1.566
10060SOL    HW131079   2.743   2.925   1.632
10060SOL    HW231080   2.689   2.838   1.504
10061SOL     OW31081   6.232   1.605   4.241
10061SOL    HW131082   6.283   1.556   4.312
10061SOL    HW231083   6.277   1.693   4.223
10062SOL     OW31084   6.593   6.139   2.943
10062SOL    HW131085   6.688   6.113   2.931
10062SOL    HW231086   6.533   6.066   2.910
10063SOL     OW31087   1.030   3.270   3.475
10063SOL    HW131088   1.042   3.180   3.434
10063SOL    HW231089   1.024   3.339   3.403
10064SOL     OW31090   5.674   6.481   4.185
10064SOL    HW131091   5.704   6.441   4.272
10064SOL    HW231092   5.629   6.411   4.130
10065SOL     OW31093   1.817   6.291   2.764
10065SOL    HW131094   1.760   6.222   2.719
10065SOL    HW231095   1.808   6.283   2.863
10066SOL     OW31096   0.663   6.917   4.107
10066SOL    HW131097   0.734   6.878   4.048
10066SOL    HW231098   0.575   6.915   4.058
10067SOL     OW31099   4.335   4.899   4.293
10067SOL    HW131100   4.352   4.842   4.374
10067SOL    HW231101   4.270   4.970   4.316
10068SOL     OW31102   5.010   3.610   5.222
10068SOL    HW131103   4.928   3.577   5.176
10068SOL    HW231104   5.029   3.703   5.193
10069SOL     OW31105   2.958   1.624   3.406
10069SOL    HW131106   2.985   1.691   3.338
10069SOL    HW231107   2.909   1.669   3.481
10070SOL     OW31108   1.293   6.882   4.723
10070SOL    HW131109   1.303   6.888   4.823
10070SOL    HW231110   1.355   6.814   4.687
10071SOL     OW31111   5.248   5.967   4.888
10071SOL    HW131112   5.342   6.000   4.899
10071SOL    HW231113   5.246   5.868   4.903
10072SOL     OW31114   1.008   6.611   3.028
10072SOL    HW131115   0.909   6.603   3.023
10072SOL    HW231116   1.035   6.635   3.122
10073SOL     OW31117   0.008   4.543   5.855
10073SOL    HW131118   0.017   4.636   5.891
10073SOL    HW231119   0.048   4.479   5.920
10074SOL     OW31120   2.422   0.402   6.418
10074SOL    HW131121   2.472   0.379   6.335
10074SOL    HW231122   2.486   0.410   6.495
10075SOL     OW31123   1.069   2.475   3.755
10075SOL    HW131124   1.108   2.564   3.735
10075SOL    HW231125   1.140   2.415   3.793
10076SOL     OW31126   5.032   6.714   4.946
10076SOL    HW131127   5.077   6.803   4.937
10076SOL    HW231128   5.025   6.671   4.856
10077SOL     OW31129   4.370   1.722   5.935
10077SOL    HW131130   4.278   1.726   5.975
10077SOL    HW231131   4.410   1.814   5.934
10078SOL     OW31132   5.960   0.058   5.598
10078SOL    HW131133   5.982   0.096   5.508
10078SOL    HW231134   5.907   0.125   5.651
10079SOL     OW31135   0.956   3.386   1.312
10079SOL    HW131136   1.035   3.421   1.362
10079SOL    HW231137   0.917   3.308   1.361
10080SOL     OW31138   2.082   2.962   7.003
10080SOL    HW131139   2.054   2.988   6.910
10080SOL    HW231140   2.114   2.867   7.003
10081SOL     OW31141   0.890   0.434   6.580
10081SOL    HW131142   0.802   0.432   6.533
10081SOL    HW231143   0.961   0.466   6.517
10082SOL     OW31144   6.003   2.338   1.768
10082SOL    HW131145   5.948   2.319   1.686
10082SOL    HW231146   5.949   2.319   1.850
10083SOL     OW31147   4.571   0.339   3.804
10083SOL    HW131148   4.543   0.419   3.750
10083SOL    HW231149   4.670   0.335   3.809
10084SOL     OW31150   2.514   1.097   5.806
10084SOL    HW131151   2.485   1.013   5.851
10084SOL    HW231152   2.578   1.075   5.732
10085SOL     OW31153   0.695   5.989   2.778
10085SOL    HW131154   0.753   5.934   2.839
10085SOL    HW231155   0.599   5.966   2.794
10086SOL     OW31156   5.832   4.320   1.857
10086SOL    HW131157   5.823   4.381   1.936
10086SOL    HW231158   5.917   4.340   1.809
10087SOL     OW31159   1.275   0.184   4.191
10087SOL    HW131160   1.326   0.195   4.276
10087SOL    HW231161   1.225   0.097   4.193
10088SOL     OW31162   0.970   6.938   4.733
10088SOL    HW131163   1.070   6.939   4.741
10088SOL    HW231164   0.942   6.861   4.675
10089SOL     OW31165   1.893   2.210   1.946
10089SOL    HW131166   1.918   2.301   1.914
10089SOL    HW231167   1.816   2.216   2.009
10090SOL     OW31168   0.820   4.119   0.863
10090SOL    HW131169   0.857   4.194   0.919
10090SOL    HW231170   0.849   4.031   0.902
10091SOL     OW31171   1.003   2.672   4.601
10091SOL    HW131172   1.007   2.763   4.642
10091SOL    HW231173   0.915   2.658   4.556
10092SOL     OW31174   1.835   3.738   5.026
10092SOL    HW131175   1.858   3.658   4.971
10092SOL    HW231176   1.865   3.821   4.978
10093SOL     OW31177   6.174   5.598   5.890
10093SOL    HW131178   6.245   5.546   5.937
10093SOL    HW231179   6.098   5.537   5.868
10094SOL     OW31180   1.909   1.549   2.870
10094SOL    HW131181   1.995   1.582   2.909
10094SOL    HW231182   1.846   1.626   2.860
10095SOL     OW31183   0.084   0.959   6.113
10095SOL    HW131184   0.006   0.972   6.051
10095SOL    HW231185   0.099   0.862   6.128
10096SOL     OW31186   0.563   5.602   2.557
10096SOL    HW131187   0.654   5.641   2.548
10096SOL    HW231188   0.522   5.633   2.643
10097SOL     OW31189   1.236   0.573   1.087
10097SOL    HW131190   1.155   0.514   1.077
10097SOL    HW231191   1.212   0.667   1.061
10098SOL     OW31192   2.334   5.367   6.522
10098SOL    HW131193   2.409   5.301   6.518
10098SOL    HW231194   2.253   5.322   6.560
10099SOL     OW31195   6.538   4.588   5.160
10099SOL    HW131196   6.441   4.612   5.162
10099SOL    HW231197   6.591   4.662   5.202
10100SOL     OW31198   5.242   0.786   4.822
10100SOL    HW131199   5.148   0.803   4.852
10100SOL    HW231200   5.242   0.733   4.738
10101SOL     OW31201   6.895   4.606   2.507
10101SOL    HW131202   6.923   4.511   2.522
10101SOL    HW231203   6.952   4.667   2.562
10102SOL     OW31204   3.258   1.738   2.101
10102SOL    HW131205   3.331   1.754   2.167
10102SOL    HW231206   3.293   1.682   2.026
10103SOL     OW31207   2.987   1.342   5.877
10103SOL    HW131208   3.057   1.346   5.948
10103SOL    HW231209   2.931   1.260   5.890
10104SOL     OW31210   0.791   5.628   5.064
10104SOL    HW131211   0.764   5.604   4.970
10104SOL    HW231212   0.759   5.558   5.127
10105SOL     OW31213   2.292   0.436   6.806
10105SOL    HW131214   2.224   0.492   6.759
10105SOL    HW231215   2.384   0.466   6.780
10106SOL     OW31216   5.280   5.918   0.776
10106SOL    HW131217   5.303   5.991   0.840
10106SOL    HW231218   5.316   5.831   0.809
10107SOL     OW31219   5.981   1.463   6.024
10107SOL    HW131220   6.046   1.456   6.100
10107SOL    HW231221   5.990   1.553   5.980
10108SOL     OW31222   6.704   6.914   0.206
10108SOL    HW131223   6.757   6.830   0.212
10108SOL    HW231224   6.677   6.943   0.298
10109SOL     OW31225   4.307   5.344   3.911
10109SOL    HW131226   4.311   5.337   3.812
10109SOL    HW231227   4.325   5.255   3.952
10110SOL     OW31228   4.150   0.459   5.934
10110SOL    HW131229   4.162   0.394   6.009
10110SOL    HW231230   4.215   0.439   5.861
10111SOL     OW31231   6.675   3.319   2.905
10111SOL    HW131232   6.714   3.308   2.997
10111SOL    HW231233   6.579   3.290   2.906
10112SOL     OW31234   4.771   4.136   5.851
10112SOL    HW131235   4.816   4.171   5.933
10112SOL    HW231236   4.674   4.121   5.870
10113SOL     OW31237   3.916   0.057   6.838
10113SOL    HW131238   4.008   0.090   6.814
10113SOL    HW231239   3.899   6.988   6.793
10114SOL     OW31240   5.316   1.084   0.844
10114SOL    HW131241   5.273   1.170   0.872
10114SOL    HW231242   5.412   1.084   0.872
10115SOL     OW31243   1.988   2.218   3.771
10115SOL    HW131244   2.069   2.171   3.736
10115SOL    HW231245   1.934   2.252   3.695
10116SOL     OW31246   0.900   1.258   1.292
10116SOL    HW131247   0.985   1.205   1.287
10116SOL    HW231248   0.862   1.268   1.200
10117SOL     OW31249   5.888   0.262   5.769
10117SOL    HW131250   5.942   0.344   5.748
10117SOL    HW231251   5.796   0.289   5.798
10118SOL     OW31252   6.808   5.285   2.334
10118SOL    HW131253   6.785   5.234   2.251
10118SOL    HW231254   6.734   5.275   2.401
10119SOL     OW31255   2.516   0.645   5.638
10119SOL    HW131256   2.451   0.692   5.699
10119SOL    HW231257   2.609   0.657   5.673
10120SOL     OW31258   0.304   2.952   4.048
10120SOL    HW131259   0.386   2.898   4.032
10120SOL    HW231260   0.263   2.978   3.960
10121SOL     OW31261   5.764   4.491   4.642
10121SOL    HW131262   5.695   4.558   4.615
10121SOL    HW231263   5.720   4.403   4.659
10122SOL     OW31264   5.538   3.555   0.212
10122SOL    HW131265   5.547   3.549   0.112
10122SOL    HW231266   5.463   3.617   0.235
10123SOL     OW31267   6.775   6.590   0.838
10123SOL    HW131268   6.767   6.493   0.859
10123SOL    HW231269   6.711   6.642   0.894
10124SOL     OW31270   3.221   3.861   0.122
10124SOL    HW131271   3.237   3.804   0.203
10124SOL    HW231272   3.150   3.819   0.065
10125SOL     OW31273   1.355   0.464   2.526
10125SOL    HW131274   1.411   0.393   2.566
10125SOL    HW231275   1.336   0.535   2.594
10126SOL     OW31276   6.169   5.279   0.634
10126SOL    HW131277   6.086   5.311   0.588
10126SOL    HW231278   6.247   5.333   0.602
10127SOL     OW31279   3.422   5.710   5.362
10127SOL    HW131280   3.436   5.683   5.457
10127SOL    HW231281   3.331   5.681   5.332
10128SOL     OW31282   6.940   2.129   0.714
10128SOL    HW131283   6.966   2.049   0.768
10128SOL    HW231284   6.841   2.135   0.709
10129SOL     OW31285   5.675   2.246   3.607
10129SOL    HW131286   5.746   2.287   3.664
10129SOL    HW231287   5.712   2.222   3.518
10130SOL     OW31288   6.795   5.619   2.800
10130SOL    HW131289   6.697   5.630   2.783
10130SOL    HW231290   6.816   5.521   2.810
10131SOL     OW31291   0.794   1.428   1.955
10131SOL    HW131292   0.837   1.338   1.952
10131SOL    HW231293   0.821   1.476   2.039
10132SOL     OW31294   2.952   6.655   3.058
10132SOL    HW131295   2.966   6.558   3.079
10132SOL    HW231296   2.855   6.675   3.057
10133SOL     OW31297   4.732   6.189   3.549
10133SOL    HW131298   4.682   6.107   3.521
10133SOL    HW231299   4.763   6.178   3.644
10134SOL     OW31300   6.914   1.057   3.462
10134SOL    HW131301   6.867   1.070   3.550
10134SOL    HW231302   7.011   1.080   3.473
10135SOL     OW31303   4.297   5.013   2.668
10135SOL    HW131304   4.231   4.939   2.681
10135SOL    HW231305   4.322   5.052   2.757
10136SOL     OW31306   6.049   0.242   3.606
10136SOL    HW131307   6.105   0.266   3.685
10136SOL    HW231308   6.082   0.291   3.525
10137SOL     OW31309   6.541   5.730   4.639
10137SOL    HW131310   6.588   5.757   4.556
10137SOL    HW231311   6.444   5.715   4.619
10138SOL     OW31312   5.882   2.078   6.973
10138SOL    HW131313   5.923   2.101   6.885
10138SOL    HW231314   5.791   2.039   6.958
10139SOL     OW31315   2.887   3.302   3.325
10139SOL    HW131316   2.864   3.253   3.242
10139SOL    HW231317   2.939   3.242   3.386
10140SOL     OW31318   6.944   5.373   6.908
10140SOL    HW131319   6.962   5.326   6.821
10140SOL    HW231320   6.887   5.315   6.966
10141SOL     OW31321   1.977   1.513   4.537
10141SOL    HW131322   2.038   1.564   4.597
10141SOL    HW231323   2.006   1.417   4.533
10142SOL     OW31324   3.774   5.801   4.625
10142SOL    HW131325   3.857   5.837   4.668
10142SOL    HW231326   3.782   5.810   4.526
10143SOL     OW31327   4.806   0.211   1.360
10143SOL    HW131328   4.817   0.226   1.262
10143SOL    HW231329   4.881   0.256   1.409
10144SOL     OW31330   2.968   5.441   4.452
10144SOL    HW131331   2.920   5.366   4.498
10144SOL    HW231332   2.966   5.522   4.510
10145SOL     OW31333   3.025   5.722   5.853
10145SOL    HW131334   3.000   5.781   5.930
10145SOL    HW231335   3.003   5.768   5.767
10146SOL     OW31336   3.927   5.225   4.255
10146SOL    HW131337   3.980   5.152   4.212
10146SOL    HW231338   3.855   5.255   4.193
10147SOL     OW31339   4.867   4.091   4.068
10147SOL    HW131340   4.846   4.132   3.979
10147SOL    HW231341   4.828   4.147   4.140
10148SOL     OW31342   6.271   5.735   0.831
10148SOL    HW131343   6.324   5.650   0.838
10148SOL    HW231344   6.188   5.718   0.778
10149SOL     OW31345   4.544   1.843   1.424
10149SOL    HW131346   4.560   1.769   1.359
10149SOL    HW231347   4.570   1.930   1.381
10150SOL     OW31348   4.753   4.437   0.639
10150SOL    HW131349   4.698   4.458   0.558
10150SOL    HW231350   4.788   4.344   0.632
10151SOL     OW31351   1.206   6.893   6.287
10151SOL    HW131352   1.161   6.897   6.376
10151SOL    HW231353   1.141   6.918   6.216
10152SOL     OW31354   1.066   4.607   3.559
10152SOL    HW131355   1.152   4.630   3.603
10152SOL    HW231356   1.077   4.522   3.506
10153SOL     OW31357   4.697   5.964   3.781
10153SOL    HW131358   4.772   5.899   3.792
10153SOL    HW231359   4.728   6.056   3.805
10154SOL     OW31360   6.504   6.011   5.839
10154SOL    HW131361   6.560   6.042   5.916
10154SOL    HW231362   6.522   5.914   5.822
10155SOL     OW31363   4.189   0.982   5.936
10155SOL    HW131364   4.191   0.894   5.889
10155SOL    HW231365   4.262   1.040   5.901
10156SOL     OW31366   5.405   0.208   2.182
10156SOL    HW131367   5.362   0.132   2.132
10156SOL    HW231368   5.438   0.176   2.270
10157SOL     OW31369   5.940   1.167   6.301
10157SOL    HW131370   6.003   1.093   6.279
10157SOL    HW231371   5.986   1.255   6.286
10158SOL     OW31372   4.456   3.407   0.070
10158SOL    HW131373   4.451   3.410   6.988
10158SOL    HW231374   4.366   3.428   0.108
10159SOL     OW31375   2.449   2.457   6.231
10159SOL    HW131376   2.525   2.505   6.273
10159SOL    HW231377   2.363   2.505   6.253
10160SOL     OW31378   0.371   4.638   3.420
10160SOL    HW131379   0.438   4.625   3.493
10160SOL    HW231380   0.411   4.610   3.332
10161SOL     OW31381   3.298   5.229   6.630
10161SOL    HW131382   3.300   5.155   6.563
10161SOL    HW231383   3.205   5.262   6.640
10162SOL     OW31384   2.554   3.001   6.145
10162SOL    HW131385   2.457   3.021   6.137
10162SOL    HW231386   2.603   3.043   6.068
10163SOL     OW31387   6.438   4.159   5.969
10163SOL    HW131388   6.449   4.064   5.939
10163SOL    HW231389   6.387   4.161   6.055
10164SOL     OW31390   6.441   3.146   4.995
10164SOL    HW131391   6.401   3.155   5.087
10164SOL    HW231392   6.528   3.194   4.993
10165SOL     OW31393   0.726   2.343   4.228
10165SOL    HW131394   0.700   2.437   4.205
10165SOL    HW231395   0.818   2.324   4.193
10166SOL     OW31396   2.965   1.876   1.492
10166SOL    HW131397   2.919   1.870   1.581
10166SOL    HW231398   3.052   1.925   1.502
10167SOL     OW31399   5.454   1.117   6.764
10167SOL    HW131400   5.417   1.039   6.713
10167SOL    HW231401   5.380   1.163   6.812
10168SOL     OW31402   6.660   4.193   4.397
10168SOL    HW131403   6.661   4.242   4.484
10168SOL    HW231404   6.715   4.110   4.405
10169SOL     OW31405   6.688   5.266   2.923
10169SOL    HW131406   6.611   5.329   2.914
10169SOL    HW231407   6.740   5.266   2.838
10170SOL     OW31408   1.111   4.040   5.425
10170SOL    HW131409   1.156   4.114   5.376
10170SOL    HW231410   1.177   3.967   5.445
10171SOL     OW31411   6.329   4.298   5.616
10171SOL    HW131412   6.420   4.269   5.644
10171SOL    HW231413   6.267   4.219   5.620
10172SOL     OW31414   5.264   0.352   2.920
10172SOL    HW131415   5.203   0.273   2.915
10172SOL    HW231416   5.239   0.417   2.848
10173SOL     OW31417   1.805   1.613   1.117
10173SOL    HW131418   1.853   1.617   1.204
10173SOL    HW231419   1.858   1.559   1.052
10174SOL     OW31420   6.005   4.565   3.253
10174SOL    HW131421   5.939   4.641   3.253
10174SOL    HW231422   6.087   4.592   3.203
10175SOL     OW31423   6.029   2.446   4.814
10175SOL    HW131424   6.103   2.451   4.748
10175SOL    HW231425   6.067   2.440   4.907
10176SOL     OW31426   1.806   3.506   6.665
10176SOL    HW131427   1.810   3.536   6.760
10176SOL    HW231428   1.780   3.583   6.607
10177SOL     OW31429   2.738   6.826   0.271
10177SOL    HW131430   2.753   6.781   0.183
10177SOL    HW231431   2.822   6.872   0.300
10178SOL     OW31432   5.734   2.973   4.483
10178SOL    HW131433   5.792   2.971   4.564
10178SOL    HW231434   5.791   2.965   4.401
10179SOL     OW31435   1.371   2.414   6.468
10179SOL    HW131436   1.411   2.477   6.535
10179SOL    HW231437   1.335   2.333   6.516
10180SOL     OW31438   2.656   5.527   5.815
10180SOL    HW131439   2.661   5.437   5.772
10180SOL    HW231440   2.624   5.594   5.748
10181SOL     OW31441   5.744   3.340   1.416
10181SOL    HW131442   5.734   3.439   1.429
10181SOL    HW231443   5.679   3.309   1.347
10182SOL     OW31444   5.677   1.059   1.381
10182SOL    HW131445   5.624   1.144   1.394
10182SOL    HW231446   5.720   1.034   1.467
10183SOL     OW31447   1.213   1.868   6.755
10183SOL    HW131448   1.200   1.967   6.761
10183SOL    HW231449   1.196   1.837   6.662
10184SOL     OW31450   5.003   1.736   6.118
10184SOL    HW131451   4.907   1.762   6.108
10184SOL    HW231452   5.058   1.818   6.137
10185SOL     OW31453   5.135   6.804   0.780
10185SOL    HW131454   5.228   6.831   0.805
10185SOL    HW231455   5.080   6.792   0.862
10186SOL     OW31456   5.043   2.810   3.445
10186SOL    HW131457   4.967   2.850   3.394
10186SOL    HW231458   5.115   2.879   3.456
10187SOL     OW31459   0.633   2.104   1.748
10187SOL    HW131460   0.598   2.077   1.837
10187SOL    HW231461   0.732   2.091   1.745
10188SOL     OW31462   4.130   6.424   0.419
10188SOL    HW131463   4.044   6.425   0.468
10188SOL    HW231464   4.117   6.383   0.329
10189SOL     OW31465   2.321   6.480   4.946
10189SOL    HW131466   2.299   6.560   4.890
10189SOL    HW231467   2.305   6.397   4.894
10190SOL     OW31468   4.522   2.313   0.359
10190SOL    HW131469   4.521   2.368   0.442
10190SOL    HW231470   4.458   2.351   0.292
10191SOL     OW31471   4.620   4.819   6.348
10191SOL    HW131472   4.568   4.764   6.413
10191SOL    HW231473   4.715   4.826   6.379
10192SOL     OW31474   3.580   0.572   4.982
10192SOL    HW131475   3.496   0.521   4.997
10192SOL    HW231476   3.575   0.620   4.894
10193SOL     OW31477   4.153   4.299   0.998
10193SOL    HW131478   4.157   4.214   1.049
10193SOL    HW231479   4.228   4.359   1.027
10194SOL     OW31480   6.125   4.273   4.945
10194SOL    HW131481   6.064   4.347   4.918
10194SOL    HW231482   6.179   4.243   4.866
10195SOL     OW31483   6.530   4.569   1.712
10195SOL    HW131484   6.600   4.637   1.690
10195SOL    HW231485   6.458   4.572   1.642
10196SOL     OW31486   6.818   1.294   5.202
10196SOL    HW131487   6.883   1.299   5.127
10196SOL    HW231488   6.811   1.199   5.234
10197SOL     OW31489   6.462   0.642   5.391
10197SOL    HW131490   6.474   0.553   5.346
10197SOL    HW231491   6.381   0.638   5.450
10198SOL     OW31492   3.847   0.391   2.544
10198SOL    HW131493   3.831   0.344   2.631
10198SOL    HW231494   3.762   0.432   2.512
10199SOL     OW31495   1.178   2.987   5.458
10199SOL    HW131496   1.156   3.077   5.496
10199SOL    HW231497   1.094   2.944   5.424
10200SOL     OW31498   5.762   2.829   1.021
10200SOL    HW131499   5.776   2.884   0.939
10200SOL    HW231500   5.778   2.886   1.102
10201SOL     OW31501   1.097   4.241   1.119
10201SOL    HW131502   1.099   4.146   1.088
10201SOL    HW231503   1.168   4.293   1.071
10202SOL     OW31504   4.126   1.441   5.632
10202SOL    HW131505   4.044   1.462   5.686
10202SOL    HW231506   4.186   1.522   5.630
10203SOL     OW31507   5.776   2.577   5.251
10203SOL    HW131508   5.841   2.643   5.214
10203SOL    HW231509   5.815   2.485   5.247
10204SOL     OW31510   5.299   0.155   6.526
10204SOL    HW131511   5.211   0.117   6.496
10204SOL    HW231512   5.348   0.086   6.578
10205SOL     OW31513   1.138   0.877   6.620
10205SOL    HW131514   1.184   0.845   6.537
10205SOL    HW231515   1.040   0.864   6.611
10206SOL     OW31516   1.172   0.855   5.651
10206SOL    HW131517   1.208   0.845   5.744
10206SOL    HW231518   1.142   0.766   5.617
10207SOL     OW31519   1.436   1.798   5.834
10207SOL    HW131520   1.402   1.878   5.785
10207SOL    HW231521   1.395   1.715   5.796
10208SOL     OW31522   5.915   5.079   4.661
10208SOL    HW131523   6.010   5.100   4.685
10208SOL    HW231524   5.871   5.031   4.737
10209SOL     OW31525   6.540   0.066   6.080
10209SOL    HW131526   6.444   0.054   6.058
10209SOL    HW231527   6.549   0.132   6.155
10210SOL     OW31528   4.064   5.941   1.573
10210SOL    HW131529   4.154   5.953   1.615
10210SOL    HW231530   3.995   5.931   1.644
10211SOL     OW31531   4.209   6.406   5.551
10211SOL    HW131532   4.118   6.445   5.544
10211SOL    HW231533   4.252   6.437   5.636
10212SOL     OW31534   1.011   0.432   6.001
10212SOL    HW131535   1.111   0.429   5.996
10212SOL    HW231536   0.983   0.495   6.073
10213SOL     OW31537   5.017   2.066   0.203
10213SOL    HW131538   4.959   2.108   0.273
10213SOL    HW231539   5.010   2.118   0.118
10214SOL     OW31540   0.968   3.135   1.423
10214SOL    HW131541   0.952   3.151   1.520
10214SOL    HW231542   0.899   3.072   1.387
10215SOL     OW31543   3.802   3.565   2.399
10215SOL    HW131544   3.809   3.475   2.355
10215SOL    HW231545   3.802   3.553   2.498
10216SOL     OW31546   6.403   0.129   1.582
10216SOL    HW131547   6.502   0.138   1.591
10216SOL    HW231548   6.361   0.129   1.673
10217SOL     OW31549   2.970   0.952   3.501
10217SOL    HW131550   3.036   0.908   3.562
10217SOL    HW231551   2.880   0.909   3.512
10218SOL     OW31552   1.224   2.701   2.994
10218SOL    HW131553   1.151   2.765   2.971
10218SOL    HW231554   1.237   2.636   2.918
10219SOL     OW31555   0.628   1.125   2.248
10219SOL    HW131556   0.576   1.109   2.164
10219SOL    HW231557   0.567   1.163   2.318
10220SOL     OW31558   3.656   2.641   1.734
10220SOL    HW131559   3.628   2.614   1.642
10220SOL    HW231560   3.674   2.559   1.789
10221SOL     OW31561   1.150   6.060   2.995
10221SOL    HW131562   1.129   6.016   2.908
10221SOL    HW231563   1.065   6.081   3.044
10222SOL     OW31564   3.688   3.708   4.816
10222SOL    HW131565   3.723   3.786   4.868
10222SOL    HW231566   3.589   3.716   4.806
10223SOL     OW31567   0.788   5.480   1.640
10223SOL    HW131568   0.693   5.502   1.661
10223SOL    HW231569   0.840   5.471   1.725
10224SOL     OW31570   6.160   4.106   3.399
10224SOL    HW131571   6.133   4.201   3.386
10224SOL    HW231572   6.183   4.090   3.495
10225SOL     OW31573   2.302   3.606   6.137
10225SOL    HW131574   2.328   3.512   6.160
10225SOL    HW231575   2.227   3.635   6.196
10226SOL     OW31576   4.365   2.452   0.184
10226SOL    HW131577   4.287   2.513   0.198
10226SOL    HW231578   4.443   2.506   0.150
10227SOL     OW31579   5.692   3.894   0.958
10227SOL    HW131580   5.676   3.984   0.919
10227SOL    HW231581   5.788   3.869   0.946
10228SOL     OW31582   5.447   0.595   0.776
10228SOL    HW131583   5.392   0.662   0.827
10228SOL    HW231584   5.544   0.610   0.797
10229SOL     OW31585   0.671   3.232   4.457
10229SOL    HW131586   0.724   3.288   4.521
10229SOL    HW231587   0.582   3.275   4.440
10230SOL     OW31588   6.743   6.478   2.308
10230SOL    HW131589   6.762   6.392   2.260
10230SOL    HW231590   6.657   6.517   2.274
10231SOL     OW31591   1.285   5.785   2.971
10231SOL    HW131592   1.288   5.881   2.999
10231SOL    HW231593   1.222   5.735   3.030
10232SOL     OW31594   5.133   6.601   3.301
10232SOL    HW131595   5.195   6.670   3.264
10232SOL    HW231596   5.182   6.544   3.367
10233SOL     OW31597   4.076   4.323   6.363
10233SOL    HW131598   4.041   4.381   6.437
10233SOL    HW231599   4.135   4.377   6.303
10234SOL     OW31600   6.960   0.929   1.521
10234SOL    HW131601   6.996   0.946   1.429
10234SOL    HW231602   6.884   0.865   1.516
10235SOL     OW31603   1.401   1.063   3.274
10235SOL    HW131604   1.309   1.026   3.262
10235SOL    HW231605   1.464   0.989   3.296
10236SOL     OW31606   2.639   6.722   1.731
10236SOL    HW131607   2.583   6.774   1.666
10236SOL    HW231608   2.645   6.772   1.817
10237SOL     OW31609   0.426   3.485   6.418
10237SOL    HW131610   0.391   3.413   6.478
10237SOL    HW231611   0.485   3.444   6.348
10238SOL     OW31612   3.913   5.612   0.941
10238SOL    HW131613   3.824   5.568   0.958
10238SOL    HW231614   3.908   5.708   0.970
10239SOL     OW31615   1.844   2.277   4.498
10239SOL    HW131616   1.770   2.340   4.473
10239SOL    HW231617   1.870   2.223   4.419
10240SOL     OW31618   2.794   6.435   0.906
10240SOL    HW131619   2.763   6.341   0.923
10240SOL    HW231620   2.727   6.481   0.848
10241SOL     OW31621   4.001   2.364   1.739
10241SOL    HW131622   4.074   2.429   1.760
10241SOL    HW231623   3.913   2.403   1.766
10242SOL     OW31624   6.771   2.635   6.965
10242SOL    HW131625   6.713   2.653   0.026
10242SOL    HW231626   6.848   2.577   6.992
10243SOL     OW31627   2.241   5.281   1.082
10243SOL    HW131628   2.205   5.201   1.130
10243SOL    HW231629   2.274   5.348   1.148
10244SOL     OW31630   2.658   4.111   1.651
10244SOL    HW131631   2.624   4.166   1.727
10244SOL    HW231632   2.754   4.134   1.634
10245SOL     OW31633   3.867   4.167   0.604
10245SOL    HW131634   3.925   4.207   0.675
10245SOL    HW231635   3.812   4.240   0.562
10246SOL     OW31636   3.208   3.168   4.567
10246SOL    HW131637   3.260   3.223   4.502
10246SOL    HW231638   3.247   3.076   4.572
10247SOL     OW31639   1.039   2.909   4.789
10247SOL    HW131640   1.127   2.911   4.836
10247SOL    HW231641   0.967   2.882   4.853
10248SOL     OW31642   1.061   0.312   3.284
10248SOL    HW131643   1.076   0.273   3.374
10248SOL    HW231644   1.140   0.293   3.225
10249SOL     OW31645   2.746   4.929   6.225
10249SOL    HW131646   2.752   4.895   6.131
10249SOL    HW231647   2.758   5.029   6.225
10250SOL     OW31648   4.707   2.531   0.023
10250SOL    HW131649   4.666   2.440   0.023
10250SOL    HW231650   4.743   2.552   6.950
10251SOL     OW31651   2.125   0.200   4.425
10251SOL    HW131652   2.116   0.104   4.448
10251SOL    HW231653   2.216   0.217   4.385
10252SOL     OW31654   5.097   4.148   5.931
10252SOL    HW131655   5.050   4.074   5.977
10252SOL    HW231656   5.186   4.116   5.898
10253SOL     OW31657   4.083   6.525   6.693
10253SOL    HW131658   3.997   6.542   6.741
10253SOL    HW231659   4.110   6.607   6.643
10254SOL     OW31660   5.384   1.615   4.602
10254SOL    HW131661   5.406   1.646   4.509
10254SOL    HW231662   5.316   1.677   4.643
10255SOL     OW31663   3.499   5.317   1.950
10255SOL    HW131664   3.469   5.303   1.855
10255SOL    HW231665   3.488   5.232   2.001
10256SOL     OW31666   4.348   0.287   3.095
10256SOL    HW131667   4.286   0.337   3.156
10256SOL    HW231668   4.379   0.347   3.022
10257SOL     OW31669   2.900   4.946   2.830
10257SOL    HW131670   2.871   4.903   2.745
10257SOL    HW231671   3.000   4.941   2.837
10258SOL     OW31672   1.989   1.445   1.838
10258SOL    HW131673   1.946   1.488   1.917
10258SOL    HW231674   1.919   1.420   1.771
10259SOL     OW31675   0.584   3.593   3.870
10259SOL    HW131676   0.684   3.599   3.867
10259SOL    HW231677   0.553   3.528   3.800
10260SOL     OW31678   1.048   1.224   3.710
10260SOL    HW131679   1.060   1.251   3.615
10260SOL    HW231680   1.137   1.220   3.755
10261SOL     OW31681   6.443   3.561   0.984
10261SOL    HW131682   6.450   3.637   0.920
10261SOL    HW231683   6.348   3.530   0.989
10262SOL     OW31684   3.363   1.099   0.139
10262SOL    HW131685   3.445   1.042   0.129
10262SOL    HW231686   3.331   1.127   0.048
10263SOL     OW31687   5.786   0.804   1.846
10263SOL    HW131688   5.829   0.801   1.937
10263SOL    HW231689   5.687   0.812   1.857
10264SOL     OW31690   6.721   5.528   6.742
10264SOL    HW131691   6.812   5.493   6.766
10264SOL    HW231692   6.727   5.580   6.657
10265SOL     OW31693   1.783   1.825   0.347
10265SOL    HW131694   1.752   1.912   0.385
10265SOL    HW231695   1.815   1.838   0.254
10266SOL     OW31696   3.014   3.485   2.238
10266SOL    HW131697   2.963   3.434   2.307
10266SOL    HW231698   3.112   3.476   2.256
10267SOL     OW31699   5.968   1.024   0.788
10267SOL    HW131700   5.970   1.062   0.880
10267SOL    HW231701   5.938   1.095   0.724
10268SOL     OW31702   4.550   0.342   1.148
10268SOL    HW131703   4.645   0.370   1.138
10268SOL    HW231704   4.490   0.421   1.135
10269SOL     OW31705   2.362   1.984   6.229
10269SOL    HW131706   2.286   1.925   6.257
10269SOL    HW231707   2.392   2.039   6.308
10270SOL     OW31708   3.376   6.266   1.840
10270SOL    HW131709   3.425   6.188   1.877
10270SOL    HW231710   3.283   6.238   1.815
10271SOL     OW31711   1.758   2.421   7.010
10271SOL    HW131712   1.678   2.368   0.019
10271SOL    HW231713   1.819   2.433   0.069
10272SOL     OW31714   6.536   0.520   4.767
10272SOL    HW131715   6.571   0.426   4.774
10272SOL    HW231716   6.546   0.566   4.855
10273SOL     OW31717   2.434   5.031   3.514
10273SOL    HW131718   2.362   5.077   3.565
10273SOL    HW231719   2.518   5.028   3.570
10274SOL     OW31720   0.432   4.853   4.881
10274SOL    HW131721   0.439   4.859   4.981
10274SOL    HW231722   0.515   4.810   4.845
10275SOL     OW31723   0.217   0.565   2.711
10275SOL    HW131724   0.230   0.466   2.712
10275SOL    HW231725   0.278   0.607   2.778
10276SOL     OW31726   4.012   6.267   6.124
10276SOL    HW131727   4.056   6.233   6.041
10276SOL    HW231728   4.066   6.344   6.160
10277SOL     OW31729   0.898   6.733   4.511
10277SOL    HW131730   0.844   6.802   4.463
10277SOL    HW231731   0.850   6.645   4.509
10278SOL     OW31732   0.088   0.562   5.355
10278SOL    HW131733   0.113   0.570   5.451
10278SOL    HW231734   0.171   0.547   5.300
10279SOL     OW31735   1.965   5.845   3.954
10279SOL    HW131736   1.964   5.907   4.033
10279SOL    HW231737   2.033   5.774   3.969
10280SOL     OW31738   5.340   4.117   0.476
10280SOL    HW131739   5.394   4.036   0.453
10280SOL    HW231740   5.334   4.177   0.396
10281SOL     OW31741   6.529   2.484   3.706
10281SOL    HW131742   6.531   2.578   3.673
10281SOL    HW231743   6.526   2.421   3.629
10282SOL     OW31744   4.983   3.844   3.373
10282SOL    HW131745   4.926   3.913   3.418
10282SOL    HW231746   5.049   3.890   3.313
10283SOL     OW31747   0.547   4.344   1.119
10283SOL    HW131748   0.515   4.372   1.029
10283SOL    HW231749   0.489   4.270   1.153
10284SOL     OW31750   0.482   2.545   3.651
10284SOL    HW131751   0.450   2.469   3.708
10284SOL    HW231752   0.452   2.632   3.690
10285SOL     OW31753   4.906   6.003   4.639
10285SOL    HW131754   4.954   6.087   4.666
10285SOL    HW231755   4.964   5.949   4.579
10286SOL     OW31756   2.890   1.356   4.526
10286SOL    HW131757   2.793   1.347   4.545
10286SOL    HW231758   2.929   1.267   4.502
10287SOL     OW31759   2.238   5.617   2.955
10287SOL    HW131760   2.191   5.627   2.867
10287SOL    HW231761   2.337   5.621   2.941
10288SOL     OW31762   3.710   0.027   5.497
10288SOL    HW131763   3.716   0.076   5.411
10288SOL    HW231764   3.751   0.082   5.570
10289SOL     OW31765   2.405   5.799   6.293
10289SOL    HW131766   2.417   5.725   6.228
10289SOL    HW231767   2.311   5.832   6.290
10290SOL     OW31768   3.203   2.857   2.112
10290SOL    HW131769   3.207   2.953   2.141
10290SOL    HW231770   3.128   2.811   2.159
10291SOL     OW31771   2.924   1.171   2.465
10291SOL    HW131772   2.958   1.244   2.407
10291SOL    HW231773   2.851   1.122   2.418
10292SOL     OW31774   6.474   6.532   6.500
10292SOL    HW131775   6.429   6.501   6.584
10292SOL    HW231776   6.554   6.474   6.483
10293SOL     OW31777   1.021   3.975   4.103
10293SOL    HW131778   0.980   3.886   4.082
10293SOL    HW231779   1.001   4.039   4.028
10294SOL     OW31780   3.491   1.715   2.670
10294SOL    HW131781   3.442   1.785   2.723
10294SOL    HW231782   3.566   1.758   2.619
10295SOL     OW31783   1.076   2.271   0.314
10295SOL    HW131784   1.152   2.334   0.323
10295SOL    HW231785   0.993   2.322   0.292
10296SOL     OW31786   5.846   1.211   5.828
10296SOL    HW131787   5.780   1.153   5.876
10296SOL    HW231788   5.911   1.250   5.893
10297SOL     OW31789   3.029   2.070   6.711
10297SOL    HW131790   2.976   1.991   6.741
10297SOL    HW231791   3.068   2.116   6.791
10298SOL     OW31792   0.548   2.520   2.810
10298SOL    HW131793   0.525   2.584   2.884
10298SOL    HW231794   0.466   2.471   2.781
10299SOL     OW31795   4.151   6.206   2.115
10299SOL    HW131796   4.194   6.180   2.201
10299SOL    HW231797   4.062   6.160   2.107
10300SOL     OW31798   0.583   3.499   1.574
10300SOL    HW131799   0.552   3.593   1.563
10300SOL    HW231800   0.683   3.497   1.577
10301SOL     OW31801   4.300   1.058   6.353
10301SOL    HW131802   4.215   1.082   6.306
10301SOL    HW231803   4.297   0.963   6.381
10302SOL     OW31804   2.751   5.819   4.473
10302SOL    HW131805   2.735   5.722   4.457
10302SOL    HW231806   2.705   5.873   4.402
10303SOL     OW31807   0.859   6.439   4.901
10303SOL    HW131808   0.863   6.538   4.904
10303SOL    HW231809   0.772   6.410   4.860
10304SOL     OW31810   6.434   6.884   6.906
10304SOL    HW131811   6.521   6.918   6.943
10304SOL    HW231812   6.363   6.953   6.918
10305SOL     OW31813   2.131   3.982   5.979
10305SOL    HW131814   2.150   3.884   5.978
10305SOL    HW231815   2.142   4.017   6.072
10306SOL     OW31816   5.347   0.019   1.319
10306SOL    HW131817   5.392   0.104   1.291
10306SOL    HW231818   5.248   0.029   1.311
10307SOL     OW31819   2.479   0.315   4.959
10307SOL    HW131820   2.455   0.274   5.047
10307SOL    HW231821   2.436   0.404   4.950
10308SOL     OW31822   2.579   4.522   2.709
10308SOL    HW131823   2.553   4.431   2.676
10308SOL    HW231824   2.525   4.591   2.661
10309SOL     OW31825   6.442   1.054   5.766
10309SOL    HW131826   6.453   0.974   5.824
10309SOL    HW231827   6.454   1.028   5.670
10310SOL     OW31828   3.244   2.883   6.209
10310SOL    HW131829   3.240   2.874   6.309
10310SOL    HW231830   3.305   2.958   6.185
10311SOL     OW31831   5.767   6.253   6.785
10311SOL    HW131832   5.695   6.188   6.765
10311SOL    HW231833   5.856   6.207   6.783
10312SOL     OW31834   4.488   0.405   2.081
10312SOL    HW131835   4.522   0.351   2.159
10312SOL    HW231836   4.388   0.398   2.077
10313SOL     OW31837   4.990   6.509   2.636
10313SOL    HW131838   4.936   6.555   2.707
10313SOL    HW231839   5.036   6.578   2.580
10314SOL     OW31840   0.832   6.897   0.560
10314SOL    HW131841   0.861   6.912   0.654
10314SOL    HW231842   0.910   6.863   0.506
10315SOL     OW31843   5.061   6.303   3.570
10315SOL    HW131844   5.041   6.342   3.660
10315SOL    HW231845   5.017   6.213   3.562
10316SOL     OW31846   0.434   2.582   6.523
10316SOL    HW131847   0.499   2.508   6.538
10316SOL    HW231848   0.476   2.652   6.465
10317SOL     OW31849   3.368   5.959   6.035
10317SOL    HW131850   3.310   5.894   6.084
10317SOL    HW231851   3.417   6.016   6.101
10318SOL     OW31852   5.935   0.106   0.123
10318SOL    HW131853   5.917   0.032   0.188
10318SOL    HW231854   5.922   0.194   0.167
10319SOL     OW31855   0.294   4.466   4.248
10319SOL    HW131856   0.302   4.540   4.314
10319SOL    HW231857   0.258   4.502   4.161
10320SOL     OW31858   0.529   0.497   3.597
10320SOL    HW131859   0.452   0.497   3.533
10320SOL    HW231860   0.599   0.560   3.565
10321SOL     OW31861   5.453   2.237   1.741
10321SOL    HW131862   5.450   2.261   1.838
10321SOL    HW231863   5.512   2.157   1.729
10322SOL     OW31864   4.610   4.370   4.834
10322SOL    HW131865   4.517   4.335   4.845
10322SOL    HW231866   4.665   4.303   4.784
10323SOL     OW31867   0.070   4.309   5.132
10323SOL    HW131868   0.148   4.344   5.185
10323SOL    HW231869   0.008   4.260   5.193
10324SOL     OW31870   3.273   3.546   2.256
10324SOL    HW131871   3.373   3.549   2.263
10324SOL    HW231872   3.243   3.607   2.182
10325SOL     OW31873   0.390   5.915   2.751
10325SOL    HW131874   0.338   5.980   2.807
10325SOL    HW231875   0.380   5.823   2.789
10326SOL     OW31876   5.287   3.654   6.896
10326SOL    HW131877   5.299   3.753   6.892
10326SOL    HW231878   5.248   3.621   6.810
10327SOL     OW31879   2.842   3.792   1.165
10327SOL    HW131880   2.891   3.879   1.171
10327SOL    HW231881   2.766   3.792   1.231
10328SOL     OW31882   6.467   3.069   1.798
10328SOL    HW131883   6.424   3.091   1.710
10328SOL    HW231884   6.396   3.056   1.867
10329SOL     OW31885   3.422   1.591   3.263
10329SOL    HW131886   3.334   1.556   3.292
10329SOL    HW231887   3.429   1.584   3.163
10330SOL     OW31888   4.610   0.114   1.006
10330SOL    HW131889   4.611   0.178   1.082
10330SOL    HW231890   4.539   0.045   1.021
10331SOL     OW31891   6.447   5.773   0.359
10331SOL    HW131892   6.465   5.699   0.294
10331SOL    HW231893   6.407   5.851   0.311
10332SOL     OW31894   1.280   0.750   0.783
10332SOL    HW131895   1.257   0.803   0.701
10332SOL    HW231896   1.245   0.797   0.864
10333SOL     OW31897   1.130   5.905   4.489
10333SOL    HW131898   1.143   5.903   4.588
10333SOL    HW231899   1.055   5.843   4.464
10334SOL     OW31900   3.218   0.149   3.793
10334SOL    HW131901   3.231   0.102   3.879
10334SOL    HW231902   3.205   0.247   3.810
10335SOL     OW31903   0.508   3.837   5.822
10335SOL    HW131904   0.436   3.866   5.759
10335SOL    HW231905   0.585   3.798   5.770
10336SOL     OW31906   5.635   0.105   2.865
10336SOL    HW131907   5.668   0.068   2.778
10336SOL    HW231908   5.628   0.030   2.932
10337SOL     OW31909   6.230   5.468   0.308
10337SOL    HW131910   6.283   5.470   0.392
10337SOL    HW231911   6.274   5.406   0.242
10338SOL     OW31912   1.832   6.056   2.194
10338SOL    HW131913   1.796   5.996   2.266
10338SOL    HW231914   1.928   6.076   2.214
10339SOL     OW31915   6.920   2.784   5.844
10339SOL    HW131916   6.907   2.822   5.936
10339SOL    HW231917   6.913   2.684   5.849
10340SOL     OW31918   1.706   3.581   6.254
10340SOL    HW131919   1.629   3.548   6.199
10340SOL    HW231920   1.769   3.631   6.196
10341SOL     OW31921   2.157   3.058   2.594
10341SOL    HW131922   2.071   3.075   2.545
10341SOL    HW231923   2.226   3.026   2.529
10342SOL     OW31924   1.568   0.734   3.835
10342SOL    HW131925   1.610   0.758   3.747
10342SOL    HW231926   1.602   0.645   3.865
10343SOL     OW31927   2.176   5.737   1.015
10343SOL    HW131928   2.223   5.825   1.016
10343SOL    HW231929   2.151   5.712   1.109
10344SOL     OW31930   3.682   4.419   6.520
10344SOL    HW131931   3.642   4.508   6.496
10344SOL    HW231932   3.777   4.432   6.547
10345SOL     OW31933   1.297   2.960   5.207
10345SOL    HW131934   1.339   2.869   5.211
10345SOL    HW231935   1.258   2.983   5.297
10346SOL     OW31936   0.278   5.943   1.962
10346SOL    HW131937   0.363   5.952   1.910
10346SOL    HW231938   0.246   5.848   1.960
10347SOL     OW31939   4.463   1.387   3.822
10347SOL    HW131940   4.471   1.425   3.915
10347SOL    HW231941   4.549   1.400   3.773
10348SOL     OW31942   6.044   3.873   0.601
10348SOL    HW131943   6.032   3.779   0.632
10348SOL    HW231944   6.116   3.917   0.654
10349SOL     OW31945   0.036   6.652   6.471
10349SOL    HW131946   0.080   6.667   6.560
10349SOL    HW231947   6.974   6.711   6.464
10350SOL     OW31948   2.972   6.592   5.215
10350SOL    HW131949   2.964   6.688   5.240
10350SOL    HW231950   2.933   6.535   5.288
10351SOL     OW31951   4.367   5.030   5.513
10351SOL    HW131952   4.363   5.093   5.590
10351SOL    HW231953   4.283   4.977   5.508
10352SOL     OW31954   3.756   2.173   5.868
10352SOL    HW131955   3.737   2.105   5.940
10352SOL    HW231956   3.674   2.227   5.852
10353SOL     OW31957   6.768   2.773   4.695
10353SOL    HW131958   6.690   2.816   4.742
10353SOL    HW231959   6.772   2.676   4.719
10354SOL     OW31960   5.226   1.335   2.184
10354SOL    HW131961   5.291   1.405   2.154
10354SOL    HW231962   5.241   1.314   2.280
10355SOL     OW31963   2.681   5.667   2.433
10355SOL    HW131964   2.665   5.577   2.474
10355SOL    HW231965   2.605   5.728   2.454
10356SOL     OW31966   6.974   4.187   5.346
10356SOL    HW131967   6.984   4.088   5.336
10356SOL    HW231968   6.898   4.207   5.408
10357SOL     OW31969   2.486   1.883   6.576
10357SOL    HW131970   2.463   1.933   6.659
10357SOL    HW231971   2.430   1.800   6.570
10358SOL     OW31972   0.252   1.984   1.856
10358SOL    HW131973   0.264   2.080   1.833
10358SOL    HW231974   0.254   1.929   1.772
10359SOL     OW31975   0.115   1.334   1.729
10359SOL    HW131976   0.057   1.253   1.723
10359SOL    HW231977   0.118   1.380   1.640
10360SOL     OW31978   5.530   5.946   3.554
10360SOL    HW131979   5.434   5.918   3.555
10360SOL    HW231980   5.587   5.868   3.527
10361SOL     OW31981   2.553   5.493   2.080
10361SOL    HW131982   2.649   5.519   2.097
10361SOL    HW231983   2.502   5.573   2.050
10362SOL     OW31984   1.839   4.212   4.792
10362SOL    HW131985   1.905   4.286   4.779
10362SOL    HW231986   1.827   4.163   4.706
10363SOL     OW31987   4.971   0.572   3.445
10363SOL    HW131988   4.939   0.552   3.538
10363SOL    HW231989   4.944   0.665   3.420
10364SOL     OW31990   1.972   4.385   1.217
10364SOL    HW131991   2.064   4.353   1.195
10364SOL    HW231992   1.978   4.469   1.270
10365SOL     OW31993   5.065   5.379   6.908
10365SOL    HW131994   4.989   5.368   6.972
10365SOL    HW231995   5.031   5.418   6.822
10366SOL     OW31996   3.213   6.981   2.875
10366SOL    HW131997   3.268   0.046   2.869
10366SOL    HW231998   3.116   7.005   2.881
10367SOL     OW31999   6.110   2.526   3.520
10367SOL    HW132000   6.069   2.493   3.605
10367SOL    HW232001   6.047   2.589   3.474
10368SOL     OW32002   1.727   0.969   1.834
10368SOL    HW132003   1.743   0.875   1.864
10368SOL    HW232004   1.807   1.025   1.854
10369SOL     OW32005   3.660   2.634   0.059
10369SOL    HW132006   3.570   2.626   0.016
10369SOL    HW232007   3.649   2.665   0.153
10370SOL     OW32008   3.938   0.811   5.235
10370SOL    HW132009   3.891   0.847   5.154
10370SOL    HW232010   3.976   0.887   5.287
10371SOL     OW32011   4.546   6.263   5.250
10371SOL    HW132012   4.612   6.310   5.192
10371SOL    HW232013   4.484   6.208   5.192
10372SOL     OW32014   2.194   0.868   4.167
10372SOL    HW132015   2.284   0.883   4.124
10372SOL    HW232016   2.162   0.776   4.146
10373SOL     OW32017   1.025   6.391   4.291
10373SOL    HW132018   1.048   6.483   4.259
10373SOL    HW232019   1.056   6.324   4.223
10374SOL     OW32020   2.489   2.403   3.073
10374SOL    HW132021   2.561   2.380   3.008
10374SOL    HW232022   2.403   2.418   3.024
10375SOL     OW32023   5.855   1.975   0.756
10375SOL    HW132024   5.839   2.020   0.668
10375SOL    HW232025   5.822   2.034   0.829
10376SOL     OW32026   0.822   1.109   3.835
10376SOL    HW132027   0.897   1.152   3.785
10376SOL    HW232028   0.823   1.139   3.930
10377SOL     OW32029   0.868   0.576   4.164
10377SOL    HW132030   0.946   0.513   4.154
10377SOL    HW232031   0.846   0.616   4.076
10378SOL     OW32032   0.054   0.417   6.378
10378SOL    HW132033   0.072   0.421   6.279
10378SOL    HW232034   6.974   0.411   6.394
10379SOL     OW32035   5.372   1.338   4.626
10379SOL    HW132036   5.394   1.433   4.650
10379SOL    HW232037   5.354   1.332   4.528
10380SOL     OW32038   5.192   0.458   2.087
10380SOL    HW132039   5.107   0.406   2.094
10380SOL    HW232040   5.237   0.437   2.000
10381SOL     OW32041   4.597   4.865   5.797
10381SOL    HW132042   4.598   4.791   5.730
10381SOL    HW232043   4.503   4.884   5.824
10382SOL     OW32044   2.379   5.077   0.271
10382SOL    HW132045   2.394   5.170   0.305
10382SOL    HW232046   2.392   5.012   0.347
10383SOL     OW32047   0.546   2.577   0.614
10383SOL    HW132048   0.451   2.589   0.642
10383SOL    HW232049   0.559   2.617   0.523
10384SOL     OW32050   6.400   0.251   0.078
10384SOL    HW132051   6.481   0.308   0.063
10384SOL    HW232052   6.421   0.182   0.147
10385SOL     OW32053   6.464   1.511   6.482
10385SOL    HW132054   6.364   1.519   6.480
10385SOL    HW232055   6.489   1.420   6.515
10386SOL     OW32056   6.219   2.618   5.903
10386SOL    HW132057   6.245   2.695   5.846
10386SOL    HW232058   6.233   2.641   5.999
10387SOL     OW32059   1.823   2.528   3.188
10387SOL    HW132060   1.823   2.618   3.231
10387SOL    HW232061   1.770   2.464   3.244
10388SOL     OW32062   1.573   4.919   2.676
10388SOL    HW132063   1.478   4.949   2.674
10388SOL    HW232064   1.632   4.997   2.694
10389SOL     OW32065   0.886   4.892   2.905
10389SOL    HW132066   0.793   4.903   2.869
10389SOL    HW232067   0.937   4.829   2.846
10390SOL     OW32068   1.287   3.124   3.648
10390SOL    HW132069   1.310   3.091   3.556
10390SOL    HW232070   1.233   3.054   3.696
10391SOL     OW32071   2.573   6.332   5.925
10391SOL    HW132072   2.660   6.285   5.939
10391SOL    HW232073   2.582   6.397   5.849
10392SOL     OW32074   6.387   5.427   0.521
10392SOL    HW132075   6.446   5.355   0.486
10392SOL    HW232076   6.423   5.462   0.607
10393SOL     OW32077   1.379   1.200   4.177
10393SOL    HW132078   1.309   1.225   4.243
10393SOL    HW232079   1.390   1.101   4.175
10394SOL     OW32080   2.089   6.396   6.835
10394SOL    HW132081   1.991   6.379   6.830
10394SOL    HW232082   2.109   6.487   6.799
10395SOL     OW32083   0.158   1.182   4.727
10395SOL    HW132084   0.145   1.119   4.650
10395SOL    HW232085   0.252   1.172   4.761
10396SOL     OW32086   0.610   0.133   5.215
10396SOL    HW132087   0.615   0.036   5.238
10396SOL    HW232088   0.581   0.143   5.120
10397SOL     OW32089   4.414   1.437   3.037
10397SOL    HW132090   4.368   1.356   3.073
10397SOL    HW232091   4.512   1.430   3.057
10398SOL     OW32092   6.429   2.648   2.311
10398SOL    HW132093   6.489   2.727   2.321
10398SOL    HW232094   6.408   2.609   2.401
10399SOL     OW32095   5.627   1.947   5.238
10399SOL    HW132096   5.616   2.024   5.300
10399SOL    HW232097   5.682   1.975   5.159
10400SOL     OW32098   2.537   5.131   1.814
10400SOL    HW132099   2.579   5.092   1.895
10400SOL    HW232100   2.521   5.059   1.746
10401SOL     OW32101   0.465   6.381   1.621
10401SOL    HW132102   0.432   6.468   1.585
10401SOL    HW232103   0.405   6.351   1.695
10402SOL     OW32104   0.509   2.784   4.321
10402SOL    HW132105   0.502   2.717   4.394
10402SOL    HW232106   0.547   2.869   4.357
10403SOL     OW32107   5.438   0.877   2.140
10403SOL    HW132108   5.363   0.823   2.178
10403SOL    HW232109   5.404   0.967   2.113
10404SOL     OW32110   0.641   6.457   3.637
10404SOL    HW132111   0.613   6.516   3.561
10404SOL    HW232112   0.740   6.460   3.648
10405SOL     OW32113   1.698   6.446   5.726
10405SOL    HW132114   1.783   6.490   5.752
10405SOL    HW232115   1.627   6.515   5.713
10406SOL     OW32116   2.470   4.898   6.114
10406SOL    HW132117   2.551   4.878   6.170
10406SOL    HW232118   2.427   4.813   6.087
10407SOL     OW32119   0.965   1.647   0.047
10407SOL    HW132120   0.958   1.702   6.982
10407SOL    HW232121   1.061   1.628   0.067
10408SOL     OW32122   4.443   5.578   3.116
10408SOL    HW132123   4.346   5.556   3.132
10408SOL    HW232124   4.478   5.520   3.043
10409SOL     OW32125   5.810   4.746   2.463
10409SOL    HW132126   5.767   4.687   2.396
10409SOL    HW232127   5.852   4.824   2.417
10410SOL     OW32128   5.694   0.090   0.534
10410SOL    HW132129   5.658   0.044   0.453
10410SOL    HW232130   5.622   0.146   0.575
10411SOL     OW32131   2.288   4.447   2.795
10411SOL    HW132132   2.293   4.545   2.811
10411SOL    HW232133   2.334   4.425   2.709
10412SOL     OW32134   0.536   2.296   0.403
10412SOL    HW132135   0.488   2.328   0.321
10412SOL    HW232136   0.487   2.329   0.485
10413SOL     OW32137   0.418   1.905   6.796
10413SOL    HW132138   0.415   1.984   6.736
10413SOL    HW232139   0.485   1.839   6.762
10414SOL     OW32140   5.571   6.652   5.317
10414SOL    HW132141   5.480   6.666   5.357
10414SOL    HW232142   5.562   6.601   5.231
10415SOL     OW32143   0.662   5.785   3.380
10415SOL    HW132144   0.629   5.738   3.462
10415SOL    HW232145   0.727   5.857   3.406
10416SOL     OW32146   5.419   1.198   6.267
10416SOL    HW132147   5.502   1.220   6.319
10416SOL    HW232148   5.356   1.276   6.269
10417SOL     OW32149   3.580   4.943   4.230
10417SOL    HW132150   3.587   5.041   4.247
10417SOL    HW232151   3.519   4.902   4.298
10418SOL     OW32152   6.249   4.047   6.196
10418SOL    HW132153   6.211   4.078   6.283
10418SOL    HW232154   6.324   3.983   6.213
10419SOL     OW32155   2.620   1.304   4.476
10419SOL    HW132156   2.616   1.404   4.478
10419SOL    HW232157   2.545   1.269   4.419
10420SOL     OW32158   5.925   3.476   3.111
10420SOL    HW132159   5.976   3.420   3.176
10420SOL    HW232160   5.884   3.417   3.042
10421SOL     OW32161   0.596   4.555   4.275
10421SOL    HW132162   0.608   4.651   4.250
10421SOL    HW232163   0.615   4.543   4.372
10422SOL     OW32164   6.456   3.939   5.061
10422SOL    HW132165   6.413   4.029   5.070
10422SOL    HW232166   6.555   3.948   5.068
10423SOL     OW32167   2.368   4.751   4.329
10423SOL    HW132168   2.463   4.723   4.344
10423SOL    HW232169   2.362   4.809   4.248
10424SOL     OW32170   3.379   1.212   0.488
10424SOL    HW132171   3.384   1.310   0.506
10424SOL    HW232172   3.470   1.171   0.496
10425SOL     OW32173   1.386   2.444   1.127
10425SOL    HW132174   1.329   2.491   1.061
10425SOL    HW232175   1.475   2.490   1.134
10426SOL     OW32176   6.679   2.303   6.306
10426SOL    HW132177   6.675   2.321   6.207
10426SOL    HW232178   6.638   2.214   6.326
10427SOL     OW32179   5.136   0.190   4.297
10427SOL    HW132180   5.160   0.106   4.344
10427SOL    HW232181   5.165   0.185   4.201
10428SOL     OW32182   2.463   0.284   3.927
10428SOL    HW132183   2.490   0.315   3.836
10428SOL    HW232184   2.363   0.288   3.936
10429SOL     OW32185   1.579   2.900   1.584
10429SOL    HW132186   1.544   2.926   1.494
10429SOL    HW232187   1.622   2.810   1.578
10430SOL     OW32188   3.094   0.138   3.342
10430SOL    HW132189   3.025   0.208   3.322
10430SOL    HW232190   3.048   0.053   3.371
10431SOL     OW32191   4.048   0.294   3.165
10431SOL    HW132192   4.051   0.358   3.088
10431SOL    HW232193   4.082   0.205   3.137
10432SOL     OW32194   0.756   5.484   6.188
10432SOL    HW132195   0.817   5.531   6.125
10432SOL    HW232196   0.695   5.550   6.231
10433SOL     OW32197   2.262   0.085   2.624
10433SOL    HW132198   2.290   0.018   2.693
10433SOL    HW232199   2.164   0.078   2.609
10434SOL     OW32200   5.408   0.660   5.669
10434SOL    HW132201   5.463   0.650   5.752
10434SOL    HW232202   5.451   0.727   5.608
10435SOL     OW32203   2.016   1.883   0.014
10435SOL    HW132204   2.093   1.819   0.018
10435SOL    HW232205   2.033   1.951   6.962
10436SOL     OW32206   6.454   3.541   5.315
10436SOL    HW132207   6.536   3.528   5.370
10436SOL    HW232208   6.375   3.502   5.362
10437SOL     OW32209   5.738   6.537   4.623
10437SOL    HW132210   5.777   6.628   4.614
10437SOL    HW232211   5.684   6.532   4.707
10438SOL     OW32212   6.653   6.018   7.018
10438SOL    HW132213   6.699   5.990   0.083
10438SOL    HW232214   6.718   6.019   6.942
10439SOL     OW32215   6.669   6.019   4.883
10439SOL    HW132216   6.697   5.926   4.860
10439SOL    HW232217   6.607   6.018   4.961
10440SOL     OW32218   6.622   2.775   0.975
10440SOL    HW132219   6.632   2.682   0.941
10440SOL    HW232220   6.531   2.809   0.954
10441SOL     OW32221   4.557   1.735   6.844
10441SOL    HW132222   4.497   1.814   6.860
10441SOL    HW232223   4.581   1.693   6.931
10442SOL     OW32224   2.011   1.934   5.320
10442SOL    HW132225   2.049   1.843   5.336
10442SOL    HW232226   2.016   1.988   5.404
10443SOL     OW32227   0.319   1.632   1.906
10443SOL    HW132228   0.375   1.691   1.848
10443SOL    HW232229   0.378   1.580   1.968
10444SOL     OW32230   3.835   4.872   4.342
10444SOL    HW132231   3.827   4.855   4.441
10444SOL    HW232232   3.749   4.909   4.308
10445SOL     OW32233   0.397   2.962   3.159
10445SOL    HW132234   0.446   3.019   3.093
10445SOL    HW232235   0.443   2.967   3.248
10446SOL     OW32236   2.149   4.540   5.650
10446SOL    HW132237   2.140   4.494   5.561
10446SOL    HW232238   2.135   4.474   5.723
10447SOL     OW32239   0.452   2.228   2.869
10447SOL    HW132240   0.551   2.216   2.859
10447SOL    HW232241   0.423   2.309   2.818
10448SOL     OW32242   2.172   6.412   1.905
10448SOL    HW132243   2.234   6.434   1.829
10448SOL    HW232244   2.102   6.348   1.874
10449SOL     OW32245   3.720   5.168   5.012
10449SOL    HW132246   3.720   5.242   4.945
10449SOL    HW232247   3.652   5.099   4.986
10450SOL     OW32248   6.717   0.424   5.665
10450SOL    HW132249   6.784   0.376   5.721
10450SOL    HW232250   6.638   0.365   5.649
10451SOL     OW32251   3.531   1.164   3.295
10451SOL    HW132252   3.526   1.065   3.313
10451SOL    HW232253   3.552   1.212   3.380
10452SOL     OW32254   6.173   3.319   4.501
10452SOL    HW132255   6.137   3.411   4.520
10452SOL    HW232256   6.259   3.306   4.551
10453SOL     OW32257   4.184   6.169   3.483
10453SOL    HW132258   4.231   6.105   3.422
10453SOL    HW232259   4.251   6.224   3.532
10454SOL     OW32260   6.785   1.456   6.252
10454SOL    HW132261   6.789   1.527   6.181
10454SOL    HW232262   6.836   1.487   6.332
10455SOL     OW32263   6.892   5.316   3.682
10455SOL    HW132264   6.800   5.310   3.642
10455SOL    HW232265   6.884   5.329   3.781
10456SOL     OW32266   1.148   5.188   6.444
10456SOL    HW132267   1.050   5.192   6.425
10456SOL    HW232268   1.199   5.211   6.360
10457SOL     OW32269   3.872   2.494   6.953
10457SOL    HW132270   3.795   2.554   6.970
10457SOL    HW232271   3.944   2.511   0.001
10458SOL     OW32272   0.057   6.036   0.042
10458SOL    HW132273   7.003   6.074   0.100
10458SOL    HW232274   0.016   5.988   6.983
10459SOL     OW32275   6.874   5.241   1.004
10459SOL    HW132276   6.849   5.144   1.003
10459SOL    HW232277   6.973   5.250   0.997
10460SOL     OW32278   0.036   0.805   0.948
10460SOL    HW132279   0.046   0.787   0.850
10460SOL    HW232280   6.963   0.843   0.965
10461SOL     OW32281   6.991   5.230   6.152
10461SOL    HW132282   0.015   5.219   6.062
10461SOL    HW232283   0.019   5.172   6.218
10462SOL     OW32284   4.297   2.204   0.004
10462SOL    HW132285   4.307   2.239   6.929
10462SOL    HW232286   4.312   2.278   0.069
10463SOL     OW32287   5.009   2.213   6.628
10463SOL    HW132288   5.024   2.214   6.727
10463SOL    HW232289   4.920   2.172   6.608
10464SOL     OW32290   6.424   4.962   2.335
10464SOL    HW132291   6.409   4.911   2.250
10464SOL    HW232292   6.521   4.959   2.358
10465SOL     OW32293   5.744   4.506   1.562
10465SOL    HW132294   5.793   4.504   1.475
10465SOL    HW232295   5.728   4.412   1.593
10466SOL     OW32296   6.360   4.684   5.898
10466SOL    HW132297   6.285   4.739   5.863
10466SOL    HW232298   6.336   4.587   5.894
10467SOL     OW32299   0.850   3.608   0.223
10467SOL    HW132300   0.751   3.598   0.237
10467SOL    HW232301   0.898   3.564   0.299
10468SOL     OW32302   1.698   4.696   3.379
10468SOL    HW132303   1.766   4.669   3.447
10468SOL    HW232304   1.720   4.652   3.291
10469SOL     OW32305   0.183   1.777   4.021
10469SOL    HW132306   0.196   1.738   3.929
10469SOL    HW232307   0.093   1.751   4.055
10470SOL     OW32308   2.033   3.172   2.838
10470SOL    HW132309   2.045   3.116   2.920
10470SOL    HW232310   2.073   3.126   2.759
10471SOL     OW32311   3.032   6.440   6.661
10471SOL    HW132312   2.994   6.425   6.752
10471SOL    HW232313   3.035   6.353   6.611
10472SOL     OW32314   3.858   4.973   6.714
10472SOL    HW132315   3.904   4.897   6.759
10472SOL    HW232316   3.884   4.975   6.617
10473SOL     OW32317   5.431   4.489   0.542
10473SOL    HW132318   5.475   4.569   0.500
10473SOL    HW232319   5.499   4.420   0.564
10474SOL     OW32320   5.703   1.279   4.625
10474SOL    HW132321   5.681   1.182   4.612
10474SOL    HW232322   5.723   1.321   4.536
10475SOL     OW32323   1.605   5.713   1.792
10475SOL    HW132324   1.685   5.690   1.847
10475SOL    HW232325   1.584   5.636   1.731
10476SOL     OW32326   5.123   5.862   0.503
10476SOL    HW132327   5.029   5.840   0.532
10476SOL    HW232328   5.181   5.782   0.517
10477SOL     OW32329   6.553   5.360   3.943
10477SOL    HW132330   6.634   5.419   3.935
10477SOL    HW232331   6.576   5.280   3.998
10478SOL     OW32332   6.528   1.448   6.788
10478SOL    HW132333   6.489   1.519   6.729
10478SOL    HW232334   6.628   1.457   6.789
10479SOL     OW32335   0.826   2.389   2.035
10479SOL    HW132336   0.915   2.397   1.990
10479SOL    HW232337   0.839   2.377   2.133
10480SOL     OW32338   2.553   6.936   2.372
10480SOL    HW132339   2.537   6.943   2.471
10480SOL    HW232340   2.512   6.852   2.338
10481SOL     OW32341   6.781   0.540   2.228
10481SOL    HW132342   6.741   0.548   2.137
10481SOL    HW232343   6.871   0.583   2.228
10482SOL     OW32344   4.911   3.411   4.271
10482SOL    HW132345   4.888   3.323   4.229
10482SOL    HW232346   4.858   3.422   4.355
10483SOL     OW32347   6.062   6.816   0.056
10483SOL    HW132348   5.997   6.827   0.131
10483SOL    HW232349   6.109   6.903   0.040
10484SOL     OW32350   6.401   1.075   2.691
10484SOL    HW132351   6.484   1.027   2.661
10484SOL    HW232352   6.426   1.166   2.724
10485SOL     OW32353   5.377   4.000   5.574
10485SOL    HW132354   5.289   4.029   5.537
10485SOL    HW232355   5.444   4.074   5.562
10486SOL     OW32356   5.166   3.060   1.985
10486SOL    HW132357   5.101   3.114   2.038
10486SOL    HW232358   5.259   3.090   2.005
10487SOL     OW32359   5.928   6.280   1.670
10487SOL    HW132360   5.920   6.182   1.690
10487SOL    HW232361   6.012   6.296   1.618
10488SOL     OW32362   2.722   2.435   6.565
10488SOL    HW132363   2.702   2.486   6.481
10488SOL    HW232364   2.671   2.474   6.641
10489SOL     OW32365   0.917   5.669   6.051
10489SOL    HW132366   0.998   5.696   5.998
10489SOL    HW232367   0.834   5.698   6.003
10490SOL     OW32368   6.993   0.435   3.992
10490SOL    HW132369   0.016   0.377   4.062
10490SOL    HW232370   6.979   0.527   4.029
10491SOL     OW32371   1.258   4.054   5.719
10491SOL    HW132372   1.258   3.982   5.649
10491SOL    HW232373   1.337   4.114   5.704
10492SOL     OW32374   4.115   3.566   5.884
10492SOL    HW132375   4.116   3.574   5.785
10492SOL    HW232376   4.208   3.557   5.918
10493SOL     OW32377   2.862   0.964   1.577
10493SOL    HW132378   2.858   1.043   1.516
10493SOL    HW232379   2.943   0.972   1.636
10494SOL     OW32380   5.524   2.554   4.488
10494SOL    HW132381   5.450   2.525   4.427
10494SOL    HW232382   5.536   2.485   4.560
10495SOL     OW32383   1.297   6.325   6.883
10495SOL    HW132384   1.396   6.341   6.873
10495SOL    HW232385   1.259   6.395   6.943
10496SOL     OW32386   0.056   0.213   5.680
10496SOL    HW132387   0.097   0.230   5.590
10496SOL    HW232388   0.034   0.116   5.689
10497SOL     OW32389   1.397   1.098   1.405
10497SOL    HW132390   1.408   1.197   1.396
10497SOL    HW232391   1.450   1.066   1.483
10498SOL     OW32392   3.036   5.515   6.067
10498SOL    HW132393   3.069   5.590   6.010
10498SOL    HW232394   2.973   5.550   6.136
10499SOL     OW32395   3.514   5.275   2.905
10499SOL    HW132396   3.554   5.350   2.958
10499SOL    HW232397   3.518   5.296   2.808
10500SOL     OW32398   1.468   2.099   6.124
10500SOL    HW132399   1.433   2.016   6.167
10500SOL    HW232400   1.448   2.097   6.026
10501SOL     OW32401   1.697   3.158   3.212
10501SOL    HW132402   1.763   3.106   3.159
10501SOL    HW232403   1.743   3.233   3.260
10502SOL     OW32404   3.212   5.955   6.378
10502SOL    HW132405   3.240   5.933   6.472
10502SOL    HW232406   3.264   6.035   6.346
10503SOL     OW32407   2.660   3.483   5.881
10503SOL    HW132408   2.687   3.397   5.923
10503SOL    HW232409   2.580   3.468   5.823
10504SOL     OW32410   2.907   3.243   0.779
10504SOL    HW132411   2.880   3.163   0.832
10504SOL    HW232412   2.979   3.292   0.827
10505SOL     OW32413   6.613   6.295   1.511
10505SOL    HW132414   6.707   6.303   1.543
10505SOL    HW232415   6.586   6.199   1.510
10506SOL     OW32416   0.603   4.398   5.386
10506SOL    HW132417   0.617   4.466   5.458
10506SOL    HW232418   0.564   4.443   5.305
10507SOL     OW32419   1.154   0.589   5.567
10507SOL    HW132420   1.131   0.522   5.638
10507SOL    HW232421   1.150   0.545   5.477
10508SOL     OW32422   5.008   4.288   2.748
10508SOL    HW132423   4.979   4.374   2.789
10508SOL    HW232424   4.932   4.223   2.750
10509SOL     OW32425   1.889   0.678   6.085
10509SOL    HW132426   1.943   0.609   6.133
10509SOL    HW232427   1.936   0.705   6.001
10510SOL     OW32428   6.751   5.924   0.252
10510SOL    HW132429   6.807   5.848   0.220
10510SOL    HW232430   6.721   5.906   0.346
10511SOL     OW32431   4.836   3.235   0.461
10511SOL    HW132432   4.755   3.219   0.518
10511SOL    HW232433   4.809   3.240   0.365
10512SOL     OW32434   3.552   6.684   6.330
10512SOL    HW132435   3.568   6.782   6.314
10512SOL    HW232436   3.454   6.667   6.335
10513SOL     OW32437   6.680   2.336   0.516
10513SOL    HW132438   6.752   2.393   0.477
10513SOL    HW232439   6.599   2.391   0.535
10514SOL     OW32440   0.125   4.844   1.299
10514SOL    HW132441   0.062   4.778   1.258
10514SOL    HW232442   0.216   4.803   1.308
10515SOL     OW32443   6.619   2.459   3.989
10515SOL    HW132444   6.601   2.452   3.891
10515SOL    HW232445   6.534   2.479   4.037
10516SOL     OW32446   4.105   0.657   6.394
10516SOL    HW132447   4.019   0.608   6.405
10516SOL    HW232448   4.117   0.682   6.297
10517SOL     OW32449   6.909   1.906   2.901
10517SOL    HW132450   6.920   1.828   2.963
10517SOL    HW232451   6.972   1.979   2.928
10518SOL     OW32452   0.897   6.695   1.001
10518SOL    HW132453   0.808   6.679   0.959
10518SOL    HW232454   0.885   6.741   1.088
10519SOL     OW32455   2.775   3.661   5.388
10519SOL    HW132456   2.790   3.684   5.292
10519SOL    HW232457   2.683   3.688   5.415
10520SOL     OW32458   4.228   2.857   6.712
10520SOL    HW132459   4.245   2.934   6.650
10520SOL    HW232460   4.268   2.878   6.802
10521SOL     OW32461   6.483   5.784   1.560
10521SOL    HW132462   6.518   5.723   1.489
10521SOL    HW232463   6.385   5.769   1.572
10522SOL     OW32464   6.301   0.564   2.060
10522SOL    HW132465   6.230   0.494   2.070
10522SOL    HW232466   6.275   0.646   2.111
10523SOL     OW32467   0.480   5.671   6.621
10523SOL    HW132468   0.566   5.717   6.644
10523SOL    HW232469   0.450   5.616   6.699
10524SOL     OW32470   3.364   1.054   4.084
10524SOL    HW132471   3.267   1.076   4.077
10524SOL    HW232472   3.384   1.017   4.175
10525SOL     OW32473   2.866   6.049   4.561
10525SOL    HW132474   2.833   6.134   4.520
10525SOL    HW232475   2.807   5.974   4.532
10526SOL     OW32476   6.346   0.158   2.400
10526SOL    HW132477   6.340   0.058   2.402
10526SOL    HW232478   6.431   0.187   2.443
10527SOL     OW32479   1.163   2.404   4.704
10527SOL    HW132480   1.084   2.366   4.656
10527SOL    HW232481   1.203   2.478   4.650
10528SOL     OW32482   6.820   4.878   4.644
10528SOL    HW132483   6.803   4.815   4.719
10528SOL    HW232484   6.917   4.879   4.622
10529SOL     OW32485   0.046   6.497   3.769
10529SOL    HW132486   0.002   6.407   3.766
10529SOL    HW232487   6.996   6.568   3.758
10530SOL     OW32488   2.058   1.326   6.325
10530SOL    HW132489   2.093   1.402   6.271
10530SOL    HW232490   1.972   1.294   6.286
10531SOL     OW32491   2.198   2.651   5.295
10531SOL    HW132492   2.177   2.723   5.361
10531SOL    HW232493   2.202   2.690   5.203
10532SOL     OW32494   3.618   2.315   5.603
10532SOL    HW132495   3.603   2.334   5.700
10532SOL    HW232496   3.565   2.378   5.547
10533SOL     OW32497   2.462   1.093   6.169
10533SOL    HW132498   2.439   1.187   6.192
10533SOL    HW232499   2.545   1.091   6.113
10534SOL     OW32500   6.587   5.641   1.354
10534SOL    HW132501   6.653   5.666   1.283
10534SOL    HW232502   6.506   5.600   1.313
10535SOL     OW32503   0.335   0.892   2.282
10535SOL    HW132504   0.427   0.873   2.247
10535SOL    HW232505   0.316   0.832   2.360
10536SOL     OW32506   4.412   0.053   3.303
10536SOL    HW132507   4.424   0.087   3.210
10536SOL    HW232508   4.449   0.120   3.368
10537SOL     OW32509   0.899   4.365   1.498
10537SOL    HW132510   0.924   4.377   1.595
10537SOL    HW232511   0.805   4.395   1.484
10538SOL     OW32512   4.701   3.775   0.393
10538SOL    HW132513   4.742   3.709   0.456
10538SOL    HW232514   4.655   3.727   0.319
10539SOL     OW32515   0.483   3.421   5.902
10539SOL    HW132516   0.435   3.479   5.967
10539SOL    HW232517   0.419   3.356   5.861
10540SOL     OW32518   2.741   0.587   6.910
10540SOL    HW132519   2.708   0.561   7.001
10540SOL    HW232520   2.707   0.678   6.887
10541SOL     OW32521   3.570   2.654   0.340
10541SOL    HW132522   3.572   2.597   0.422
10541SOL    HW232523   3.478   2.690   0.326
10542SOL     OW32524   0.616   2.696   0.382
10542SOL    HW132525   0.675   2.624   0.346
10542SOL    HW232526   0.650   2.785   0.350
10543SOL     OW32527   1.691   1.133   5.642
10543SOL    HW132528   1.598   1.127   5.605
10543SOL    HW232529   1.750   1.179   5.575
10544SOL     OW32530   1.066   2.298   1.884
10544SOL    HW132531   1.074   2.324   1.788
10544SOL    HW232532   1.147   2.245   1.911
10545SOL     OW32533   6.210   0.553   2.606
10545SOL    HW132534   6.223   0.508   2.694
10545SOL    HW232535   6.144   0.627   2.615
10546SOL     OW32536   3.120   0.732   4.045
10546SOL    HW132537   3.054   0.726   3.970
10546SOL    HW232538   3.213   0.724   4.008
10547SOL     OW32539   4.137   1.752   1.002
10547SOL    HW132540   4.221   1.744   0.949
10547SOL    HW232541   4.148   1.824   1.070
10548SOL     OW32542   5.195   3.945   5.262
10548SOL    HW132543   5.228   3.915   5.173
10548SOL    HW232544   5.204   3.871   5.328
10549SOL     OW32545   0.979   1.021   1.994
10549SOL    HW132546   1.068   0.984   2.021
10549SOL    HW232547   0.992   1.103   1.938
10550SOL     OW32548   5.132   6.738   4.198
10550SOL    HW132549   5.076   6.777   4.272
10550SOL    HW232550   5.186   6.810   4.155
10551SOL     OW32551   1.071   2.768   6.022
10551SOL    HW132552   0.993   2.743   6.079
10551SOL    HW232553   1.156   2.737   6.065
10552SOL     OW32554   3.478   2.263   5.277
10552SOL    HW132555   3.515   2.254   5.184
10552SOL    HW232556   3.378   2.270   5.272
10553SOL     OW32557   2.589   5.412   6.930
10553SOL    HW132558   2.495   5.410   6.894
10553SOL    HW232559   2.644   5.342   6.884
10554SOL     OW32560   6.575   4.589   6.380
10554SOL    HW132561   6.562   4.610   6.283
10554SOL    HW232562   6.486   4.572   6.422
10555SOL     OW32563   3.229   1.895   1.117
10555SOL    HW132564   3.279   1.852   1.191
10555SOL    HW232565   3.182   1.825   1.063
10556SOL     OW32566   2.187   3.225   4.673
10556SOL    HW132567   2.227   3.289   4.738
10556SOL    HW232568   2.182   3.134   4.714
10557SOL     OW32569   6.797   2.685   3.794
10557SOL    HW132570   6.749   2.615   3.742
10557SOL    HW232571   6.816   2.652   3.886
10558SOL     OW32572   5.075   6.189   5.335
10558SOL    HW132573   5.168   6.209   5.305
10558SOL    HW232574   5.009   6.224   5.268
10559SOL     OW32575   4.200   2.253   0.476
10559SOL    HW132576   4.136   2.329   0.478
10559SOL    HW232577   4.285   2.281   0.432
10560SOL     OW32578   1.256   2.886   4.193
10560SOL    HW132579   1.221   2.793   4.184
10560SOL    HW232580   1.241   2.918   4.287
10561SOL     OW32581   2.299   4.338   6.939
10561SOL    HW132582   2.224   4.362   6.878
10561SOL    HW232583   2.265   4.277   7.011
10562SOL     OW32584   3.725   0.812   0.333
10562SOL    HW132585   3.752   0.825   0.429
10562SOL    HW232586   3.666   0.731   0.326
10563SOL     OW32587   1.790   1.784   4.941
10563SOL    HW132588   1.871   1.750   4.989
10563SOL    HW232589   1.710   1.731   4.968
10564SOL     OW32590   5.867   2.044   1.888
10564SOL    HW132591   5.930   2.044   1.966
10564SOL    HW232592   5.796   2.112   1.903
10565SOL     OW32593   5.245   1.847   4.674
10565SOL    HW132594   5.333   1.885   4.646
10565SOL    HW232595   5.183   1.921   4.700
10566SOL     OW32596   3.909   4.459   5.969
10566SOL    HW132597   3.943   4.373   6.006
10566SOL    HW232598   3.986   4.513   5.934
10567SOL     OW32599   2.015   4.360   4.150
10567SOL    HW132600   2.113   4.375   4.141
10567SOL    HW232601   1.989   4.274   4.106
10568SOL     OW32602   4.701   1.190   3.357
10568SOL    HW132603   4.674   1.175   3.452
10568SOL    HW232604   4.691   1.287   3.334
10569SOL     OW32605   5.995   3.148   4.230
10569SOL    HW132606   5.932   3.084   4.186
10569SOL    HW232607   6.039   3.102   4.308
10570SOL     OW32608   1.749   4.822   2.405
10570SOL    HW132609   1.794   4.735   2.388
10570SOL    HW232610   1.818   4.893   2.419
10571SOL     OW32611   6.478   6.680   3.750
10571SOL    HW132612   6.381   6.701   3.757
10571SOL    HW232613   6.529   6.731   3.820
10572SOL     OW32614   6.293   3.360   2.107
10572SOL    HW132615   6.237   3.340   2.026
10572SOL    HW232616   6.311   3.276   2.157
10573SOL     OW32617   5.858   5.255   5.421
10573SOL    HW132618   5.911   5.301   5.349
10573SOL    HW232619   5.819   5.324   5.482
10574SOL     OW32620   0.583   1.568   2.963
10574SOL    HW132621   0.537   1.631   2.899
10574SOL    HW232622   0.655   1.617   3.012
10575SOL     OW32623   1.161   0.173   5.356
10575SOL    HW132624   1.241   0.120   5.386
10575SOL    HW232625   1.080   0.115   5.356
10576SOL     OW32626   1.509   4.899   3.937
10576SOL    HW132627   1.437   4.897   3.867
10576SOL    HW232628   1.551   4.809   3.944
10577SOL     OW32629   1.586   2.291   5.780
10577SOL    HW132630   1.576   2.255   5.872
10577SOL    HW232631   1.627   2.382   5.784
10578SOL     OW32632   6.247   0.704   5.842
10578SOL    HW132633   6.256   0.606   5.860
10578SOL    HW232634   6.330   0.751   5.870
10579SOL     OW32635   4.207   1.783   0.382
10579SOL    HW132636   4.181   1.725   0.460
10579SOL    HW232637   4.253   1.726   0.314
10580SOL     OW32638   6.260   6.237   6.645
10580SOL    HW132639   6.282   6.314   6.704
10580SOL    HW232640   6.322   6.161   6.663
10581SOL     OW32641   5.139   1.023   3.515
10581SOL    HW132642   5.179   0.938   3.549
10581SOL    HW232643   5.042   1.027   3.539
10582SOL     OW32644   3.601   4.935   6.636
10582SOL    HW132645   3.693   4.958   6.667
10582SOL    HW232646   3.534   4.959   6.707
10583SOL     OW32647   4.355   1.515   0.545
10583SOL    HW132648   4.334   1.451   0.472
10583SOL    HW232649   4.279   1.578   0.558
10584SOL     OW32650   5.799   0.246   1.730
10584SOL    HW132651   5.793   0.345   1.736
10584SOL    HW232652   5.835   0.210   1.817
10585SOL     OW32653   1.455   3.302   6.415
10585SOL    HW132654   1.550   3.331   6.422
10585SOL    HW232655   1.451   3.202   6.417
10586SOL     OW32656   3.719   0.687   6.830
10586SOL    HW132657   3.770   0.667   6.914
10586SOL    HW232658   3.740   0.618   6.761
10587SOL     OW32659   6.028   4.178   0.969
10587SOL    HW132660   6.083   4.258   0.946
10587SOL    HW232661   5.986   4.141   0.886
10588SOL     OW32662   0.244   5.348   2.941
10588SOL    HW132663   0.323   5.324   2.997
10588SOL    HW232664   0.193   5.422   2.985
10589SOL     OW32665   6.110   2.001   3.893
10589SOL    HW132666   6.048   2.079   3.893
10589SOL    HW232667   6.105   1.955   3.982
10590SOL     OW32668   1.152   0.852   3.960
10590SOL    HW132669   1.155   0.810   4.051
10590SOL    HW232670   1.067   0.827   3.914
10591SOL     OW32671   1.374   2.938   0.735
10591SOL    HW132672   1.338   2.869   0.672
10591SOL    HW232673   1.345   2.916   0.828
10592SOL     OW32674   6.787   1.531   6.807
10592SOL    HW132675   6.779   1.601   6.736
10592SOL    HW232676   6.822   1.572   6.891
10593SOL     OW32677   1.649   4.564   0.992
10593SOL    HW132678   1.637   4.656   0.954
10593SOL    HW232679   1.641   4.568   1.091
10594SOL     OW32680   6.897   1.709   4.081
10594SOL    HW132681   6.831   1.634   4.091
10594SOL    HW232682   6.847   1.794   4.061
10595SOL     OW32683   3.581   6.048   6.218
10595SOL    HW132684   3.613   6.140   6.195
10595SOL    HW232685   3.660   5.990   6.239
10596SOL     OW32686   4.081   0.884   2.152
10596SOL    HW132687   4.007   0.907   2.215
10596SOL    HW232688   4.095   0.958   2.087
10597SOL     OW32689   1.912   0.136   5.056
10597SOL    HW132690   1.913   0.102   5.150
10597SOL    HW232691   1.920   0.236   5.057
10598SOL     OW32692   2.012   2.469   6.899
10598SOL    HW132693   2.048   2.387   6.857
10598SOL    HW232694   1.913   2.459   6.914
10599SOL     OW32695   5.592   1.588   6.927
10599SOL    HW132696   5.547   1.606   7.014
10599SOL    HW232697   5.691   1.585   6.940
10600SOL     OW32698   2.431   3.173   5.895
10600SOL    HW132699   2.465   3.149   5.804
10600SOL    HW232700   2.340   3.213   5.886
10601SOL     OW32701   3.432   6.358   6.113
10601SOL    HW132702   3.526   6.389   6.126
10601SOL    HW232703   3.428   6.300   6.032
10602SOL     OW32704   4.795   1.021   2.196
10602SOL    HW132705   4.738   1.084   2.249
10602SOL    HW232706   4.775   0.927   2.222
10603SOL     OW32707   1.579   5.317   4.491
10603SOL    HW132708   1.654   5.252   4.482
10603SOL    HW232709   1.524   5.295   4.572
10604SOL     OW32710   6.761   4.398   5.162
10604SOL    HW132711   6.841   4.452   5.190
10604SOL    HW232712   6.680   4.457   5.159
10605SOL     OW32713   1.520   4.928   6.718
10605SOL    HW132714   1.581   4.855   6.747
10605SOL    HW232715   1.568   4.990   6.655
10606SOL     OW32716   0.717   0.469   2.111
10606SOL    HW132717   0.773   0.469   2.193
10606SOL    HW232718   0.722   0.558   2.066
10607SOL     OW32719   5.542   4.915   6.914
10607SOL    HW132720   5.487   4.891   6.835
10607SOL    HW232721   5.503   4.996   6.959
10608SOL     OW32722   5.969   1.569   3.581
10608SOL    HW132723   6.005   1.508   3.652
10608SOL    HW232724   6.018   1.656   3.585
10609SOL     OW32725   4.036   6.575   1.213
10609SOL    HW132726   4.016   6.635   1.135
10609SOL    HW232727   4.132   6.546   1.209
10610SOL     OW32728   1.660   2.548   5.762
10610SOL    HW132729   1.621   2.636   5.734
10610SOL    HW232730   1.741   2.529   5.706
10611SOL     OW32731   5.520   2.863   6.049
10611SOL    HW132732   5.603   2.889   6.099
10611SOL    HW232733   5.467   2.798   6.102
10612SOL     OW32734   1.904   6.859   0.477
10612SOL    HW132735   1.828   6.799   0.500
10612SOL    HW232736   1.965   6.813   0.412
10613SOL     OW32737   0.309   6.350   5.788
10613SOL    HW132738   0.338   6.258   5.762
10613SOL    HW232739   0.284   6.402   5.706
10614SOL     OW32740   6.817   0.781   4.124
10614SOL    HW132741   6.789   0.818   4.212
10614SOL    HW232742   6.901   0.727   4.136
10615SOL     OW32743   5.438   5.269   5.268
10615SOL    HW132744   5.502   5.214   5.322
10615SOL    HW232745   5.484   5.301   5.186
10616SOL     OW32746   2.793   5.475   0.444
10616SOL    HW132747   2.768   5.381   0.421
10616SOL    HW232748   2.869   5.504   0.387
10617SOL     OW32749   1.422   2.125   6.919
10617SOL    HW132750   1.346   2.098   6.979
10617SOL    HW232751   1.423   2.224   6.909
10618SOL     OW32752   6.053   3.610   0.701
10618SOL    HW132753   6.141   3.562   0.697
10618SOL    HW232754   5.978   3.545   0.687
10619SOL     OW32755   1.303   4.086   3.949
10619SOL    HW132756   1.322   4.183   3.966
10619SOL    HW232757   1.209   4.075   3.917
10620SOL     OW32758   1.420   5.695   4.778
10620SOL    HW132759   1.413   5.792   4.800
10620SOL    HW232760   1.473   5.683   4.694
10621SOL     OW32761   2.587   6.055   1.104
10621SOL    HW132762   2.517   6.096   1.162
10621SOL    HW232763   2.677   6.063   1.148
10622SOL     OW32764   3.876   0.859   1.148
10622SOL    HW132765   3.954   0.895   1.097
10622SOL    HW232766   3.852   0.923   1.221
10623SOL     OW32767   6.513   1.890   3.984
10623SOL    HW132768   6.456   1.937   4.050
10623SOL    HW232769   6.455   1.848   3.914
10624SOL     OW32770   1.948   0.725   3.881
10624SOL    HW132771   1.891   0.778   3.944
10624SOL    HW232772   1.901   0.716   3.793
10625SOL     OW32773   0.161   3.194   0.019
10625SOL    HW132774   0.237   3.128   0.013
10625SOL    HW232775   0.195   3.286   0.001
10626SOL     OW32776   0.536   2.562   1.425
10626SOL    HW132777   0.555   2.528   1.333
10626SOL    HW232778   0.539   2.662   1.424
10627SOL     OW32779   6.213   5.966   3.536
10627SOL    HW132780   6.132   5.998   3.585
10627SOL    HW232781   6.295   6.009   3.573
10628SOL     OW32782   5.822   5.857   5.908
10628SOL    HW132783   5.758   5.836   5.982
10628SOL    HW232784   5.773   5.862   5.821
10629SOL     OW32785   2.819   5.376   6.007
10629SOL    HW132786   2.788   5.427   5.927
10629SOL    HW232787   2.893   5.426   6.052
10630SOL     OW32788   6.904   1.417   3.404
10630SOL    HW132789   6.877   1.505   3.442
10630SOL    HW232790   7.002   1.403   3.418
10631SOL     OW32791   0.883   6.736   4.033
10631SOL    HW132792   0.974   6.695   4.026
10631SOL    HW232793   0.837   6.702   4.115
10632SOL     OW32794   0.475   2.438   5.444
10632SOL    HW132795   0.378   2.416   5.452
10632SOL    HW232796   0.498   2.455   5.349
10633SOL     OW32797   1.000   4.982   1.451
10633SOL    HW132798   0.990   4.890   1.488
10633SOL    HW232799   0.909   5.024   1.441
10634SOL     OW32800   3.031   6.420   1.647
10634SOL    HW132801   3.067   6.410   1.554
10634SOL    HW232802   3.015   6.517   1.665
10635SOL     OW32803   2.645   1.631   0.987
10635SOL    HW132804   2.695   1.706   1.031
10635SOL    HW232805   2.707   1.581   0.926
10636SOL     OW32806   0.619   2.468   1.807
10636SOL    HW132807   0.664   2.432   1.889
10636SOL    HW232808   0.642   2.410   1.729
10637SOL     OW32809   3.738   4.486   5.339
10637SOL    HW132810   3.680   4.562   5.313
10637SOL    HW232811   3.690   4.400   5.322
10638SOL     OW32812   0.128   0.188   5.379
10638SOL    HW132813   0.211   0.187   5.434
10638SOL    HW232814   0.127   0.270   5.322
10639SOL     OW32815   2.387   0.534   4.243
10639SOL    HW132816   2.444   0.516   4.163
10639SOL    HW232817   2.443   0.577   4.314
10640SOL     OW32818   4.154   0.191   0.059
10640SOL    HW132819   4.147   0.145   6.989
10640SOL    HW232820   4.063   0.215   0.092
10641SOL     OW32821   5.367   1.554   6.759
10641SOL    HW132822   5.406   1.619   6.694
10641SOL    HW232823   5.417   1.557   6.845
10642SOL     OW32824   6.968   2.975   1.416
10642SOL    HW132825   0.014   3.044   1.384
10642SOL    HW232826   6.940   2.917   1.340
10643SOL     OW32827   3.240   3.148   5.869
10643SOL    HW132828   3.296   3.096   5.805
10643SOL    HW232829   3.267   3.244   5.866
10644SOL     OW32830   3.908   1.388   5.021
10644SOL    HW132831   3.883   1.434   4.935
10644SOL    HW232832   3.874   1.442   5.098
10645SOL     OW32833   2.658   0.898   4.850
10645SOL    HW132834   2.611   0.980   4.819
10645SOL    HW232835   2.592   0.831   4.883
10646SOL     OW32836   0.496   3.613   6.761
10646SOL    HW132837   0.494   3.701   6.715
10646SOL    HW232838   0.541   3.623   6.850
10647SOL     OW32839   0.137   5.310   1.028
10647SOL    HW132840   0.147   5.359   1.114
10647SOL    HW232841   0.208   5.338   0.963
10648SOL     OW32842   4.559   3.362   6.501
10648SOL    HW132843   4.656   3.363   6.525
10648SOL    HW232844   4.505   3.339   6.583
10649SOL     OW32845   0.308   4.571   6.053
10649SOL    HW132846   0.253   4.652   6.030
10649SOL    HW232847   0.248   4.492   6.062
10650SOL     OW32848   3.338   6.716   3.461
10650SOL    HW132849   3.360   6.663   3.543
10650SOL    HW232850   3.420   6.767   3.433
10651SOL     OW32851   4.127   6.496   6.209
10651SOL    HW132852   4.207   6.451   6.169
10651SOL    HW232853   4.158   6.571   6.268
10652SOL     OW32854   3.277   0.851   6.673
10652SOL    HW132855   3.348   0.807   6.729
10652SOL    HW232856   3.200   0.876   6.731
10653SOL     OW32857   5.247   3.622   4.342
10653SOL    HW132858   5.230   3.564   4.262
10653SOL    HW232859   5.313   3.693   4.319
10654SOL     OW32860   4.179   0.206   0.654
10654SOL    HW132861   4.093   0.215   0.605
10654SOL    HW232862   4.227   0.293   0.654
10655SOL     OW32863   2.691   5.808   1.552
10655SOL    HW132864   2.749   5.759   1.618
10655SOL    HW232865   2.625   5.865   1.601
10656SOL     OW32866   0.074   2.943   6.694
10656SOL    HW132867   0.022   2.878   6.750
10656SOL    HW232868   0.162   2.903   6.669
10657SOL     OW32869   6.009   0.720   1.224
10657SOL    HW132870   5.913   0.734   1.200
10657SOL    HW232871   6.053   0.809   1.239
10658SOL     OW32872   0.400   5.501   5.198
10658SOL    HW132873   0.311   5.543   5.180
10658SOL    HW232874   0.459   5.566   5.246
10659SOL     OW32875   5.472   0.628   0.485
10659SOL    HW132876   5.447   0.631   0.582
10659SOL    HW232877   5.550   0.688   0.470
10660SOL     OW32878   4.887   4.991   5.458
10660SOL    HW132879   4.793   4.956   5.459
10660SOL    HW232880   4.936   4.955   5.537
10661SOL     OW32881   0.333   0.267   2.744
10661SOL    HW132882   0.352   0.287   2.648
10661SOL    HW232883   0.417   0.274   2.797
10662SOL     OW32884   5.950   1.403   0.770
10662SOL    HW132885   5.961   1.491   0.723
10662SOL    HW232886   5.911   1.336   0.707
10663SOL     OW32887   6.809   0.609   0.337
10663SOL    HW132888   6.808   0.590   0.435
10663SOL    HW232889   6.734   0.671   0.314
10664SOL     OW32890   1.989   4.774   6.716
10664SOL    HW132891   2.021   4.683   6.691
10664SOL    HW232892   1.962   4.823   6.634
10665SOL     OW32893   6.646   1.063   0.136
10665SOL    HW132894   6.697   1.000   0.195
10665SOL    HW232895   6.640   1.153   0.180
10666SOL     OW32896   1.381   6.677   0.316
10666SOL    HW132897   1.371   6.583   0.346
10666SOL    HW232898   1.354   6.684   0.220
10667SOL     OW32899   3.448   1.804   5.020
10667SOL    HW132900   3.502   1.765   4.946
10667SOL    HW232901   3.507   1.827   5.097
10668SOL     OW32902   2.301   1.020   5.475
10668SOL    HW132903   2.363   1.097   5.491
10668SOL    HW232904   2.206   1.051   5.481
10669SOL     OW32905   0.891   6.661   6.413
10669SOL    HW132906   0.895   6.675   6.314
10669SOL    HW232907   0.827   6.727   6.453
10670SOL     OW32908   6.739   4.560   5.925
10670SOL    HW132909   6.692   4.621   5.861
10670SOL    HW232910   6.834   4.549   5.896
10671SOL     OW32911   1.772   1.515   3.395
10671SOL    HW132912   1.793   1.537   3.300
10671SOL    HW232913   1.853   1.528   3.451
10672SOL     OW32914   6.795   2.910   0.385
10672SOL    HW132915   6.866   2.970   0.421
10672SOL    HW232916   6.788   2.827   0.440
10673SOL     OW32917   2.977   3.496   5.189
10673SOL    HW132918   2.890   3.449   5.200
10673SOL    HW232919   3.010   3.483   5.095
10674SOL     OW32920   3.936   2.089   2.639
10674SOL    HW132921   3.841   2.118   2.651
10674SOL    HW232922   3.970   2.122   2.551
10675SOL     OW32923   0.669   0.495   6.162
10675SOL    HW132924   0.751   0.553   6.164
10675SOL    HW232925   0.591   0.547   6.196
10676SOL     OW32926   6.843   0.629   6.726
10676SOL    HW132927   6.912   0.589   6.665
10676SOL    HW232928   6.759   0.575   6.722
10677SOL     OW32929   0.253   0.653   0.401
10677SOL    HW132930   0.318   0.629   0.328
10677SOL    HW232931   0.279   0.604   0.485
10678SOL     OW32932   2.623   6.433   3.562
10678SOL    HW132933   2.581   6.483   3.486
10678SOL    HW232934   2.664   6.499   3.625
10679SOL     OW32935   6.047   4.900   4.000
10679SOL    HW132936   5.996   4.955   3.933
10679SOL    HW232937   6.047   4.948   4.088
10680SOL     OW32938   1.742   2.304   3.332
10680SOL    HW132939   1.769   2.228   3.274
10680SOL    HW232940   1.643   2.301   3.348
10681SOL     OW32941   0.401   1.279   5.788
10681SOL    HW132942   0.356   1.298   5.700
10681SOL    HW232943   0.336   1.295   5.862
10682SOL     OW32944   6.481   1.981   3.260
10682SOL    HW132945   6.448   2.074   3.278
10682SOL    HW232946   6.496   1.970   3.162
10683SOL     OW32947   1.747   1.543   4.669
10683SOL    HW132948   1.725   1.636   4.698
10683SOL    HW232949   1.838   1.542   4.627
10684SOL     OW32950   5.702   5.825   0.662
10684SOL    HW132951   5.762   5.844   0.739
10684SOL    HW232952   5.755   5.824   0.577
10685SOL     OW32953   0.318   2.246   1.812
10685SOL    HW132954   0.282   2.339   1.818
10685SOL    HW232955   0.372   2.236   1.728
10686SOL     OW32956   3.574   4.619   0.826
10686SOL    HW132957   3.525   4.568   0.756
10686SOL    HW232958   3.632   4.556   0.878
10687SOL     OW32959   0.578   5.069   1.856
10687SOL    HW132960   0.641   5.094   1.929
10687SOL    HW232961   0.545   4.976   1.870
10688SOL     OW32962   6.837   5.563   2.252
10688SOL    HW132963   6.800   5.470   2.254
10688SOL    HW232964   6.806   5.614   2.332
10689SOL     OW32965   0.339   0.822   1.777
10689SOL    HW132966   0.264   0.762   1.750
10689SOL    HW232967   0.323   0.913   1.739
10690SOL     OW32968   4.558   5.635   1.827
10690SOL    HW132969   4.607   5.586   1.899
10690SOL    HW232970   4.482   5.685   1.867
10691SOL     OW32971   6.655   1.361   1.185
10691SOL    HW132972   6.563   1.325   1.202
10691SOL    HW232973   6.667   1.446   1.236
10692SOL     OW32974   4.643   5.982   4.198
10692SOL    HW132975   4.638   5.883   4.190
10692SOL    HW232976   4.581   6.013   4.270
10693SOL     OW32977   6.034   2.040   2.098
10693SOL    HW132978   6.016   1.965   2.161
10693SOL    HW232979   6.132   2.052   2.087
10694SOL     OW32980   3.873   6.139   0.659
10694SOL    HW132981   3.829   6.074   0.599
10694SOL    HW232982   3.943   6.093   0.714
10695SOL     OW32983   6.092   2.996   4.459
10695SOL    HW132984   6.146   2.932   4.513
10695SOL    HW232985   6.069   3.076   4.514
10696SOL     OW32986   6.047   0.030   0.930
10696SOL    HW132987   6.033   6.974   0.995
10696SOL    HW232988   5.972   0.029   0.863
10697SOL     OW32989   2.116   6.257   3.234
10697SOL    HW132990   2.086   6.272   3.140
10697SOL    HW232991   2.139   6.160   3.246
10698SOL     OW32992   2.981   0.424   2.907
10698SOL    HW132993   2.919   0.354   2.941
10698SOL    HW232994   2.962   0.511   2.953
10699SOL     OW32995   1.616   2.248   2.437
10699SOL    HW132996   1.532   2.193   2.445
10699SOL    HW232997   1.695   2.187   2.429
10700SOL     OW32998   6.267   1.026   1.522
10700SOL    HW132999   6.174   1.061   1.527
10700SOL    HW233000   6.312   1.063   1.440
10701SOL     OW33001   3.578   6.213   0.812
10701SOL    HW133002   3.636   6.195   0.892
10701SOL    HW233003   3.546   6.308   0.815
10702SOL     OW33004   6.114   3.098   1.121
10702SOL    HW133005   6.115   3.032   1.047
10702SOL    HW233006   6.206   3.109   1.158
10703SOL     OW33007   3.999   3.263   3.809
10703SOL    HW133008   4.070   3.301   3.750
10703SOL    HW233009   3.941   3.337   3.843
10704SOL     OW33010   5.694   6.699   2.009
10704SOL    HW133011   5.787   6.695   1.971
10704SOL    HW233012   5.674   6.613   2.056
10705SOL     OW33013   0.892   2.388   6.721
10705SOL    HW133014   0.944   2.370   6.805
10705SOL    HW233015   0.879   2.303   6.671
10706SOL     OW33016   3.851   1.175   2.014
10706SOL    HW133017   3.823   1.241   1.944
10706SOL    HW233018   3.942   1.140   1.992
10707SOL     OW33019   6.440   6.592   5.730
10707SOL    HW133020   6.415   6.684   5.697
10707SOL    HW233021   6.356   6.538   5.742
10708SOL     OW33022   4.191   1.051   1.501
10708SOL    HW133023   4.144   1.127   1.455
10708SOL    HW233024   4.268   1.021   1.445
10709SOL     OW33025   0.776   6.365   6.037
10709SOL    HW133026   0.733   6.373   6.127
10709SOL    HW233027   0.783   6.455   5.995
10710SOL     OW33028   6.033   5.935   3.070
10710SOL    HW133029   6.098   6.006   3.043
10710SOL    HW233030   6.076   5.845   3.059
10711SOL     OW33031   2.061   5.775   5.263
10711SOL    HW133032   2.064   5.736   5.355
10711SOL    HW233033   2.154   5.778   5.225
10712SOL     OW33034   4.446   1.061   5.409
10712SOL    HW133035   4.509   1.138   5.417
10712SOL    HW233036   4.354   1.095   5.394
10713SOL     OW33037   1.604   6.258   1.241
10713SOL    HW133038   1.698   6.257   1.207
10713SOL    HW233039   1.562   6.347   1.222
10714SOL     OW33040   6.826   5.375   5.656
10714SOL    HW133041   6.791   5.283   5.634
10714SOL    HW233042   6.783   5.442   5.597
10715SOL     OW33043   5.826   1.592   3.869
10715SOL    HW133044   5.891   1.538   3.816
10715SOL    HW233045   5.856   1.593   3.965
10716SOL     OW33046   6.598   0.864   2.889
10716SOL    HW133047   6.513   0.876   2.940
10716SOL    HW233048   6.660   0.940   2.908
10717SOL     OW33049   6.530   6.678   1.499
10717SOL    HW133050   6.514   6.627   1.583
10717SOL    HW233051   6.448   6.730   1.475
10718SOL     OW33052   0.812   3.881   6.007
10718SOL    HW133053   0.772   3.895   5.916
10718SOL    HW233054   0.893   3.939   6.017
10719SOL     OW33055   3.920   0.944   2.337
10719SOL    HW133056   3.954   0.887   2.411
10719SOL    HW233057   3.953   1.038   2.349
10720SOL     OW33058   0.602   3.166   6.998
10720SOL    HW133059   0.526   3.221   6.964
10720SOL    HW233060   0.592   3.152   0.078
10721SOL     OW33061   4.638   2.724   3.851
10721SOL    HW133062   4.673   2.817   3.865
10721SOL    HW233063   4.613   2.712   3.755
10722SOL     OW33064   0.212   4.405   0.906
10722SOL    HW133065   0.178   4.498   0.893
10722SOL    HW233066   0.136   4.344   0.928
10723SOL     OW33067   6.007   4.527   6.974
10723SOL    HW133068   5.919   4.530   0.003
10723SOL    HW233069   6.029   4.618   6.939
10724SOL     OW33070   3.912   6.896   5.220
10724SOL    HW133071   3.981   6.955   5.179
10724SOL    HW233072   3.922   6.897   5.319
10725SOL     OW33073   6.652   6.986   4.768
10725SOL    HW133074   6.572   6.933   4.794
10725SOL    HW233075   6.730   6.957   4.824
10726SOL     OW33076   5.341   1.126   5.292
10726SOL    HW133077   5.373   1.142   5.385
10726SOL    HW233078   5.405   1.166   5.227
10727SOL     OW33079   2.274   6.174   6.834
10727SOL    HW133080   2.204   6.235   6.796
10727SOL    HW233081   2.362   6.194   6.792
10728SOL     OW33082   6.150   6.242   3.356
10728SOL    HW133083   6.167   6.221   3.260
10728SOL    HW233084   6.191   6.171   3.414
10729SOL     OW33085   5.779   3.284   4.372
10729SOL    HW133086   5.839   3.222   4.322
10729SOL    HW233087   5.801   3.280   4.470
10730SOL     OW33088   1.949   5.404   3.645
10730SOL    HW133089   1.956   5.355   3.557
10730SOL    HW233090   1.976   5.342   3.719
10731SOL     OW33091   4.784   6.356   6.679
10731SOL    HW133092   4.836   6.307   6.749
10731SOL    HW233093   4.746   6.290   6.613
10732SOL     OW33094   6.049   6.241   2.837
10732SOL    HW133095   6.037   6.339   2.820
10732SOL    HW233096   6.049   6.192   2.751
10733SOL     OW33097   0.651   1.070   6.363
10733SOL    HW133098   0.637   1.097   6.458
10733SOL    HW233099   0.584   1.116   6.305
10734SOL     OW33100   1.664   0.545   4.427
10734SOL    HW133101   1.726   0.599   4.370
10734SOL    HW233102   1.709   0.527   4.515
10735SOL     OW33103   6.878   6.795   2.411
10735SOL    HW133104   6.952   6.760   2.469
10735SOL    HW233105   6.880   6.747   2.323
10736SOL     OW33106   5.350   6.597   3.799
10736SOL    HW133107   5.421   6.667   3.799
10736SOL    HW233108   5.260   6.640   3.792
10737SOL     OW33109   6.135   0.761   2.160
10737SOL    HW133110   6.095   0.711   2.237
10737SOL    HW233111   6.062   0.792   2.098
10738SOL     OW33112   3.632   0.502   1.160
10738SOL    HW133113   3.610   0.409   1.128
10738SOL    HW233114   3.583   0.520   1.245
10739SOL     OW33115   5.462   3.074   3.863
10739SOL    HW133116   5.516   3.139   3.917
10739SOL    HW233117   5.510   2.986   3.860
10740SOL     OW33118   2.848   0.546   6.115
10740SOL    HW133119   2.926   0.570   6.056
10740SOL    HW233120   2.881   0.495   6.194
10741SOL     OW33121   1.870   1.881   3.504
10741SOL    HW133122   1.856   1.971   3.545
10741SOL    HW233123   1.876   1.812   3.576
10742SOL     OW33124   6.459   6.496   2.734
10742SOL    HW133125   6.474   6.594   2.742
10742SOL    HW233126   6.421   6.461   2.819
10743SOL     OW33127   2.891   1.845   5.361
10743SOL    HW133128   2.927   1.934   5.389
10743SOL    HW233129   2.801   1.857   5.318
10744SOL     OW33130   2.048   1.471   0.613
10744SOL    HW133131   1.985   1.539   0.577
10744SOL    HW233132   2.063   1.488   0.711
10745SOL     OW33133   1.692   4.452   2.150
10745SOL    HW133134   1.634   4.452   2.069
10745SOL    HW233135   1.788   4.441   2.123
10746SOL     OW33136   2.081   6.239   6.537
10746SOL    HW133137   2.041   6.229   6.446
10746SOL    HW233138   2.011   6.220   6.606
10747SOL     OW33139   6.463   1.201   4.790
10747SOL    HW133140   6.506   1.291   4.792
10747SOL    HW233141   6.408   1.192   4.707
10748SOL     OW33142   3.158   6.478   1.372
10748SOL    HW133143   3.205   6.454   1.286
10748SOL    HW233144   3.068   6.435   1.374
10749SOL     OW33145   5.680   4.239   1.640
10749SOL    HW133146   5.598   4.184   1.655
10749SOL    HW233147   5.718   4.268   1.728
10750SOL     OW33148   4.232   2.310   4.329
10750SOL    HW133149   4.281   2.225   4.351
10750SOL    HW233150   4.289   2.367   4.270
10751SOL     OW33151   0.479   6.214   4.355
10751SOL    HW133152   0.571   6.176   4.368
10751SOL    HW233153   0.413   6.139   4.347
10752SOL     OW33154   6.604   6.552   0.490
10752SOL    HW133155   6.608   6.455   0.517
10752SOL    HW233156   6.508   6.581   0.486
10753SOL     OW33157   5.186   0.432   4.060
10753SOL    HW133158   5.132   0.506   4.101
10753SOL    HW233159   5.214   0.459   3.967
10754SOL     OW33160   0.743   4.130   2.445
10754SOL    HW133161   0.782   4.055   2.391
10754SOL    HW233162   0.773   4.121   2.540
10755SOL     OW33163   0.448   2.746   1.113
10755SOL    HW133164   0.370   2.789   1.158
10755SOL    HW233165   0.429   2.649   1.097
10756SOL     OW33166   1.395   0.536   0.390
10756SOL    HW133167   1.471   0.475   0.372
10756SOL    HW233168   1.311   0.497   0.353
10757SOL     OW33169   0.564   3.806   1.757
10757SOL    HW133170   0.518   3.801   1.668
10757SOL    HW233171   0.630   3.881   1.756
10758SOL     OW33172   0.982   0.320   0.508
10758SOL    HW133173   1.003   0.283   0.598
10758SOL    HW233174   0.902   0.273   0.470
10759SOL     OW33175   2.879   2.670   5.700
10759SOL    HW133176   2.817   2.631   5.631
10759SOL    HW233177   2.874   2.770   5.696
10760SOL     OW33178   1.233   4.914   6.529
10760SOL    HW133179   1.317   4.888   6.481
10760SOL    HW233180   1.226   5.013   6.532
10761SOL     OW33181   1.009   1.679   5.704
10761SOL    HW133182   1.087   1.623   5.734
10761SOL    HW233183   1.041   1.747   5.638
10762SOL     OW33184   3.055   5.892   6.058
10762SOL    HW133185   2.990   5.903   6.133
10762SOL    HW233186   3.140   5.853   6.092
10763SOL     OW33187   5.238   0.590   3.517
10763SOL    HW133188   5.146   0.565   3.486
10763SOL    HW233189   5.302   0.582   3.440
10764SOL     OW33190   4.934   6.603   4.733
10764SOL    HW133191   4.848   6.553   4.736
10764SOL    HW233192   4.953   6.634   4.640
10765SOL     OW33193   0.289   1.946   2.120
10765SOL    HW133194   0.294   1.969   2.023
10765SOL    HW233195   0.280   2.031   2.173
10766SOL     OW33196   2.148   4.958   0.134
10766SOL    HW133197   2.084   5.035   0.139
10766SOL    HW233198   2.240   4.989   0.159
10767SOL     OW33199   1.254   5.230   6.710
10767SOL    HW133200   1.207   5.226   6.622
10767SOL    HW233201   1.190   5.209   6.784
10768SOL     OW33202   5.441   6.207   6.511
10768SOL    HW133203   5.523   6.236   6.460
10768SOL    HW233204   5.464   6.130   6.570
10769SOL     OW33205   2.994   3.197   4.241
10769SOL    HW133206   3.085   3.159   4.220
10769SOL    HW233207   2.973   3.182   4.337
10770SOL     OW33208   5.695   6.901   3.435
10770SOL    HW133209   5.763   6.897   3.508
10770SOL    HW233210   5.603   6.910   3.475
10771SOL     OW33211   4.492   5.861   5.913
10771SOL    HW133212   4.468   5.778   5.863
10771SOL    HW233213   4.457   5.941   5.864
10772SOL     OW33214   5.685   5.188   2.440
10772SOL    HW133215   5.604   5.199   2.498
10772SOL    HW233216   5.657   5.193   2.344
10773SOL     OW33217   0.151   3.491   0.929
10773SOL    HW133218   0.175   3.568   0.870
10773SOL    HW233219   0.052   3.477   0.927
10774SOL     OW33220   0.440   3.853   0.416
10774SOL    HW133221   0.528   3.847   0.463
10774SOL    HW233222   0.378   3.910   0.470
10775SOL     OW33223   1.428   4.147   0.552
10775SOL    HW133224   1.503   4.169   0.489
10775SOL    HW233225   1.460   4.157   0.646
10776SOL     OW33226   0.859   2.458   3.900
10776SOL    HW133227   0.780   2.422   3.851
10776SOL    HW233228   0.937   2.465   3.838
10777SOL     OW33229   2.040   0.786   1.731
10777SOL    HW133230   2.078   0.853   1.795
10777SOL    HW233231   2.013   0.833   1.647
10778SOL     OW33232   4.995   0.258   2.504
10778SOL    HW133233   5.027   0.179   2.558
10778SOL    HW233234   4.897   0.269   2.517
10779SOL     OW33235   5.533   3.431   5.514
10779SOL    HW133236   5.500   3.338   5.527
10779SOL    HW233237   5.543   3.451   5.417
10780SOL     OW33238   1.825   5.187   4.622
10780SOL    HW133239   1.818   5.142   4.711
10780SOL    HW233240   1.896   5.257   4.625
10781SOL     OW33241   5.299   2.229   4.636
10781SOL    HW133242   5.238   2.298   4.598
10781SOL    HW233243   5.247   2.170   4.699
10782SOL     OW33244   0.857   1.431   5.552
10782SOL    HW133245   0.886   1.359   5.488
10782SOL    HW233246   0.769   1.405   5.592
10783SOL     OW33247   0.890   2.382   3.564
10783SOL    HW133248   0.963   2.421   3.620
10783SOL    HW233249   0.811   2.362   3.622
10784SOL     OW33250   3.671   5.851   2.989
10784SOL    HW133251   3.705   5.833   3.081
10784SOL    HW233252   3.575   5.823   2.983
10785SOL     OW33253   0.901   5.198   1.703
10785SOL    HW133254   0.849   5.117   1.731
10785SOL    HW233255   0.852   5.245   1.629
10786SOL     OW33256   4.338   1.600   2.823
10786SOL    HW133257   4.345   1.529   2.894
10786SOL    HW233258   4.280   1.674   2.856
10787SOL     OW33259   4.360   0.825   3.590
10787SOL    HW133260   4.342   0.763   3.666
10787SOL    HW233261   4.282   0.824   3.527
10788SOL     OW33262   2.068   3.917   6.923
10788SOL    HW133263   2.109   3.854   6.989
10788SOL    HW233264   2.006   3.979   6.971
10789SOL     OW33265   6.515   1.283   1.685
10789SOL    HW133266   6.563   1.353   1.736
10789SOL    HW233267   6.425   1.267   1.726
10790SOL     OW33268   0.353   1.689   5.731
10790SOL    HW133269   0.415   1.760   5.699
10790SOL    HW233270   0.352   1.613   5.666
10791SOL     OW33271   1.521   2.123   3.135
10791SOL    HW133272   1.582   2.057   3.092
10791SOL    HW233273   1.495   2.090   3.226
10792SOL     OW33274   3.695   1.621   2.413
10792SOL    HW133275   3.712   1.704   2.361
10792SOL    HW233276   3.623   1.567   2.368
10793SOL     OW33277   3.888   1.858   4.674
10793SOL    HW133278   3.806   1.855   4.732
10793SOL    HW233279   3.901   1.951   4.640
10794SOL     OW33280   5.365   1.895   0.515
10794SOL    HW133281   5.422   1.947   0.579
10794SOL    HW233282   5.312   1.959   0.458
10795SOL     OW33283   6.908   3.333   3.388
10795SOL    HW133284   6.926   3.269   3.463
10795SOL    HW233285   6.866   3.416   3.424
10796SOL     OW33286   0.209   0.106   6.005
10796SOL    HW133287   0.116   0.130   6.033
10796SOL    HW233288   0.248   0.180   5.952
10797SOL     OW33289   4.340   4.560   6.946
10797SOL    HW133290   4.297   4.600   0.009
10797SOL    HW233291   4.281   4.488   6.910
10798SOL     OW33292   1.903   6.591   6.356
10798SOL    HW133293   1.858   6.678   6.375
10798SOL    HW233294   1.908   6.578   6.257
10799SOL     OW33295   2.882   1.642   3.018
10799SOL    HW133296   2.936   1.644   2.933
10799SOL    HW233297   2.882   1.549   3.054
10800SOL     OW33298   2.472   7.015   5.359
10800SOL    HW133299   2.503   0.050   5.438
10800SOL    HW233300   2.373   0.007   5.350
10801SOL     OW33301   3.111   6.160   6.024
10801SOL    HW133302   3.100   6.061   6.038
10801SOL    HW233303   3.193   6.176   5.968
10802SOL     OW33304   0.775   5.295   3.915
10802SOL    HW133305   0.681   5.306   3.881
10802SOL    HW233306   0.793   5.197   3.928
10803SOL     OW33307   7.010   4.206   4.850
10803SOL    HW133308   6.998   4.221   4.752
10803SOL    HW233309   0.086   4.224   4.876
10804SOL     OW33310   5.323   4.588   0.961
10804SOL    HW133311   5.265   4.663   0.931
10804SOL    HW233312   5.280   4.501   0.938
10805SOL     OW33313   3.775   5.946   0.439
10805SOL    HW133314   3.751   5.883   0.513
10805SOL    HW233315   3.744   5.908   0.352
10806SOL     OW33316   6.097   4.129   6.416
10806SOL    HW133317   6.076   4.226   6.405
10806SOL    HW233318   6.014   4.081   6.445
10807SOL     OW33319   4.449   0.744   4.317
10807SOL    HW133320   4.528   0.753   4.256
10807SOL    HW233321   4.480   0.734   4.411
10808SOL     OW33322   0.264   1.973   0.208
10808SOL    HW133323   0.247   1.878   0.183
10808SOL    HW233324   0.352   2.003   0.172
10809SOL     OW33325   3.143   1.378   3.061
10809SOL    HW133326   3.128   1.447   2.991
10809SOL    HW233327   3.229   1.330   3.043
10810SOL     OW33328   1.238   1.511   6.750
10810SOL    HW133329   1.188   1.555   6.824
10810SOL    HW233330   1.277   1.424   6.782
10811SOL     OW33331   4.685   4.461   6.125
10811SOL    HW133332   4.668   4.559   6.113
10811SOL    HW233333   4.600   4.411   6.114
10812SOL     OW33334   6.904   2.597   2.285
10812SOL    HW133335   6.928   2.514   2.234
10812SOL    HW233336   6.828   2.643   2.240
10813SOL     OW33337   3.120   5.816   2.497
10813SOL    HW133338   3.055   5.853   2.563
10813SOL    HW233339   3.115   5.868   2.412
10814SOL     OW33340   1.947   6.095   4.845
10814SOL    HW133341   1.915   6.181   4.885
10814SOL    HW233342   1.951   6.025   4.916
10815SOL     OW33343   4.673   2.462   3.327
10815SOL    HW133344   4.672   2.562   3.327
10815SOL    HW233345   4.679   2.428   3.233
10816SOL     OW33346   1.872   2.220   1.646
10816SOL    HW133347   1.856   2.228   1.744
10816SOL    HW233348   1.957   2.170   1.630
10817SOL     OW33349   4.227   0.301   2.109
10817SOL    HW133350   4.234   0.253   2.022
10817SOL    HW233351   4.223   0.235   2.184
10818SOL     OW33352   4.457   2.812   6.163
10818SOL    HW133353   4.399   2.768   6.095
10818SOL    HW233354   4.536   2.853   6.119
10819SOL     OW33355   0.425   4.174   5.268
10819SOL    HW133356   0.525   4.181   5.261
10819SOL    HW233357   0.387   4.264   5.288
10820SOL     OW33358   6.851   0.549   4.724
10820SOL    HW133359   6.773   0.602   4.760
10820SOL    HW233360   6.842   0.541   4.624
10821SOL     OW33361   6.710   6.969   1.022
10821SOL    HW133362   6.686   6.992   0.928
10821SOL    HW233363   6.742   0.032   1.070
10822SOL     OW33364   0.526   4.718   0.277
10822SOL    HW133365   0.497   4.748   0.368
10822SOL    HW233366   0.539   4.619   0.277
10823SOL     OW33367   1.299   2.015   1.642
10823SOL    HW133368   1.223   2.053   1.695
10823SOL    HW233369   1.386   2.038   1.685
10824SOL     OW33370   5.756   0.433   3.111
10824SOL    HW133371   5.671   0.381   3.113
10824SOL    HW233372   5.804   0.422   3.198
10825SOL     OW33373   3.891   1.642   1.398
10825SOL    HW133374   3.807   1.595   1.372
10825SOL    HW233375   3.966   1.576   1.405
10826SOL     OW33376   6.659   2.784   1.267
10826SOL    HW133377   6.597   2.841   1.320
10826SOL    HW233378   6.636   2.791   1.170
10827SOL     OW33379   1.619   2.416   3.921
10827SOL    HW133380   1.626   2.468   4.006
10827SOL    HW233381   1.696   2.438   3.861
10828SOL     OW33382   1.214   5.759   0.786
10828SOL    HW133383   1.271   5.811   0.851
10828SOL    HW233384   1.134   5.723   0.834
10829SOL     OW33385   2.235   3.510   1.627
10829SOL    HW133386   2.280   3.476   1.710
10829SOL    HW233387   2.296   3.496   1.549
10830SOL     OW33388   4.785   1.628   3.767
10830SOL    HW133389   4.860   1.569   3.737
10830SOL    HW233390   4.784   1.632   3.867
10831SOL     OW33391   4.841   3.057   2.697
10831SOL    HW133392   4.937   3.078   2.714
10831SOL    HW233393   4.834   2.974   2.640
10832SOL     OW33394   6.473   2.549   2.559
10832SOL    HW133395   6.413   2.539   2.638
10832SOL    HW233396   6.537   2.624   2.575
10833SOL     OW33397   2.629   0.177   4.262
10833SOL    HW133398   2.693   0.101   4.247
10833SOL    HW233399   2.652   0.252   4.200
10834SOL     OW33400   6.856   1.267   5.733
10834SOL    HW133401   6.928   1.230   5.673
10834SOL    HW233402   6.777   1.292   5.678
10835SOL     OW33403   6.965   2.347   2.095
10835SOL    HW133404   6.912   2.374   2.015
10835SOL    HW233405   0.040   2.381   2.087
10836SOL     OW33406   1.644   3.168   1.148
10836SOL    HW133407   1.571   3.212   1.097
10836SOL    HW233408   1.648   3.071   1.124
10837SOL     OW33409   1.265   5.410   1.789
10837SOL    HW133410   1.235   5.341   1.723
10837SOL    HW233411   1.287   5.495   1.741
10838SOL     OW33412   6.687   6.975   0.493
10838SOL    HW133413   6.671   0.011   0.575
10838SOL    HW233414   6.770   6.921   0.504
10839SOL     OW33415   1.743   1.409   0.172
10839SOL    HW133416   1.700   1.328   0.131
10839SOL    HW233417   1.840   1.409   0.151
10840SOL     OW33418   3.609   5.412   2.662
10840SOL    HW133419   3.698   5.444   2.693
10840SOL    HW233420   3.569   5.480   2.600
10841SOL     OW33421   4.701   2.971   6.064
10841SOL    HW133422   4.736   3.056   6.025
10841SOL    HW233423   4.714   2.971   6.163
10842SOL     OW33424   6.481   2.961   1.381
10842SOL    HW133425   6.414   2.900   1.423
10842SOL    HW233426   6.507   3.033   1.445
10843SOL     OW33427   0.526   1.084   1.984
10843SOL    HW133428   0.598   1.081   1.914
10843SOL    HW233429   0.485   0.993   1.992
10844SOL     OW33430   3.457   0.066   3.291
10844SOL    HW133431   3.405   0.079   3.375
10844SOL    HW233432   3.521   7.008   3.303
10845SOL     OW33433   1.750   3.216   0.734
10845SOL    HW133434   1.836   3.183   0.695
10845SOL    HW233435   1.690   3.139   0.752
10846SOL     OW33436   3.767   1.654   1.818
10846SOL    HW133437   3.835   1.687   1.752
10846SOL    HW233438   3.678   1.696   1.798
10847SOL     OW33439   3.805   2.898   5.982
10847SOL    HW133440   3.898   2.906   6.019
10847SOL    HW233441   3.797   2.814   5.928
10848SOL     OW33442   1.194   0.356   0.346
10848SOL    HW133443   1.216   0.270   0.300
10848SOL    HW233444   1.118   0.342   0.409
10849SOL     OW33445   2.224   5.139   4.273
10849SOL    HW133446   2.315   5.098   4.266
10849SOL    HW233447   2.197   5.143   4.369
10850SOL     OW33448   5.878   0.779   2.106
10850SOL    HW133449   5.852   0.871   2.134
10850SOL    HW233450   5.812   0.713   2.143
10851SOL     OW33451   4.139   1.717   6.118
10851SOL    HW133452   4.116   1.787   6.185
10851SOL    HW233453   4.125   1.627   6.158
10852SOL     OW33454   0.288   6.856   6.015
10852SOL    HW133455   0.266   6.954   6.019
10852SOL    HW233456   0.220   6.804   6.066
10853SOL     OW33457   2.350   0.748   4.793
10853SOL    HW133458   2.343   0.826   4.855
10853SOL    HW233459   2.404   0.775   4.713
10854SOL     OW33460   0.106   6.337   1.078
10854SOL    HW133461   0.009   6.360   1.078
10854SOL    HW233462   0.122   6.260   1.140
10855SOL     OW33463   1.448   5.404   2.027
10855SOL    HW133464   1.461   5.493   2.072
10855SOL    HW233465   1.386   5.414   1.950
10856SOL     OW33466   6.257   0.518   6.493
10856SOL    HW133467   6.230   0.614   6.497
10856SOL    HW233468   6.199   0.464   6.554
10857SOL     OW33469   6.314   0.273   5.096
10857SOL    HW133470   6.241   0.341   5.105
10857SOL    HW233471   6.318   0.241   5.002
10858SOL     OW33472   1.810   2.123   0.142
10858SOL    HW133473   1.856   2.111   0.054
10858SOL    HW233474   1.723   2.074   0.140
10859SOL     OW33475   1.093   5.892   2.766
10859SOL    HW133476   1.164   5.831   2.801
10859SOL    HW233477   1.104   5.903   2.667
10860SOL     OW33478   5.726   3.606   1.134
10860SOL    HW133479   5.657   3.645   1.194
10860SOL    HW233480   5.757   3.676   1.069
10861SOL     OW33481   2.995   3.163   1.570
10861SOL    HW133482   2.982   3.249   1.522
10861SOL    HW233483   3.056   3.104   1.518
10862SOL     OW33484   3.621   3.535   5.349
10862SOL    HW133485   3.657   3.595   5.421
10862SOL    HW233486   3.528   3.566   5.325
10863SOL     OW33487   1.883   0.570   3.225
10863SOL    HW133488   1.856   0.542   3.317
10863SOL    HW233489   1.874   0.492   3.163
10864SOL     OW33490   3.293   4.303   1.665
10864SOL    HW133491   3.298   4.296   1.566
10864SOL    HW233492   3.207   4.347   1.691
10865SOL     OW33493   3.994   1.556   2.936
10865SOL    HW133494   4.012   1.483   3.001
10865SOL    HW233495   4.013   1.524   2.843
10866SOL     OW33496   0.395   3.216   3.511
10866SOL    HW133497   0.323   3.276   3.475
10866SOL    HW233498   0.479   3.231   3.460
10867SOL     OW33499   4.313   2.658   0.404
10867SOL    HW133500   4.386   2.614   0.457
10867SOL    HW233501   4.349   2.739   0.359
10868SOL     OW33502   1.581   6.980   5.025
10868SOL    HW133503   1.643   0.019   4.972
10868SOL    HW233504   1.630   6.902   5.062
10869NA      NA33505   0.196   1.154   6.180
10870NA      NA33506   4.509   4.521   5.172
10871NA      NA33507   1.512   4.818   2.461
10872NA      NA33508   6.099   3.916   3.260
10873NA      NA33509   3.828   2.286   5.423
10874NA      NA33510   2.120   4.760   0.254
10875NA      NA33511   1.334   5.444   6.742
10876NA      NA33512   3.872   4.627   1.254
10877NA      NA33513   4.947   4.946   0.211
10878NA      NA33514   3.167   1.138   0.334
10879NA      NA33515   5.535   6.814   1.635
10880NA      NA33516   2.476   6.382   5.507
10881NA      NA33517   4.116   5.154   1.615
10882NA      NA33518   3.757   3.534   6.539
   7.01847   7.01847   7.01847
