Generated by trjconv : CNT in water t=  43.00000
33518
    1C        C    1   2.846   2.769   4.744
    1C        C    2   2.898   2.715   4.864
    1C        C    3   2.837   2.763   4.981
    1C        C    4   2.850   2.774   4.257
    1C        C    5   2.905   2.728   4.379
    1C        C    6   2.848   2.769   4.501
    1C        C    7   3.011   2.632   4.624
    1C        C    8   2.902   2.721   4.623
    1C        C    9   3.075   2.598   4.744
    1C        C   10   3.008   2.627   4.865
    1C        C   11   3.180   2.490   4.977
    1C        C   12   3.058   2.560   4.978
    1C        C   13   2.853   2.772   3.770
    1C        C   14   2.901   2.722   3.893
    1C        C   15   2.852   2.775   4.014
    1C        C   16   3.016   2.640   4.136
    1C        C   17   2.900   2.721   4.136
    1C        C   18   3.078   2.606   4.258
    1C        C   19   3.017   2.643   4.380
    1C        C   20   3.208   2.554   4.504
    1C        C   21   3.075   2.600   4.502
    1C        C   22   3.277   2.529   4.625
    1C        C   23   3.205   2.539   4.746
    1C        C   24   3.410   2.475   4.865
    1C        C   25   3.268   2.495   4.865
    1C        C   26   3.484   2.470   4.984
    1C        C   27   2.849   2.765   3.286
    1C        C   28   2.901   2.718   3.409
    1C        C   29   2.848   2.771   3.529
    1C        C   30   3.018   2.637   3.651
    1C        C   31   2.907   2.725   3.648
    1C        C   32   3.080   2.602   3.773
    1C        C   33   3.014   2.637   3.893
    1C        C   34   3.207   2.547   4.017
    1C        C   35   3.077   2.601   4.015
    1C        C   36   3.278   2.526   4.138
    1C        C   37   3.209   2.553   4.258
    1C        C   38   3.413   2.501   4.379
    1C        C   39   3.276   2.536   4.382
    1C        C   40   3.485   2.494   4.501
    1C        C   41   3.415   2.500   4.624
    1C        C   42   3.627   2.484   4.746
    1C        C   43   3.485   2.478   4.744
    1C        C   44   3.701   2.481   4.867
    1C        C   45   3.623   2.472   4.983
    1C        C   46   2.840   2.751   2.796
    1C        C   47   2.894   2.705   2.918
    1C        C   48   2.841   2.760   3.038
    1C        C   49   3.013   2.641   3.161
    1C        C   50   2.898   2.722   3.161
    1C        C   51   3.077   2.607   3.283
    1C        C   52   3.016   2.636   3.407
    1C        C   53   3.208   2.543   3.527
    1C        C   54   3.079   2.601   3.528
    1C        C   55   3.276   2.524   3.649
    1C        C   56   3.210   2.547   3.772
    1C        C   57   3.415   2.503   3.893
    1C        C   58   3.276   2.530   3.895
    1C        C   59   3.486   2.494   4.015
    1C        C   60   3.416   2.499   4.137
    1C        C   61   3.629   2.500   4.259
    1C        C   62   3.488   2.494   4.259
    1C        C   63   3.699   2.507   4.382
    1C        C   64   3.626   2.502   4.502
    1C        C   65   3.831   2.544   4.622
    1C        C   66   3.697   2.500   4.624
    1C        C   67   3.899   2.564   4.744
    1C        C   68   3.835   2.525   4.864
    1C        C   69   4.050   2.584   4.974
    1C        C   70   3.922   2.528   4.974
    1C        C   71   2.829   2.734   2.305
    1C        C   72   2.891   2.698   2.427
    1C        C   73   2.839   2.749   2.548
    1C        C   74   3.006   2.626   2.672
    1C        C   75   2.888   2.703   2.672
    1C        C   76   3.073   2.597   2.793
    1C        C   77   3.015   2.633   2.916
    1C        C   78   3.204   2.544   3.038
    1C        C   79   3.075   2.603   3.040
    1C        C   80   3.273   2.527   3.160
    1C        C   81   3.208   2.553   3.283
    1C        C   82   3.414   2.500   3.403
    1C        C   83   3.275   2.527   3.404
    1C        C   84   3.486   2.494   3.524
    1C        C   85   3.416   2.507   3.647
    1C        C   86   3.626   2.497   3.768
    1C        C   87   3.484   2.497   3.770
    1C        C   88   3.696   2.507   3.891
    1C        C   89   3.627   2.498   4.014
    1C        C   90   3.836   2.540   4.134
    1C        C   91   3.698   2.508   4.136
    1C        C   92   3.903   2.564   4.256
    1C        C   93   3.836   2.541   4.379
    1C        C   94   4.027   2.632   4.499
    1C        C   95   3.900   2.569   4.501
    1C        C   96   4.090   2.668   4.619
    1C        C   97   4.028   2.625   4.739
    1C        C   98   4.188   2.766   4.861
    1C        C   99   4.096   2.656   4.859
    1C        C  100   4.208   2.848   4.972
    1C        C  101   2.828   2.732   2.069
    1C        C  102   2.991   2.584   2.189
    1C        C  103   2.881   2.676   2.186
    1C        C  104   3.062   2.566   2.311
    1C        C  105   3.006   2.617   2.430
    1C        C  106   3.201   2.532   2.550
    1C        C  107   3.072   2.588   2.552
    1C        C  108   3.268   2.512   2.673
    1C        C  109   3.200   2.534   2.794
    1C        C  110   3.407   2.496   2.917
    1C        C  111   3.267   2.511   2.916
    1C        C  112   3.482   2.497   3.036
    1C        C  113   3.412   2.502   3.159
    1C        C  114   3.625   2.495   3.277
    1C        C  115   3.484   2.496   3.280
    1C        C  116   3.696   2.502   3.399
    1C        C  117   3.627   2.497   3.523
    1C        C  118   3.833   2.537   3.645
    1C        C  119   3.695   2.505   3.646
    1C        C  120   3.899   2.563   3.767
    1C        C  121   3.832   2.543   3.890
    1C        C  122   4.023   2.637   4.011
    1C        C  123   3.898   2.571   4.012
    1C        C  124   4.084   2.672   4.134
    1C        C  125   4.030   2.624   4.256
    1C        C  126   4.192   2.764   4.374
    1C        C  127   4.090   2.667   4.377
    1C        C  128   4.235   2.820   4.496
    1C        C  129   4.192   2.766   4.620
    1C        C  130   4.328   2.932   4.740
    1C        C  131   4.243   2.818   4.740
    1C        C  132   4.356   3.003   4.859
    1C        C  133   4.287   2.962   4.973
    1C        C  134   3.168   2.456   2.085
    1C        C  135   3.035   2.502   2.081
    1C        C  136   3.259   2.469   2.191
    1C        C  137   3.194   2.512   2.308
    1C        C  138   3.405   2.479   2.430
    1C        C  139   3.265   2.498   2.429
    1C        C  140   3.477   2.479   2.551
    1C        C  141   3.406   2.483   2.673
    1C        C  142   3.619   2.496   2.791
    1C        C  143   3.478   2.490   2.794
    1C        C  144   3.693   2.504   2.911
    1C        C  145   3.624   2.499   3.033
    1C        C  146   3.832   2.540   3.155
    1C        C  147   3.695   2.506   3.155
    1C        C  148   3.900   2.561   3.278
    1C        C  149   3.832   2.539   3.400
    1C        C  150   4.024   2.628   3.521
    1C        C  151   3.898   2.563   3.522
    1C        C  152   4.080   2.670   3.643
    1C        C  153   4.021   2.634   3.767
    1C        C  154   4.190   2.766   3.885
    1C        C  155   4.080   2.677   3.888
    1C        C  156   4.242   2.810   4.008
    1C        C  157   4.191   2.763   4.131
    1C        C  158   4.333   2.924   4.252
    1C        C  159   4.241   2.817   4.252
    1C        C  160   4.366   2.987   4.374
    1C        C  161   4.320   2.933   4.496
    1C        C  162   4.435   3.114   4.614
    1C        C  163   4.365   2.991   4.617
    1C        C  164   4.462   3.184   4.734
    1C        C  165   4.428   3.125   4.858
    1C        C  166   4.511   3.322   4.970
    1C        C  167   4.481   3.186   4.972
    1C        C  168   3.475   2.431   2.074
    1C        C  169   3.399   2.450   2.190
    1C        C  170   3.618   2.471   2.305
    1C        C  171   3.476   2.464   2.308
    1C        C  172   3.692   2.482   2.425
    1C        C  173   3.619   2.481   2.545
    1C        C  174   3.823   2.537   2.665
    1C        C  175   3.687   2.500   2.667
    1C        C  176   3.895   2.560   2.785
    1C        C  177   3.830   2.541   2.909
    1C        C  178   4.020   2.631   3.031
    1C        C  179   3.894   2.568   3.031
    1C        C  180   4.083   2.665   3.153
    1C        C  181   4.026   2.625   3.276
    1C        C  182   4.192   2.755   3.399
    1C        C  183   4.084   2.664   3.398
    1C        C  184   4.244   2.805   3.521
    1C        C  185   4.194   2.754   3.643
    1C        C  186   4.339   2.915   3.764
    1C        C  187   4.245   2.809   3.762
    1C        C  188   4.376   2.975   3.886
    1C        C  189   4.337   2.915   4.007
    1C        C  190   4.440   3.102   4.126
    1C        C  191   4.377   2.976   4.129
    1C        C  192   4.469   3.171   4.246
    1C        C  193   4.436   3.110   4.369
    1C        C  194   4.505   3.311   4.489
    1C        C  195   4.460   3.177   4.491
    1C        C  196   4.524   3.385   4.608
    1C        C  197   4.505   3.319   4.731
    1C        C  198   4.556   3.533   4.847
    1C        C  199   4.527   3.393   4.850
    1C        C  200   4.583   3.617   4.960
    1C        C  201   3.615   2.418   2.070
    1C        C  202   3.825   2.509   2.183
    1C        C  203   3.690   2.463   2.183
    1C        C  204   3.897   2.539   2.302
    1C        C  205   3.829   2.516   2.424
    1C        C  206   4.021   2.616   2.540
    1C        C  207   3.894   2.554   2.544
    1C        C  208   4.079   2.659   2.661
    1C        C  209   4.021   2.623   2.785
    1C        C  210   4.193   2.747   2.906
    1C        C  211   4.080   2.664   2.907
    1C        C  212   4.245   2.799   3.027
    1C        C  213   4.197   2.749   3.150
    1C        C  214   4.329   2.909   3.271
    1C        C  215   4.244   2.796   3.275
    1C        C  216   4.372   2.970   3.391
    1C        C  217   4.332   2.915   3.515
    1C        C  218   4.432   3.099   3.637
    1C        C  219   4.372   2.971   3.638
    1C        C  220   4.457   3.167   3.759
    1C        C  221   4.440   3.101   3.883
    1C        C  222   4.503   3.305   4.001
    1C        C  223   4.468   3.168   4.004
    1C        C  224   4.517   3.376   4.122
    1C        C  225   4.503   3.308   4.245
    1C        C  226   4.517   3.521   4.365
    1C        C  227   4.515   3.380   4.366
    1C        C  228   4.520   3.597   4.484
    1C        C  229   4.526   3.526   4.606
    1C        C  230   4.505   3.741   4.725
    1C        C  231   4.537   3.602   4.725
    1C        C  232   4.495   3.816   4.844
    1C        C  233   4.542   3.751   4.959
    1C        C  234   4.008   2.617   2.061
    1C        C  235   3.890   2.544   2.063
    1C        C  236   4.080   2.650   2.177
    1C        C  237   4.020   2.610   2.298
    1C        C  238   4.197   2.735   2.421
    1C        C  239   4.083   2.650   2.418
    1C        C  240   4.247   2.790   2.541
    1C        C  241   4.192   2.744   2.662
    1C        C  242   4.335   2.904   2.782
    1C        C  243   4.242   2.798   2.783
    1C        C  244   4.380   2.960   2.903
    1C        C  245   4.335   2.908   3.026
    1C        C  246   4.436   3.092   3.150
    1C        C  247   4.373   2.966   3.149
    1C        C  248   4.461   3.160   3.271
    1C        C  249   4.436   3.096   3.395
    1C        C  250   4.493   3.302   3.513
    1C        C  251   4.462   3.164   3.516
    1C        C  252   4.507   3.371   3.636
    1C        C  253   4.493   3.304   3.759
    1C        C  254   4.525   3.517   3.876
    1C        C  255   4.513   3.376   3.879
    1C        C  256   4.515   3.586   3.999
    1C        C  257   4.517   3.518   4.123
    1C        C  258   4.488   3.731   4.239
    1C        C  259   4.513   3.592   4.243
    1C        C  260   4.468   3.800   4.361
    1C        C  261   4.490   3.735   4.484
    1C        C  262   4.428   3.940   4.605
    1C        C  263   4.479   3.809   4.604
    1C        C  264   4.400   4.009   4.725
    1C        C  265   4.439   3.946   4.845
    1C        C  266   4.313   4.124   4.958
    1C        C  267   4.390   4.009   4.961
    1C        C  268   4.266   2.768   2.061
    1C        C  269   4.196   2.729   2.177
    1C        C  270   4.339   2.891   2.295
    1C        C  271   4.247   2.782   2.297
    1C        C  272   4.379   2.954   2.415
    1C        C  273   4.338   2.899   2.538
    1C        C  274   4.446   3.082   2.657
    1C        C  275   4.382   2.956   2.659
    1C        C  276   4.468   3.149   2.780
    1C        C  277   4.442   3.087   2.904
    1C        C  278   4.501   3.290   3.023
    1C        C  279   4.467   3.153   3.026
    1C        C  280   4.510   3.363   3.144
    1C        C  281   4.496   3.297   3.268
    1C        C  282   4.511   3.510   3.389
    1C        C  283   4.503   3.369   3.389
    1C        C  284   4.512   3.581   3.511
    1C        C  285   4.514   3.512   3.634
    1C        C  286   4.491   3.725   3.751
    1C        C  287   4.520   3.586   3.754
    1C        C  288   4.471   3.792   3.874
    1C        C  289   4.485   3.724   3.997
    1C        C  290   4.423   3.932   4.115
    1C        C  291   4.472   3.799   4.116
    1C        C  292   4.394   3.995   4.238
    1C        C  293   4.426   3.935   4.361
    1C        C  294   4.331   4.127   4.478
    1C        C  295   4.401   4.004   4.482
    1C        C  296   4.292   4.190   4.598
    1C        C  297   4.328   4.131   4.721
    1C        C  298   4.197   4.309   4.839
    1C        C  299   4.278   4.192   4.840
    1C        C  300   4.172   4.398   4.948
    1C        C  301   4.353   2.877   2.058
    1C        C  302   4.468   3.065   2.174
    1C        C  303   4.392   2.944   2.175
    1C        C  304   4.482   3.141   2.294
    1C        C  305   4.448   3.078   2.415
    1C        C  306   4.515   3.281   2.534
    1C        C  307   4.480   3.144   2.535
    1C        C  308   4.518   3.352   2.656
    1C        C  309   4.502   3.286   2.780
    1C        C  310   4.523   3.500   2.899
    1C        C  311   4.516   3.359   2.900
    1C        C  312   4.520   3.572   3.020
    1C        C  313   4.522   3.504   3.143
    1C        C  314   4.485   3.715   3.264
    1C        C  315   4.515   3.576   3.264
    1C        C  316   4.472   3.787   3.385
    1C        C  317   4.494   3.721   3.508
    1C        C  318   4.424   3.924   3.624
    1C        C  319   4.473   3.792   3.629
    1C        C  320   4.389   3.986   3.747
    1C        C  321   4.420   3.923   3.870
    1C        C  322   4.315   4.110   3.991
    1C        C  323   4.392   3.991   3.990
    1C        C  324   4.273   4.165   4.114
    1C        C  325   4.321   4.116   4.238
    1C        C  326   4.182   4.280   4.354
    1C        C  327   4.282   4.180   4.357
    1C        C  328   4.133   4.335   4.474
    1C        C  329   4.194   4.292   4.595
    1C        C  330   4.027   4.433   4.715
    1C        C  331   4.141   4.347   4.714
    1C        C  332   3.973   4.494   4.831
    1C        C  333   4.049   4.466   4.945
    1C        C  334   4.560   3.268   2.060
    1C        C  335   4.531   3.131   2.063
    1C        C  336   4.545   3.347   2.175
    1C        C  337   4.515   3.279   2.295
    1C        C  338   4.523   3.496   2.413
    1C        C  339   4.526   3.355   2.414
    1C        C  340   4.521   3.568   2.534
    1C        C  341   4.524   3.493   2.653
    1C        C  342   4.496   3.706   2.771
    1C        C  343   4.520   3.567   2.774
    1C        C  344   4.477   3.777   2.891
    1C        C  345   4.493   3.711   3.015
    1C        C  346   4.426   3.911   3.135
    1C        C  347   4.471   3.777   3.138
    1C        C  348   4.396   3.980   3.255
    1C        C  349   4.430   3.921   3.379
    1C        C  350   4.321   4.105   3.500
    1C        C  351   4.398   3.986   3.500
    1C        C  352   4.275   4.164   3.620
    1C        C  353   4.315   4.106   3.743
    1C        C  354   4.176   4.263   3.863
    1C        C  355   4.276   4.163   3.866
    1C        C  356   4.122   4.310   3.985
    1C        C  357   4.177   4.269   4.108
    1C        C  358   4.012   4.401   4.230
    1C        C  359   4.127   4.320   4.230
    1C        C  360   3.954   4.447   4.351
    1C        C  361   4.020   4.419   4.473
    1C        C  362   3.830   4.516   4.592
    1C        C  363   3.959   4.459   4.594
    1C        C  364   3.761   4.544   4.712
    1C        C  365   3.839   4.537   4.829
    1C        C  366   3.629   4.592   4.949
    1C        C  367   3.766   4.565   4.945
    1C        C  368   4.505   3.560   2.051
    1C        C  369   4.526   3.486   2.168
    1C        C  370   4.504   3.702   2.287
    1C        C  371   4.521   3.562   2.288
    1C        C  372   4.485   3.775   2.406
    1C        C  373   4.501   3.708   2.530
    1C        C  374   4.429   3.910   2.649
    1C        C  375   4.475   3.777   2.650
    1C        C  376   4.398   3.976   2.770
    1C        C  377   4.423   3.908   2.891
    1C        C  378   4.319   4.092   3.012
    1C        C  379   4.397   3.974   3.013
    1C        C  380   4.269   4.149   3.132
    1C        C  381   4.316   4.097   3.254
    1C        C  382   4.179   4.257   3.377
    1C        C  383   4.277   4.155   3.376
    1C        C  384   4.121   4.306   3.496
    1C        C  385   4.174   4.263   3.620
    1C        C  386   4.006   4.390   3.742
    1C        C  387   4.125   4.314   3.742
    1C        C  388   3.943   4.424   3.864
    1C        C  389   4.007   4.391   3.986
    1C        C  390   3.818   4.487   4.108
    1C        C  391   3.946   4.428   4.108
    1C        C  392   3.752   4.515   4.230
    1C        C  393   3.825   4.502   4.351
    1C        C  394   3.618   4.550   4.472
    1C        C  395   3.758   4.532   4.472
    1C        C  396   3.546   4.564   4.594
    1C        C  397   3.621   4.565   4.713
    1C        C  398   3.412   4.546   4.836
    1C        C  399   3.550   4.574   4.835
    1C        C  400   3.339   4.512   4.951
    1C        C  401   4.506   3.699   2.053
    1C        C  402   4.450   3.912   2.165
    1C        C  403   4.495   3.778   2.168
    1C        C  404   4.411   3.975   2.284
    1C        C  405   4.437   3.908   2.406
    1C        C  406   4.324   4.092   2.525
    1C        C  407   4.401   3.973   2.525
    1C        C  408   4.275   4.146   2.645
    1C        C  409   4.318   4.092   2.768
    1C        C  410   4.174   4.246   2.888
    1C        C  411   4.277   4.150   2.891
    1C        C  412   4.125   4.300   3.010
    1C        C  413   4.175   4.254   3.134
    1C        C  414   4.001   4.376   3.250
    1C        C  415   4.121   4.302   3.255
    1C        C  416   3.939   4.407   3.373
    1C        C  417   3.999   4.377   3.497
    1C        C  418   3.815   4.482   3.620
    1C        C  419   3.941   4.417   3.619
    1C        C  420   3.748   4.507   3.741
    1C        C  421   3.812   4.476   3.863
    1C        C  422   3.610   4.534   3.986
    1C        C  423   3.747   4.500   3.987
    1C        C  424   3.542   4.546   4.109
    1C        C  425   3.614   4.542   4.230
    1C        C  426   3.402   4.542   4.352
    1C        C  427   3.543   4.549   4.352
    1C        C  428   3.332   4.544   4.475
    1C        C  429   3.405   4.561   4.595
    1C        C  430   3.195   4.524   4.720
    1C        C  431   3.335   4.545   4.717
    1C        C  432   3.122   4.503   4.840
    1C        C  433   3.201   4.496   4.955
    1C        C  434   4.382   4.121   2.051
    1C        C  435   4.447   3.997   2.053
    1C        C  436   4.300   4.157   2.163
    1C        C  437   4.334   4.095   2.286
    1C        C  438   4.181   4.250   2.402
    1C        C  439   4.286   4.155   2.404
    1C        C  440   4.124   4.296   2.523
    1C        C  441   4.177   4.248   2.645
    1C        C  442   4.006   4.376   2.765
    1C        C  443   4.121   4.294   2.766
    1C        C  444   3.946   4.415   2.887
    1C        C  445   4.008   4.379   3.008
    1C        C  446   3.811   4.469   3.128
    1C        C  447   3.939   4.411   3.128
    1C        C  448   3.745   4.486   3.252
    1C        C  449   3.810   4.464   3.376
    1C        C  450   3.609   4.530   3.496
    1C        C  451   3.747   4.499   3.497
    1C        C  452   3.540   4.543   3.619
    1C        C  453   3.610   4.537   3.742
    1C        C  454   3.398   4.550   3.864
    1C        C  455   3.540   4.549   3.864
    1C        C  456   3.329   4.536   3.987
    1C        C  457   3.401   4.541   4.109
    1C        C  458   3.192   4.507   4.235
    1C        C  459   3.330   4.537   4.231
    1C        C  460   3.125   4.489   4.358
    1C        C  461   3.194   4.513   4.479
    1C        C  462   2.999   4.430   4.603
    1C        C  463   3.127   4.490   4.601
    1C        C  464   2.931   4.398   4.722
    1C        C  465   2.991   4.445   4.842
    1C        C  466   2.802   4.331   4.959
    1C        C  467   2.905   4.426   4.955
    1C        C  468   4.123   4.285   2.041
    1C        C  469   4.185   4.243   2.159
    1C        C  470   4.009   4.371   2.278
    1C        C  471   4.126   4.291   2.279
    1C        C  472   3.943   4.403   2.398
    1C        C  473   4.008   4.376   2.520
    1C        C  474   3.817   4.467   2.642
    1C        C  475   3.948   4.414   2.642
    1C        C  476   3.748   4.490   2.762
    1C        C  477   3.814   4.467   2.885
    1C        C  478   3.606   4.518   3.008
    1C        C  479   3.745   4.493   3.005
    1C        C  480   3.537   4.527   3.131
    1C        C  481   3.608   4.517   3.253
    1C        C  482   3.396   4.534   3.376
    1C        C  483   3.537   4.531   3.375
    1C        C  484   3.324   4.528   3.497
    1C        C  485   3.399   4.543   3.616
    1C        C  486   3.194   4.505   3.743
    1C        C  487   3.331   4.540   3.740
    1C        C  488   3.130   4.475   3.865
    1C        C  489   3.195   4.493   3.990
    1C        C  490   3.001   4.416   4.114
    1C        C  491   3.125   4.484   4.113
    1C        C  492   2.944   4.380   4.238
    1C        C  493   3.000   4.423   4.360
    1C        C  494   2.828   4.300   4.481
    1C        C  495   2.938   4.389   4.482
    1C        C  496   2.773   4.252   4.602
    1C        C  497   2.823   4.305   4.723
    1C        C  498   2.668   4.159   4.844
    1C        C  499   2.756   4.270   4.842
    1C        C  500   2.596   4.112   4.954
    1C        C  501   4.004   4.356   2.040
    1C        C  502   3.817   4.464   2.159
    1C        C  503   3.946   4.408   2.157
    1C        C  504   3.742   4.474   2.278
    1C        C  505   3.811   4.456   2.399
    1C        C  506   3.605   4.507   2.521
    1C        C  507   3.744   4.479   2.521
    1C        C  508   3.534   4.519   2.642
    1C        C  509   3.608   4.513   2.762
    1C        C  510   3.397   4.518   2.884
    1C        C  511   3.538   4.521   2.884
    1C        C  512   3.328   4.520   3.008
    1C        C  513   3.396   4.531   3.131
    1C        C  514   3.189   4.494   3.253
    1C        C  515   3.325   4.532   3.254
    1C        C  516   3.125   4.466   3.375
    1C        C  517   3.187   4.493   3.499
    1C        C  518   2.997   4.413   3.625
    1C        C  519   3.123   4.477   3.624
    1C        C  520   2.942   4.372   3.748
    1C        C  521   3.005   4.410   3.869
    1C        C  522   2.837   4.281   3.992
    1C        C  523   2.948   4.369   3.992
    1C        C  524   2.789   4.234   4.116
    1C        C  525   2.839   4.286   4.238
    1C        C  526   2.698   4.130   4.360
    1C        C  527   2.785   4.242   4.360
    1C        C  528   2.654   4.075   4.482
    1C        C  529   2.691   4.137   4.604
    1C        C  530   2.581   3.957   4.727
    1C        C  531   2.642   4.086   4.726
    1C        C  532   2.535   3.899   4.849
    1C        C  533   2.525   3.991   4.958
    1C        C  534   3.621   4.554   2.041
    1C        C  535   3.756   4.518   2.045
    1C        C  536   3.537   4.534   2.156
    1C        C  537   3.602   4.501   2.277
    1C        C  538   3.393   4.523   2.396
    1C        C  539   3.534   4.518   2.400
    1C        C  540   3.323   4.509   2.518
    1C        C  541   3.392   4.516   2.641
    1C        C  542   3.185   4.479   2.765
    1C        C  543   3.323   4.510   2.764
    1C        C  544   3.122   4.460   2.890
    1C        C  545   3.191   4.486   3.010
    1C        C  546   2.998   4.397   3.136
    1C        C  547   3.122   4.464   3.132
    1C        C  548   2.942   4.357   3.259
    1C        C  549   3.001   4.398   3.381
    1C        C  550   2.833   4.275   3.503
    1C        C  551   2.940   4.367   3.504
    1C        C  552   2.779   4.231   3.625
    1C        C  553   2.832   4.283   3.745
    1C        C  554   2.705   4.118   3.874
    1C        C  555   2.785   4.234   3.869
    1C        C  556   2.667   4.057   3.995
    1C        C  557   2.702   4.123   4.115
    1C        C  558   2.596   3.942   4.245
    1C        C  559   2.665   4.065   4.239
    1C        C  560   2.565   3.879   4.367
    1C        C  561   2.586   3.951   4.487
    1C        C  562   2.531   3.746   4.611
    1C        C  563   2.564   3.883   4.608
    1C        C  564   2.517   3.679   4.735
    1C        C  565   2.524   3.757   4.853
    1C        C  566   2.530   3.542   4.975
    1C        C  567   2.525   3.681   4.972
    1C        C  568   3.328   4.465   2.044
    1C        C  569   3.396   4.512   2.157
    1C        C  570   3.182   4.474   2.279
    1C        C  571   3.318   4.513   2.276
    1C        C  572   3.116   4.453   2.402
    1C        C  573   3.185   4.477   2.522
    1C        C  574   2.988   4.399   2.649
    1C        C  575   3.115   4.461   2.644
    1C        C  576   2.932   4.357   2.772
    1C        C  577   2.997   4.395   2.891
    1C        C  578   2.830   4.268   3.015
    1C        C  579   2.936   4.361   3.014
    1C        C  580   2.779   4.220   3.138
    1C        C  581   2.831   4.269   3.259
    1C        C  582   2.695   4.110   3.383
    1C        C  583   2.781   4.222   3.382
    1C        C  584   2.661   4.056   3.509
    1C        C  585   2.694   4.118   3.631
    1C        C  586   2.599   3.929   3.755
    1C        C  587   2.664   4.055   3.754
    1C        C  588   2.579   3.865   3.880
    1C        C  589   2.611   3.927   4.002
    1C        C  590   2.533   3.735   4.125
    1C        C  591   2.570   3.871   4.125
    1C        C  592   2.522   3.669   4.249
    1C        C  593   2.528   3.743   4.370
    1C        C  594   2.511   3.531   4.498
    1C        C  595   2.516   3.672   4.491
    1C        C  596   2.510   3.459   4.619
    1C        C  597   2.513   3.537   4.736
    1C        C  598   2.531   3.325   4.863
    1C        C  599   2.521   3.466   4.858
    1C        C  600   2.527   3.243   4.977
    1C        C  601   3.194   4.433   2.043
    1C        C  602   2.980   4.389   2.160
    1C        C  603   3.115   4.436   2.159
    1C        C  604   2.919   4.361   2.285
    1C        C  605   2.986   4.397   2.404
    1C        C  606   2.821   4.267   2.527
    1C        C  607   2.927   4.360   2.527
    1C        C  608   2.771   4.215   2.649
    1C        C  609   2.822   4.269   2.769
    1C        C  610   2.684   4.112   2.894
    1C        C  611   2.778   4.218   2.894
    1C        C  612   2.652   4.051   3.017
    1C        C  613   2.692   4.108   3.140
    1C        C  614   2.587   3.924   3.264
    1C        C  615   2.652   4.050   3.262
    1C        C  616   2.567   3.863   3.390
    1C        C  617   2.599   3.929   3.510
    1C        C  618   2.529   3.730   3.636
    1C        C  619   2.570   3.865   3.633
    1C        C  620   2.513   3.662   3.759
    1C        C  621   2.529   3.733   3.880
    1C        C  622   2.509   3.524   4.008
    1C        C  623   2.517   3.665   4.003
    1C        C  624   2.508   3.454   4.131
    1C        C  625   2.514   3.528   4.252
    1C        C  626   2.541   3.320   4.377
    1C        C  627   2.520   3.460   4.376
    1C        C  628   2.556   3.252   4.500
    1C        C  629   2.538   3.320   4.622
    1C        C  630   2.587   3.114   4.740
    1C        C  631   2.547   3.250   4.745
    1C        C  632   2.617   3.044   4.860
    1C        C  633   2.563   3.108   4.976
    1C        C  634   2.780   4.299   2.052
    1C        C  635   2.884   4.393   2.054
    1C        C  636   2.744   4.228   2.167
    1C        C  637   2.809   4.271   2.285
    1C        C  638   2.678   4.105   2.410
    1C        C  639   2.764   4.217   2.407
    1C        C  640   2.639   4.043   2.530
    1C        C  641   2.686   4.103   2.649
    1C        C  642   2.586   3.920   2.777
    1C        C  643   2.646   4.048   2.774
    1C        C  644   2.562   3.853   2.899
    1C        C  645   2.590   3.924   3.018
    1C        C  646   2.519   3.725   3.146
    1C        C  647   2.561   3.860   3.141
    1C        C  648   2.505   3.657   3.269
    1C        C  649   2.529   3.726   3.389
    1C        C  650   2.505   3.519   3.518
    1C        C  651   2.519   3.659   3.513
    1C        C  652   2.509   3.449   3.641
    1C        C  653   2.507   3.521   3.762
    1C        C  654   2.528   3.313   3.885
    1C        C  655   2.508   3.453   3.886
    1C        C  656   2.553   3.247   4.008
    1C        C  657   2.535   3.316   4.130
    1C        C  658   2.608   3.121   4.259
    1C        C  659   2.554   3.252   4.254
    1C        C  660   2.638   3.055   4.380
    1C        C  661   2.602   3.118   4.501
    1C        C  662   2.712   2.936   4.622
    1C        C  663   2.625   3.048   4.621
    1C        C  664   2.755   2.878   4.743
    1C        C  665   2.702   2.928   4.865
    1C        C  666   2.742   2.864   4.983
    1C        C  667   2.681   4.020   2.054
    1C        C  668   2.678   4.103   2.167
    1C        C  669   2.586   3.910   2.291
    1C        C  670   2.644   4.040   2.289
    1C        C  671   2.554   3.845   2.412
    1C        C  672   2.580   3.915   2.532
    1C        C  673   2.515   3.718   2.656
    1C        C  674   2.557   3.853   2.656
    1C        C  675   2.503   3.648   2.778
    1C        C  676   2.521   3.718   2.899
    1C        C  677   2.497   3.513   3.026
    1C        C  678   2.507   3.654   3.024
    1C        C  679   2.501   3.445   3.150
    1C        C  680   2.498   3.516   3.272
    1C        C  681   2.528   3.309   3.398
    1C        C  682   2.503   3.448   3.396
    1C        C  683   2.548   3.239   3.519
    1C        C  684   2.533   3.309   3.641
    1C        C  685   2.606   3.113   3.770
    1C        C  686   2.549   3.243   3.764
    1C        C  687   2.639   3.052   3.893
    1C        C  688   2.604   3.116   4.014
    1C        C  689   2.712   2.936   4.137
    1C        C  690   2.635   3.054   4.137
    1C        C  691   2.754   2.878   4.259
    1C        C  692   2.714   2.936   4.381
    1C        C  693   2.757   2.877   4.502
    1C        C  694   2.615   3.897   2.056
    1C        C  695   2.529   3.699   2.176
    1C        C  696   2.567   3.835   2.172
    1C        C  697   2.505   3.633   2.298
    1C        C  698   2.512   3.710   2.416
    1C        C  699   2.487   3.500   2.541
    1C        C  700   2.499   3.641   2.538
    1C        C  701   2.494   3.432   2.665
    1C        C  702   2.493   3.507   2.785
    1C        C  703   2.527   3.299   2.909
    1C        C  704   2.497   3.437   2.907
    1C        C  705   2.545   3.233   3.033
    1C        C  706   2.527   3.306   3.153
    1C        C  707   2.594   3.106   3.280
    1C        C  708   2.547   3.240   3.276
    1C        C  709   2.630   3.043   3.401
    1C        C  710   2.599   3.107   3.523
    1C        C  711   2.707   2.929   3.647
    1C        C  712   2.631   3.048   3.648
    1C        C  713   2.756   2.875   3.768
    1C        C  714   2.718   2.935   3.890
    1C        C  715   2.756   2.880   4.015
    1C        C  716   2.452   3.496   2.059
    1C        C  717   2.500   3.627   2.059
    1C        C  718   2.463   3.418   2.179
    1C        C  719   2.479   3.493   2.298
    1C        C  720   2.506   3.285   2.424
    1C        C  721   2.482   3.424   2.422
    1C        C  722   2.536   3.222   2.547
    1C        C  723   2.516   3.293   2.667
    1C        C  724   2.592   3.094   2.789
    1C        C  725   2.542   3.226   2.789
    1C        C  726   2.621   3.033   2.913
    1C        C  727   2.600   3.103   3.034
    1C        C  728   2.704   2.923   3.158
    1C        C  729   2.628   3.043   3.159
    1C        C  730   2.755   2.870   3.279
    1C        C  731   2.712   2.928   3.400
    1C        C  732   2.752   2.875   3.525
    1C        C  733   2.494   3.192   2.073
    1C        C  734   2.487   3.277   2.185
    1C        C  735   2.587   3.084   2.307
    1C        C  736   2.524   3.211   2.305
    1C        C  737   2.616   3.019   2.428
    1C        C  738   2.592   3.092   2.547
    1C        C  739   2.695   2.906   2.671
    1C        C  740   2.625   3.029   2.669
    1C        C  741   2.742   2.852   2.794
    1C        C  742   2.700   2.915   2.913
    1C        C  743   2.745   2.864   3.037
    1C        C  744   2.557   3.068   2.069
    1C        C  745   2.692   2.899   2.185
    1C        C  746   2.616   3.017   2.185
    1C        C  747   2.732   2.838   2.306
    1C        C  748   2.691   2.898   2.427
    1C        C  749   2.738   2.847   2.550
    1C        C  750   2.738   2.838   2.068
    1C        C  751   3.651   2.301   1.987
    1C        O  752   3.697   2.187   2.013
    1C        O  753   3.638   2.320   1.849
    1C        C  754   4.610   3.052   1.967
    1C        O  755   4.579   3.035   1.846
    1C        O  756   4.734   2.997   2.004
    1C        C  757   4.459   4.217   1.969
    1C        O  758   4.555   4.285   2.015
    1C        O  759   4.424   4.254   1.839
    1C        C  760   3.595   4.669   1.953
    1C        O  761   3.579   4.787   1.994
    1C        O  762   3.604   4.659   1.813
    1C        C  763   2.855   4.511   1.970
    1C        O  764   2.847   4.506   1.844
    1C        O  765   2.775   4.620   2.009
    1C        C  766   2.348   3.478   1.955
    1C        O  767   2.369   3.410   1.851
    1C        O  768   2.210   3.464   1.974
    1C        C  769   4.689   3.577   5.055
    1C        O  770   4.659   3.542   5.172
    1C        O  771   4.813   3.642   5.053
    1C        C  772   4.287   4.470   5.006
    1C        O  773   4.292   4.488   5.131
    1C        O  774   4.397   4.518   4.934
    1C        C  775   4.134   2.530   5.084
    1C        O  776   4.189   2.417   5.081
    1C        O  777   4.128   2.578   5.215
    1C        C  778   2.866   4.542   5.038
    1C        O  779   2.818   4.651   4.996
    1C        O  780   2.919   4.551   5.167
    1C        C  781   2.493   3.034   5.085
    1C        O  782   2.382   2.977   5.069
    1C        O  783   2.555   3.022   5.208
    1C        C  784   2.392   4.002   5.022
    1C        O  785   2.293   4.041   4.954
    1C        O  786   2.372   4.002   5.160
    1C        C  787   2.937   2.403   2.031
    1C        O  788   2.916   2.390   1.907
    1C        O  789   2.910   2.291   2.108
    1C        C  790   3.185   2.378   5.074
    1C        O  791   3.160   2.261   5.036
    1C        O  792   3.194   2.400   5.212
    1C        H  793   4.331   2.978   5.070
    1C        H  794   4.175   2.809   5.067
    1C        H  795   4.537   3.124   5.039
    1C        H  796   4.530   3.376   5.060
    1C        H  797   4.572   3.810   5.043
    1C        H  798   4.444   3.987   5.051
    1C        H  799   4.299   4.170   5.054
    1C        H  800   4.032   4.519   5.037
    1C        H  801   3.820   4.577   5.036
    1C        H  802   3.589   4.611   5.046
    1C        H  803   3.391   4.453   5.023
    1C        H  804   3.155   4.508   5.051
    1C        H  805   3.890   2.493   5.070
    1C        H  806   3.661   2.514   5.074
    1C        H  807   2.990   2.535   5.056
    1C        H  808   3.451   2.392   5.049
    1C        H  809   2.878   2.734   5.076
    1C        H  810   2.740   2.916   5.076
    1C        H  811   2.522   3.289   5.074
    1C        H  812   2.588   3.502   5.055
    1C        H  813   2.529   3.730   5.067
    1C        H  814   2.608   4.161   5.049
    1C        H  815   2.732   4.346   5.038
    1C        H  816   2.673   2.844   1.982
    1C        H  817   2.884   2.722   1.979
    1C        H  818   3.209   2.406   2.000
    1C        H  819   3.432   2.437   1.976
    1C        H  820   3.830   2.530   1.975
    1C        H  821   4.048   2.636   1.963
    1C        H  822   4.262   2.713   1.970
    1C        H  823   4.379   2.919   1.963
    1C        H  824   4.557   3.314   1.964
    1C        H  825   4.457   3.510   1.970
    1C        H  826   4.513   3.751   1.959
    1C        H  827   3.791   4.486   1.948
    1C        H  828   3.963   4.384   1.945
    1C        H  829   4.186   4.289   1.954
    1C        H  830   4.530   3.987   1.987
    1C        H  831   2.581   3.853   1.964
    1C        H  832   2.746   4.036   1.971
    1C        H  833   2.731   4.279   1.959
    1C        H  834   3.387   4.429   1.962
    1C        H  835   3.141   4.460   1.954
    1C        H  836   2.582   3.033   1.971
    1C        H  837   2.472   3.239   1.980
    1C        H  838   2.543   3.656   1.965
    2V3OU   H29  839   2.791   3.543   1.075
    2V3OU   C27  840   2.776   3.502   1.178
    2V3OU   H27  841   2.728   3.577   1.247
    2V3OU   H28  842   2.722   3.405   1.190
    2V3OU   O11  843   2.906   3.473   1.230
    2V3OU   C15  844   2.916   3.399   1.346
    2V3OU   C13  845   3.045   3.374   1.397
    2V3OU   C14  846   3.069   3.269   1.486
    2V3OU   C16  847   2.966   3.184   1.523
    2V3OU    H6  848   2.988   3.102   1.593
    2V3OU   C12  849   3.210   3.229   1.507
    2V3OU    O2  850   3.236   3.128   1.576
    2V3OU   C10  851   3.323   3.308   1.457
    2V3OU    C8  852   3.455   3.267   1.475
    2V3OU   O10  853   3.486   3.149   1.534
    2V3OU   H26  854   3.406   3.110   1.574
    2V3OU    C6  855   3.562   3.349   1.426
    2V3OU    C5  856   3.533   3.467   1.358
    2V3OU    C4  857   3.699   3.292   1.418
    2V3OU    H4  858   3.718   3.229   1.510
    2V3OU    H5  859   3.707   3.219   1.331
    2V3OU    C2  860   3.813   3.394   1.413
    2V3OU    O6  861   3.805   3.469   1.535
    2V3OU   H21  862   3.761   3.553   1.516
    2V3OU    C3  863   3.777   3.496   1.304
    2V3OU    H2  864   3.857   3.574   1.304
    2V3OU    H3  865   3.776   3.435   1.210
    2V3OU   C25  866   3.947   3.324   1.392
    2V3OU    O7  867   3.992   3.299   1.280
    2V3OU   C26  868   4.030   3.295   1.516
    2V3OU   H22  869   4.070   3.386   1.568
    2V3OU   H23  870   4.114   3.227   1.490
    2V3OU    O8  871   3.958   3.210   1.603
    2V3OU   H24  872   3.912   3.263   1.670
    2V3OU    C1  873   3.643   3.563   1.327
    2V3OU    H1  874   3.620   3.620   1.232
    2V3OU    O3  875   3.657   3.653   1.437
    2V3OU   C19  876   3.618   3.790   1.429
    2V3OU    H9  877   3.517   3.800   1.380
    2V3OU    O4  878   3.716   3.845   1.345
    2V3OU   C20  879   3.845   3.875   1.399
    2V3OU   H10  880   3.893   3.774   1.417
    2V3OU   C24  881   3.608   3.855   1.568
    2V3OU   H16  882   3.546   3.792   1.637
    2V3OU   H17  883   3.563   3.957   1.557
    2V3OU   C23  884   3.746   3.876   1.630
    2V3OU   H15  885   3.788   3.772   1.653
    2V3OU    N1  886   3.739   3.958   1.749
    2V3OU   H19  887   3.810   3.921   1.808
    2V3OU   H20  888   3.653   3.931   1.792
    2V3OU   C21  889   3.847   3.947   1.534
    2V3OU   H11  890   3.953   3.929   1.568
    2V3OU    O5  891   3.826   4.087   1.535
    2V3OU   H18  892   3.779   4.099   1.619
    2V3OU   C22  893   3.916   3.949   1.286
    2V3OU   H12  894   3.863   4.047   1.270
    2V3OU   H13  895   3.900   3.894   1.190
    2V3OU   H14  896   4.023   3.963   1.314
    2V3OU   C11  897   3.154   3.470   1.373
    2V3OU    O1  898   3.131   3.592   1.364
    2V3OU    C9  899   3.295   3.432   1.392
    2V3OU    C7  900   3.398   3.510   1.340
    2V3OU    O9  901   3.382   3.618   1.256
    2V3OU   H25  902   3.286   3.634   1.258
    2V3OU   C17  903   2.813   3.309   1.383
    2V3OU    H7  904   2.711   3.347   1.388
    2V3OU   C18  905   2.839   3.204   1.471
    2V3OU    H8  906   2.753   3.145   1.507
    3SOL     OW  907   0.540   3.726   0.636
    3SOL    HW1  908   0.441   3.740   0.630
    3SOL    HW2  909   0.581   3.796   0.695
    4SOL     OW  910   5.321   1.036   2.475
    4SOL    HW1  911   5.359   1.124   2.448
    4SOL    HW2  912   5.395   0.971   2.491
    5SOL     OW  913   3.719   3.029   1.154
    5SOL    HW1  914   3.793   3.015   1.219
    5SOL    HW2  915   3.632   3.036   1.203
    6SOL     OW  916   2.557   2.446   0.700
    6SOL    HW1  917   2.555   2.462   0.601
    6SOL    HW2  918   2.553   2.348   0.718
    7SOL     OW  919   5.858   0.958   1.495
    7SOL    HW1  920   5.818   1.049   1.487
    7SOL    HW2  921   5.905   0.935   1.409
    8SOL     OW  922   3.017   2.231   3.498
    8SOL    HW1  923   3.013   2.158   3.431
    8SOL    HW2  924   3.112   2.246   3.526
    9SOL     OW  925   0.665   3.982   5.834
    9SOL    HW1  926   0.712   4.070   5.836
    9SOL    HW2  927   0.577   3.991   5.880
   10SOL     OW  928   0.570   4.141   0.667
   10SOL    HW1  929   0.475   4.113   0.652
   10SOL    HW2  930   0.600   4.198   0.590
   11SOL     OW  931   3.961   6.255   6.911
   11SOL    HW1  932   4.048   6.243   6.959
   11SOL    HW2  933   3.979   6.286   6.817
   12SOL     OW  934   5.451   6.187   2.049
   12SOL    HW1  935   5.493   6.254   2.109
   12SOL    HW2  936   5.485   6.198   1.956
   13SOL     OW  937   1.376   6.922   3.795
   13SOL    HW1  938   1.309   6.858   3.833
   13SOL    HW2  939   1.455   6.927   3.856
   14SOL     OW  940   2.935   0.179   2.732
   14SOL    HW1  941   2.935   0.089   2.775
   14SOL    HW2  942   2.961   0.248   2.799
   15SOL     OW  943   2.676   6.534   6.439
   15SOL    HW1  944   2.591   6.582   6.459
   15SOL    HW2  945   2.738   6.541   6.517
   16SOL     OW  946   6.720   1.613   6.700
   16SOL    HW1  947   6.662   1.555   6.643
   16SOL    HW2  948   6.708   1.708   6.675
   17SOL     OW  949   4.568   6.164   3.200
   17SOL    HW1  950   4.637   6.145   3.269
   17SOL    HW2  951   4.492   6.215   3.241
   18SOL     OW  952   1.651   1.166   0.256
   18SOL    HW1  953   1.726   1.175   0.190
   18SOL    HW2  954   1.636   1.069   0.276
   19SOL     OW  955   0.869   6.930   1.640
   19SOL    HW1  956   0.908   6.840   1.660
   19SOL    HW2  957   0.942   6.990   1.606
   20SOL     OW  958   3.448   0.783   4.161
   20SOL    HW1  959   3.516   0.744   4.222
   20SOL    HW2  960   3.419   0.872   4.195
   21SOL     OW  961   2.809   2.930   1.689
   21SOL    HW1  962   2.716   2.894   1.695
   21SOL    HW2  963   2.822   3.001   1.758
   22SOL     OW  964   1.083   1.267   5.224
   22SOL    HW1  965   1.017   1.271   5.149
   22SOL    HW2  966   1.061   1.338   5.291
   23SOL     OW  967   3.340   5.740   4.801
   23SOL    HW1  968   3.376   5.696   4.719
   23SOL    HW2  969   3.401   5.815   4.828
   24SOL     OW  970   3.752   1.066   4.589
   24SOL    HW1  971   3.695   1.148   4.590
   24SOL    HW2  972   3.848   1.091   4.600
   25SOL     OW  973   2.705   4.662   1.161
   25SOL    HW1  974   2.613   4.626   1.173
   25SOL    HW2  975   2.749   4.669   1.251
   26SOL     OW  976   6.056   1.078   3.181
   26SOL    HW1  977   6.121   1.147   3.148
   26SOL    HW2  978   6.001   1.046   3.104
   27SOL     OW  979   6.158   6.741   2.027
   27SOL    HW1  980   6.203   6.757   1.939
   27SOL    HW2  981   6.214   6.680   2.083
   28SOL     OW  982   3.164   0.510   0.674
   28SOL    HW1  983   3.167   0.563   0.589
   28SOL    HW2  984   3.252   0.466   0.689
   29SOL     OW  985   3.852   2.794   1.491
   29SOL    HW1  986   3.896   2.707   1.468
   29SOL    HW2  987   3.753   2.786   1.478
   30SOL     OW  988   3.974   1.190   4.692
   30SOL    HW1  989   3.934   1.181   4.783
   30SOL    HW2  990   3.974   1.287   4.665
   31SOL     OW  991   0.585   1.085   4.956
   31SOL    HW1  992   0.529   1.003   4.941
   31SOL    HW2  993   0.682   1.061   4.949
   32SOL     OW  994   0.147   1.813   2.044
   32SOL    HW1  995   0.085   1.813   1.966
   32SOL    HW2  996   0.158   1.720   2.078
   33SOL     OW  997   1.837   2.136   5.050
   33SOL    HW1  998   1.929   2.153   5.085
   33SOL    HW2  999   1.803   2.048   5.084
   34SOL     OW 1000   1.049   0.445   4.691
   34SOL    HW1 1001   0.976   0.397   4.642
   34SOL    HW2 1002   1.014   0.532   4.726
   35SOL     OW 1003   3.708   1.956   6.139
   35SOL    HW1 1004   3.779   2.022   6.116
   35SOL    HW2 1005   3.649   1.995   6.210
   36SOL     OW 1006   1.560   1.677   5.755
   36SOL    HW1 1007   1.520   1.588   5.733
   36SOL    HW2 1008   1.545   1.740   5.679
   37SOL     OW 1009   2.358   6.557   0.571
   37SOL    HW1 1010   2.347   6.555   0.671
   37SOL    HW2 1011   2.297   6.626   0.533
   38SOL     OW 1012   6.978   6.315   1.884
   38SOL    HW1 1013   6.901   6.308   1.947
   38SOL    HW2 1014   0.043   6.306   1.935
   39SOL     OW 1015   0.012   2.874   5.985
   39SOL    HW1 1016   0.033   2.954   6.042
   39SOL    HW2 1017   6.942   2.885   5.945
   40SOL     OW 1018   6.745   0.883   1.382
   40SOL    HW1 1019   6.842   0.861   1.394
   40SOL    HW2 1020   6.689   0.803   1.403
   41SOL     OW 1021   1.460   0.781   5.980
   41SOL    HW1 1022   1.549   0.774   5.935
   41SOL    HW2 1023   1.446   0.701   6.039
   42SOL     OW 1024   3.846   0.166   0.773
   42SOL    HW1 1025   3.902   0.083   0.782
   42SOL    HW2 1026   3.903   0.247   0.786
   43SOL     OW 1027   5.086   5.817   5.089
   43SOL    HW1 1028   5.009   5.849   5.035
   43SOL    HW2 1029   5.084   5.717   5.093
   44SOL     OW 1030   0.292   3.177   6.836
   44SOL    HW1 1031   0.328   3.246   6.774
   44SOL    HW2 1032   0.356   3.165   6.913
   45SOL     OW 1033   2.678   0.535   1.630
   45SOL    HW1 1034   2.761   0.591   1.634
   45SOL    HW2 1035   2.675   0.485   1.544
   46SOL     OW 1036   1.338   4.925   3.903
   46SOL    HW1 1037   1.313   4.962   3.993
   46SOL    HW2 1038   1.411   4.858   3.913
   47SOL     OW 1039   5.601   4.692   3.088
   47SOL    HW1 1040   5.525   4.685   3.153
   47SOL    HW2 1041   5.663   4.765   3.116
   48SOL     OW 1042   0.831   1.568   5.774
   48SOL    HW1 1043   0.769   1.501   5.816
   48SOL    HW2 1044   0.851   1.541   5.680
   49SOL     OW 1045   5.577   2.681   0.701
   49SOL    HW1 1046   5.494   2.673   0.757
   49SOL    HW2 1047   5.657   2.654   0.754
   50SOL     OW 1048   0.081   3.643   4.660
   50SOL    HW1 1049   0.072   3.677   4.566
   50SOL    HW2 1050   7.017   3.599   4.688
   51SOL     OW 1051   2.668   5.564   2.829
   51SOL    HW1 1052   2.724   5.540   2.909
   51SOL    HW2 1053   2.572   5.548   2.851
   52SOL     OW 1054   1.010   2.391   1.451
   52SOL    HW1 1055   1.014   2.410   1.353
   52SOL    HW2 1056   0.969   2.301   1.466
   53SOL     OW 1057   4.912   6.381   4.197
   53SOL    HW1 1058   4.986   6.438   4.159
   53SOL    HW2 1059   4.921   6.288   4.163
   54SOL     OW 1060   4.603   5.725   5.858
   54SOL    HW1 1061   4.503   5.722   5.855
   54SOL    HW2 1062   4.633   5.820   5.860
   55SOL     OW 1063   3.655   2.496   0.817
   55SOL    HW1 1064   3.652   2.409   0.866
   55SOL    HW2 1065   3.568   2.510   0.769
   56SOL     OW 1066   0.370   6.714   1.464
   56SOL    HW1 1067   0.373   6.763   1.551
   56SOL    HW2 1068   0.281   6.671   1.453
   57SOL     OW 1069   5.928   1.523   1.051
   57SOL    HW1 1070   6.013   1.523   0.999
   57SOL    HW2 1071   5.892   1.616   1.056
   58SOL     OW 1072   0.259   6.911   6.597
   58SOL    HW1 1073   0.269   6.997   6.646
   58SOL    HW2 1074   0.183   6.859   6.635
   59SOL     OW 1075   0.661   0.029   5.136
   59SOL    HW1 1076   0.643   0.000   5.043
   59SOL    HW2 1077   0.701   0.121   5.135
   60SOL     OW 1078   4.935   6.726   4.808
   60SOL    HW1 1079   4.899   6.740   4.901
   60SOL    HW2 1080   4.860   6.725   4.743
   61SOL     OW 1081   4.143   0.580   5.242
   61SOL    HW1 1082   4.133   0.530   5.328
   61SOL    HW2 1083   4.056   0.581   5.193
   62SOL     OW 1084   3.266   1.399   5.010
   62SOL    HW1 1085   3.295   1.304   5.024
   62SOL    HW2 1086   3.186   1.401   4.950
   63SOL     OW 1087   0.062   3.383   3.339
   63SOL    HW1 1088   0.124   3.350   3.268
   63SOL    HW2 1089   0.068   3.322   3.418
   64SOL     OW 1090   6.967   2.475   5.237
   64SOL    HW1 1091   0.041   2.493   5.265
   64SOL    HW2 1092   6.904   2.530   5.291
   65SOL     OW 1093   0.376   3.507   5.938
   65SOL    HW1 1094   0.322   3.466   5.864
   65SOL    HW2 1095   0.462   3.456   5.948
   66SOL     OW 1096   2.676   1.078   1.055
   66SOL    HW1 1097   2.650   0.993   1.101
   66SOL    HW2 1098   2.751   1.060   0.992
   67SOL     OW 1099   4.701   5.677   3.912
   67SOL    HW1 1100   4.736   5.770   3.922
   67SOL    HW2 1101   4.776   5.615   3.890
   68SOL     OW 1102   5.343   3.021   6.290
   68SOL    HW1 1103   5.406   3.019   6.368
   68SOL    HW2 1104   5.287   3.103   6.295
   69SOL     OW 1105   2.239   2.701   5.699
   69SOL    HW1 1106   2.311   2.670   5.637
   69SOL    HW2 1107   2.279   2.721   5.789
   70SOL     OW 1108   6.476   5.962   2.097
   70SOL    HW1 1109   6.533   6.002   2.169
   70SOL    HW2 1110   6.391   6.015   2.088
   71SOL     OW 1111   2.135   3.333   3.111
   71SOL    HW1 1112   2.171   3.319   3.018
   71SOL    HW2 1113   2.092   3.422   3.117
   72SOL     OW 1114   3.091   5.471   3.974
   72SOL    HW1 1115   3.119   5.566   3.958
   72SOL    HW2 1116   3.095   5.451   4.072
   73SOL     OW 1117   3.876   2.444   6.664
   73SOL    HW1 1118   3.905   2.500   6.742
   73SOL    HW2 1119   3.776   2.448   6.656
   74SOL     OW 1120   5.376   6.391   6.315
   74SOL    HW1 1121   5.463   6.386   6.265
   74SOL    HW2 1122   5.303   6.417   6.253
   75SOL     OW 1123   3.919   4.821   5.337
   75SOL    HW1 1124   3.913   4.721   5.347
   75SOL    HW2 1125   3.856   4.865   5.401
   76SOL     OW 1126   2.540   2.934   1.255
   76SOL    HW1 1127   2.622   2.888   1.291
   76SOL    HW2 1128   2.560   3.032   1.243
   77SOL     OW 1129   5.329   4.864   6.312
   77SOL    HW1 1130   5.360   4.778   6.271
   77SOL    HW2 1131   5.391   4.890   6.386
   78SOL     OW 1132   6.823   6.683   6.087
   78SOL    HW1 1133   6.815   6.603   6.146
   78SOL    HW2 1134   6.896   6.742   6.121
   79SOL     OW 1135   3.233   6.832   0.191
   79SOL    HW1 1136   3.313   6.856   0.247
   79SOL    HW2 1137   3.158   6.804   0.251
   80SOL     OW 1138   6.981   1.174   4.238
   80SOL    HW1 1139   6.968   1.268   4.207
   80SOL    HW2 1140   0.052   1.143   4.213
   81SOL     OW 1141   1.491   0.254   4.259
   81SOL    HW1 1142   1.451   0.174   4.303
   81SOL    HW2 1143   1.536   0.311   4.327
   82SOL     OW 1144   6.955   4.351   5.629
   82SOL    HW1 1145   6.914   4.288   5.563
   82SOL    HW2 1146   0.009   4.401   5.585
   83SOL     OW 1147   6.766   6.850   6.522
   83SOL    HW1 1148   6.835   6.793   6.478
   83SOL    HW2 1149   6.793   6.947   6.515
   84SOL     OW 1150   5.998   3.310   1.545
   84SOL    HW1 1151   6.012   3.409   1.550
   84SOL    HW2 1152   6.049   3.265   1.618
   85SOL     OW 1153   0.846   1.727   5.369
   85SOL    HW1 1154   0.941   1.754   5.352
   85SOL    HW2 1155   0.800   1.711   5.281
   86SOL     OW 1156   2.046   1.068   4.879
   86SOL    HW1 1157   2.047   1.067   4.779
   86SOL    HW2 1158   1.956   1.096   4.912
   87SOL     OW 1159   4.590   0.370   1.241
   87SOL    HW1 1160   4.605   0.276   1.272
   87SOL    HW2 1161   4.572   0.371   1.143
   88SOL     OW 1162   5.700   0.653   0.366
   88SOL    HW1 1163   5.712   0.729   0.431
   88SOL    HW2 1164   5.661   0.688   0.281
   89SOL     OW 1165   2.378   1.740   5.536
   89SOL    HW1 1166   2.288   1.758   5.495
   89SOL    HW2 1167   2.370   1.743   5.635
   90SOL     OW 1168   6.459   5.986   3.835
   90SOL    HW1 1169   6.524   6.042   3.784
   90SOL    HW2 1170   6.369   5.991   3.792
   91SOL     OW 1171   4.674   5.122   4.872
   91SOL    HW1 1172   4.612   5.125   4.793
   91SOL    HW2 1173   4.765   5.152   4.843
   92SOL     OW 1174   3.310   6.501   1.574
   92SOL    HW1 1175   3.217   6.540   1.568
   92SOL    HW2 1176   3.327   6.446   1.492
   93SOL     OW 1177   3.612   4.878   6.003
   93SOL    HW1 1178   3.567   4.794   6.037
   93SOL    HW2 1179   3.565   4.909   5.921
   94SOL     OW 1180   2.259   6.151   1.316
   94SOL    HW1 1181   2.239   6.060   1.352
   94SOL    HW2 1182   2.182   6.212   1.334
   95SOL     OW 1183   6.687   0.072   5.094
   95SOL    HW1 1184   6.765   0.128   5.124
   95SOL    HW2 1185   6.619   0.130   5.050
   96SOL     OW 1186   1.388   6.980   5.162
   96SOL    HW1 1187   1.484   6.986   5.138
   96SOL    HW2 1188   1.363   0.036   5.221
   97SOL     OW 1189   6.132   3.025   4.841
   97SOL    HW1 1190   6.100   2.935   4.870
   97SOL    HW2 1191   6.195   3.061   4.910
   98SOL     OW 1192   5.732   2.261   5.799
   98SOL    HW1 1193   5.715   2.164   5.783
   98SOL    HW2 1194   5.647   2.312   5.786
   99SOL     OW 1195   4.091   2.279   1.296
   99SOL    HW1 1196   4.041   2.199   1.330
   99SOL    HW2 1197   4.053   2.308   1.208
  100SOL     OW 1198   6.102   4.717   6.578
  100SOL    HW1 1199   6.082   4.714   6.480
  100SOL    HW2 1200   6.102   4.812   6.609
  101SOL     OW 1201   0.911   6.416   4.314
  101SOL    HW1 1202   0.911   6.325   4.273
  101SOL    HW2 1203   1.004   6.454   4.311
  102SOL     OW 1204   4.670   0.270   3.335
  102SOL    HW1 1205   4.661   0.285   3.434
  102SOL    HW2 1206   4.585   0.232   3.299
  103SOL     OW 1207   3.628   1.824   1.550
  103SOL    HW1 1208   3.544   1.802   1.500
  103SOL    HW2 1209   3.615   1.805   1.647
  104SOL     OW 1210   6.995   5.920   1.784
  104SOL    HW1 1211   6.907   5.906   1.738
  104SOL    HW2 1212   6.979   5.955   1.876
  105SOL     OW 1213   5.055   1.300   5.516
  105SOL    HW1 1214   5.044   1.298   5.615
  105SOL    HW2 1215   5.152   1.303   5.492
  106SOL     OW 1216   3.559   6.618   0.520
  106SOL    HW1 1217   3.570   6.519   0.518
  106SOL    HW2 1218   3.551   6.648   0.615
  107SOL     OW 1219   2.505   3.221   1.201
  107SOL    HW1 1220   2.490   3.305   1.255
  107SOL    HW2 1221   2.417   3.176   1.185
  108SOL     OW 1222   5.076   4.311   5.314
  108SOL    HW1 1223   4.983   4.346   5.298
  108SOL    HW2 1224   5.101   4.248   5.241
  109SOL     OW 1225   6.050   0.865   1.251
  109SOL    HW1 1226   6.008   0.775   1.240
  109SOL    HW2 1227   6.110   0.864   1.332
  110SOL     OW 1228   2.931   5.983   4.912
  110SOL    HW1 1229   2.994   5.914   4.876
  110SOL    HW2 1230   2.874   5.942   4.984
  111SOL     OW 1231   3.951   0.965   3.482
  111SOL    HW1 1232   4.050   0.977   3.475
  111SOL    HW2 1233   3.916   1.019   3.558
  112SOL     OW 1234   6.804   1.222   6.395
  112SOL    HW1 1235   6.722   1.279   6.396
  112SOL    HW2 1236   6.883   1.278   6.372
  113SOL     OW 1237   6.806   6.037   3.870
  113SOL    HW1 1238   6.865   6.005   3.796
  113SOL    HW2 1239   6.784   6.134   3.855
  114SOL     OW 1240   1.034   6.698   6.867
  114SOL    HW1 1241   1.041   6.798   6.868
  114SOL    HW2 1242   1.053   6.663   6.959
  115SOL     OW 1243   5.633   0.994   5.301
  115SOL    HW1 1244   5.659   0.940   5.381
  115SOL    HW2 1245   5.533   1.003   5.299
  116SOL     OW 1246   5.751   4.553   2.643
  116SOL    HW1 1247   5.718   4.645   2.621
  116SOL    HW2 1248   5.745   4.537   2.741
  117SOL     OW 1249   1.410   6.559   6.356
  117SOL    HW1 1250   1.412   6.659   6.353
  117SOL    HW2 1251   1.499   6.523   6.330
  118SOL     OW 1252   1.696   0.090   2.692
  118SOL    HW1 1253   1.715   0.175   2.741
  118SOL    HW2 1254   1.634   0.108   2.616
  119SOL     OW 1255   6.658   2.739   6.358
  119SOL    HW1 1256   6.750   2.776   6.352
  119SOL    HW2 1257   6.652   2.676   6.435
  120SOL     OW 1258   5.572   6.640   1.379
  120SOL    HW1 1259   5.558   6.546   1.347
  120SOL    HW2 1260   5.577   6.640   1.479
  121SOL     OW 1261   2.751   3.285   5.967
  121SOL    HW1 1262   2.804   3.320   5.889
  121SOL    HW2 1263   2.767   3.187   5.976
  122SOL     OW 1264   0.367   3.090   4.428
  122SOL    HW1 1265   0.300   3.115   4.358
  122SOL    HW2 1266   0.391   3.171   4.481
  123SOL     OW 1267   0.898   2.122   1.455
  123SOL    HW1 1268   0.857   2.141   1.366
  123SOL    HW2 1269   0.825   2.115   1.524
  124SOL     OW 1270   4.732   3.295   0.873
  124SOL    HW1 1271   4.770   3.332   0.788
  124SOL    HW2 1272   4.656   3.354   0.903
  125SOL     OW 1273   2.072   3.531   1.766
  125SOL    HW1 1274   2.141   3.509   1.835
  125SOL    HW2 1275   1.981   3.508   1.802
  126SOL     OW 1276   3.521   4.579   0.908
  126SOL    HW1 1277   3.454   4.596   0.980
  126SOL    HW2 1278   3.473   4.570   0.820
  127SOL     OW 1279   0.877   5.119   5.818
  127SOL    HW1 1280   0.974   5.133   5.841
  127SOL    HW2 1281   0.870   5.075   5.729
  128SOL     OW 1282   4.289   2.582   1.341
  128SOL    HW1 1283   4.250   2.644   1.409
  128SOL    HW2 1284   4.266   2.487   1.365
  129SOL     OW 1285   2.684   3.874   6.358
  129SOL    HW1 1286   2.745   3.914   6.290
  129SOL    HW2 1287   2.589   3.881   6.326
  130SOL     OW 1288   1.566   2.282   4.498
  130SOL    HW1 1289   1.494   2.232   4.450
  130SOL    HW2 1290   1.646   2.290   4.440
  131SOL     OW 1291   5.484   1.847   2.723
  131SOL    HW1 1292   5.476   1.843   2.823
  131SOL    HW2 1293   5.437   1.929   2.690
  132SOL     OW 1294   0.367   2.495   1.775
  132SOL    HW1 1295   0.363   2.482   1.874
  132SOL    HW2 1296   0.334   2.413   1.728
  133SOL     OW 1297   6.524   5.823   2.402
  133SOL    HW1 1298   6.460   5.785   2.335
  133SOL    HW2 1299   6.607   5.767   2.403
  134SOL     OW 1300   0.571   3.795   2.633
  134SOL    HW1 1301   0.636   3.837   2.570
  134SOL    HW2 1302   0.478   3.802   2.595
  135SOL     OW 1303   4.182   1.686   4.087
  135SOL    HW1 1304   4.227   1.634   4.014
  135SOL    HW2 1305   4.240   1.763   4.113
  136SOL     OW 1306   4.773   4.950   5.619
  136SOL    HW1 1307   4.798   4.974   5.525
  136SOL    HW2 1308   4.837   4.994   5.682
  137SOL     OW 1309   3.504   0.773   5.697
  137SOL    HW1 1310   3.433   0.808   5.636
  137SOL    HW2 1311   3.572   0.723   5.643
  138SOL     OW 1312   6.273   5.177   4.788
  138SOL    HW1 1313   6.272   5.272   4.817
  138SOL    HW2 1314   6.246   5.118   4.864
  139SOL     OW 1315   3.353   5.648   5.300
  139SOL    HW1 1316   3.287   5.643   5.375
  139SOL    HW2 1317   3.405   5.733   5.306
  140SOL     OW 1318   6.431   4.729   4.820
  140SOL    HW1 1319   6.413   4.767   4.911
  140SOL    HW2 1320   6.500   4.785   4.774
  141SOL     OW 1321   1.448   2.165   2.619
  141SOL    HW1 1322   1.414   2.239   2.677
  141SOL    HW2 1323   1.516   2.112   2.670
  142SOL     OW 1324   1.422   5.707   1.407
  142SOL    HW1 1325   1.447   5.629   1.464
  142SOL    HW2 1326   1.469   5.789   1.440
  143SOL     OW 1327   5.106   4.094   2.031
  143SOL    HW1 1328   5.026   4.040   2.003
  143SOL    HW2 1329   5.177   4.033   2.065
  144SOL     OW 1330   2.487   6.279   0.742
  144SOL    HW1 1331   2.425   6.335   0.796
  144SOL    HW2 1332   2.492   6.187   0.781
  145SOL     OW 1333   6.762   5.302   0.597
  145SOL    HW1 1334   6.725   5.222   0.550
  145SOL    HW2 1335   6.720   5.311   0.687
  146SOL     OW 1336   6.270   4.809   0.432
  146SOL    HW1 1337   6.239   4.819   0.527
  146SOL    HW2 1338   6.191   4.815   0.371
  147SOL     OW 1339   6.028   2.300   1.424
  147SOL    HW1 1340   5.932   2.303   1.450
  147SOL    HW2 1341   6.058   2.204   1.421
  148SOL     OW 1342   1.115   4.939   5.614
  148SOL    HW1 1343   1.120   5.021   5.557
  148SOL    HW2 1344   1.205   4.916   5.649
  149SOL     OW 1345   3.131   1.419   5.919
  149SOL    HW1 1346   3.034   1.403   5.939
  149SOL    HW2 1347   3.164   1.350   5.855
  150SOL     OW 1348   0.218   5.802   5.966
  150SOL    HW1 1349   0.211   5.850   5.878
  150SOL    HW2 1350   0.127   5.785   6.002
  151SOL     OW 1351   3.922   0.709   1.697
  151SOL    HW1 1352   3.849   0.723   1.630
  151SOL    HW2 1353   3.903   0.764   1.778
  152SOL     OW 1354   3.406   0.782   4.922
  152SOL    HW1 1355   3.444   0.875   4.921
  152SOL    HW2 1356   3.476   0.718   4.953
  153SOL     OW 1357   1.440   0.543   3.363
  153SOL    HW1 1358   1.430   0.559   3.265
  153SOL    HW2 1359   1.464   0.447   3.379
  154SOL     OW 1360   6.338   2.035   3.086
  154SOL    HW1 1361   6.254   1.994   3.121
  154SOL    HW2 1362   6.358   1.998   2.996
  155SOL     OW 1363   0.439   1.287   2.755
  155SOL    HW1 1364   0.342   1.276   2.736
  155SOL    HW2 1365   0.450   1.356   2.827
  156SOL     OW 1366   0.306   2.265   1.650
  156SOL    HW1 1367   0.352   2.184   1.688
  156SOL    HW2 1368   0.232   2.235   1.590
  157SOL     OW 1369   5.872   3.015   2.778
  157SOL    HW1 1370   5.968   3.002   2.753
  157SOL    HW2 1371   5.832   3.088   2.723
  158SOL     OW 1372   1.453   1.543   3.610
  158SOL    HW1 1373   1.363   1.536   3.567
  158SOL    HW2 1374   1.512   1.603   3.556
  159SOL     OW 1375   5.053   3.409   2.268
  159SOL    HW1 1376   5.030   3.365   2.181
  159SOL    HW2 1377   4.986   3.480   2.289
  160SOL     OW 1378   6.618   4.399   5.558
  160SOL    HW1 1379   6.606   4.413   5.656
  160SOL    HW2 1380   6.714   4.378   5.538
  161SOL     OW 1381   3.679   4.828   5.610
  161SOL    HW1 1382   3.687   4.920   5.648
  161SOL    HW2 1383   3.600   4.824   5.548
  162SOL     OW 1384   4.553   6.279   2.125
  162SOL    HW1 1385   4.643   6.321   2.109
  162SOL    HW2 1386   4.529   6.288   2.222
  163SOL     OW 1387   5.371   0.775   2.209
  163SOL    HW1 1388   5.363   0.728   2.297
  163SOL    HW2 1389   5.466   0.771   2.178
  164SOL     OW 1390   6.417   3.257   1.237
  164SOL    HW1 1391   6.461   3.332   1.285
  164SOL    HW2 1392   6.423   3.273   1.138
  165SOL     OW 1393   5.843   4.185   6.277
  165SOL    HW1 1394   5.815   4.089   6.283
  165SOL    HW2 1395   5.877   4.215   6.366
  166SOL     OW 1396   1.533   0.439   1.413
  166SOL    HW1 1397   1.489   0.495   1.343
  166SOL    HW2 1398   1.528   0.486   1.501
  167SOL     OW 1399   6.477   3.295   0.601
  167SOL    HW1 1400   6.387   3.337   0.605
  167SOL    HW2 1401   6.512   3.282   0.693
  168SOL     OW 1402   2.703   5.570   1.649
  168SOL    HW1 1403   2.768   5.573   1.726
  168SOL    HW2 1404   2.656   5.481   1.649
  169SOL     OW 1405   1.097   0.021   1.546
  169SOL    HW1 1406   1.058   0.020   1.454
  169SOL    HW2 1407   1.180   6.986   1.548
  170SOL     OW 1408   0.462   1.405   3.032
  170SOL    HW1 1409   0.365   1.428   3.042
  170SOL    HW2 1410   0.499   1.378   3.121
  171SOL     OW 1411   3.390   3.670   0.532
  171SOL    HW1 1412   3.377   3.673   0.433
  171SOL    HW2 1413   3.488   3.659   0.552
  172SOL     OW 1414   6.923   3.072   1.063
  172SOL    HW1 1415   6.889   3.017   0.987
  172SOL    HW2 1416   7.019   3.095   1.046
  173SOL     OW 1417   0.496   6.160   5.972
  173SOL    HW1 1418   0.485   6.247   6.020
  173SOL    HW2 1419   0.593   6.139   5.963
  174SOL     OW 1420   2.606   5.555   3.379
  174SOL    HW1 1421   2.607   5.523   3.284
  174SOL    HW2 1422   2.587   5.653   3.381
  175SOL     OW 1423   0.605   5.685   3.005
  175SOL    HW1 1424   0.663   5.764   3.022
  175SOL    HW2 1425   0.561   5.693   2.916
  176SOL     OW 1426   3.039   5.532   0.749
  176SOL    HW1 1427   3.050   5.481   0.664
  176SOL    HW2 1428   3.085   5.620   0.742
  177SOL     OW 1429   4.472   2.533   3.351
  177SOL    HW1 1430   4.455   2.533   3.253
  177SOL    HW2 1431   4.509   2.622   3.379
  178SOL     OW 1432   5.752   4.336   5.857
  178SOL    HW1 1433   5.727   4.355   5.952
  178SOL    HW2 1434   5.711   4.405   5.797
  179SOL     OW 1435   2.999   0.158   1.413
  179SOL    HW1 1436   3.073   0.091   1.413
  179SOL    HW2 1437   2.911   0.111   1.423
  180SOL     OW 1438   1.351   2.501   6.804
  180SOL    HW1 1439   1.276   2.443   6.838
  180SOL    HW2 1440   1.437   2.450   6.810
  181SOL     OW 1441   3.287   2.972   4.695
  181SOL    HW1 1442   3.280   2.975   4.595
  181SOL    HW2 1443   3.359   3.036   4.725
  182SOL     OW 1444   4.702   2.890   5.136
  182SOL    HW1 1445   4.761   2.815   5.106
  182SOL    HW2 1446   4.759   2.967   5.165
  183SOL     OW 1447   5.444   1.792   2.404
  183SOL    HW1 1448   5.477   1.886   2.403
  183SOL    HW2 1449   5.414   1.766   2.312
  184SOL     OW 1450   0.145   4.504   3.109
  184SOL    HW1 1451   0.094   4.439   3.051
  184SOL    HW2 1452   0.102   4.508   3.199
  185SOL     OW 1453   2.747   3.385   6.414
  185SOL    HW1 1454   2.683   3.311   6.393
  185SOL    HW2 1455   2.697   3.465   6.446
  186SOL     OW 1456   6.138   6.503   3.446
  186SOL    HW1 1457   6.120   6.423   3.503
  186SOL    HW2 1458   6.056   6.559   3.439
  187SOL     OW 1459   5.659   0.961   4.182
  187SOL    HW1 1460   5.756   0.961   4.157
  187SOL    HW2 1461   5.616   1.043   4.145
  188SOL     OW 1462   6.365   2.430   4.293
  188SOL    HW1 1463   6.304   2.438   4.372
  188SOL    HW2 1464   6.311   2.438   4.209
  189SOL     OW 1465   1.918   4.118   2.702
  189SOL    HW1 1466   1.937   4.044   2.638
  189SOL    HW2 1467   1.908   4.204   2.652
  190SOL     OW 1468   3.140   1.387   6.933
  190SOL    HW1 1469   3.129   1.289   6.953
  190SOL    HW2 1470   3.114   1.405   6.838
  191SOL     OW 1471   4.086   5.995   5.545
  191SOL    HW1 1472   4.015   6.049   5.499
  191SOL    HW2 1473   4.172   6.045   5.542
  192SOL     OW 1474   6.995   0.354   1.055
  192SOL    HW1 1475   0.066   0.336   1.018
  192SOL    HW2 1476   6.926   0.333   0.985
  193SOL     OW 1477   5.550   4.330   0.093
  193SOL    HW1 1478   5.494   4.377   0.025
  193SOL    HW2 1479   5.513   4.238   0.108
  194SOL     OW 1480   4.502   0.073   4.616
  194SOL    HW1 1481   4.524   0.160   4.660
  194SOL    HW2 1482   4.418   0.082   4.563
  195SOL     OW 1483   6.773   5.263   3.411
  195SOL    HW1 1484   6.695   5.200   3.416
  195SOL    HW2 1485   6.797   5.293   3.504
  196SOL     OW 1486   1.063   0.973   0.966
  196SOL    HW1 1487   0.968   0.981   0.937
  196SOL    HW2 1488   1.120   1.033   0.911
  197SOL     OW 1489   2.033   1.057   0.498
  197SOL    HW1 1490   1.964   1.128   0.509
  197SOL    HW2 1491   2.112   1.079   0.555
  198SOL     OW 1492   2.979   1.326   3.900
  198SOL    HW1 1493   2.975   1.423   3.875
  198SOL    HW2 1494   3.040   1.278   3.838
  199SOL     OW 1495   0.857   1.825   4.518
  199SOL    HW1 1496   0.857   1.914   4.471
  199SOL    HW2 1497   0.944   1.779   4.500
  200SOL     OW 1498   6.364   2.074   0.058
  200SOL    HW1 1499   6.375   2.031   0.147
  200SOL    HW2 1500   6.307   2.016   7.020
  201SOL     OW 1501   0.528   0.896   6.616
  201SOL    HW1 1502   0.513   0.932   6.524
  201SOL    HW2 1503   0.496   0.802   6.621
  202SOL     OW 1504   4.962   0.100   0.697
  202SOL    HW1 1505   4.977   0.014   0.649
  202SOL    HW2 1506   4.874   0.138   0.671
  203SOL     OW 1507   6.109   2.772   6.098
  203SOL    HW1 1508   6.028   2.813   6.140
  203SOL    HW2 1509   6.127   2.817   6.010
  204SOL     OW 1510   6.299   0.705   5.117
  204SOL    HW1 1511   6.338   0.785   5.070
  204SOL    HW2 1512   6.210   0.683   5.077
  205SOL     OW 1513   1.960   3.710   2.765
  205SOL    HW1 1514   1.888   3.779   2.776
  205SOL    HW2 1515   1.999   3.688   2.854
  206SOL     OW 1516   6.872   3.293   0.368
  206SOL    HW1 1517   6.833   3.333   0.286
  206SOL    HW2 1518   6.821   3.210   0.392
  207SOL     OW 1519   6.039   2.754   4.570
  207SOL    HW1 1520   6.115   2.813   4.544
  207SOL    HW2 1521   5.993   2.720   4.488
  208SOL     OW 1522   1.029   3.510   5.032
  208SOL    HW1 1523   1.094   3.466   4.969
  208SOL    HW2 1524   1.073   3.528   5.119
  209SOL     OW 1525   6.743   4.534   2.954
  209SOL    HW1 1526   6.683   4.521   2.875
  209SOL    HW2 1527   6.717   4.618   3.002
  210SOL     OW 1528   4.377   3.158   0.209
  210SOL    HW1 1529   4.453   3.217   0.183
  210SOL    HW2 1530   4.343   3.185   0.299
  211SOL     OW 1531   1.152   1.396   2.043
  211SOL    HW1 1532   1.098   1.315   2.066
  211SOL    HW2 1533   1.098   1.458   1.986
  212SOL     OW 1534   2.160   3.822   2.330
  212SOL    HW1 1535   2.185   3.893   2.264
  212SOL    HW2 1536   2.179   3.732   2.291
  213SOL     OW 1537   1.119   4.788   0.776
  213SOL    HW1 1538   1.043   4.850   0.760
  213SOL    HW2 1539   1.157   4.759   0.688
  214SOL     OW 1540   5.548   6.769   2.010
  214SOL    HW1 1541   5.640   6.769   2.048
  214SOL    HW2 1542   5.522   6.863   1.987
  215SOL     OW 1543   2.289   5.181   3.057
  215SOL    HW1 1544   2.354   5.185   2.980
  215SOL    HW2 1545   2.326   5.121   3.128
  216SOL     OW 1546   1.287   5.895   3.132
  216SOL    HW1 1547   1.381   5.877   3.104
  216SOL    HW2 1548   1.284   5.976   3.191
  217SOL     OW 1549   0.919   4.507   5.871
  217SOL    HW1 1550   0.824   4.476   5.878
  217SOL    HW2 1551   0.927   4.574   5.797
  218SOL     OW 1552   2.168   1.837   5.156
  218SOL    HW1 1553   2.183   1.894   5.075
  218SOL    HW2 1554   2.218   1.751   5.146
  219SOL     OW 1555   4.556   2.306   1.525
  219SOL    HW1 1556   4.516   2.341   1.609
  219SOL    HW2 1557   4.508   2.345   1.446
  220SOL     OW 1558   3.414   6.658   1.186
  220SOL    HW1 1559   3.507   6.620   1.188
  220SOL    HW2 1560   3.419   6.757   1.193
  221SOL     OW 1561   5.332   4.503   1.960
  221SOL    HW1 1562   5.360   4.569   1.891
  221SOL    HW2 1563   5.403   4.494   2.030
  222SOL     OW 1564   2.345   4.582   6.438
  222SOL    HW1 1565   2.247   4.572   6.459
  222SOL    HW2 1566   2.378   4.669   6.475
  223SOL     OW 1567   6.209   2.407   4.771
  223SOL    HW1 1568   6.273   2.469   4.816
  223SOL    HW2 1569   6.115   2.434   4.794
  224SOL     OW 1570   2.923   2.073   5.465
  224SOL    HW1 1571   2.936   2.081   5.366
  224SOL    HW2 1572   2.843   2.128   5.492
  225SOL     OW 1573   3.842   6.497   6.327
  225SOL    HW1 1574   3.778   6.427   6.357
  225SOL    HW2 1575   3.816   6.529   6.236
  226SOL     OW 1576   1.221   2.653   6.296
  226SOL    HW1 1577   1.187   2.743   6.324
  226SOL    HW2 1578   1.273   2.613   6.371
  227SOL     OW 1579   1.713   3.591   1.305
  227SOL    HW1 1580   1.686   3.624   1.395
  227SOL    HW2 1581   1.807   3.619   1.286
  228SOL     OW 1582   1.025   0.309   2.209
  228SOL    HW1 1583   0.986   0.391   2.251
  228SOL    HW2 1584   1.039   0.240   2.279
  229SOL     OW 1585   3.816   6.598   6.064
  229SOL    HW1 1586   3.807   6.612   5.965
  229SOL    HW2 1587   3.734   6.633   6.110
  230SOL     OW 1588   5.814   5.578   5.577
  230SOL    HW1 1589   5.812   5.479   5.560
  230SOL    HW2 1590   5.724   5.607   5.610
  231SOL     OW 1591   5.360   1.655   6.744
  231SOL    HW1 1592   5.425   1.676   6.818
  231SOL    HW2 1593   5.270   1.636   6.784
  232SOL     OW 1594   1.471   1.768   6.006
  232SOL    HW1 1595   1.380   1.729   6.019
  232SOL    HW2 1596   1.506   1.741   5.916
  233SOL     OW 1597   3.475   1.777   3.336
  233SOL    HW1 1598   3.510   1.772   3.243
  233SOL    HW2 1599   3.465   1.873   3.363
  234SOL     OW 1600   5.132   0.807   1.053
  234SOL    HW1 1601   5.081   0.810   0.968
  234SOL    HW2 1602   5.114   0.722   1.101
  235SOL     OW 1603   5.012   2.993   2.625
  235SOL    HW1 1604   4.921   2.981   2.665
  235SOL    HW2 1605   5.014   2.951   2.534
  236SOL     OW 1606   4.075   4.488   6.153
  236SOL    HW1 1607   4.163   4.499   6.107
  236SOL    HW2 1608   4.066   4.393   6.184
  237SOL     OW 1609   6.113   3.721   2.822
  237SOL    HW1 1610   6.202   3.728   2.778
  237SOL    HW2 1611   6.061   3.645   2.782
  238SOL     OW 1612   6.389   2.119   0.660
  238SOL    HW1 1613   6.353   2.031   0.628
  238SOL    HW2 1614   6.348   2.143   0.747
  239SOL     OW 1615   1.140   3.106   0.144
  239SOL    HW1 1616   1.193   3.030   0.105
  239SOL    HW2 1617   1.063   3.069   0.196
  240SOL     OW 1618   4.858   3.641   3.608
  240SOL    HW1 1619   4.787   3.573   3.591
  240SOL    HW2 1620   4.927   3.604   3.670
  241SOL     OW 1621   2.275   2.032   4.108
  241SOL    HW1 1622   2.329   2.094   4.049
  241SOL    HW2 1623   2.281   1.939   4.072
  242SOL     OW 1624   3.651   3.573   2.508
  242SOL    HW1 1625   3.639   3.474   2.518
  242SOL    HW2 1626   3.566   3.620   2.532
  243SOL     OW 1627   3.902   2.563   6.406
  243SOL    HW1 1628   3.888   2.528   6.499
  243SOL    HW2 1629   3.913   2.486   6.343
  244SOL     OW 1630   4.963   3.193   4.891
  244SOL    HW1 1631   4.949   3.290   4.911
  244SOL    HW2 1632   4.936   3.139   4.971
  245SOL     OW 1633   3.889   0.844   3.124
  245SOL    HW1 1634   3.884   0.937   3.160
  245SOL    HW2 1635   3.810   0.792   3.156
  246SOL     OW 1636   6.319   1.315   2.033
  246SOL    HW1 1637   6.370   1.301   2.118
  246SOL    HW2 1638   6.286   1.226   2.000
  247SOL     OW 1639   1.300   1.659   1.427
  247SOL    HW1 1640   1.384   1.635   1.475
  247SOL    HW2 1641   1.320   1.722   1.352
  248SOL     OW 1642   2.229   2.931   1.813
  248SOL    HW1 1643   2.258   3.022   1.785
  248SOL    HW2 1644   2.174   2.889   1.741
  249SOL     OW 1645   4.655   6.253   4.582
  249SOL    HW1 1646   4.702   6.304   4.510
  249SOL    HW2 1647   4.585   6.312   4.624
  250SOL     OW 1648   4.083   2.274   0.363
  250SOL    HW1 1649   4.012   2.313   0.421
  250SOL    HW2 1650   4.123   2.194   0.408
  251SOL     OW 1651   3.834   4.184   5.484
  251SOL    HW1 1652   3.920   4.168   5.532
  251SOL    HW2 1653   3.784   4.259   5.529
  252SOL     OW 1654   6.928   6.636   5.836
  252SOL    HW1 1655   6.883   6.699   5.899
  252SOL    HW2 1656   6.963   6.557   5.886
  253SOL     OW 1657   4.142   6.325   6.167
  253SOL    HW1 1658   4.127   6.421   6.142
  253SOL    HW2 1659   4.134   6.315   6.266
  254SOL     OW 1660   5.798   2.273   5.300
  254SOL    HW1 1661   5.834   2.239   5.387
  254SOL    HW2 1662   5.710   2.317   5.315
  255SOL     OW 1663   1.390   4.020   6.621
  255SOL    HW1 1664   1.345   4.054   6.703
  255SOL    HW2 1665   1.380   4.087   6.547
  256SOL     OW 1666   5.316   2.112   5.167
  256SOL    HW1 1667   5.272   2.183   5.221
  256SOL    HW2 1668   5.312   2.025   5.216
  257SOL     OW 1669   4.823   6.585   2.251
  257SOL    HW1 1670   4.738   6.586   2.304
  257SOL    HW2 1671   4.804   6.614   2.157
  258SOL     OW 1672   1.666   3.115   6.128
  258SOL    HW1 1673   1.597   3.137   6.058
  258SOL    HW2 1674   1.715   3.198   6.154
  259SOL     OW 1675   3.841   6.679   3.817
  259SOL    HW1 1676   3.757   6.682   3.871
  259SOL    HW2 1677   3.856   6.586   3.784
  260SOL     OW 1678   3.691   5.329   3.271
  260SOL    HW1 1679   3.697   5.421   3.311
  260SOL    HW2 1680   3.639   5.269   3.332
  261SOL     OW 1681   4.403   4.973   0.469
  261SOL    HW1 1682   4.358   4.937   0.551
  261SOL    HW2 1683   4.497   4.998   0.491
  262SOL     OW 1684   0.792   4.209   6.458
  262SOL    HW1 1685   0.715   4.145   6.454
  262SOL    HW2 1686   0.860   4.185   6.389
  263SOL     OW 1687   0.842   6.653   4.084
  263SOL    HW1 1688   0.891   6.729   4.127
  263SOL    HW2 1689   0.852   6.571   4.140
  264SOL     OW 1690   6.634   3.324   6.158
  264SOL    HW1 1691   6.657   3.410   6.204
  264SOL    HW2 1692   6.607   3.342   6.064
  265SOL     OW 1693   6.446   0.233   3.721
  265SOL    HW1 1694   6.348   0.213   3.725
  265SOL    HW2 1695   6.468   0.273   3.632
  266SOL     OW 1696   3.407   1.029   5.894
  266SOL    HW1 1697   3.492   1.072   5.863
  266SOL    HW2 1698   3.359   0.989   5.816
  267SOL     OW 1699   1.993   0.504   3.857
  267SOL    HW1 1700   1.970   0.413   3.822
  267SOL    HW2 1701   1.922   0.569   3.828
  268SOL     OW 1702   3.060   2.438   1.329
  268SOL    HW1 1703   3.144   2.468   1.375
  268SOL    HW2 1704   3.024   2.357   1.375
  269SOL     OW 1705   4.133   1.974   0.250
  269SOL    HW1 1706   4.160   2.007   0.160
  269SOL    HW2 1707   4.215   1.956   0.305
  270SOL     OW 1708   5.561   1.172   6.811
  270SOL    HW1 1709   5.499   1.250   6.809
  270SOL    HW2 1710   5.625   1.182   6.888
  271SOL     OW 1711   0.702   3.407   6.676
  271SOL    HW1 1712   0.735   3.489   6.629
  271SOL    HW2 1713   0.638   3.434   6.748
  272SOL     OW 1714   3.262   6.005   3.774
  272SOL    HW1 1715   3.303   6.096   3.760
  272SOL    HW2 1716   3.281   5.949   3.693
  273SOL     OW 1717   2.137   4.695   6.016
  273SOL    HW1 1718   2.210   4.728   5.956
  273SOL    HW2 1719   2.049   4.702   5.968
  274SOL     OW 1720   5.139   2.873   3.858
  274SOL    HW1 1721   5.080   2.798   3.886
  274SOL    HW2 1722   5.107   2.911   3.771
  275SOL     OW 1723   6.083   6.206   1.406
  275SOL    HW1 1724   6.126   6.290   1.371
  275SOL    HW2 1725   6.032   6.228   1.490
  276SOL     OW 1726   0.979   0.669   4.910
  276SOL    HW1 1727   0.997   0.722   4.992
  276SOL    HW2 1728   0.984   0.571   4.931
  277SOL     OW 1729   1.696   4.222   0.726
  277SOL    HW1 1730   1.687   4.235   0.825
  277SOL    HW2 1731   1.655   4.134   0.700
  278SOL     OW 1732   0.569   3.233   2.464
  278SOL    HW1 1733   0.652   3.178   2.473
  278SOL    HW2 1734   0.550   3.280   2.550
  279SOL     OW 1735   6.281   1.404   3.815
  279SOL    HW1 1736   6.355   1.468   3.794
  279SOL    HW2 1737   6.216   1.403   3.739
  280SOL     OW 1738   1.231   4.614   2.130
  280SOL    HW1 1739   1.309   4.666   2.095
  280SOL    HW2 1740   1.147   4.652   2.092
  281SOL     OW 1741   2.195   4.482   1.350
  281SOL    HW1 1742   2.265   4.539   1.394
  281SOL    HW2 1743   2.146   4.536   1.282
  282SOL     OW 1744   2.780   1.711   6.059
  282SOL    HW1 1745   2.785   1.775   6.136
  282SOL    HW2 1746   2.837   1.745   5.984
  283SOL     OW 1747   3.630   2.081   5.605
  283SOL    HW1 1748   3.565   2.152   5.580
  283SOL    HW2 1749   3.587   2.019   5.672
  284SOL     OW 1750   1.269   3.745   4.143
  284SOL    HW1 1751   1.270   3.710   4.049
  284SOL    HW2 1752   1.200   3.817   4.151
  285SOL     OW 1753   4.862   4.836   4.375
  285SOL    HW1 1754   4.847   4.927   4.414
  285SOL    HW2 1755   4.886   4.845   4.278
  286SOL     OW 1756   3.039   3.621   6.858
  286SOL    HW1 1757   3.067   3.542   6.914
  286SOL    HW2 1758   2.969   3.592   6.793
  287SOL     OW 1759   1.495   2.955   0.303
  287SOL    HW1 1760   1.535   3.006   0.227
  287SOL    HW2 1761   1.555   2.963   0.383
  288SOL     OW 1762   4.606   3.571   0.941
  288SOL    HW1 1763   4.527   3.515   0.916
  288SOL    HW2 1764   4.575   3.663   0.964
  289SOL     OW 1765   3.674   5.463   6.282
  289SOL    HW1 1766   3.650   5.366   6.292
  289SOL    HW2 1767   3.606   5.509   6.226
  290SOL     OW 1768   1.585   1.223   4.646
  290SOL    HW1 1769   1.638   1.296   4.688
  290SOL    HW2 1770   1.494   1.257   4.621
  291SOL     OW 1771   6.692   2.391   2.417
  291SOL    HW1 1772   6.737   2.303   2.407
  291SOL    HW2 1773   6.593   2.380   2.411
  292SOL     OW 1774   2.919   6.938   4.085
  292SOL    HW1 1775   2.933   6.861   4.022
  292SOL    HW2 1776   2.941   0.003   4.038
  293SOL     OW 1777   3.492   4.912   3.757
  293SOL    HW1 1778   3.562   4.857   3.711
  293SOL    HW2 1779   3.404   4.898   3.713
  294SOL     OW 1780   4.390   0.685   0.323
  294SOL    HW1 1781   4.459   0.671   0.253
  294SOL    HW2 1782   4.355   0.597   0.354
  295SOL     OW 1783   5.734   6.884   3.282
  295SOL    HW1 1784   5.674   6.927   3.216
  295SOL    HW2 1785   5.817   6.940   3.294
  296SOL     OW 1786   2.670   2.034   2.998
  296SOL    HW1 1787   2.669   2.072   2.905
  296SOL    HW2 1788   2.606   2.084   3.056
  297SOL     OW 1789   1.476   5.210   1.916
  297SOL    HW1 1790   1.486   5.293   1.970
  297SOL    HW2 1791   1.566   5.167   1.905
  298SOL     OW 1792   6.354   4.721   0.839
  298SOL    HW1 1793   6.271   4.763   0.803
  298SOL    HW2 1794   6.423   4.791   0.853
  299SOL     OW 1795   5.807   2.587   4.397
  299SOL    HW1 1796   5.711   2.587   4.367
  299SOL    HW2 1797   5.845   2.679   4.386
  300SOL     OW 1798   0.093   0.042   2.298
  300SOL    HW1 1799   0.098   6.963   2.313
  300SOL    HW2 1800   0.154   0.067   2.223
  301SOL     OW 1801   4.079   2.860   5.788
  301SOL    HW1 1802   4.111   2.845   5.881
  301SOL    HW2 1803   4.150   2.830   5.723
  302SOL     OW 1804   0.589   6.577   3.821
  302SOL    HW1 1805   0.666   6.513   3.832
  302SOL    HW2 1806   0.555   6.604   3.911
  303SOL     OW 1807   6.221   6.878   2.744
  303SOL    HW1 1808   6.179   6.961   2.708
  303SOL    HW2 1809   6.186   6.859   2.836
  304SOL     OW 1810   3.847   6.824   3.452
  304SOL    HW1 1811   3.913   6.779   3.393
  304SOL    HW2 1812   3.777   6.869   3.397
  305SOL     OW 1813   1.675   4.263   1.375
  305SOL    HW1 1814   1.661   4.176   1.422
  305SOL    HW2 1815   1.587   4.300   1.347
  306SOL     OW 1816   2.270   0.590   3.656
  306SOL    HW1 1817   2.203   0.646   3.609
  306SOL    HW2 1818   2.223   0.527   3.718
  307SOL     OW 1819   3.103   0.141   1.963
  307SOL    HW1 1820   3.115   0.237   1.937
  307SOL    HW2 1821   3.189   0.092   1.950
  308SOL     OW 1822   1.028   4.954   4.153
  308SOL    HW1 1823   1.117   4.989   4.180
  308SOL    HW2 1824   1.027   4.938   4.054
  309SOL     OW 1825   3.204   5.097   5.231
  309SOL    HW1 1826   3.190   5.052   5.143
  309SOL    HW2 1827   3.298   5.130   5.238
  310SOL     OW 1828   1.233   5.795   6.391
  310SOL    HW1 1829   1.224   5.841   6.480
  310SOL    HW2 1830   1.264   5.701   6.405
  311SOL     OW 1831   7.019   0.778   1.431
  311SOL    HW1 1832   0.029   0.688   1.398
  311SOL    HW2 1833   0.003   0.780   1.531
  312SOL     OW 1834   3.912   1.266   5.374
  312SOL    HW1 1835   3.886   1.325   5.297
  312SOL    HW2 1836   3.849   1.189   5.380
  313SOL     OW 1837   0.334   5.077   0.415
  313SOL    HW1 1838   0.434   5.080   0.413
  313SOL    HW2 1839   0.301   4.999   0.362
  314SOL     OW 1840   3.398   6.039   1.522
  314SOL    HW1 1841   3.463   6.053   1.597
  314SOL    HW2 1842   3.308   6.071   1.550
  315SOL     OW 1843   0.918   3.502   2.435
  315SOL    HW1 1844   0.915   3.438   2.512
  315SOL    HW2 1845   0.921   3.596   2.469
  316SOL     OW 1846   2.141   3.554   4.923
  316SOL    HW1 1847   2.195   3.544   5.007
  316SOL    HW2 1848   2.140   3.650   4.895
  317SOL     OW 1849   6.587   0.997   6.884
  317SOL    HW1 1850   6.669   0.940   6.880
  317SOL    HW2 1851   6.594   1.060   6.961
  318SOL     OW 1852   2.445   4.512   1.144
  318SOL    HW1 1853   2.448   4.431   1.202
  318SOL    HW2 1854   2.350   4.540   1.129
  319SOL     OW 1855   1.449   0.178   6.958
  319SOL    HW1 1856   1.503   0.233   6.894
  319SOL    HW2 1857   1.355   0.211   6.958
  320SOL     OW 1858   5.523   3.142   0.697
  320SOL    HW1 1859   5.606   3.199   0.696
  320SOL    HW2 1860   5.541   3.058   0.750
  321SOL     OW 1861   2.469   1.305   2.380
  321SOL    HW1 1862   2.492   1.249   2.300
  321SOL    HW2 1863   2.526   1.277   2.457
  322SOL     OW 1864   3.165   2.127   5.567
  322SOL    HW1 1865   3.067   2.123   5.548
  322SOL    HW2 1866   3.213   2.063   5.507
  323SOL     OW 1867   0.254   4.541   1.972
  323SOL    HW1 1868   0.325   4.568   2.037
  323SOL    HW2 1869   0.270   4.447   1.943
  324SOL     OW 1870   0.540   2.896   4.502
  324SOL    HW1 1871   0.485   2.979   4.493
  324SOL    HW2 1872   0.537   2.865   4.597
  325SOL     OW 1873   2.047   2.050   3.098
  325SOL    HW1 1874   2.061   2.000   3.183
  325SOL    HW2 1875   2.134   2.086   3.066
  326SOL     OW 1876   2.045   4.530   5.290
  326SOL    HW1 1877   1.983   4.510   5.214
  326SOL    HW2 1878   2.138   4.535   5.257
  327SOL     OW 1879   6.020   5.058   6.317
  327SOL    HW1 1880   6.027   5.155   6.339
  327SOL    HW2 1881   6.061   5.042   6.227
  328SOL     OW 1882   3.753   5.716   1.827
  328SOL    HW1 1883   3.724   5.774   1.751
  328SOL    HW2 1884   3.821   5.764   1.883
  329SOL     OW 1885   3.199   4.093   2.477
  329SOL    HW1 1886   3.296   4.116   2.472
  329SOL    HW2 1887   3.178   4.055   2.567
  330SOL     OW 1888   2.741   1.954   1.955
  330SOL    HW1 1889   2.781   2.011   1.883
  330SOL    HW2 1890   2.749   2.002   2.043
  331SOL     OW 1891   5.855   4.258   5.479
  331SOL    HW1 1892   5.901   4.229   5.562
  331SOL    HW2 1893   5.758   4.233   5.484
  332SOL     OW 1894   4.197   2.248   3.365
  332SOL    HW1 1895   4.295   2.261   3.380
  332SOL    HW2 1896   4.149   2.263   3.451
  333SOL     OW 1897   4.602   6.128   0.449
  333SOL    HW1 1898   4.536   6.199   0.429
  333SOL    HW2 1899   4.571   6.074   0.527
  334SOL     OW 1900   5.194   6.405   2.518
  334SOL    HW1 1901   5.248   6.322   2.501
  334SOL    HW2 1902   5.146   6.396   2.606
  335SOL     OW 1903   3.604   6.691   2.804
  335SOL    HW1 1904   3.579   6.651   2.892
  335SOL    HW2 1905   3.523   6.697   2.745
  336SOL     OW 1906   3.543   6.992   4.862
  336SOL    HW1 1907   3.534   6.982   4.961
  336SOL    HW2 1908   3.477   0.040   4.830
  337SOL     OW 1909   0.164   4.052   1.948
  337SOL    HW1 1910   0.249   4.069   1.997
  337SOL    HW2 1911   0.105   4.133   1.953
  338SOL     OW 1912   2.419   2.281   1.831
  338SOL    HW1 1913   2.506   2.331   1.828
  338SOL    HW2 1914   2.376   2.294   1.920
  339SOL     OW 1915   4.476   1.166   2.989
  339SOL    HW1 1916   4.466   1.190   2.893
  339SOL    HW2 1917   4.461   1.068   3.001
  340SOL     OW 1918   4.888   4.552   4.391
  340SOL    HW1 1919   4.799   4.519   4.423
  340SOL    HW2 1920   4.888   4.652   4.393
  341SOL     OW 1921   4.516   4.942   5.606
  341SOL    HW1 1922   4.614   4.937   5.627
  341SOL    HW2 1923   4.501   4.919   5.510
  342SOL     OW 1924   5.912   3.784   0.152
  342SOL    HW1 1925   5.882   3.693   0.123
  342SOL    HW2 1926   5.956   3.777   0.242
  343SOL     OW 1927   2.347   0.768   2.672
  343SOL    HW1 1928   2.338   0.672   2.646
  343SOL    HW2 1929   2.374   0.775   2.768
  344SOL     OW 1930   3.999   6.096   0.173
  344SOL    HW1 1931   3.995   6.195   0.157
  344SOL    HW2 1932   4.028   6.050   0.090
  345SOL     OW 1933   1.512   1.321   6.061
  345SOL    HW1 1934   1.433   1.275   6.102
  345SOL    HW2 1935   1.544   1.393   6.122
  346SOL     OW 1936   3.290   0.783   4.467
  346SOL    HW1 1937   3.244   0.756   4.552
  346SOL    HW2 1938   3.289   0.706   4.403
  347SOL     OW 1939   4.529   6.767   5.967
  347SOL    HW1 1940   4.505   6.734   6.058
  347SOL    HW2 1941   4.445   6.789   5.916
  348SOL     OW 1942   2.343   6.443   2.686
  348SOL    HW1 1943   2.333   6.369   2.753
  348SOL    HW2 1944   2.261   6.499   2.686
  349SOL     OW 1945   2.791   4.997   2.064
  349SOL    HW1 1946   2.873   4.944   2.045
  349SOL    HW2 1947   2.723   4.939   2.109
  350SOL     OW 1948   4.418   3.358   0.879
  350SOL    HW1 1949   4.407   3.285   0.811
  350SOL    HW2 1950   4.335   3.366   0.933
  351SOL     OW 1951   2.834   1.808   0.873
  351SOL    HW1 1952   2.755   1.866   0.853
  351SOL    HW2 1953   2.819   1.717   0.834
  352SOL     OW 1954   2.919   1.811   5.825
  352SOL    HW1 1955   2.874   1.894   5.792
  352SOL    HW2 1956   3.017   1.828   5.837
  353SOL     OW 1957   2.103   0.148   1.410
  353SOL    HW1 1958   2.168   0.223   1.396
  353SOL    HW2 1959   2.142   0.083   1.476
  354SOL     OW 1960   5.105   0.515   2.351
  354SOL    HW1 1961   5.050   0.580   2.298
  354SOL    HW2 1962   5.046   0.444   2.389
  355SOL     OW 1963   1.518   1.272   1.727
  355SOL    HW1 1964   1.515   1.189   1.671
  355SOL    HW2 1965   1.468   1.256   1.812
  356SOL     OW 1966   4.098   6.631   2.822
  356SOL    HW1 1967   4.016   6.627   2.765
  356SOL    HW2 1968   4.169   6.571   2.783
  357SOL     OW 1969   1.554   4.912   5.464
  357SOL    HW1 1970   1.619   4.980   5.498
  357SOL    HW2 1971   1.569   4.825   5.511
  358SOL     OW 1972   5.271   1.003   3.176
  358SOL    HW1 1973   5.181   1.025   3.214
  358SOL    HW2 1974   5.326   1.085   3.170
  359SOL     OW 1975   0.826   1.804   0.104
  359SOL    HW1 1976   0.828   1.779   0.201
  359SOL    HW2 1977   0.837   1.903   0.095
  360SOL     OW 1978   5.294   0.063   0.349
  360SOL    HW1 1979   5.305   0.046   0.447
  360SOL    HW2 1980   5.384   0.060   0.305
  361SOL     OW 1981   3.262   0.942   3.096
  361SOL    HW1 1982   3.288   1.018   3.156
  361SOL    HW2 1983   3.164   0.946   3.078
  362SOL     OW 1984   2.737   3.788   1.146
  362SOL    HW1 1985   2.777   3.812   1.057
  362SOL    HW2 1986   2.809   3.762   1.210
  363SOL     OW 1987   4.461   4.581   3.629
  363SOL    HW1 1988   4.514   4.598   3.712
  363SOL    HW2 1989   4.505   4.507   3.577
  364SOL     OW 1990   2.190   5.725   6.308
  364SOL    HW1 1991   2.282   5.747   6.277
  364SOL    HW2 1992   2.141   5.675   6.237
  365SOL     OW 1993   4.953   0.038   2.825
  365SOL    HW1 1994   4.940   0.126   2.872
  365SOL    HW2 1995   4.866   7.009   2.823
  366SOL     OW 1996   5.183   1.220   0.571
  366SOL    HW1 1997   5.162   1.291   0.504
  366SOL    HW2 1998   5.210   1.263   0.657
  367SOL     OW 1999   4.587   2.006   2.384
  367SOL    HW1 2000   4.682   1.977   2.385
  367SOL    HW2 2001   4.530   1.934   2.346
  368SOL     OW 2002   1.691   5.247   5.419
  368SOL    HW1 2003   1.674   5.201   5.332
  368SOL    HW2 2004   1.609   5.243   5.475
  369SOL     OW 2005   0.586   3.835   1.400
  369SOL    HW1 2006   0.510   3.791   1.351
  369SOL    HW2 2007   0.673   3.803   1.362
  370SOL     OW 2008   3.593   1.922   6.615
  370SOL    HW1 2009   3.656   1.978   6.669
  370SOL    HW2 2010   3.579   1.965   6.526
  371SOL     OW 2011   3.428   2.963   6.225
  371SOL    HW1 2012   3.522   2.996   6.231
  371SOL    HW2 2013   3.367   3.039   6.202
  372SOL     OW 2014   2.291   5.384   0.161
  372SOL    HW1 2015   2.220   5.371   0.092
  372SOL    HW2 2016   2.264   5.337   0.245
  373SOL     OW 2017   6.078   6.696   6.482
  373SOL    HW1 2018   6.001   6.640   6.454
  373SOL    HW2 2019   6.116   6.661   6.568
  374SOL     OW 2020   4.554   0.699   1.432
  374SOL    HW1 2021   4.595   0.723   1.344
  374SOL    HW2 2022   4.479   0.635   1.417
  375SOL     OW 2023   6.734   4.384   0.499
  375SOL    HW1 2024   6.636   4.389   0.517
  375SOL    HW2 2025   6.784   4.381   0.586
  376SOL     OW 2026   1.820   3.996   4.771
  376SOL    HW1 2027   1.910   4.034   4.753
  376SOL    HW2 2028   1.820   3.951   4.860
  377SOL     OW 2029   4.651   1.752   4.836
  377SOL    HW1 2030   4.596   1.698   4.773
  377SOL    HW2 2031   4.596   1.826   4.874
  378SOL     OW 2032   5.545   2.339   5.110
  378SOL    HW1 2033   5.479   2.279   5.157
  378SOL    HW2 2034   5.522   2.435   5.130
  379SOL     OW 2035   6.776   2.460   1.690
  379SOL    HW1 2036   6.858   2.403   1.700
  379SOL    HW2 2037   6.768   2.521   1.769
  380SOL     OW 2038   1.455   1.839   6.867
  380SOL    HW1 2039   1.429   1.746   6.845
  380SOL    HW2 2040   1.378   1.901   6.847
  381SOL     OW 2041   4.269   5.236   0.543
  381SOL    HW1 2042   4.219   5.246   0.457
  381SOL    HW2 2043   4.329   5.156   0.537
  382SOL     OW 2044   2.703   5.508   0.345
  382SOL    HW1 2045   2.659   5.562   0.417
  382SOL    HW2 2046   2.643   5.503   0.265
  383SOL     OW 2047   6.421   1.713   0.210
  383SOL    HW1 2048   6.428   1.809   0.237
  383SOL    HW2 2049   6.334   1.675   0.243
  384SOL     OW 2050   1.428   5.373   5.262
  384SOL    HW1 2051   1.377   5.344   5.180
  384SOL    HW2 2052   1.385   5.333   5.343
  385SOL     OW 2053   4.719   5.203   1.909
  385SOL    HW1 2054   4.643   5.152   1.948
  385SOL    HW2 2055   4.780   5.233   1.982
  386SOL     OW 2056   2.711   6.282   4.515
  386SOL    HW1 2057   2.682   6.235   4.432
  386SOL    HW2 2058   2.651   6.360   4.533
  387SOL     OW 2059   6.814   0.508   6.037
  387SOL    HW1 2060   6.909   0.532   6.056
  387SOL    HW2 2061   6.771   0.472   6.120
  388SOL     OW 2062   0.038   1.931   4.353
  388SOL    HW1 2063   0.045   1.863   4.427
  388SOL    HW2 2064   0.124   1.980   4.345
  389SOL     OW 2065   4.849   3.590   1.974
  389SOL    HW1 2066   4.886   3.499   1.956
  389SOL    HW2 2067   4.779   3.613   1.906
  390SOL     OW 2068   3.968   2.970   6.665
  390SOL    HW1 2069   3.977   3.065   6.638
  390SOL    HW2 2070   4.008   2.911   6.595
  391SOL     OW 2071   3.945   3.916   3.772
  391SOL    HW1 2072   4.024   3.869   3.810
  391SOL    HW2 2073   3.917   3.872   3.687
  392SOL     OW 2074   1.959   4.026   1.600
  392SOL    HW1 2075   1.963   4.083   1.517
  392SOL    HW2 2076   2.049   3.986   1.617
  393SOL     OW 2077   1.670   5.877   1.754
  393SOL    HW1 2078   1.622   5.917   1.676
  393SOL    HW2 2079   1.769   5.884   1.739
  394SOL     OW 2080   5.959   1.009   6.454
  394SOL    HW1 2081   6.057   1.008   6.436
  394SOL    HW2 2082   5.910   0.999   6.367
  395SOL     OW 2083   6.223   4.318   6.783
  395SOL    HW1 2084   6.256   4.412   6.788
  395SOL    HW2 2085   6.299   4.257   6.760
  396SOL     OW 2086   1.167   0.708   1.469
  396SOL    HW1 2087   1.079   0.752   1.449
  396SOL    HW2 2088   1.152   0.629   1.528
  397SOL     OW 2089   4.704   2.490   4.875
  397SOL    HW1 2090   4.666   2.572   4.831
  397SOL    HW2 2091   4.633   2.447   4.932
  398SOL     OW 2092   0.188   1.507   3.102
  398SOL    HW1 2093   0.155   1.558   3.022
  398SOL    HW2 2094   0.205   1.571   3.177
  399SOL     OW 2095   5.612   6.119   3.298
  399SOL    HW1 2096   5.648   6.123   3.391
  399SOL    HW2 2097   5.518   6.087   3.299
  400SOL     OW 2098   6.969   6.540   3.093
  400SOL    HW1 2099   6.880   6.504   3.121
  400SOL    HW2 2100   6.971   6.639   3.107
  401SOL     OW 2101   1.057   5.248   5.008
  401SOL    HW1 2102   1.156   5.252   5.016
  401SOL    HW2 2103   1.026   5.153   5.016
  402SOL     OW 2104   5.841   1.385   3.953
  402SOL    HW1 2105   5.869   1.480   3.966
  402SOL    HW2 2106   5.846   1.362   3.855
  403SOL     OW 2107   2.817   1.841   4.710
  403SOL    HW1 2108   2.765   1.789   4.642
  403SOL    HW2 2109   2.786   1.936   4.709
  404SOL     OW 2110   2.778   4.976   3.860
  404SOL    HW1 2111   2.698   4.919   3.878
  404SOL    HW2 2112   2.760   5.034   3.780
  405SOL     OW 2113   2.979   4.846   3.988
  405SOL    HW1 2114   2.956   4.796   4.071
  405SOL    HW2 2115   2.901   4.901   3.958
  406SOL     OW 2116   0.571   6.893   6.547
  406SOL    HW1 2117   0.474   6.891   6.573
  406SOL    HW2 2118   0.588   6.829   6.472
  407SOL     OW 2119   2.114   3.663   3.866
  407SOL    HW1 2120   2.135   3.565   3.862
  407SOL    HW2 2121   2.121   3.695   3.961
  408SOL     OW 2122   2.645   2.376   2.205
  408SOL    HW1 2123   2.730   2.343   2.162
  408SOL    HW2 2124   2.660   2.386   2.303
  409SOL     OW 2125   0.211   2.772   2.700
  409SOL    HW1 2126   0.192   2.674   2.692
  409SOL    HW2 2127   0.202   2.815   2.610
  410SOL     OW 2128   1.891   3.115   2.007
  410SOL    HW1 2129   1.820   3.158   2.063
  410SOL    HW2 2130   1.980   3.156   2.029
  411SOL     OW 2131   7.005   1.597   0.575
  411SOL    HW1 2132   0.039   1.633   0.651
  411SOL    HW2 2133   0.024   1.628   0.488
  412SOL     OW 2134   1.611   4.816   2.484
  412SOL    HW1 2135   1.532   4.764   2.517
  412SOL    HW2 2136   1.582   4.878   2.411
  413SOL     OW 2137   6.104   4.805   1.810
  413SOL    HW1 2138   6.194   4.763   1.806
  413SOL    HW2 2139   6.071   4.821   1.716
  414SOL     OW 2140   2.425   6.798   3.373
  414SOL    HW1 2141   2.345   6.856   3.354
  414SOL    HW2 2142   2.508   6.853   3.364
  415SOL     OW 2143   5.748   2.158   0.216
  415SOL    HW1 2144   5.777   2.243   0.259
  415SOL    HW2 2145   5.794   2.148   0.127
  416SOL     OW 2146   5.710   3.280   6.149
  416SOL    HW1 2147   5.752   3.262   6.238
  416SOL    HW2 2148   5.780   3.308   6.084
  417SOL     OW 2149   2.221   2.373   5.610
  417SOL    HW1 2150   2.145   2.418   5.563
  417SOL    HW2 2151   2.198   2.278   5.630
  418SOL     OW 2152   3.593   6.011   5.915
  418SOL    HW1 2153   3.504   6.045   5.883
  418SOL    HW2 2154   3.633   6.077   5.978
  419SOL     OW 2155   5.391   0.933   6.767
  419SOL    HW1 2156   5.460   1.004   6.784
  419SOL    HW2 2157   5.416   0.850   6.816
  420SOL     OW 2158   3.267   6.595   0.914
  420SOL    HW1 2159   3.347   6.653   0.932
  420SOL    HW2 2160   3.288   6.501   0.942
  421SOL     OW 2161   4.941   4.035   2.774
  421SOL    HW1 2162   4.975   4.040   2.680
  421SOL    HW2 2163   4.848   4.072   2.778
  422SOL     OW 2164   3.977   1.870   1.946
  422SOL    HW1 2165   4.063   1.898   1.904
  422SOL    HW2 2166   3.925   1.951   1.974
  423SOL     OW 2167   3.337   1.289   6.371
  423SOL    HW1 2168   3.346   1.230   6.452
  423SOL    HW2 2169   3.262   1.354   6.385
  424SOL     OW 2170   1.581   3.943   4.625
  424SOL    HW1 2171   1.679   3.931   4.638
  424SOL    HW2 2172   1.561   4.040   4.611
  425SOL     OW 2173   3.368   1.213   0.258
  425SOL    HW1 2174   3.441   1.155   0.293
  425SOL    HW2 2175   3.283   1.160   0.251
  426SOL     OW 2176   2.386   2.120   3.776
  426SOL    HW1 2177   2.445   2.084   3.848
  426SOL    HW2 2178   2.441   2.146   3.697
  427SOL     OW 2179   4.531   1.516   4.033
  427SOL    HW1 2180   4.456   1.577   4.005
  427SOL    HW2 2181   4.611   1.571   4.057
  428SOL     OW 2182   2.517   2.117   6.522
  428SOL    HW1 2183   2.512   2.019   6.503
  428SOL    HW2 2184   2.569   2.132   6.606
  429SOL     OW 2185   0.108   6.298   3.515
  429SOL    HW1 2186   0.203   6.268   3.520
  429SOL    HW2 2187   0.105   6.396   3.494
  430SOL     OW 2188   2.261   1.167   3.321
  430SOL    HW1 2189   2.231   1.202   3.232
  430SOL    HW2 2190   2.298   1.242   3.376
  431SOL     OW 2191   2.823   0.880   1.819
  431SOL    HW1 2192   2.790   0.972   1.838
  431SOL    HW2 2193   2.904   0.885   1.760
  432SOL     OW 2194   5.098   1.836   1.302
  432SOL    HW1 2195   5.049   1.870   1.382
  432SOL    HW2 2196   5.188   1.802   1.329
  433SOL     OW 2197   2.078   4.371   0.458
  433SOL    HW1 2198   2.119   4.321   0.382
  433SOL    HW2 2199   2.113   4.465   0.458
  434SOL     OW 2200   4.116   5.688   2.591
  434SOL    HW1 2201   4.082   5.594   2.594
  434SOL    HW2 2202   4.057   5.747   2.645
  435SOL     OW 2203   3.088   2.563   6.247
  435SOL    HW1 2204   3.137   2.497   6.191
  435SOL    HW2 2205   2.989   2.548   6.237
  436SOL     OW 2206   5.545   6.470   2.181
  436SOL    HW1 2207   5.476   6.490   2.111
  436SOL    HW2 2208   5.610   6.545   2.187
  437SOL     OW 2209   0.025   0.769   5.387
  437SOL    HW1 2210   0.039   0.707   5.309
  437SOL    HW2 2211   6.955   0.752   5.426
  438SOL     OW 2212   0.785   4.142   2.226
  438SOL    HW1 2213   0.840   4.064   2.198
  438SOL    HW2 2214   0.844   4.213   2.265
  439SOL     OW 2215   0.589   0.709   6.151
  439SOL    HW1 2216   0.663   0.764   6.112
  439SOL    HW2 2217   0.628   0.640   6.211
  440SOL     OW 2218   3.587   1.874   1.070
  440SOL    HW1 2219   3.657   1.807   1.043
  440SOL    HW2 2220   3.624   1.934   1.140
  441SOL     OW 2221   0.414   4.999   2.424
  441SOL    HW1 2222   0.452   4.930   2.486
  441SOL    HW2 2223   0.341   4.958   2.369
  442SOL     OW 2224   3.614   3.241   4.938
  442SOL    HW1 2225   3.647   3.320   4.887
  442SOL    HW2 2226   3.682   3.168   4.934
  443SOL     OW 2227   4.683   2.705   2.947
  443SOL    HW1 2228   4.735   2.623   2.971
  443SOL    HW2 2229   4.667   2.760   3.029
  444SOL     OW 2230   4.349   2.663   1.091
  444SOL    HW1 2231   4.341   2.636   1.186
  444SOL    HW2 2232   4.446   2.664   1.064
  445SOL     OW 2233   2.406   5.437   2.868
  445SOL    HW1 2234   2.389   5.380   2.788
  445SOL    HW2 2235   2.384   5.533   2.847
  446SOL     OW 2236   6.250   7.011   0.856
  446SOL    HW1 2237   6.208   6.998   0.766
  446SOL    HW2 2238   6.250   0.087   0.879
  447SOL     OW 2239   5.913   3.668   6.782
  447SOL    HW1 2240   5.984   3.682   6.713
  447SOL    HW2 2241   5.877   3.757   6.811
  448SOL     OW 2242   3.336   6.325   3.875
  448SOL    HW1 2243   3.393   6.273   3.939
  448SOL    HW2 2244   3.241   6.325   3.907
  449SOL     OW 2245   0.624   3.941   4.679
  449SOL    HW1 2246   0.637   3.937   4.778
  449SOL    HW2 2247   0.527   3.957   4.659
  450SOL     OW 2248   6.870   4.211   2.925
  450SOL    HW1 2249   6.776   4.228   2.894
  450SOL    HW2 2250   6.915   4.299   2.941
  451SOL     OW 2251   2.198   1.907   0.182
  451SOL    HW1 2252   2.168   1.990   0.229
  451SOL    HW2 2253   2.268   1.931   0.114
  452SOL     OW 2254   4.086   5.507   1.876
  452SOL    HW1 2255   4.075   5.427   1.936
  452SOL    HW2 2256   4.043   5.489   1.788
  453SOL     OW 2257   4.704   0.691   0.322
  453SOL    HW1 2258   4.796   0.669   0.289
  453SOL    HW2 2259   4.637   0.639   0.268
  454SOL     OW 2260   6.884   3.349   4.002
  454SOL    HW1 2261   6.805   3.288   3.992
  454SOL    HW2 2262   6.968   3.295   3.996
  455SOL     OW 2263   5.452   5.307   6.911
  455SOL    HW1 2264   5.541   5.308   6.866
  455SOL    HW2 2265   5.462   5.336   7.006
  456SOL     OW 2266   1.522   0.691   3.106
  456SOL    HW1 2267   1.544   0.654   3.015
  456SOL    HW2 2268   1.606   0.711   3.155
  457SOL     OW 2269   2.889   5.896   0.224
  457SOL    HW1 2270   2.929   5.816   0.269
  457SOL    HW2 2271   2.845   5.954   0.292
  458SOL     OW 2272   3.439   1.161   3.627
  458SOL    HW1 2273   3.430   1.228   3.701
  458SOL    HW2 2274   3.491   1.082   3.660
  459SOL     OW 2275   2.427   0.992   3.146
  459SOL    HW1 2276   2.411   1.066   3.211
  459SOL    HW2 2277   2.506   1.014   3.089
  460SOL     OW 2278   0.893   1.715   6.721
  460SOL    HW1 2279   0.948   1.634   6.737
  460SOL    HW2 2280   0.952   1.791   6.695
  461SOL     OW 2281   1.200   0.002   5.633
  461SOL    HW1 2282   1.298   7.002   5.642
  461SOL    HW2 2283   1.161   0.017   5.724
  462SOL     OW 2284   3.693   3.953   4.921
  462SOL    HW1 2285   3.632   3.929   4.996
  462SOL    HW2 2286   3.787   3.927   4.945
  463SOL     OW 2287   5.194   6.209   2.854
  463SOL    HW1 2288   5.150   6.121   2.838
  463SOL    HW2 2289   5.136   6.282   2.817
  464SOL     OW 2290   4.256   6.248   5.094
  464SOL    HW1 2291   4.214   6.254   5.004
  464SOL    HW2 2292   4.302   6.334   5.116
  465SOL     OW 2293   0.088   4.911   6.968
  465SOL    HW1 2294   0.123   4.837   6.911
  465SOL    HW2 2295   0.145   4.920   0.029
  466SOL     OW 2296   3.740   4.882   4.273
  466SOL    HW1 2297   3.714   4.941   4.349
  466SOL    HW2 2298   3.811   4.818   4.303
  467SOL     OW 2299   6.567   6.969   1.548
  467SOL    HW1 2300   6.548   0.045   1.564
  467SOL    HW2 2301   6.592   6.925   1.634
  468SOL     OW 2302   2.441   5.850   6.246
  468SOL    HW1 2303   2.531   5.839   6.203
  468SOL    HW2 2304   2.448   5.916   6.320
  469SOL     OW 2305   3.280   4.535   5.347
  469SOL    HW1 2306   3.217   4.457   5.341
  469SOL    HW2 2307   3.230   4.619   5.323
  470SOL     OW 2308   1.993   5.278   2.199
  470SOL    HW1 2309   2.028   5.331   2.276
  470SOL    HW2 2310   1.942   5.199   2.232
  471SOL     OW 2311   1.504   1.755   4.178
  471SOL    HW1 2312   1.521   1.821   4.251
  471SOL    HW2 2313   1.584   1.697   4.167
  472SOL     OW 2314   5.568   4.270   6.426
  472SOL    HW1 2315   5.666   4.251   6.432
  472SOL    HW2 2316   5.548   4.356   6.474
  473SOL     OW 2317   5.541   2.912   2.250
  473SOL    HW1 2318   5.523   2.870   2.161
  473SOL    HW2 2319   5.563   2.841   2.317
  474SOL     OW 2320   4.862   5.407   3.316
  474SOL    HW1 2321   4.768   5.421   3.348
  474SOL    HW2 2322   4.886   5.481   3.252
  475SOL     OW 2323   4.743   1.503   0.339
  475SOL    HW1 2324   4.824   1.561   0.353
  475SOL    HW2 2325   4.748   1.424   0.399
  476SOL     OW 2326   0.836   3.295   0.219
  476SOL    HW1 2327   0.892   3.331   0.294
  476SOL    HW2 2328   0.805   3.371   0.161
  477SOL     OW 2329   6.564   5.327   3.684
  477SOL    HW1 2330   6.526   5.419   3.697
  477SOL    HW2 2331   6.663   5.333   3.671
  478SOL     OW 2332   6.403   5.267   2.551
  478SOL    HW1 2333   6.396   5.342   2.616
  478SOL    HW2 2334   6.481   5.208   2.575
  479SOL     OW 2335   3.235   3.472   2.856
  479SOL    HW1 2336   3.174   3.427   2.921
  479SOL    HW2 2337   3.307   3.520   2.906
  480SOL     OW 2338   0.741   0.986   1.534
  480SOL    HW1 2339   0.730   0.986   1.633
  480SOL    HW2 2340   0.654   1.007   1.490
  481SOL     OW 2341   5.788   5.908   0.993
  481SOL    HW1 2342   5.761   5.833   0.932
  481SOL    HW2 2343   5.822   5.984   0.939
  482SOL     OW 2344   3.912   5.150   2.705
  482SOL    HW1 2345   3.814   5.157   2.725
  482SOL    HW2 2346   3.926   5.141   2.607
  483SOL     OW 2347   6.401   0.707   4.078
  483SOL    HW1 2348   6.390   0.739   4.172
  483SOL    HW2 2349   6.392   0.784   4.015
  484SOL     OW 2350   2.127   4.775   3.304
  484SOL    HW1 2351   2.161   4.707   3.368
  484SOL    HW2 2352   2.049   4.824   3.345
  485SOL     OW 2353   4.919   2.668   0.811
  485SOL    HW1 2354   4.960   2.656   0.720
  485SOL    HW2 2355   4.990   2.694   0.876
  486SOL     OW 2356   6.073   6.399   5.390
  486SOL    HW1 2357   6.110   6.471   5.449
  486SOL    HW2 2358   6.148   6.342   5.357
  487SOL     OW 2359   7.004   0.673   6.400
  487SOL    HW1 2360   6.923   0.694   6.455
  487SOL    HW2 2361   0.001   0.575   6.402
  488SOL     OW 2362   1.918   5.653   3.070
  488SOL    HW1 2363   1.994   5.653   3.135
  488SOL    HW2 2364   1.906   5.561   3.033
  489SOL     OW 2365   2.799   4.617   5.413
  489SOL    HW1 2366   2.775   4.714   5.418
  489SOL    HW2 2367   2.840   4.598   5.323
  490SOL     OW 2368   1.434   3.444   4.914
  490SOL    HW1 2369   1.490   3.485   4.843
  490SOL    HW2 2370   1.489   3.378   4.967
  491SOL     OW 2371   5.997   3.659   0.979
  491SOL    HW1 2372   6.070   3.599   1.010
  491SOL    HW2 2373   6.033   3.751   0.966
  492SOL     OW 2374   1.584   2.534   5.757
  492SOL    HW1 2375   1.539   2.598   5.695
  492SOL    HW2 2376   1.538   2.446   5.754
  493SOL     OW 2377   1.697   5.590   3.510
  493SOL    HW1 2378   1.759   5.573   3.587
  493SOL    HW2 2379   1.716   5.681   3.472
  494SOL     OW 2380   2.906   0.212   4.058
  494SOL    HW1 2381   2.972   0.222   4.132
  494SOL    HW2 2382   2.817   0.188   4.096
  495SOL     OW 2383   3.738   4.941   0.065
  495SOL    HW1 2384   3.805   4.978   0.129
  495SOL    HW2 2385   3.651   4.928   0.113
  496SOL     OW 2386   5.150   0.827   3.004
  496SOL    HW1 2387   5.099   0.768   3.067
  496SOL    HW2 2388   5.198   0.897   3.056
  497SOL     OW 2389   4.626   2.727   0.793
  497SOL    HW1 2390   4.557   2.676   0.741
  497SOL    HW2 2391   4.717   2.697   0.764
  498SOL     OW 2392   0.328   0.313   1.122
  498SOL    HW1 2393   0.417   0.345   1.156
  498SOL    HW2 2394   0.342   0.253   1.043
  499SOL     OW 2395   2.862   7.014   6.730
  499SOL    HW1 2396   2.811   6.929   6.718
  499SOL    HW2 2397   2.843   0.033   6.820
  500SOL     OW 2398   5.887   1.758   6.545
  500SOL    HW1 2399   5.818   1.826   6.520
  500SOL    HW2 2400   5.865   1.671   6.500
  501SOL     OW 2401   1.556   1.931   4.362
  501SOL    HW1 2402   1.621   1.922   4.438
  501SOL    HW2 2403   1.474   1.979   4.395
  502SOL     OW 2404   2.488   3.299   6.825
  502SOL    HW1 2405   2.539   3.218   6.796
  502SOL    HW2 2406   2.533   3.381   6.789
  503SOL     OW 2407   3.945   4.947   1.228
  503SOL    HW1 2408   3.869   4.894   1.266
  503SOL    HW2 2409   4.002   4.888   1.171
  504SOL     OW 2410   6.337   6.903   0.180
  504SOL    HW1 2411   6.396   6.984   0.184
  504SOL    HW2 2412   6.267   6.910   0.251
  505SOL     OW 2413   6.436   3.843   5.629
  505SOL    HW1 2414   6.418   3.940   5.611
  505SOL    HW2 2415   6.492   3.835   5.712
  506SOL     OW 2416   2.666   5.510   2.386
  506SOL    HW1 2417   2.674   5.438   2.455
  506SOL    HW2 2418   2.673   5.470   2.295
  507SOL     OW 2419   3.035   6.958   3.112
  507SOL    HW1 2420   3.064   6.902   3.035
  507SOL    HW2 2421   3.085   0.024   3.112
  508SOL     OW 2422   0.528   5.206   3.759
  508SOL    HW1 2423   0.475   5.241   3.682
  508SOL    HW2 2424   0.481   5.128   3.799
  509SOL     OW 2425   4.227   0.377   5.916
  509SOL    HW1 2426   4.207   0.329   5.831
  509SOL    HW2 2427   4.296   0.448   5.899
  510SOL     OW 2428   6.673   4.524   6.736
  510SOL    HW1 2429   6.603   4.582   6.694
  510SOL    HW2 2430   6.751   4.580   6.764
  511SOL     OW 2431   0.965   1.083   0.074
  511SOL    HW1 2432   1.052   1.034   0.079
  511SOL    HW2 2433   0.922   1.066   7.005
  512SOL     OW 2434   1.070   1.919   4.089
  512SOL    HW1 2435   1.005   1.843   4.092
  512SOL    HW2 2436   1.061   1.974   4.172
  513SOL     OW 2437   5.607   6.217   2.778
  513SOL    HW1 2438   5.509   6.233   2.773
  513SOL    HW2 2439   5.656   6.302   2.757
  514SOL     OW 2440   4.648   1.584   4.611
  514SOL    HW1 2441   4.746   1.575   4.625
  514SOL    HW2 2442   4.603   1.498   4.633
  515SOL     OW 2443   3.293   0.788   0.195
  515SOL    HW1 2444   3.389   0.779   0.167
  515SOL    HW2 2445   3.281   0.743   0.283
  516SOL     OW 2446   0.828   5.957   2.065
  516SOL    HW1 2447   0.912   5.956   2.011
  516SOL    HW2 2448   0.835   6.026   2.137
  517SOL     OW 2449   3.388   4.507   1.145
  517SOL    HW1 2450   3.323   4.446   1.189
  517SOL    HW2 2451   3.339   4.588   1.111
  518SOL     OW 2452   2.545   6.238   3.563
  518SOL    HW1 2453   2.588   6.179   3.631
  518SOL    HW2 2454   2.605   6.314   3.540
  519SOL     OW 2455   6.795   0.645   2.718
  519SOL    HW1 2456   6.849   0.605   2.793
  519SOL    HW2 2457   6.835   0.619   2.630
  520SOL     OW 2458   2.657   5.759   0.984
  520SOL    HW1 2459   2.666   5.802   1.074
  520SOL    HW2 2460   2.743   5.715   0.959
  521SOL     OW 2461   6.760   6.130   5.441
  521SOL    HW1 2462   6.832   6.199   5.433
  521SOL    HW2 2463   6.688   6.150   5.373
  522SOL     OW 2464   3.641   4.786   6.806
  522SOL    HW1 2465   3.648   4.851   6.881
  522SOL    HW2 2466   3.648   4.834   6.719
  523SOL     OW 2467   1.741   6.911   6.035
  523SOL    HW1 2468   1.766   6.830   6.089
  523SOL    HW2 2469   1.803   6.919   5.957
  524SOL     OW 2470   6.912   0.881   0.658
  524SOL    HW1 2471   6.859   0.916   0.580
  524SOL    HW2 2472   6.850   0.848   0.729
  525SOL     OW 2473   0.992   3.724   3.505
  525SOL    HW1 2474   0.925   3.687   3.570
  525SOL    HW2 2475   1.076   3.748   3.554
  526SOL     OW 2476   3.848   6.626   4.768
  526SOL    HW1 2477   3.947   6.610   4.770
  526SOL    HW2 2478   3.828   6.702   4.707
  527SOL     OW 2479   0.202   0.988   1.027
  527SOL    HW1 2480   0.169   0.894   1.029
  527SOL    HW2 2481   0.287   0.992   0.975
  528SOL     OW 2482   6.747   1.367   4.469
  528SOL    HW1 2483   6.658   1.407   4.490
  528SOL    HW2 2484   6.735   1.270   4.447
  529SOL     OW 2485   1.243   1.306   5.841
  529SOL    HW1 2486   1.193   1.382   5.882
  529SOL    HW2 2487   1.336   1.304   5.877
  530SOL     OW 2488   3.214   4.508   1.604
  530SOL    HW1 2489   3.263   4.425   1.578
  530SOL    HW2 2490   3.277   4.572   1.649
  531SOL     OW 2491   0.499   0.938   6.351
  531SOL    HW1 2492   0.458   0.949   6.260
  531SOL    HW2 2493   0.591   0.900   6.343
  532SOL     OW 2494   3.426   0.877   6.748
  532SOL    HW1 2495   3.355   0.861   6.816
  532SOL    HW2 2496   3.495   0.939   6.785
  533SOL     OW 2497   4.493   6.915   4.835
  533SOL    HW1 2498   4.533   6.823   4.828
  533SOL    HW2 2499   4.485   6.955   4.744
  534SOL     OW 2500   2.032   3.945   1.889
  534SOL    HW1 2501   2.019   4.039   1.859
  534SOL    HW2 2502   2.073   3.891   1.816
  535SOL     OW 2503   4.326   4.598   4.119
  535SOL    HW1 2504   4.385   4.532   4.072
  535SOL    HW2 2505   4.277   4.652   4.050
  536SOL     OW 2506   6.291   6.352   1.055
  536SOL    HW1 2507   6.318   6.272   1.109
  536SOL    HW2 2508   6.320   6.435   1.103
  537SOL     OW 2509   3.214   1.881   2.527
  537SOL    HW1 2510   3.246   1.930   2.446
  537SOL    HW2 2511   3.191   1.787   2.502
  538SOL     OW 2512   4.130   4.488   5.330
  538SOL    HW1 2513   4.034   4.516   5.317
  538SOL    HW2 2514   4.174   4.480   5.240
  539SOL     OW 2515   2.561   0.357   6.887
  539SOL    HW1 2516   2.554   0.293   6.963
  539SOL    HW2 2517   2.490   0.427   6.894
  540SOL     OW 2518   2.229   1.319   5.205
  540SOL    HW1 2519   2.292   1.243   5.193
  540SOL    HW2 2520   2.137   1.284   5.225
  541SOL     OW 2521   4.782   6.096   3.029
  541SOL    HW1 2522   4.699   6.116   3.082
  541SOL    HW2 2523   4.854   6.062   3.090
  542SOL     OW 2524   3.823   6.052   5.663
  542SOL    HW1 2525   3.859   6.125   5.721
  542SOL    HW2 2526   3.899   5.998   5.627
  543SOL     OW 2527   6.508   2.082   4.781
  543SOL    HW1 2528   6.410   2.100   4.778
  543SOL    HW2 2529   6.557   2.156   4.736
  544SOL     OW 2530   0.581   2.789   0.921
  544SOL    HW1 2531   0.624   2.728   0.987
  544SOL    HW2 2532   0.652   2.841   0.872
  545SOL     OW 2533   6.704   5.031   0.561
  545SOL    HW1 2534   6.620   5.061   0.517
  545SOL    HW2 2535   6.778   5.030   0.495
  546SOL     OW 2536   6.949   5.128   2.188
  546SOL    HW1 2537   7.009   5.191   2.239
  546SOL    HW2 2538   6.854   5.151   2.206
  547SOL     OW 2539   3.991   6.971   6.722
  547SOL    HW1 2540   3.979   6.872   6.713
  547SOL    HW2 2541   4.086   6.995   6.703
  548SOL     OW 2542   4.011   2.459   0.149
  548SOL    HW1 2543   4.028   2.391   0.220
  548SOL    HW2 2544   4.073   2.537   0.162
  549SOL     OW 2545   5.328   2.611   3.862
  549SOL    HW1 2546   5.277   2.635   3.944
  549SOL    HW2 2547   5.270   2.622   3.781
  550SOL     OW 2548   6.786   5.795   3.478
  550SOL    HW1 2549   6.727   5.779   3.400
  550SOL    HW2 2550   6.731   5.821   3.558
  551SOL     OW 2551   5.205   0.764   0.322
  551SOL    HW1 2552   5.226   0.818   0.403
  551SOL    HW2 2553   5.194   0.825   0.244
  552SOL     OW 2554   0.351   0.146   4.779
  552SOL    HW1 2555   0.261   0.116   4.747
  552SOL    HW2 2556   0.355   0.246   4.778
  553SOL     OW 2557   3.503   2.500   5.520
  553SOL    HW1 2558   3.568   2.560   5.566
  553SOL    HW2 2559   3.502   2.411   5.565
  554SOL     OW 2560   6.818   5.467   0.388
  554SOL    HW1 2561   6.798   5.563   0.408
  554SOL    HW2 2562   6.803   5.412   0.470
  555SOL     OW 2563   2.877   4.218   6.201
  555SOL    HW1 2564   2.959   4.274   6.209
  555SOL    HW2 2565   2.816   4.237   6.278
  556SOL     OW 2566   6.045   6.503   2.356
  556SOL    HW1 2567   6.001   6.429   2.409
  556SOL    HW2 2568   5.989   6.585   2.362
  557SOL     OW 2569   5.593   3.565   6.383
  557SOL    HW1 2570   5.575   3.614   6.468
  557SOL    HW2 2571   5.557   3.618   6.306
  558SOL     OW 2572   3.318   3.768   2.198
  558SOL    HW1 2573   3.272   3.739   2.282
  558SOL    HW2 2574   3.318   3.868   2.193
  559SOL     OW 2575   6.192   1.128   6.702
  559SOL    HW1 2576   6.212   1.217   6.743
  559SOL    HW2 2577   6.093   1.120   6.689
  560SOL     OW 2578   0.426   2.178   3.650
  560SOL    HW1 2579   0.490   2.107   3.621
  560SOL    HW2 2580   0.337   2.162   3.608
  561SOL     OW 2581   0.240   3.768   6.997
  561SOL    HW1 2582   0.215   3.851   6.948
  561SOL    HW2 2583   0.312   3.789   0.043
  562SOL     OW 2584   4.253   6.387   3.685
  562SOL    HW1 2585   4.344   6.373   3.723
  562SOL    HW2 2586   4.229   6.484   3.690
  563SOL     OW 2587   0.794   1.024   4.225
  563SOL    HW1 2588   0.859   1.091   4.191
  563SOL    HW2 2589   0.840   0.937   4.239
  564SOL     OW 2590   5.901   1.770   5.279
  564SOL    HW1 2591   5.984   1.731   5.319
  564SOL    HW2 2592   5.866   1.842   5.340
  565SOL     OW 2593   2.889   3.469   3.892
  565SOL    HW1 2594   2.974   3.417   3.888
  565SOL    HW2 2595   2.852   3.465   3.985
  566SOL     OW 2596   1.979   2.449   3.657
  566SOL    HW1 2597   2.006   2.482   3.747
  566SOL    HW2 2598   2.028   2.501   3.587
  567SOL     OW 2599   1.885   3.110   5.614
  567SOL    HW1 2600   1.818   3.069   5.552
  567SOL    HW2 2601   1.939   3.039   5.657
  568SOL     OW 2602   1.367   6.935   0.017
  568SOL    HW1 2603   1.392   7.020   6.990
  568SOL    HW2 2604   1.411   6.934   0.107
  569SOL     OW 2605   5.012   3.734   5.390
  569SOL    HW1 2606   5.040   3.823   5.423
  569SOL    HW2 2607   5.002   3.671   5.467
  570SOL     OW 2608   3.540   0.990   6.276
  570SOL    HW1 2609   3.469   0.967   6.210
  570SOL    HW2 2610   3.568   1.085   6.264
  571SOL     OW 2611   2.395   4.064   1.710
  571SOL    HW1 2612   2.461   4.067   1.635
  571SOL    HW2 2613   2.392   4.152   1.756
  572SOL     OW 2614   2.706   1.279   4.301
  572SOL    HW1 2615   2.777   1.277   4.232
  572SOL    HW2 2616   2.740   1.237   4.385
  573SOL     OW 2617   0.493   0.652   5.460
  573SOL    HW1 2618   0.454   0.648   5.368
  573SOL    HW2 2619   0.462   0.572   5.512
  574SOL     OW 2620   2.097   1.305   6.162
  574SOL    HW1 2621   2.080   1.372   6.090
  574SOL    HW2 2622   2.173   1.247   6.135
  575SOL     OW 2623   3.891   3.590   0.530
  575SOL    HW1 2624   3.905   3.621   0.436
  575SOL    HW2 2625   3.974   3.606   0.583
  576SOL     OW 2626   0.410   1.033   2.868
  576SOL    HW1 2627   0.495   0.981   2.862
  576SOL    HW2 2628   0.421   1.120   2.820
  577SOL     OW 2629   0.073   0.007   2.031
  577SOL    HW1 2630   7.017   7.002   1.971
  577SOL    HW2 2631   0.099   0.102   2.013
  578SOL     OW 2632   3.998   0.120   0.453
  578SOL    HW1 2633   3.990   0.039   0.395
  578SOL    HW2 2634   4.005   0.202   0.395
  579SOL     OW 2635   1.061   3.856   1.778
  579SOL    HW1 2636   1.005   3.822   1.702
  579SOL    HW2 2637   1.153   3.876   1.744
  580SOL     OW 2638   4.646   4.968   4.477
  580SOL    HW1 2639   4.620   5.065   4.478
  580SOL    HW2 2640   4.567   4.913   4.450
  581SOL     OW 2641   1.729   2.241   4.099
  581SOL    HW1 2642   1.722   2.141   4.107
  581SOL    HW2 2643   1.638   2.279   4.082
  582SOL     OW 2644   5.521   4.303   5.097
  582SOL    HW1 2645   5.437   4.348   5.125
  582SOL    HW2 2646   5.507   4.204   5.092
  583SOL     OW 2647   3.081   6.299   5.619
  583SOL    HW1 2648   3.164   6.324   5.569
  583SOL    HW2 2649   3.001   6.334   5.570
  584SOL     OW 2650   4.074   1.034   5.009
  584SOL    HW1 2651   4.078   1.008   5.106
  584SOL    HW2 2652   3.982   1.065   4.986
  585SOL     OW 2653   3.875   6.771   1.613
  585SOL    HW1 2654   3.814   6.830   1.561
  585SOL    HW2 2655   3.958   6.753   1.561
  586SOL     OW 2656   3.523   6.859   0.708
  586SOL    HW1 2657   3.569   6.947   0.703
  586SOL    HW2 2658   3.426   6.870   0.683
  587SOL     OW 2659   5.099   1.749   2.500
  587SOL    HW1 2660   5.104   1.652   2.527
  587SOL    HW2 2661   5.191   1.789   2.503
  588SOL     OW 2662   2.148   4.222   3.019
  588SOL    HW1 2663   2.172   4.175   2.933
  588SOL    HW2 2664   2.181   4.167   3.096
  589SOL     OW 2665   3.348   5.318   6.984
  589SOL    HW1 2666   3.434   5.334   6.936
  589SOL    HW2 2667   3.276   5.296   6.918
  590SOL     OW 2668   2.811   1.856   6.285
  590SOL    HW1 2669   2.815   1.880   6.382
  590SOL    HW2 2670   2.873   1.914   6.233
  591SOL     OW 2671   2.351   6.779   3.696
  591SOL    HW1 2672   2.388   6.739   3.613
  591SOL    HW2 2673   2.424   6.791   3.763
  592SOL     OW 2674   5.327   2.864   4.976
  592SOL    HW1 2675   5.287   2.940   4.924
  592SOL    HW2 2676   5.407   2.897   5.026
  593SOL     OW 2677   2.086   0.736   6.571
  593SOL    HW1 2678   2.181   0.767   6.575
  593SOL    HW2 2679   2.029   0.798   6.625
  594SOL     OW 2680   3.749   0.888   4.379
  594SOL    HW1 2681   3.668   0.920   4.330
  594SOL    HW2 2682   3.743   0.918   4.475
  595SOL     OW 2683   6.179   4.076   2.062
  595SOL    HW1 2684   6.148   4.164   2.026
  595SOL    HW2 2685   6.265   4.051   2.019
  596SOL     OW 2686   5.808   4.797   4.116
  596SOL    HW1 2687   5.889   4.739   4.126
  596SOL    HW2 2688   5.797   4.854   4.198
  597SOL     OW 2689   3.293   1.645   6.898
  597SOL    HW1 2690   3.282   1.689   6.988
  597SOL    HW2 2691   3.205   1.647   6.850
  598SOL     OW 2692   2.905   3.641   3.352
  598SOL    HW1 2693   2.934   3.726   3.395
  598SOL    HW2 2694   2.906   3.652   3.252
  599SOL     OW 2695   2.220   4.684   1.144
  599SOL    HW1 2696   2.160   4.705   1.067
  599SOL    HW2 2697   2.287   4.758   1.155
  600SOL     OW 2698   0.542   3.571   5.258
  600SOL    HW1 2699   0.631   3.528   5.272
  600SOL    HW2 2700   0.502   3.595   5.346
  601SOL     OW 2701   0.029   6.475   6.026
  601SOL    HW1 2702   0.061   6.386   6.058
  601SOL    HW2 2703   0.090   6.547   6.058
  602SOL     OW 2704   1.178   0.828   3.417
  602SOL    HW1 2705   1.262   0.855   3.465
  602SOL    HW2 2706   1.099   0.850   3.475
  603SOL     OW 2707   1.575   1.428   4.088
  603SOL    HW1 2708   1.657   1.460   4.040
  603SOL    HW2 2709   1.554   1.491   4.163
  604SOL     OW 2710   5.438   2.701   1.159
  604SOL    HW1 2711   5.402   2.792   1.180
  604SOL    HW2 2712   5.390   2.633   1.214
  605SOL     OW 2713   5.526   6.365   1.353
  605SOL    HW1 2714   5.428   6.379   1.341
  605SOL    HW2 2715   5.560   6.301   1.284
  606SOL     OW 2716   2.880   6.661   5.308
  606SOL    HW1 2717   2.957   6.722   5.325
  606SOL    HW2 2718   2.884   6.584   5.372
  607SOL     OW 2719   1.709   2.875   6.226
  607SOL    HW1 2720   1.695   2.970   6.201
  607SOL    HW2 2721   1.622   2.826   6.224
  608SOL     OW 2722   3.437   1.109   6.976
  608SOL    HW1 2723   3.347   1.131   6.938
  608SOL    HW2 2724   3.432   1.111   0.055
  609SOL     OW 2725   3.702   3.171   2.309
  609SOL    HW1 2726   3.780   3.119   2.273
  609SOL    HW2 2727   3.658   3.119   2.381
  610SOL     OW 2728   4.982   2.973   1.667
  610SOL    HW1 2729   4.899   3.023   1.693
  610SOL    HW2 2730   5.020   2.929   1.748
  611SOL     OW 2731   3.873   1.522   2.173
  611SOL    HW1 2732   3.826   1.499   2.259
  611SOL    HW2 2733   3.813   1.578   2.116
  612SOL     OW 2734   4.636   4.710   4.246
  612SOL    HW1 2735   4.637   4.627   4.189
  612SOL    HW2 2736   4.730   4.737   4.266
  613SOL     OW 2737   4.108   5.291   6.555
  613SOL    HW1 2738   4.086   5.373   6.503
  613SOL    HW2 2739   4.199   5.300   6.595
  614SOL     OW 2740   3.212   6.397   6.227
  614SOL    HW1 2741   3.296   6.371   6.179
  614SOL    HW2 2742   3.223   6.384   6.325
  615SOL     OW 2743   6.774   4.880   3.350
  615SOL    HW1 2744   6.802   4.958   3.293
  615SOL    HW2 2745   6.711   4.822   3.298
  616SOL     OW 2746   6.034   2.808   3.945
  616SOL    HW1 2747   6.011   2.882   3.882
  616SOL    HW2 2748   5.955   2.789   4.004
  617SOL     OW 2749   2.309   0.226   6.313
  617SOL    HW1 2750   2.320   0.305   6.374
  617SOL    HW2 2751   2.399   0.200   6.278
  618SOL     OW 2752   2.528   0.627   3.764
  618SOL    HW1 2753   2.452   0.636   3.700
  618SOL    HW2 2754   2.497   0.653   3.855
  619SOL     OW 2755   1.008   2.452   0.142
  619SOL    HW1 2756   0.941   2.469   0.214
  619SOL    HW2 2757   1.015   2.354   0.127
  620SOL     OW 2758   4.630   3.556   0.634
  620SOL    HW1 2759   4.569   3.560   0.713
  620SOL    HW2 2760   4.661   3.648   0.611
  621SOL     OW 2761   0.144   5.386   0.912
  621SOL    HW1 2762   0.106   5.293   0.914
  621SOL    HW2 2763   0.100   5.438   0.839
  622SOL     OW 2764   0.349   1.042   0.317
  622SOL    HW1 2765   0.366   0.999   0.229
  622SOL    HW2 2766   0.346   0.973   0.389
  623SOL     OW 2767   6.830   5.155   5.163
  623SOL    HW1 2768   6.896   5.171   5.088
  623SOL    HW2 2769   6.877   5.165   5.251
  624SOL     OW 2770   0.509   1.733   1.137
  624SOL    HW1 2771   0.567   1.761   1.061
  624SOL    HW2 2772   0.557   1.750   1.223
  625SOL     OW 2773   1.319   1.166   2.557
  625SOL    HW1 2774   1.361   1.081   2.525
  625SOL    HW2 2775   1.361   1.193   2.644
  626SOL     OW 2776   3.070   5.770   4.795
  626SOL    HW1 2777   3.036   5.691   4.745
  626SOL    HW2 2778   3.169   5.777   4.782
  627SOL     OW 2779   4.641   6.338   6.592
  627SOL    HW1 2780   4.709   6.409   6.611
  627SOL    HW2 2781   4.614   6.294   6.678
  628SOL     OW 2782   5.852   4.306   3.049
  628SOL    HW1 2783   5.814   4.261   3.130
  628SOL    HW2 2784   5.851   4.242   2.972
  629SOL     OW 2785   1.626   0.272   0.962
  629SOL    HW1 2786   1.635   0.283   0.863
  629SOL    HW2 2787   1.547   0.325   0.994
  630SOL     OW 2788   2.740   1.140   1.921
  630SOL    HW1 2789   2.827   1.188   1.914
  630SOL    HW2 2790   2.692   1.146   1.834
  631SOL     OW 2791   2.821   0.867   4.487
  631SOL    HW1 2792   2.889   0.842   4.417
  631SOL    HW2 2793   2.734   0.823   4.466
  632SOL     OW 2794   3.000   0.779   1.074
  632SOL    HW1 2795   2.950   0.731   1.146
  632SOL    HW2 2796   3.058   0.713   1.026
  633SOL     OW 2797   2.336   0.351   5.085
  633SOL    HW1 2798   2.262   0.385   5.144
  633SOL    HW2 2799   2.355   0.255   5.108
  634SOL     OW 2800   3.192   6.114   1.720
  634SOL    HW1 2801   3.106   6.134   1.672
  634SOL    HW2 2802   3.197   6.015   1.738
  635SOL     OW 2803   3.226   6.795   2.931
  635SOL    HW1 2804   3.191   6.871   2.877
  635SOL    HW2 2805   3.262   6.830   3.018
  636SOL     OW 2806   4.573   4.933   6.131
  636SOL    HW1 2807   4.630   5.013   6.144
  636SOL    HW2 2808   4.623   4.851   6.158
  637SOL     OW 2809   5.735   5.390   6.285
  637SOL    HW1 2810   5.807   5.349   6.228
  637SOL    HW2 2811   5.686   5.458   6.231
  638SOL     OW 2812   5.226   1.648   3.403
  638SOL    HW1 2813   5.298   1.706   3.441
  638SOL    HW2 2814   5.222   1.661   3.304
  639SOL     OW 2815   4.715   3.869   1.700
  639SOL    HW1 2816   4.782   3.802   1.668
  639SOL    HW2 2817   4.624   3.828   1.699
  640SOL     OW 2818   2.486   3.149   5.426
  640SOL    HW1 2819   2.493   3.249   5.421
  640SOL    HW2 2820   2.509   3.109   5.337
  641SOL     OW 2821   6.904   6.012   4.957
  641SOL    HW1 2822   6.844   6.057   4.891
  641SOL    HW2 2823   6.861   6.015   5.048
  642SOL     OW 2824   1.181   4.343   6.443
  642SOL    HW1 2825   1.177   4.417   6.376
  642SOL    HW2 2826   1.275   4.309   6.448
  643SOL     OW 2827   6.250   6.353   4.936
  643SOL    HW1 2828   6.297   6.271   4.968
  643SOL    HW2 2829   6.151   6.337   4.935
  644SOL     OW 2830   2.568   6.394   1.418
  644SOL    HW1 2831   2.512   6.464   1.375
  644SOL    HW2 2832   2.541   6.304   1.384
  645SOL     OW 2833   0.202   2.719   3.359
  645SOL    HW1 2834   0.204   2.698   3.457
  645SOL    HW2 2835   0.144   2.799   3.343
  646SOL     OW 2836   1.394   3.241   4.441
  646SOL    HW1 2837   1.298   3.263   4.461
  646SOL    HW2 2838   1.453   3.277   4.513
  647SOL     OW 2839   5.498   3.733   0.320
  647SOL    HW1 2840   5.496   3.763   0.224
  647SOL    HW2 2841   5.535   3.806   0.377
  648SOL     OW 2842   4.348   2.408   4.183
  648SOL    HW1 2843   4.340   2.355   4.267
  648SOL    HW2 2844   4.297   2.363   4.109
  649SOL     OW 2845   4.597   4.523   1.855
  649SOL    HW1 2846   4.593   4.518   1.755
  649SOL    HW2 2847   4.566   4.437   1.894
  650SOL     OW 2848   5.480   4.832   0.913
  650SOL    HW1 2849   5.450   4.927   0.903
  650SOL    HW2 2850   5.439   4.777   0.840
  651SOL     OW 2851   1.554   5.685   6.555
  651SOL    HW1 2852   1.485   5.711   6.622
  651SOL    HW2 2853   1.636   5.652   6.602
  652SOL     OW 2854   5.147   1.983   2.042
  652SOL    HW1 2855   5.174   2.023   2.130
  652SOL    HW2 2856   5.087   2.047   1.994
  653SOL     OW 2857   3.265   4.884   2.864
  653SOL    HW1 2858   3.168   4.877   2.887
  653SOL    HW2 2859   3.288   4.814   2.796
  654SOL     OW 2860   6.649   5.030   6.197
  654SOL    HW1 2861   6.703   5.030   6.281
  654SOL    HW2 2862   6.664   5.116   6.148
  655SOL     OW 2863   1.251   2.030   6.831
  655SOL    HW1 2864   1.242   1.997   6.925
  655SOL    HW2 2865   1.232   2.128   6.828
  656SOL     OW 2866   1.923   6.073   1.364
  656SOL    HW1 2867   1.977   6.079   1.280
  656SOL    HW2 2868   1.879   5.983   1.370
  657SOL     OW 2869   4.189   0.569   6.775
  657SOL    HW1 2870   4.162   0.653   6.729
  657SOL    HW2 2871   4.113   0.535   6.830
  658SOL     OW 2872   3.764   5.272   6.890
  658SOL    HW1 2873   3.743   5.266   6.988
  658SOL    HW2 2874   3.695   5.328   6.844
  659SOL     OW 2875   3.879   0.606   6.274
  659SOL    HW1 2876   3.976   0.629   6.281
  659SOL    HW2 2877   3.869   0.522   6.221
  660SOL     OW 2878   3.632   6.304   3.114
  660SOL    HW1 2879   3.681   6.391   3.104
  660SOL    HW2 2880   3.698   6.229   3.119
  661SOL     OW 2881   5.720   4.895   2.547
  661SOL    HW1 2882   5.692   4.847   2.464
  661SOL    HW2 2883   5.818   4.881   2.562
  662SOL     OW 2884   4.298   1.560   6.865
  662SOL    HW1 2885   4.288   1.639   6.926
  662SOL    HW2 2886   4.221   1.556   6.802
  663SOL     OW 2887   1.141   4.194   4.860
  663SOL    HW1 2888   1.063   4.141   4.827
  663SOL    HW2 2889   1.165   4.265   4.794
  664SOL     OW 2890   5.894   0.056   6.348
  664SOL    HW1 2891   5.884   0.023   6.255
  664SOL    HW2 2892   5.987   0.039   6.380
  665SOL     OW 2893   0.984   4.264   1.771
  665SOL    HW1 2894   0.971   4.212   1.855
  665SOL    HW2 2895   1.082   4.281   1.757
  666SOL     OW 2896   4.766   1.305   1.798
  666SOL    HW1 2897   4.759   1.227   1.860
  666SOL    HW2 2898   4.853   1.351   1.812
  667SOL     OW 2899   0.894   0.292   1.974
  667SOL    HW1 2900   0.937   0.274   2.062
  667SOL    HW2 2901   0.828   0.367   1.984
  668SOL     OW 2902   6.075   3.434   0.058
  668SOL    HW1 2903   6.063   3.442   6.980
  668SOL    HW2 2904   6.096   3.339   0.082
  669SOL     OW 2905   5.176   1.675   3.098
  669SOL    HW1 2906   5.128   1.745   3.045
  669SOL    HW2 2907   5.225   1.614   3.035
  670SOL     OW 2908   3.870   2.126   2.540
  670SOL    HW1 2909   3.867   2.111   2.639
  670SOL    HW2 2910   3.777   2.129   2.504
  671SOL     OW 2911   1.845   6.008   2.026
  671SOL    HW1 2912   1.928   6.050   2.063
  671SOL    HW2 2913   1.818   5.932   2.084
  672SOL     OW 2914   0.632   6.957   1.526
  672SOL    HW1 2915   0.574   6.928   1.602
  672SOL    HW2 2916   0.728   6.954   1.555
  673SOL     OW 2917   5.856   6.565   6.394
  673SOL    HW1 2918   5.764   6.567   6.433
  673SOL    HW2 2919   5.890   6.471   6.391
  674SOL     OW 2920   5.183   0.351   4.155
  674SOL    HW1 2921   5.128   0.322   4.077
  674SOL    HW2 2922   5.189   0.451   4.157
  675SOL     OW 2923   0.525   3.953   2.096
  675SOL    HW1 2924   0.610   3.959   2.043
  675SOL    HW2 2925   0.541   3.898   2.178
  676SOL     OW 2926   2.577   5.928   6.586
  676SOL    HW1 2927   2.638   5.994   6.629
  676SOL    HW2 2928   2.622   5.888   6.507
  677SOL     OW 2929   5.886   1.302   1.218
  677SOL    HW1 2930   5.895   1.385   1.163
  677SOL    HW2 2931   5.912   1.223   1.164
  678SOL     OW 2932   0.966   5.257   3.974
  678SOL    HW1 2933   0.981   5.351   3.944
  678SOL    HW2 2934   0.985   5.250   4.072
  679SOL     OW 2935   4.797   1.499   5.440
  679SOL    HW1 2936   4.883   1.449   5.425
  679SOL    HW2 2937   4.736   1.444   5.498
  680SOL     OW 2938   5.920   6.609   3.822
  680SOL    HW1 2939   5.845   6.602   3.887
  680SOL    HW2 2940   5.884   6.635   3.732
  681SOL     OW 2941   4.607   5.030   2.542
  681SOL    HW1 2942   4.539   5.046   2.613
  681SOL    HW2 2943   4.678   5.100   2.546
  682SOL     OW 2944   0.108   1.695   2.912
  682SOL    HW1 2945   0.028   1.686   2.854
  682SOL    HW2 2946   0.084   1.749   2.994
  683SOL     OW 2947   3.245   4.266   0.722
  683SOL    HW1 2948   3.224   4.211   0.640
  683SOL    HW2 2949   3.205   4.222   0.802
  684SOL     OW 2950   6.504   1.513   5.913
  684SOL    HW1 2951   6.536   1.498   6.006
  684SOL    HW2 2952   6.404   1.514   5.912
  685SOL     OW 2953   3.102   6.547   3.000
  685SOL    HW1 2954   3.170   6.512   3.065
  685SOL    HW2 2955   3.121   6.643   2.980
  686SOL     OW 2956   3.783   0.474   5.743
  686SOL    HW1 2957   3.854   0.492   5.812
  686SOL    HW2 2958   3.763   0.376   5.740
  687SOL     OW 2959   0.318   1.098   4.592
  687SOL    HW1 2960   0.229   1.086   4.548
  687SOL    HW2 2961   0.335   1.195   4.608
  688SOL     OW 2962   6.022   2.138   0.024
  688SOL    HW1 2963   6.091   2.208   0.043
  688SOL    HW2 2964   5.995   2.143   6.948
  689SOL     OW 2965   2.203   5.923   0.003
  689SOL    HW1 2966   2.128   5.918   6.958
  689SOL    HW2 2967   2.184   5.994   0.071
  690SOL     OW 2968   5.488   3.758   3.630
  690SOL    HW1 2969   5.569   3.732   3.578
  690SOL    HW2 2970   5.462   3.852   3.606
  691SOL     OW 2971   5.967   1.361   2.036
  691SOL    HW1 2972   6.021   1.442   2.013
  691SOL    HW2 2973   6.022   1.299   2.092
  692SOL     OW 2974   1.398   1.000   3.492
  692SOL    HW1 2975   1.397   1.016   3.591
  692SOL    HW2 2976   1.461   1.065   3.449
  693SOL     OW 2977   5.772   4.898   3.168
  693SOL    HW1 2978   5.738   4.977   3.117
  693SOL    HW2 2979   5.747   4.907   3.264
  694SOL     OW 2980   3.952   5.504   4.140
  694SOL    HW1 2981   3.978   5.581   4.082
  694SOL    HW2 2982   3.973   5.419   4.093
  695SOL     OW 2983   4.770   6.749   3.622
  695SOL    HW1 2984   4.855   6.701   3.599
  695SOL    HW2 2985   4.789   6.821   3.688
  696SOL     OW 2986   5.933   3.877   1.904
  696SOL    HW1 2987   5.859   3.814   1.885
  696SOL    HW2 2988   5.955   3.875   2.002
  697SOL     OW 2989   0.450   6.512   2.400
  697SOL    HW1 2990   0.422   6.448   2.328
  697SOL    HW2 2991   0.505   6.464   2.468
  698SOL     OW 2992   5.618   6.389   6.216
  698SOL    HW1 2993   5.693   6.446   6.182
  698SOL    HW2 2994   5.652   6.327   6.286
  699SOL     OW 2995   3.827   4.155   0.837
  699SOL    HW1 2996   3.773   4.096   0.778
  699SOL    HW2 2997   3.768   4.225   0.877
  700SOL     OW 2998   3.405   6.951   5.395
  700SOL    HW1 2999   3.434   7.019   5.462
  700SOL    HW2 3000   3.354   6.878   5.441
  701SOL     OW 3001   4.638   4.912   2.114
  701SOL    HW1 3002   4.680   4.965   2.187
  701SOL    HW2 3003   4.564   4.965   2.072
  702SOL     OW 3004   4.580   0.278   4.829
  702SOL    HW1 3005   4.563   0.375   4.843
  702SOL    HW2 3006   4.504   0.225   4.867
  703SOL     OW 3007   3.263   3.161   0.289
  703SOL    HW1 3008   3.257   3.190   0.385
  703SOL    HW2 3009   3.307   3.071   0.285
  704SOL     OW 3010   3.987   1.612   6.480
  704SOL    HW1 3011   4.052   1.670   6.431
  704SOL    HW2 3012   4.025   1.586   6.569
  705SOL     OW 3013   0.164   5.944   6.362
  705SOL    HW1 3014   0.096   5.971   6.430
  705SOL    HW2 3015   0.119   5.921   6.276
  706SOL     OW 3016   3.892   0.563   5.130
  706SOL    HW1 3017   3.908   0.619   5.048
  706SOL    HW2 3018   3.870   0.623   5.207
  707SOL     OW 3019   3.441   5.173   4.503
  707SOL    HW1 3020   3.536   5.179   4.470
  707SOL    HW2 3021   3.380   5.215   4.436
  708SOL     OW 3022   3.396   5.842   3.952
  708SOL    HW1 3023   3.487   5.841   3.910
  708SOL    HW2 3024   3.337   5.906   3.902
  709SOL     OW 3025   2.644   0.211   1.818
  709SOL    HW1 3026   2.699   0.287   1.854
  709SOL    HW2 3027   2.623   0.147   1.892
  710SOL     OW 3028   4.954   3.762   2.606
  710SOL    HW1 3029   4.882   3.830   2.588
  710SOL    HW2 3030   5.040   3.809   2.623
  711SOL     OW 3031   0.611   1.628   0.613
  711SOL    HW1 3032   0.524   1.678   0.613
  711SOL    HW2 3033   0.669   1.662   0.688
  712SOL     OW 3034   5.410   3.777   0.065
  712SOL    HW1 3035   5.354   3.831   0.002
  712SOL    HW2 3036   5.497   3.753   0.021
  713SOL     OW 3037   4.015   3.012   6.279
  713SOL    HW1 3038   4.084   3.084   6.275
  713SOL    HW2 3039   3.954   3.019   6.200
  714SOL     OW 3040   4.547   6.543   2.929
  714SOL    HW1 3041   4.577   6.632   2.964
  714SOL    HW2 3042   4.481   6.502   2.992
  715SOL     OW 3043   6.198   4.922   4.918
  715SOL    HW1 3044   6.133   4.958   4.984
  715SOL    HW2 3045   6.287   4.912   4.961
  716SOL     OW 3046   3.454   1.799   3.647
  716SOL    HW1 3047   3.510   1.717   3.663
  716SOL    HW2 3048   3.401   1.788   3.564
  717SOL     OW 3049   5.074   5.134   3.786
  717SOL    HW1 3050   5.049   5.139   3.689
  717SOL    HW2 3051   4.991   5.143   3.841
  718SOL     OW 3052   6.039   2.189   5.120
  718SOL    HW1 3053   6.031   2.094   5.091
  718SOL    HW2 3054   5.966   2.243   5.078
  719SOL     OW 3055   4.501   5.913   2.745
  719SOL    HW1 3056   4.440   5.834   2.751
  719SOL    HW2 3057   4.500   5.962   2.832
  720SOL     OW 3058   3.040   1.308   1.489
  720SOL    HW1 3059   3.069   1.355   1.573
  720SOL    HW2 3060   2.964   1.358   1.448
  721SOL     OW 3061   6.747   2.935   1.993
  721SOL    HW1 3062   6.721   3.027   2.023
  721SOL    HW2 3063   6.739   2.929   1.894
  722SOL     OW 3064   5.511   6.304   1.628
  722SOL    HW1 3065   5.528   6.325   1.531
  722SOL    HW2 3066   5.416   6.277   1.640
  723SOL     OW 3067   2.206   0.951   4.428
  723SOL    HW1 3068   2.301   0.923   4.417
  723SOL    HW2 3069   2.151   0.915   4.352
  724SOL     OW 3070   1.360   2.160   4.369
  724SOL    HW1 3071   1.295   2.140   4.295
  724SOL    HW2 3072   1.312   2.161   4.456
  725SOL     OW 3073   1.724   4.778   2.841
  725SOL    HW1 3074   1.736   4.754   2.937
  725SOL    HW2 3075   1.627   4.798   2.823
  726SOL     OW 3076   1.935   3.828   0.355
  726SOL    HW1 3077   1.995   3.779   0.418
  726SOL    HW2 3078   1.875   3.762   0.309
  727SOL     OW 3079   3.856   5.352   4.920
  727SOL    HW1 3080   3.818   5.441   4.945
  727SOL    HW2 3081   3.796   5.279   4.954
  728SOL     OW 3082   6.665   3.205   3.889
  728SOL    HW1 3083   6.612   3.123   3.911
  728SOL    HW2 3084   6.611   3.286   3.913
  729SOL     OW 3085   0.686   4.681   0.105
  729SOL    HW1 3086   0.688   4.593   0.058
  729SOL    HW2 3087   0.624   4.744   0.058
  730SOL     OW 3088   4.317   1.497   3.330
  730SOL    HW1 3089   4.246   1.540   3.386
  730SOL    HW2 3090   4.274   1.447   3.255
  731SOL     OW 3091   4.808   4.861   4.716
  731SOL    HW1 3092   4.890   4.803   4.706
  731SOL    HW2 3093   4.758   4.861   4.630
  732SOL     OW 3094   4.056   0.378   4.001
  732SOL    HW1 3095   3.957   0.391   3.999
  732SOL    HW2 3096   4.098   0.447   4.059
  733SOL     OW 3097   6.884   4.944   4.035
  733SOL    HW1 3098   6.939   5.026   4.046
  733SOL    HW2 3099   6.826   4.931   4.116
  734SOL     OW 3100   6.184   6.482   2.904
  734SOL    HW1 3101   6.132   6.517   2.826
  734SOL    HW2 3102   6.122   6.459   2.978
  735SOL     OW 3103   4.216   0.443   2.359
  735SOL    HW1 3104   4.255   0.367   2.411
  735SOL    HW2 3105   4.261   0.450   2.270
  736SOL     OW 3106   1.890   1.764   3.614
  736SOL    HW1 3107   1.835   1.758   3.698
  736SOL    HW2 3108   1.975   1.814   3.634
  737SOL     OW 3109   3.277   1.071   6.140
  737SOL    HW1 3110   3.304   1.029   6.053
  737SOL    HW2 3111   3.236   1.160   6.122
  738SOL     OW 3112   2.110   5.063   0.046
  738SOL    HW1 3113   2.182   5.128   0.021
  738SOL    HW2 3114   2.021   5.106   0.033
  739SOL     OW 3115   1.503   0.407   3.675
  739SOL    HW1 3116   1.582   0.463   3.698
  739SOL    HW2 3117   1.419   0.457   3.697
  740SOL     OW 3118   5.184   3.298   3.333
  740SOL    HW1 3119   5.094   3.332   3.359
  740SOL    HW2 3120   5.190   3.294   3.233
  741SOL     OW 3121   3.152   1.103   3.496
  741SOL    HW1 3122   3.061   1.078   3.465
  741SOL    HW2 3123   3.158   1.202   3.505
  742SOL     OW 3124   1.821   0.070   2.316
  742SOL    HW1 3125   1.902   0.049   2.371
  742SOL    HW2 3126   1.741   0.075   2.375
  743SOL     OW 3127   0.087   6.303   3.038
  743SOL    HW1 3128   0.162   6.369   3.038
  743SOL    HW2 3129   7.020   6.352   3.037
  744SOL     OW 3130   4.849   1.710   1.263
  744SOL    HW1 3131   4.873   1.613   1.260
  744SOL    HW2 3132   4.931   1.764   1.282
  745SOL     OW 3133   2.202   6.767   5.215
  745SOL    HW1 3134   2.106   6.739   5.212
  745SOL    HW2 3135   2.247   6.743   5.129
  746SOL     OW 3136   6.770   5.403   5.051
  746SOL    HW1 3137   6.698   5.358   4.998
  746SOL    HW2 3138   6.804   5.340   5.121
  747SOL     OW 3139   4.557   5.296   2.921
  747SOL    HW1 3140   4.651   5.298   2.887
  747SOL    HW2 3141   4.554   5.252   3.011
  748SOL     OW 3142   6.033   4.263   1.270
  748SOL    HW1 3143   6.121   4.226   1.241
  748SOL    HW2 3144   6.030   4.267   1.370
  749SOL     OW 3145   4.745   4.275   5.079
  749SOL    HW1 3146   4.688   4.332   5.020
  749SOL    HW2 3147   4.709   4.277   5.172
  750SOL     OW 3148   2.424   1.982   3.269
  750SOL    HW1 3149   2.430   2.056   3.203
  750SOL    HW2 3150   2.516   1.945   3.286
  751SOL     OW 3151   4.058   0.874   0.517
  751SOL    HW1 3152   4.124   0.936   0.559
  751SOL    HW2 3153   4.087   0.852   0.424
  752SOL     OW 3154   3.677   3.016   4.489
  752SOL    HW1 3155   3.679   2.918   4.510
  752SOL    HW2 3156   3.768   3.046   4.463
  753SOL     OW 3157   3.621   4.136   3.534
  753SOL    HW1 3158   3.662   4.201   3.470
  753SOL    HW2 3159   3.657   4.044   3.516
  754SOL     OW 3160   5.065   0.003   0.063
  754SOL    HW1 3161   4.978   0.023   0.017
  754SOL    HW2 3162   5.091   0.082   0.119
  755SOL     OW 3163   4.648   4.632   4.956
  755SOL    HW1 3164   4.707   4.563   4.913
  755SOL    HW2 3165   4.553   4.602   4.951
  756SOL     OW 3166   3.349   5.481   5.861
  756SOL    HW1 3167   3.396   5.496   5.774
  756SOL    HW2 3168   3.295   5.561   5.885
  757SOL     OW 3169   1.492   0.087   2.155
  757SOL    HW1 3170   1.541   0.066   2.240
  757SOL    HW2 3171   1.542   0.156   2.104
  758SOL     OW 3172   4.149   1.157   4.058
  758SOL    HW1 3173   4.064   1.183   4.103
  758SOL    HW2 3174   4.218   1.228   4.073
  759SOL     OW 3175   0.251   3.479   3.539
  759SOL    HW1 3176   0.187   3.472   3.463
  759SOL    HW2 3177   0.235   3.564   3.589
  760SOL     OW 3178   6.590   5.796   3.663
  760SOL    HW1 3179   6.553   5.710   3.698
  760SOL    HW2 3180   6.534   5.872   3.696
  761SOL     OW 3181   4.201   4.813   5.859
  761SOL    HW1 3182   4.177   4.756   5.780
  761SOL    HW2 3183   4.282   4.868   5.837
  762SOL     OW 3184   3.673   5.541   4.096
  762SOL    HW1 3185   3.704   5.598   4.020
  762SOL    HW2 3186   3.751   5.495   4.137
  763SOL     OW 3187   5.533   0.832   0.550
  763SOL    HW1 3188   5.442   0.872   0.547
  763SOL    HW2 3189   5.562   0.821   0.645
  764SOL     OW 3190   4.905   6.307   5.390
  764SOL    HW1 3191   4.911   6.271   5.297
  764SOL    HW2 3192   4.980   6.272   5.445
  765SOL     OW 3193   5.504   5.869   0.738
  765SOL    HW1 3194   5.582   5.930   0.729
  765SOL    HW2 3195   5.467   5.876   0.831
  766SOL     OW 3196   2.434   1.951   4.342
  766SOL    HW1 3197   2.423   2.018   4.415
  766SOL    HW2 3198   2.370   1.972   4.268
  767SOL     OW 3199   6.632   6.183   3.682
  767SOL    HW1 3200   6.707   6.196   3.617
  767SOL    HW2 3201   6.593   6.272   3.705
  768SOL     OW 3202   2.469   5.833   2.128
  768SOL    HW1 3203   2.453   5.736   2.109
  768SOL    HW2 3204   2.550   5.864   2.080
  769SOL     OW 3205   3.428   1.709   5.323
  769SOL    HW1 3206   3.521   1.672   5.319
  769SOL    HW2 3207   3.362   1.637   5.304
  770SOL     OW 3208   1.087   5.142   5.419
  770SOL    HW1 3209   1.046   5.224   5.458
  770SOL    HW2 3210   1.035   5.115   5.338
  771SOL     OW 3211   1.489   5.013   2.273
  771SOL    HW1 3212   1.501   5.008   2.174
  771SOL    HW2 3213   1.402   5.057   2.294
  772SOL     OW 3214   5.617   4.902   0.653
  772SOL    HW1 3215   5.665   4.957   0.584
  772SOL    HW2 3216   5.520   4.927   0.653
  773SOL     OW 3217   1.908   4.686   4.081
  773SOL    HW1 3218   2.000   4.648   4.090
  773SOL    HW2 3219   1.866   4.650   3.998
  774SOL     OW 3220   2.110   2.085   3.765
  774SOL    HW1 3221   2.209   2.097   3.775
  774SOL    HW2 3222   2.063   2.146   3.828
  775SOL     OW 3223   1.205   4.034   2.573
  775SOL    HW1 3224   1.261   4.091   2.512
  775SOL    HW2 3225   1.264   3.988   2.639
  776SOL     OW 3226   3.118   5.154   6.332
  776SOL    HW1 3227   3.155   5.223   6.393
  776SOL    HW2 3228   3.075   5.082   6.385
  777SOL     OW 3229   1.985   3.393   6.757
  777SOL    HW1 3230   2.027   3.401   6.666
  777SOL    HW2 3231   1.970   3.483   6.796
  778SOL     OW 3232   3.638   5.620   6.515
  778SOL    HW1 3233   3.672   5.544   6.458
  778SOL    HW2 3234   3.603   5.692   6.455
  779SOL     OW 3235   5.725   1.959   3.233
  779SOL    HW1 3236   5.742   2.055   3.211
  779SOL    HW2 3237   5.663   1.953   3.311
  780SOL     OW 3238   6.547   1.385   4.105
  780SOL    HW1 3239   6.569   1.483   4.102
  780SOL    HW2 3240   6.610   1.335   4.046
  781SOL     OW 3241   0.493   4.758   6.458
  781SOL    HW1 3242   0.491   4.849   6.418
  781SOL    HW2 3243   0.587   4.726   6.464
  782SOL     OW 3244   2.600   4.133   5.316
  782SOL    HW1 3245   2.673   4.077   5.353
  782SOL    HW2 3246   2.537   4.076   5.263
  783SOL     OW 3247   6.404   4.936   6.136
  783SOL    HW1 3248   6.387   4.858   6.196
  783SOL    HW2 3249   6.499   4.967   6.146
  784SOL     OW 3250   2.186   5.752   0.247
  784SOL    HW1 3251   2.259   5.684   0.254
  784SOL    HW2 3252   2.208   5.816   0.173
  785SOL     OW 3253   0.742   0.300   4.536
  785SOL    HW1 3254   0.699   0.351   4.462
  785SOL    HW2 3255   0.689   0.217   4.555
  786SOL     OW 3256   5.986   0.650   4.719
  786SOL    HW1 3257   5.919   0.575   4.722
  786SOL    HW2 3258   5.952   0.723   4.660
  787SOL     OW 3259   1.787   6.368   1.273
  787SOL    HW1 3260   1.767   6.432   1.348
  787SOL    HW2 3261   1.733   6.285   1.286
  788SOL     OW 3262   2.292   2.667   2.518
  788SOL    HW1 3263   2.202   2.628   2.541
  788SOL    HW2 3264   2.281   2.764   2.496
  789SOL     OW 3265   4.026   5.424   2.584
  789SOL    HW1 3266   3.928   5.403   2.580
  789SOL    HW2 3267   4.078   5.339   2.586
  790SOL     OW 3268   0.257   3.372   2.252
  790SOL    HW1 3269   0.266   3.273   2.245
  790SOL    HW2 3270   0.166   3.395   2.286
  791SOL     OW 3271   3.224   0.595   3.680
  791SOL    HW1 3272   3.176   0.660   3.620
  791SOL    HW2 3273   3.235   0.635   3.771
  792SOL     OW 3274   2.653   0.479   1.370
  792SOL    HW1 3275   2.561   0.514   1.350
  792SOL    HW2 3276   2.675   0.406   1.306
  793SOL     OW 3277   1.765   5.743   4.941
  793SOL    HW1 3278   1.748   5.735   5.039
  793SOL    HW2 3279   1.819   5.664   4.910
  794SOL     OW 3280   3.177   3.683   2.693
  794SOL    HW1 3281   3.189   3.611   2.761
  794SOL    HW2 3282   3.130   3.761   2.735
  795SOL     OW 3283   4.930   0.479   5.353
  795SOL    HW1 3284   4.960   0.414   5.422
  795SOL    HW2 3285   4.956   0.445   5.262
  796SOL     OW 3286   1.013   2.137   0.153
  796SOL    HW1 3287   1.036   2.092   0.240
  796SOL    HW2 3288   0.915   2.129   0.136
  797SOL     OW 3289   3.684   6.904   1.410
  797SOL    HW1 3290   3.765   6.962   1.408
  797SOL    HW2 3291   3.639   6.907   1.321
  798SOL     OW 3292   5.011   4.042   1.488
  798SOL    HW1 3293   5.083   4.031   1.556
  798SOL    HW2 3294   4.953   4.120   1.513
  799SOL     OW 3295   3.378   2.655   5.772
  799SOL    HW1 3296   3.303   2.664   5.706
  799SOL    HW2 3297   3.465   2.676   5.727
  800SOL     OW 3298   5.293   2.848   2.886
  800SOL    HW1 3299   5.281   2.837   2.985
  800SOL    HW2 3300   5.243   2.929   2.855
  801SOL     OW 3301   1.788   5.737   6.969
  801SOL    HW1 3302   1.848   5.688   0.011
  801SOL    HW2 3303   1.840   5.810   6.923
  802SOL     OW 3304   4.196   2.606   6.612
  802SOL    HW1 3305   4.148   2.672   6.555
  802SOL    HW2 3306   4.147   2.520   6.613
  803SOL     OW 3307   2.341   2.354   4.033
  803SOL    HW1 3308   2.258   2.395   4.069
  803SOL    HW2 3309   2.347   2.369   3.934
  804SOL     OW 3310   5.241   0.309   3.179
  804SOL    HW1 3311   5.228   0.338   3.084
  804SOL    HW2 3312   5.201   0.218   3.191
  805SOL     OW 3313   3.576   1.323   4.133
  805SOL    HW1 3314   3.626   1.384   4.194
  805SOL    HW2 3315   3.581   1.358   4.039
  806SOL     OW 3316   3.404   6.165   6.062
  806SOL    HW1 3317   3.468   6.241   6.075
  806SOL    HW2 3318   3.344   6.184   5.984
  807SOL     OW 3319   1.204   6.070   6.652
  807SOL    HW1 3320   1.182   6.136   6.724
  807SOL    HW2 3321   1.125   6.059   6.592
  808SOL     OW 3322   5.384   2.801   6.121
  808SOL    HW1 3323   5.445   2.830   6.047
  808SOL    HW2 3324   5.368   2.877   6.183
  809SOL     OW 3325   3.506   6.448   6.563
  809SOL    HW1 3326   3.520   6.545   6.545
  809SOL    HW2 3327   3.537   6.426   6.656
  810SOL     OW 3328   3.530   3.708   6.881
  810SOL    HW1 3329   3.598   3.779   6.861
  810SOL    HW2 3330   3.522   3.696   6.980
  811SOL     OW 3331   5.328   5.515   4.082
  811SOL    HW1 3332   5.384   5.587   4.042
  811SOL    HW2 3333   5.236   5.549   4.099
  812SOL     OW 3334   1.027   3.749   1.349
  812SOL    HW1 3335   0.947   3.695   1.321
  812SOL    HW2 3336   0.997   3.842   1.373
  813SOL     OW 3337   3.043   1.513   4.858
  813SOL    HW1 3338   3.093   1.595   4.830
  813SOL    HW2 3339   2.964   1.539   4.913
  814SOL     OW 3340   0.178   4.676   1.751
  814SOL    HW1 3341   0.221   4.629   1.828
  814SOL    HW2 3342   0.169   4.612   1.675
  815SOL     OW 3343   4.848   1.655   3.770
  815SOL    HW1 3344   4.896   1.636   3.856
  815SOL    HW2 3345   4.877   1.589   3.701
  816SOL     OW 3346   5.057   3.622   6.258
  816SOL    HW1 3347   4.973   3.665   6.293
  816SOL    HW2 3348   5.043   3.524   6.248
  817SOL     OW 3349   0.038   4.870   6.266
  817SOL    HW1 3350   7.016   4.801   6.207
  817SOL    HW2 3351   6.991   4.939   6.290
  818SOL     OW 3352   6.881   1.614   5.160
  818SOL    HW1 3353   6.944   1.638   5.234
  818SOL    HW2 3354   6.792   1.654   5.178
  819SOL     OW 3355   5.438   3.218   1.060
  819SOL    HW1 3356   5.372   3.266   1.003
  819SOL    HW2 3357   5.422   3.241   1.156
  820SOL     OW 3358   2.510   1.843   4.953
  820SOL    HW1 3359   2.497   1.922   4.894
  820SOL    HW2 3360   2.515   1.760   4.897
  821SOL     OW 3361   4.738   3.654   6.743
  821SOL    HW1 3362   4.669   3.645   6.671
  821SOL    HW2 3363   4.807   3.582   6.733
  822SOL     OW 3364   0.305   4.770   3.473
  822SOL    HW1 3365   0.324   4.687   3.421
  822SOL    HW2 3366   0.206   4.784   3.478
  823SOL     OW 3367   2.163   2.551   4.688
  823SOL    HW1 3368   2.125   2.632   4.644
  823SOL    HW2 3369   2.258   2.569   4.714
  824SOL     OW 3370   5.102   0.655   6.457
  824SOL    HW1 3371   5.051   0.573   6.434
  824SOL    HW2 3372   5.054   0.735   6.420
  825SOL     OW 3373   5.971   5.505   0.802
  825SOL    HW1 3374   5.991   5.420   0.850
  825SOL    HW2 3375   6.051   5.565   0.805
  826SOL     OW 3376   3.928   1.921   0.563
  826SOL    HW1 3377   4.011   1.976   0.554
  826SOL    HW2 3378   3.857   1.959   0.504
  827SOL     OW 3379   3.652   3.710   4.759
  827SOL    HW1 3380   3.708   3.756   4.690
  827SOL    HW2 3381   3.643   3.770   4.839
  828SOL     OW 3382   0.603   6.295   6.643
  828SOL    HW1 3383   0.507   6.267   6.639
  828SOL    HW2 3384   0.645   6.258   6.726
  829SOL     OW 3385   3.779   3.305   1.808
  829SOL    HW1 3386   3.731   3.273   1.889
  829SOL    HW2 3387   3.725   3.376   1.763
  830SOL     OW 3388   6.620   4.135   5.919
  830SOL    HW1 3389   6.701   4.076   5.926
  830SOL    HW2 3390   6.574   4.140   6.008
  831SOL     OW 3391   5.826   1.215   3.052
  831SOL    HW1 3392   5.882   1.152   2.998
  831SOL    HW2 3393   5.735   1.175   3.066
  832SOL     OW 3394   3.289   2.148   4.402
  832SOL    HW1 3395   3.211   2.158   4.464
  832SOL    HW2 3396   3.256   2.127   4.310
  833SOL     OW 3397   4.097   3.265   0.238
  833SOL    HW1 3398   4.065   3.295   0.327
  833SOL    HW2 3399   4.022   3.221   0.188
  834SOL     OW 3400   5.374   3.034   0.496
  834SOL    HW1 3401   5.373   3.088   0.412
  834SOL    HW2 3402   5.424   3.084   0.567
  835SOL     OW 3403   6.899   6.852   4.933
  835SOL    HW1 3404   6.883   6.944   4.898
  835SOL    HW2 3405   6.994   6.826   4.916
  836SOL     OW 3406   5.669   0.292   3.973
  836SOL    HW1 3407   5.633   0.257   3.886
  836SOL    HW2 3408   5.628   0.381   3.992
  837SOL     OW 3409   1.562   0.381   6.788
  837SOL    HW1 3410   1.655   0.419   6.791
  837SOL    HW2 3411   1.550   0.330   6.702
  838SOL     OW 3412   2.022   5.571   3.445
  838SOL    HW1 3413   1.992   5.634   3.517
  838SOL    HW2 3414   2.122   5.571   3.441
  839SOL     OW 3415   1.604   2.325   0.429
  839SOL    HW1 3416   1.580   2.385   0.505
  839SOL    HW2 3417   1.521   2.279   0.395
  840SOL     OW 3418   4.139   5.262   0.779
  840SOL    HW1 3419   4.169   5.271   0.684
  840SOL    HW2 3420   4.124   5.165   0.800
  841SOL     OW 3421   2.757   5.244   6.427
  841SOL    HW1 3422   2.661   5.226   6.449
  841SOL    HW2 3423   2.811   5.247   6.511
  842SOL     OW 3424   4.509   6.757   0.530
  842SOL    HW1 3425   4.552   6.753   0.620
  842SOL    HW2 3426   4.563   6.817   0.470
  843SOL     OW 3427   1.366   0.641   1.857
  843SOL    HW1 3428   1.311   0.558   1.861
  843SOL    HW2 3429   1.424   0.647   1.939
  844SOL     OW 3430   6.864   0.194   1.376
  844SOL    HW1 3431   6.911   0.111   1.348
  844SOL    HW2 3432   6.766   0.176   1.384
  845SOL     OW 3433   4.067   1.711   2.178
  845SOL    HW1 3434   4.005   1.632   2.173
  845SOL    HW2 3435   4.048   1.774   2.103
  846SOL     OW 3436   1.769   1.654   1.057
  846SOL    HW1 3437   1.698   1.592   1.023
  846SOL    HW2 3438   1.796   1.717   0.985
  847SOL     OW 3439   2.459   3.457   1.345
  847SOL    HW1 3440   2.454   3.469   1.444
  847SOL    HW2 3441   2.457   3.546   1.300
  848SOL     OW 3442   6.494   5.900   0.223
  848SOL    HW1 3443   6.433   5.939   0.155
  848SOL    HW2 3444   6.565   5.846   0.178
  849SOL     OW 3445   5.549   2.968   6.507
  849SOL    HW1 3446   5.543   2.871   6.529
  849SOL    HW2 3447   5.539   3.022   6.590
  850SOL     OW 3448   1.647   0.921   4.217
  850SOL    HW1 3449   1.734   0.966   4.199
  850SOL    HW2 3450   1.622   0.932   4.313
  851SOL     OW 3451   4.820   2.489   6.146
  851SOL    HW1 3452   4.740   2.536   6.185
  851SOL    HW2 3453   4.842   2.409   6.201
  852SOL     OW 3454   6.628   5.123   1.864
  852SOL    HW1 3455   6.691   5.055   1.902
  852SOL    HW2 3456   6.680   5.195   1.817
  853SOL     OW 3457   3.245   3.183   0.557
  853SOL    HW1 3458   3.233   3.267   0.610
  853SOL    HW2 3459   3.181   3.114   0.590
  854SOL     OW 3460   0.048   6.995   5.416
  854SOL    HW1 3461   0.082   0.038   5.486
  854SOL    HW2 3462   0.118   6.982   5.346
  855SOL     OW 3463   4.638   2.232   0.193
  855SOL    HW1 3464   4.690   2.302   0.143
  855SOL    HW2 3465   4.701   2.165   0.233
  856SOL     OW 3466   1.943   5.332   1.748
  856SOL    HW1 3467   1.997   5.252   1.770
  856SOL    HW2 3468   1.991   5.388   1.681
  857SOL     OW 3469   6.496   5.703   5.115
  857SOL    HW1 3470   6.547   5.622   5.142
  857SOL    HW2 3471   6.517   5.726   5.020
  858SOL     OW 3472   3.822   4.310   0.174
  858SOL    HW1 3473   3.858   4.249   0.244
  858SOL    HW2 3474   3.764   4.258   0.111
  859SOL     OW 3475   5.048   5.565   5.148
  859SOL    HW1 3476   5.025   5.531   5.239
  859SOL    HW2 3477   5.009   5.504   5.079
  860SOL     OW 3478   4.369   3.034   6.147
  860SOL    HW1 3479   4.354   3.130   6.127
  860SOL    HW2 3480   4.380   2.983   6.061
  861SOL     OW 3481   1.214   5.744   2.791
  861SOL    HW1 3482   1.247   5.810   2.859
  861SOL    HW2 3483   1.291   5.712   2.736
  862SOL     OW 3484   0.860   4.200   3.857
  862SOL    HW1 3485   0.937   4.143   3.828
  862SOL    HW2 3486   0.863   4.287   3.809
  863SOL     OW 3487   5.808   0.580   1.471
  863SOL    HW1 3488   5.812   0.646   1.396
  863SOL    HW2 3489   5.713   0.561   1.494
  864SOL     OW 3490   5.892   5.711   2.653
  864SOL    HW1 3491   5.855   5.743   2.566
  864SOL    HW2 3492   5.838   5.748   2.729
  865SOL     OW 3493   1.395   5.112   4.733
  865SOL    HW1 3494   1.308   5.078   4.770
  865SOL    HW2 3495   1.471   5.064   4.778
  866SOL     OW 3496   3.768   0.205   1.827
  866SOL    HW1 3497   3.783   0.172   1.734
  866SOL    HW2 3498   3.729   0.131   1.882
  867SOL     OW 3499   5.991   3.565   5.644
  867SOL    HW1 3500   6.004   3.632   5.717
  867SOL    HW2 3501   6.006   3.610   5.556
  868SOL     OW 3502   0.680   1.833   2.023
  868SOL    HW1 3503   0.631   1.836   2.110
  868SOL    HW2 3504   0.619   1.858   1.948
  869SOL     OW 3505   6.714   3.317   2.786
  869SOL    HW1 3506   6.642   3.379   2.756
  869SOL    HW2 3507   6.683   3.223   2.776
  870SOL     OW 3508   3.817   5.118   1.921
  870SOL    HW1 3509   3.903   5.096   1.875
  870SOL    HW2 3510   3.741   5.083   1.867
  871SOL     OW 3511   5.104   1.489   3.720
  871SOL    HW1 3512   5.061   1.442   3.643
  871SOL    HW2 3513   5.195   1.451   3.736
  872SOL     OW 3514   1.282   2.042   4.950
  872SOL    HW1 3515   1.352   1.989   4.998
  872SOL    HW2 3516   1.323   2.084   4.869
  873SOL     OW 3517   4.125   0.263   6.728
  873SOL    HW1 3518   4.134   0.232   6.634
  873SOL    HW2 3519   4.043   0.224   6.769
  874SOL     OW 3520   6.069   3.585   1.555
  874SOL    HW1 3521   6.055   3.632   1.642
  874SOL    HW2 3522   6.122   3.643   1.494
  875SOL     OW 3523   5.399   5.715   2.093
  875SOL    HW1 3524   5.336   5.705   2.016
  875SOL    HW2 3525   5.488   5.678   2.068
  876SOL     OW 3526   5.812   0.486   6.533
  876SOL    HW1 3527   5.787   0.390   6.544
  876SOL    HW2 3528   5.858   0.499   6.445
  877SOL     OW 3529   1.023   3.306   6.967
  877SOL    HW1 3530   0.941   3.361   6.986
  877SOL    HW2 3531   1.061   3.272   0.033
  878SOL     OW 3532   3.719   6.431   4.114
  878SOL    HW1 3533   3.771   6.515   4.129
  878SOL    HW2 3534   3.769   6.354   4.153
  879SOL     OW 3535   5.828   6.787   6.714
  879SOL    HW1 3536   5.880   6.768   6.630
  879SOL    HW2 3537   5.846   6.881   6.743
  880SOL     OW 3538   2.881   3.608   3.066
  880SOL    HW1 3539   2.839   3.549   2.998
  880SOL    HW2 3540   2.979   3.614   3.049
  881SOL     OW 3541   4.175   2.107   0.561
  881SOL    HW1 3542   4.206   2.015   0.586
  881SOL    HW2 3543   4.227   2.175   0.613
  882SOL     OW 3544   1.940   3.061   3.390
  882SOL    HW1 3545   1.940   3.023   3.482
  882SOL    HW2 3546   1.908   2.992   3.325
  883SOL     OW 3547   2.461   6.705   3.110
  883SOL    HW1 3548   2.381   6.655   3.077
  883SOL    HW2 3549   2.449   6.726   3.208
  884SOL     OW 3550   2.604   3.472   6.103
  884SOL    HW1 3551   2.664   3.546   6.136
  884SOL    HW2 3552   2.661   3.399   6.064
  885SOL     OW 3553   4.395   2.834   6.355
  885SOL    HW1 3554   4.385   2.909   6.290
  885SOL    HW2 3555   4.307   2.788   6.367
  886SOL     OW 3556   3.741   1.526   6.885
  886SOL    HW1 3557   3.651   1.489   6.906
  886SOL    HW2 3558   3.737   1.581   6.802
  887SOL     OW 3559   4.971   1.038   5.170
  887SOL    HW1 3560   4.894   1.046   5.106
  887SOL    HW2 3561   4.944   0.980   5.247
  888SOL     OW 3562   6.611   6.673   1.693
  888SOL    HW1 3563   6.662   6.589   1.670
  888SOL    HW2 3564   6.672   6.752   1.682
  889SOL     OW 3565   0.257   3.431   0.276
  889SOL    HW1 3566   0.355   3.447   0.268
  889SOL    HW2 3567   0.224   3.383   0.195
  890SOL     OW 3568   2.525   6.317   4.082
  890SOL    HW1 3569   2.553   6.410   4.059
  890SOL    HW2 3570   2.466   6.319   4.162
  891SOL     OW 3571   5.376   4.878   2.357
  891SOL    HW1 3572   5.413   4.956   2.306
  891SOL    HW2 3573   5.372   4.900   2.454
  892SOL     OW 3574   2.560   4.822   0.708
  892SOL    HW1 3575   2.534   4.751   0.643
  892SOL    HW2 3576   2.616   4.782   0.781
  893SOL     OW 3577   1.205   5.146   2.922
  893SOL    HW1 3578   1.189   5.239   2.890
  893SOL    HW2 3579   1.166   5.135   3.014
  894SOL     OW 3580   0.951   4.561   0.797
  894SOL    HW1 3581   1.032   4.611   0.764
  894SOL    HW2 3582   0.968   4.463   0.792
  895SOL     OW 3583   6.905   5.309   3.934
  895SOL    HW1 3584   6.878   5.303   4.029
  895SOL    HW2 3585   6.979   5.244   3.916
  896SOL     OW 3586   0.745   0.805   6.401
  896SOL    HW1 3587   0.791   0.881   6.445
  896SOL    HW2 3588   0.718   0.738   6.470
  897SOL     OW 3589   4.644   1.278   0.487
  897SOL    HW1 3590   4.714   1.310   0.552
  897SOL    HW2 3591   4.659   1.182   0.467
  898SOL     OW 3592   3.854   0.607   2.907
  898SOL    HW1 3593   3.791   0.565   2.973
  898SOL    HW2 3594   3.846   0.559   2.820
  899SOL     OW 3595   6.760   5.816   0.166
  899SOL    HW1 3596   6.771   5.788   0.261
  899SOL    HW2 3597   6.845   5.799   0.116
  900SOL     OW 3598   5.374   5.127   0.863
  900SOL    HW1 3599   5.358   5.170   0.774
  900SOL    HW2 3600   5.346   5.189   0.936
  901SOL     OW 3601   0.982   0.151   3.177
  901SOL    HW1 3602   1.006   0.224   3.240
  901SOL    HW2 3603   0.883   0.141   3.173
  902SOL     OW 3604   6.687   3.001   1.719
  902SOL    HW1 3605   6.588   3.009   1.731
  902SOL    HW2 3606   6.725   3.090   1.694
  903SOL     OW 3607   0.338   1.556   1.007
  903SOL    HW1 3608   0.272   1.550   1.082
  903SOL    HW2 3609   0.401   1.632   1.024
  904SOL     OW 3610   2.192   0.958   2.944
  904SOL    HW1 3611   2.185   1.051   2.980
  904SOL    HW2 3612   2.280   0.919   2.970
  905SOL     OW 3613   6.137   1.878   6.649
  905SOL    HW1 3614   6.071   1.807   6.626
  905SOL    HW2 3615   6.107   1.965   6.610
  906SOL     OW 3616   5.236   2.730   0.158
  906SOL    HW1 3617   5.330   2.735   0.125
  906SOL    HW2 3618   5.217   2.808   0.218
  907SOL     OW 3619   5.336   4.624   6.525
  907SOL    HW1 3620   5.411   4.560   6.508
  907SOL    HW2 3621   5.257   4.599   6.469
  908SOL     OW 3622   0.892   4.330   3.415
  908SOL    HW1 3623   0.983   4.292   3.399
  908SOL    HW2 3624   0.899   4.429   3.424
  909SOL     OW 3625   5.262   5.950   6.028
  909SOL    HW1 3626   5.308   6.022   6.081
  909SOL    HW2 3627   5.327   5.876   6.009
  910SOL     OW 3628   2.731   4.626   0.406
  910SOL    HW1 3629   2.631   4.624   0.415
  910SOL    HW2 3630   2.759   4.568   0.329
  911SOL     OW 3631   1.405   4.398   5.737
  911SOL    HW1 3632   1.313   4.423   5.705
  911SOL    HW2 3633   1.463   4.378   5.658
  912SOL     OW 3634   4.911   1.685   4.706
  912SOL    HW1 3635   4.833   1.698   4.768
  912SOL    HW2 3636   4.993   1.664   4.759
  913SOL     OW 3637   5.193   6.572   2.919
  913SOL    HW1 3638   5.279   6.603   2.878
  913SOL    HW2 3639   5.134   6.534   2.847
  914SOL     OW 3640   3.511   6.424   6.163
  914SOL    HW1 3641   3.571   6.370   6.221
  914SOL    HW2 3642   3.492   6.512   6.207
  915SOL     OW 3643   5.112   5.912   1.383
  915SOL    HW1 3644   5.194   5.871   1.345
  915SOL    HW2 3645   5.087   5.864   1.467
  916SOL     OW 3646   1.366   3.126   2.641
  916SOL    HW1 3647   1.381   3.145   2.544
  916SOL    HW2 3648   1.393   3.032   2.662
  917SOL     OW 3649   0.555   6.567   6.820
  917SOL    HW1 3650   0.513   6.523   6.741
  917SOL    HW2 3651   0.645   6.603   6.796
  918SOL     OW 3652   3.286   6.715   6.945
  918SOL    HW1 3653   3.196   6.730   6.904
  918SOL    HW2 3654   3.287   6.754   0.017
  919SOL     OW 3655   4.725   1.182   5.911
  919SOL    HW1 3656   4.663   1.150   5.840
  919SOL    HW2 3657   4.730   1.282   5.909
  920SOL     OW 3658   3.009   5.147   1.766
  920SOL    HW1 3659   2.931   5.163   1.706
  920SOL    HW2 3660   3.050   5.059   1.744
  921SOL     OW 3661   5.076   5.608   4.850
  921SOL    HW1 3662   5.024   5.533   4.891
  921SOL    HW2 3663   5.026   5.694   4.863
  922SOL     OW 3664   3.367   3.286   3.673
  922SOL    HW1 3665   3.296   3.217   3.689
  922SOL    HW2 3666   3.407   3.314   3.760
  923SOL     OW 3667   2.083   3.489   5.452
  923SOL    HW1 3668   2.149   3.416   5.435
  923SOL    HW2 3669   1.998   3.450   5.489
  924SOL     OW 3670   0.452   3.279   1.371
  924SOL    HW1 3671   0.492   3.236   1.290
  924SOL    HW2 3672   0.519   3.278   1.445
  925SOL     OW 3673   0.589   1.670   0.320
  925SOL    HW1 3674   0.623   1.604   0.252
  925SOL    HW2 3675   0.600   1.631   0.411
  926SOL     OW 3676   1.876   2.015   1.632
  926SOL    HW1 3677   1.828   2.045   1.549
  926SOL    HW2 3678   1.827   1.940   1.674
  927SOL     OW 3679   0.138   3.657   4.366
  927SOL    HW1 3680   0.075   3.703   4.304
  927SOL    HW2 3681   0.135   3.558   4.350
  928SOL     OW 3682   3.179   5.035   5.504
  928SOL    HW1 3683   3.159   5.067   5.412
  928SOL    HW2 3684   3.209   5.112   5.561
  929SOL     OW 3685   0.455   1.945   4.348
  929SOL    HW1 3686   0.418   1.953   4.441
  929SOL    HW2 3687   0.404   2.007   4.288
  930SOL     OW 3688   5.523   5.580   4.416
  930SOL    HW1 3689   5.545   5.616   4.325
  930SOL    HW2 3690   5.522   5.656   4.481
  931SOL     OW 3691   6.410   0.894   3.226
  931SOL    HW1 3692   6.350   0.838   3.284
  931SOL    HW2 3693   6.502   0.895   3.266
  932SOL     OW 3694   3.422   0.457   4.015
  932SOL    HW1 3695   3.461   0.418   3.931
  932SOL    HW2 3696   3.362   0.533   3.991
  933SOL     OW 3697   1.283   5.759   1.776
  933SOL    HW1 3698   1.269   5.787   1.681
  933SOL    HW2 3699   1.223   5.812   1.836
  934SOL     OW 3700   1.932   3.243   0.660
  934SOL    HW1 3701   1.852   3.241   0.720
  934SOL    HW2 3702   1.988   3.162   0.676
  935SOL     OW 3703   5.571   2.897   5.618
  935SOL    HW1 3704   5.497   2.837   5.650
  935SOL    HW2 3705   5.638   2.908   5.692
  936SOL     OW 3706   2.029   0.681   6.071
  936SOL    HW1 3707   2.031   0.586   6.039
  936SOL    HW2 3708   2.117   0.724   6.052
  937SOL     OW 3709   3.460   2.382   5.857
  937SOL    HW1 3710   3.425   2.475   5.846
  937SOL    HW2 3711   3.526   2.379   5.932
  938SOL     OW 3712   4.892   6.139   4.728
  938SOL    HW1 3713   4.803   6.147   4.683
  938SOL    HW2 3714   4.929   6.230   4.744
  939SOL     OW 3715   1.449   0.383   5.642
  939SOL    HW1 3716   1.520   0.412   5.707
  939SOL    HW2 3717   1.367   0.355   5.693
  940SOL     OW 3718   1.738   5.492   0.801
  940SOL    HW1 3719   1.834   5.493   0.830
  940SOL    HW2 3720   1.696   5.406   0.828
  941SOL     OW 3721   3.631   6.774   0.941
  941SOL    HW1 3722   3.598   6.812   0.855
  941SOL    HW2 3723   3.720   6.813   0.963
  942SOL     OW 3724   6.569   4.711   6.951
  942SOL    HW1 3725   6.551   4.629   6.897
  942SOL    HW2 3726   6.566   4.792   6.892
  943SOL     OW 3727   3.675   5.486   1.269
  943SOL    HW1 3728   3.682   5.508   1.367
  943SOL    HW2 3729   3.650   5.390   1.258
  944SOL     OW 3730   6.739   6.100   3.310
  944SOL    HW1 3731   6.641   6.081   3.307
  944SOL    HW2 3732   6.789   6.021   3.275
  945SOL     OW 3733   0.506   5.465   6.334
  945SOL    HW1 3734   0.540   5.371   6.333
  945SOL    HW2 3735   0.583   5.528   6.333
  946SOL     OW 3736   6.087   2.145   4.183
  946SOL    HW1 3737   6.017   2.115   4.118
  946SOL    HW2 3738   6.047   2.150   4.275
  947SOL     OW 3739   3.895   4.002   3.114
  947SOL    HW1 3740   3.968   3.952   3.162
  947SOL    HW2 3741   3.900   3.983   3.016
  948SOL     OW 3742   3.364   1.136   4.062
  948SOL    HW1 3743   3.321   1.084   4.135
  948SOL    HW2 3744   3.452   1.173   4.095
  949SOL     OW 3745   3.062   0.152   5.771
  949SOL    HW1 3746   3.161   0.158   5.770
  949SOL    HW2 3747   3.023   0.213   5.703
  950SOL     OW 3748   6.801   0.345   2.088
  950SOL    HW1 3749   6.760   0.257   2.110
  950SOL    HW2 3750   6.738   0.399   2.032
  951SOL     OW 3751   1.309   0.077   3.626
  951SOL    HW1 3752   1.391   0.136   3.625
  951SOL    HW2 3753   1.319   0.008   3.698
  952SOL     OW 3754   3.835   1.765   3.288
  952SOL    HW1 3755   3.871   1.816   3.367
  952SOL    HW2 3756   3.739   1.787   3.276
  953SOL     OW 3757   0.696   5.290   5.944
  953SOL    HW1 3758   0.777   5.243   5.908
  953SOL    HW2 3759   0.724   5.355   6.015
  954SOL     OW 3760   4.557   6.604   2.444
  954SOL    HW1 3761   4.493   6.664   2.492
  954SOL    HW2 3762   4.644   6.604   2.492
  955SOL     OW 3763   2.304   5.299   1.175
  955SOL    HW1 3764   2.344   5.285   1.265
  955SOL    HW2 3765   2.309   5.396   1.150
  956SOL     OW 3766   4.320   0.462   1.278
  956SOL    HW1 3767   4.396   0.406   1.310
  956SOL    HW2 3768   4.352   0.525   1.207
  957SOL     OW 3769   6.088   6.870   2.981
  957SOL    HW1 3770   6.024   6.795   2.964
  957SOL    HW2 3771   6.037   6.956   2.984
  958SOL     OW 3772   5.287   6.194   1.749
  958SOL    HW1 3773   5.308   6.112   1.696
  958SOL    HW2 3774   5.246   6.168   1.836
  959SOL     OW 3775   5.151   0.041   3.195
  959SOL    HW1 3776   5.117   0.028   3.288
  959SOL    HW2 3777   5.106   6.995   3.134
  960SOL     OW 3778   1.893   6.350   6.238
  960SOL    HW1 3779   1.964   6.362   6.169
  960SOL    HW2 3780   1.927   6.382   6.327
  961SOL     OW 3781   4.123   1.280   3.573
  961SOL    HW1 3782   4.214   1.285   3.615
  961SOL    HW2 3783   4.132   1.239   3.482
  962SOL     OW 3784   0.123   0.050   4.670
  962SOL    HW1 3785   0.050   0.106   4.709
  962SOL    HW2 3786   0.087   6.982   4.642
  963SOL     OW 3787   5.697   2.977   1.142
  963SOL    HW1 3788   5.619   2.989   1.204
  963SOL    HW2 3789   5.709   3.060   1.087
  964SOL     OW 3790   3.812   6.701   5.216
  964SOL    HW1 3791   3.861   6.657   5.291
  964SOL    HW2 3792   3.878   6.740   5.151
  965SOL     OW 3793   4.871   2.577   4.109
  965SOL    HW1 3794   4.895   2.544   4.200
  965SOL    HW2 3795   4.784   2.626   4.114
  966SOL     OW 3796   5.210   1.222   4.010
  966SOL    HW1 3797   5.277   1.278   3.962
  966SOL    HW2 3798   5.239   1.208   4.104
  967SOL     OW 3799   3.986   5.059   6.469
  967SOL    HW1 3800   4.025   5.033   6.381
  967SOL    HW2 3801   4.016   5.150   6.494
  968SOL     OW 3802   3.779   0.513   1.102
  968SOL    HW1 3803   3.722   0.447   1.053
  968SOL    HW2 3804   3.808   0.585   1.040
  969SOL     OW 3805   2.567   3.983   6.562
  969SOL    HW1 3806   2.612   3.949   6.645
  969SOL    HW2 3807   2.613   3.945   6.482
  970SOL     OW 3808   4.907   6.602   5.306
  970SOL    HW1 3809   4.973   6.672   5.336
  970SOL    HW2 3810   4.933   6.513   5.344
  971SOL     OW 3811   5.071   3.643   3.286
  971SOL    HW1 3812   4.995   3.666   3.225
  971SOL    HW2 3813   5.150   3.615   3.231
  972SOL     OW 3814   0.094   2.514   0.773
  972SOL    HW1 3815   0.063   2.425   0.805
  972SOL    HW2 3816   0.060   2.585   0.834
  973SOL     OW 3817   0.194   2.667   5.001
  973SOL    HW1 3818   0.157   2.575   5.014
  973SOL    HW2 3819   0.267   2.664   4.933
  974SOL     OW 3820   1.011   3.682   2.019
  974SOL    HW1 3821   1.095   3.729   1.992
  974SOL    HW2 3822   0.952   3.671   1.939
  975SOL     OW 3823   3.076   0.493   2.650
  975SOL    HW1 3824   3.026   0.476   2.565
  975SOL    HW2 3825   3.146   0.563   2.633
  976SOL     OW 3826   0.312   2.983   3.902
  976SOL    HW1 3827   0.239   2.957   3.838
  976SOL    HW2 3828   0.371   3.051   3.858
  977SOL     OW 3829   6.307   1.405   2.554
  977SOL    HW1 3830   6.245   1.366   2.622
  977SOL    HW2 3831   6.259   1.415   2.467
  978SOL     OW 3832   4.894   3.065   0.570
  978SOL    HW1 3833   4.965   3.134   0.553
  978SOL    HW2 3834   4.892   3.043   0.668
  979SOL     OW 3835   0.215   4.789   6.463
  979SOL    HW1 3836   0.315   4.788   6.462
  979SOL    HW2 3837   0.181   4.815   6.372
  980SOL     OW 3838   4.351   1.274   4.496
  980SOL    HW1 3839   4.324   1.337   4.569
  980SOL    HW2 3840   4.378   1.327   4.416
  981SOL     OW 3841   0.893   6.216   5.566
  981SOL    HW1 3842   0.805   6.171   5.550
  981SOL    HW2 3843   0.911   6.280   5.491
  982SOL     OW 3844   0.102   0.924   6.594
  982SOL    HW1 3845   0.145   0.899   6.681
  982SOL    HW2 3846   0.011   0.962   6.611
  983SOL     OW 3847   0.181   3.791   3.053
  983SOL    HW1 3848   0.134   3.876   3.030
  983SOL    HW2 3849   0.223   3.753   2.970
  984SOL     OW 3850   0.533   3.622   3.705
  984SOL    HW1 3851   0.485   3.709   3.705
  984SOL    HW2 3852   0.540   3.587   3.798
  985SOL     OW 3853   5.679   5.810   4.973
  985SOL    HW1 3854   5.580   5.826   4.970
  985SOL    HW2 3855   5.705   5.785   5.067
  986SOL     OW 3856   4.395   5.712   1.224
  986SOL    HW1 3857   4.359   5.654   1.151
  986SOL    HW2 3858   4.492   5.731   1.206
  987SOL     OW 3859   4.883   4.492   4.844
  987SOL    HW1 3860   4.947   4.450   4.909
  987SOL    HW2 3861   4.872   4.432   4.765
  988SOL     OW 3862   2.973   4.810   2.020
  988SOL    HW1 3863   3.025   4.818   1.935
  988SOL    HW2 3864   2.912   4.731   2.014
  989SOL     OW 3865   0.532   2.914   1.224
  989SOL    HW1 3866   0.484   2.934   1.138
  989SOL    HW2 3867   0.626   2.885   1.203
  990SOL     OW 3868   3.719   0.319   5.186
  990SOL    HW1 3869   3.778   0.325   5.106
  990SOL    HW2 3870   3.756   0.250   5.249
  991SOL     OW 3871   1.177   5.996   4.205
  991SOL    HW1 3872   1.173   6.088   4.165
  991SOL    HW2 3873   1.167   5.928   4.132
  992SOL     OW 3874   6.561   2.263   0.216
  992SOL    HW1 3875   6.526   2.352   0.188
  992SOL    HW2 3876   6.506   2.191   0.174
  993SOL     OW 3877   1.920   4.413   0.235
  993SOL    HW1 3878   2.013   4.389   0.263
  993SOL    HW2 3879   1.924   4.470   0.153
  994SOL     OW 3880   2.798   0.149   1.621
  994SOL    HW1 3881   2.791   0.222   1.553
  994SOL    HW2 3882   2.735   0.167   1.697
  995SOL     OW 3883   5.961   3.805   5.424
  995SOL    HW1 3884   6.046   3.857   5.436
  995SOL    HW2 3885   5.959   3.763   5.333
  996SOL     OW 3886   4.136   6.531   4.980
  996SOL    HW1 3887   4.082   6.614   4.987
  996SOL    HW2 3888   4.076   6.451   4.986
  997SOL     OW 3889   1.570   6.063   3.456
  997SOL    HW1 3890   1.656   6.101   3.490
  997SOL    HW2 3891   1.590   5.981   3.402
  998SOL     OW 3892   4.613   0.097   7.011
  998SOL    HW1 3893   4.625   0.166   0.062
  998SOL    HW2 3894   4.684   0.108   6.941
  999SOL     OW 3895   5.545   2.731   2.473
  999SOL    HW1 3896   5.456   2.761   2.507
  999SOL    HW2 3897   5.614   2.747   2.544
 1000SOL     OW 3898   5.218   1.615   2.163
 1000SOL    HW1 3899   5.211   1.551   2.086
 1000SOL    HW2 3900   5.144   1.682   2.158
 1001SOL     OW 3901   2.714   6.761   2.639
 1001SOL    HW1 3902   2.640   6.752   2.705
 1001SOL    HW2 3903   2.678   6.792   2.551
 1002SOL     OW 3904   4.258   2.511   0.412
 1002SOL    HW1 3905   4.334   2.506   0.347
 1002SOL    HW2 3906   4.186   2.447   0.384
 1003SOL     OW 3907   0.789   0.400   3.265
 1003SOL    HW1 3908   0.735   0.457   3.328
 1003SOL    HW2 3909   0.736   0.384   3.182
 1004SOL     OW 3910   5.139   1.563   4.240
 1004SOL    HW1 3911   5.050   1.519   4.232
 1004SOL    HW2 3912   5.137   1.628   4.317
 1005SOL     OW 3913   0.670   5.323   1.627
 1005SOL    HW1 3914   0.753   5.275   1.653
 1005SOL    HW2 3915   0.685   5.422   1.632
 1006SOL     OW 3916   2.142   4.300   1.694
 1006SOL    HW1 3917   2.234   4.279   1.661
 1006SOL    HW2 3918   2.075   4.279   1.623
 1007SOL     OW 3919   4.774   1.051   6.259
 1007SOL    HW1 3920   4.697   1.003   6.218
 1007SOL    HW2 3921   4.741   1.117   6.326
 1008SOL     OW 3922   0.686   5.044   4.563
 1008SOL    HW1 3923   0.628   4.969   4.530
 1008SOL    HW2 3924   0.644   5.087   4.643
 1009SOL     OW 3925   6.518   5.890   5.950
 1009SOL    HW1 3926   6.496   5.963   6.014
 1009SOL    HW2 3927   6.435   5.860   5.903
 1010SOL     OW 3928   3.002   3.682   0.221
 1010SOL    HW1 3929   3.074   3.634   0.170
 1010SOL    HW2 3930   2.943   3.615   0.267
 1011SOL     OW 3931   6.917   4.786   2.204
 1011SOL    HW1 3932   6.968   4.745   2.128
 1011SOL    HW2 3933   6.820   4.761   2.195
 1012SOL     OW 3934   5.817   6.067   2.818
 1012SOL    HW1 3935   5.781   5.975   2.831
 1012SOL    HW2 3936   5.742   6.131   2.801
 1013SOL     OW 3937   0.303   0.066   6.143
 1013SOL    HW1 3938   0.211   0.104   6.134
 1013SOL    HW2 3939   0.345   0.058   6.052
 1014SOL     OW 3940   1.002   4.659   4.495
 1014SOL    HW1 3941   1.000   4.615   4.585
 1014SOL    HW2 3942   0.919   4.714   4.484
 1015SOL     OW 3943   1.886   6.552   0.304
 1015SOL    HW1 3944   1.816   6.545   0.233
 1015SOL    HW2 3945   1.967   6.598   0.266
 1016SOL     OW 3946   0.119   4.335   0.864
 1016SOL    HW1 3947   0.174   4.350   0.947
 1016SOL    HW2 3948   0.174   4.358   0.784
 1017SOL     OW 3949   2.280   1.048   2.613
 1017SOL    HW1 3950   2.300   0.965   2.666
 1017SOL    HW2 3951   2.222   1.024   2.535
 1018SOL     OW 3952   5.822   6.138   4.421
 1018SOL    HW1 3953   5.884   6.086   4.363
 1018SOL    HW2 3954   5.865   6.153   4.510
 1019SOL     OW 3955   5.873   4.116   0.935
 1019SOL    HW1 3956   5.858   4.192   0.999
 1019SOL    HW2 3957   5.958   4.131   0.885
 1020SOL     OW 3958   5.269   1.582   1.720
 1020SOL    HW1 3959   5.351   1.543   1.678
 1020SOL    HW2 3960   5.253   1.674   1.682
 1021SOL     OW 3961   0.976   6.921   0.871
 1021SOL    HW1 3962   1.005   6.847   0.810
 1021SOL    HW2 3963   1.055   6.954   0.924
 1022SOL     OW 3964   2.153   5.055   6.449
 1022SOL    HW1 3965   2.195   5.140   6.416
 1022SOL    HW2 3966   2.154   4.986   6.377
 1023SOL     OW 3967   0.873   2.038   2.447
 1023SOL    HW1 3968   0.897   1.947   2.412
 1023SOL    HW2 3969   0.927   2.107   2.398
 1024SOL     OW 3970   1.839   2.074   4.361
 1024SOL    HW1 3971   1.905   2.111   4.296
 1024SOL    HW2 3972   1.751   2.059   4.316
 1025SOL     OW 3973   4.687   4.287   1.119
 1025SOL    HW1 3974   4.752   4.253   1.051
 1025SOL    HW2 3975   4.622   4.215   1.143
 1026SOL     OW 3976   3.008   3.051   2.137
 1026SOL    HW1 3977   2.930   3.034   2.078
 1026SOL    HW2 3978   3.015   3.149   2.156
 1027SOL     OW 3979   6.510   6.281   0.052
 1027SOL    HW1 3980   6.521   6.238   0.141
 1027SOL    HW2 3981   6.436   6.347   0.055
 1028SOL     OW 3982   0.827   4.760   2.692
 1028SOL    HW1 3983   0.925   4.753   2.672
 1028SOL    HW2 3984   0.791   4.844   2.652
 1029SOL     OW 3985   1.385   0.778   5.083
 1029SOL    HW1 3986   1.403   0.715   5.007
 1029SOL    HW2 3987   1.417   0.737   5.168
 1030SOL     OW 3988   3.768   3.407   0.866
 1030SOL    HW1 3989   3.868   3.414   0.868
 1030SOL    HW2 3990   3.728   3.496   0.889
 1031SOL     OW 3991   4.569   3.364   0.424
 1031SOL    HW1 3992   4.590   3.432   0.495
 1031SOL    HW2 3993   4.507   3.404   0.357
 1032SOL     OW 3994   1.564   1.467   0.968
 1032SOL    HW1 3995   1.484   1.438   0.915
 1032SOL    HW2 3996   1.624   1.389   0.983
 1033SOL     OW 3997   6.761   0.650   2.120
 1033SOL    HW1 3998   6.744   0.557   2.153
 1033SOL    HW2 3999   6.849   0.652   2.073
 1034SOL     OW 4000   3.107   0.808   5.438
 1034SOL    HW1 4001   3.007   0.804   5.440
 1034SOL    HW2 4002   3.137   0.845   5.349
 1035SOL     OW 4003   1.417   0.191   0.570
 1035SOL    HW1 4004   1.403   0.174   0.472
 1035SOL    HW2 4005   1.353   0.261   0.601
 1036SOL     OW 4006   4.852   1.655   1.857
 1036SOL    HW1 4007   4.890   1.563   1.861
 1036SOL    HW2 4008   4.805   1.668   1.770
 1037SOL     OW 4009   1.679   3.661   2.746
 1037SOL    HW1 4010   1.623   3.727   2.695
 1037SOL    HW2 4011   1.722   3.708   2.823
 1038SOL     OW 4012   1.991   6.144   0.041
 1038SOL    HW1 4013   2.072   6.155   0.099
 1038SOL    HW2 4014   1.958   6.234   0.012
 1039SOL     OW 4015   3.272   3.378   3.182
 1039SOL    HW1 4016   3.230   3.335   3.262
 1039SOL    HW2 4017   3.340   3.445   3.212
 1040SOL     OW 4018   3.631   1.614   2.919
 1040SOL    HW1 4019   3.684   1.570   2.992
 1040SOL    HW2 4020   3.694   1.646   2.847
 1041SOL     OW 4021   6.918   6.653   6.419
 1041SOL    HW1 4022   7.006   6.671   6.375
 1041SOL    HW2 4023   6.930   6.580   6.487
 1042SOL     OW 4024   5.174   3.837   3.920
 1042SOL    HW1 4025   5.150   3.885   4.005
 1042SOL    HW2 4026   5.260   3.788   3.934
 1043SOL     OW 4027   2.796   1.989   3.769
 1043SOL    HW1 4028   2.796   1.974   3.670
 1043SOL    HW2 4029   2.702   1.981   3.804
 1044SOL     OW 4030   5.510   4.591   2.166
 1044SOL    HW1 4031   5.583   4.641   2.212
 1044SOL    HW2 4032   5.426   4.600   2.219
 1045SOL     OW 4033   2.168   0.271   2.815
 1045SOL    HW1 4034   2.252   0.276   2.869
 1045SOL    HW2 4035   2.179   0.326   2.732
 1046SOL     OW 4036   2.814   2.099   1.089
 1046SOL    HW1 4037   2.798   2.059   0.999
 1046SOL    HW2 4038   2.881   2.173   1.080
 1047SOL     OW 4039   3.908   0.718   3.606
 1047SOL    HW1 4040   3.991   0.665   3.626
 1047SOL    HW2 4041   3.932   0.794   3.545
 1048SOL     OW 4042   1.082   0.036   1.965
 1048SOL    HW1 4043   1.080   0.008   2.060
 1048SOL    HW2 4044   1.135   6.991   1.911
 1049SOL     OW 4045   3.991   6.931   0.241
 1049SOL    HW1 4046   4.075   6.877   0.236
 1049SOL    HW2 4047   3.918   6.884   0.192
 1050SOL     OW 4048   2.453   1.171   4.319
 1050SOL    HW1 4049   2.540   1.212   4.291
 1050SOL    HW2 4050   2.469   1.080   4.358
 1051SOL     OW 4051   1.808   1.561   5.196
 1051SOL    HW1 4052   1.766   1.582   5.284
 1051SOL    HW2 4053   1.832   1.464   5.192
 1052SOL     OW 4054   4.341   1.784   7.011
 1052SOL    HW1 4055   4.282   1.814   0.066
 1052SOL    HW2 4056   4.431   1.825   0.000
 1053SOL     OW 4057   5.057   2.701   4.555
 1053SOL    HW1 4058   5.079   2.795   4.582
 1053SOL    HW2 4059   5.063   2.693   4.456
 1054SOL     OW 4060   4.512   5.618   6.480
 1054SOL    HW1 4061   4.531   5.535   6.428
 1054SOL    HW2 4062   4.459   5.593   6.562
 1055SOL     OW 4063   4.926   5.684   6.762
 1055SOL    HW1 4064   4.934   5.780   6.790
 1055SOL    HW2 4065   4.895   5.679   6.667
 1056SOL     OW 4066   3.531   3.708   0.137
 1056SOL    HW1 4067   3.606   3.668   0.190
 1056SOL    HW2 4068   3.504   3.796   0.178
 1057SOL     OW 4069   3.247   3.122   6.385
 1057SOL    HW1 4070   3.170   3.185   6.400
 1057SOL    HW2 4071   3.329   3.158   6.430
 1058SOL     OW 4072   3.059   2.066   2.044
 1058SOL    HW1 4073   3.020   2.153   2.071
 1058SOL    HW2 4074   3.049   2.054   1.945
 1059SOL     OW 4075   2.252   6.281   2.322
 1059SOL    HW1 4076   2.331   6.340   2.308
 1059SOL    HW2 4077   2.267   6.194   2.275
 1060SOL     OW 4078   6.467   0.525   5.259
 1060SOL    HW1 4079   6.411   0.491   5.335
 1060SOL    HW2 4080   6.420   0.602   5.216
 1061SOL     OW 4081   0.110   3.259   6.504
 1061SOL    HW1 4082   0.157   3.325   6.562
 1061SOL    HW2 4083   0.175   3.192   6.469
 1062SOL     OW 4084   3.293   5.413   4.947
 1062SOL    HW1 4085   3.194   5.401   4.959
 1062SOL    HW2 4086   3.336   5.429   5.036
 1063SOL     OW 4087   2.857   6.544   4.031
 1063SOL    HW1 4088   2.877   6.624   3.975
 1063SOL    HW2 4089   2.759   6.525   4.030
 1064SOL     OW 4090   0.567   3.450   0.269
 1064SOL    HW1 4091   0.589   3.545   0.291
 1064SOL    HW2 4092   0.604   3.390   0.340
 1065SOL     OW 4093   6.068   0.632   4.978
 1065SOL    HW1 4094   6.045   0.635   4.880
 1065SOL    HW2 4095   5.991   0.593   5.029
 1066SOL     OW 4096   4.917   6.075   1.339
 1066SOL    HW1 4097   5.001   6.024   1.357
 1066SOL    HW2 4098   4.840   6.027   1.380
 1067SOL     OW 4099   2.577   1.597   0.302
 1067SOL    HW1 4100   2.593   1.667   0.233
 1067SOL    HW2 4101   2.479   1.590   0.322
 1068SOL     OW 4102   6.069   2.991   1.447
 1068SOL    HW1 4103   5.992   2.991   1.384
 1068SOL    HW2 4104   6.042   2.947   1.533
 1069SOL     OW 4105   6.757   2.721   2.568
 1069SOL    HW1 4106   6.690   2.690   2.500
 1069SOL    HW2 4107   6.757   2.657   2.645
 1070SOL     OW 4108   0.912   0.519   2.326
 1070SOL    HW1 4109   0.948   0.516   2.419
 1070SOL    HW2 4110   0.856   0.601   2.314
 1071SOL     OW 4111   0.696   2.891   5.886
 1071SOL    HW1 4112   0.716   2.988   5.873
 1071SOL    HW2 4113   0.650   2.855   5.806
 1072SOL     OW 4114   2.198   1.281   2.120
 1072SOL    HW1 4115   2.236   1.217   2.053
 1072SOL    HW2 4116   2.216   1.375   2.090
 1073SOL     OW 4117   5.513   2.475   2.885
 1073SOL    HW1 4118   5.519   2.376   2.887
 1073SOL    HW2 4119   5.454   2.505   2.810
 1074SOL     OW 4120   3.492   5.173   1.340
 1074SOL    HW1 4121   3.466   5.161   1.436
 1074SOL    HW2 4122   3.447   5.254   1.303
 1075SOL     OW 4123   6.482   3.949   4.979
 1075SOL    HW1 4124   6.419   3.905   4.915
 1075SOL    HW2 4125   6.446   3.939   5.072
 1076SOL     OW 4126   2.047   4.152   5.003
 1076SOL    HW1 4127   2.021   4.171   4.909
 1076SOL    HW2 4128   2.142   4.120   5.005
 1077SOL     OW 4129   6.942   6.313   0.689
 1077SOL    HW1 4130   6.847   6.318   0.658
 1077SOL    HW2 4131   6.963   6.220   0.719
 1078SOL     OW 4132   6.170   5.942   4.582
 1078SOL    HW1 4133   6.104   5.907   4.649
 1078SOL    HW2 4134   6.188   5.872   4.514
 1079SOL     OW 4135   0.815   6.793   1.226
 1079SOL    HW1 4136   0.838   6.706   1.270
 1079SOL    HW2 4137   0.716   6.808   1.232
 1080SOL     OW 4138   4.189   6.108   0.524
 1080SOL    HW1 4139   4.089   6.105   0.528
 1080SOL    HW2 4140   4.227   6.032   0.577
 1081SOL     OW 4141   6.742   6.490   3.543
 1081SOL    HW1 4142   6.788   6.402   3.539
 1081SOL    HW2 4143   6.692   6.506   3.458
 1082SOL     OW 4144   4.248   6.920   0.278
 1082SOL    HW1 4145   4.331   6.920   0.223
 1082SOL    HW2 4146   4.261   6.979   0.358
 1083SOL     OW 4147   6.176   3.818   2.161
 1083SOL    HW1 4148   6.181   3.916   2.143
 1083SOL    HW2 4149   6.139   3.803   2.253
 1084SOL     OW 4150   5.624   0.549   5.368
 1084SOL    HW1 4151   5.678   0.589   5.443
 1084SOL    HW2 4152   5.662   0.460   5.344
 1085SOL     OW 4153   1.899   3.302   5.089
 1085SOL    HW1 4154   1.996   3.323   5.095
 1085SOL    HW2 4155   1.872   3.246   5.168
 1086SOL     OW 4156   5.827   4.913   1.817
 1086SOL    HW1 4157   5.920   4.877   1.816
 1086SOL    HW2 4158   5.765   4.847   1.859
 1087SOL     OW 4159   3.982   0.518   5.935
 1087SOL    HW1 4160   4.067   0.473   5.961
 1087SOL    HW2 4161   4.002   0.613   5.909
 1088SOL     OW 4162   6.976   5.127   4.209
 1088SOL    HW1 4163   0.055   5.135   4.199
 1088SOL    HW2 4164   6.947   5.177   4.291
 1089SOL     OW 4165   5.615   5.326   3.888
 1089SOL    HW1 4166   5.652   5.381   3.963
 1089SOL    HW2 4167   5.689   5.277   3.842
 1090SOL     OW 4168   5.782   2.770   5.216
 1090SOL    HW1 4169   5.748   2.775   5.122
 1090SOL    HW2 4170   5.812   2.677   5.236
 1091SOL     OW 4171   2.089   3.607   3.129
 1091SOL    HW1 4172   2.126   3.630   3.219
 1091SOL    HW2 4173   2.128   3.668   3.060
 1092SOL     OW 4174   0.825   6.510   0.827
 1092SOL    HW1 4175   0.810   6.519   0.926
 1092SOL    HW2 4176   0.740   6.531   0.778
 1093SOL     OW 4177   1.484   0.669   3.652
 1093SOL    HW1 4178   1.549   0.743   3.671
 1093SOL    HW2 4179   1.485   0.649   3.554
 1094SOL     OW 4180   0.533   0.106   2.655
 1094SOL    HW1 4181   0.600   0.110   2.581
 1094SOL    HW2 4182   0.527   0.012   2.690
 1095SOL     OW 4183   6.024   3.923   0.371
 1095SOL    HW1 4184   5.985   3.869   0.445
 1095SOL    HW2 4185   5.974   4.009   0.364
 1096SOL     OW 4186   2.121   5.990   1.985
 1096SOL    HW1 4187   2.110   5.892   1.970
 1096SOL    HW2 4188   2.108   6.038   1.898
 1097SOL     OW 4189   3.173   6.364   4.566
 1097SOL    HW1 4190   3.156   6.324   4.657
 1097SOL    HW2 4191   3.092   6.415   4.537
 1098SOL     OW 4192   6.970   3.745   0.250
 1098SOL    HW1 4193   6.934   3.822   0.303
 1098SOL    HW2 4194   6.961   3.661   0.304
 1099SOL     OW 4195   5.365   0.457   6.719
 1099SOL    HW1 4196   5.290   0.469   6.653
 1099SOL    HW2 4197   5.435   0.398   6.679
 1100SOL     OW 4198   4.556   2.042   4.832
 1100SOL    HW1 4199   4.465   2.084   4.835
 1100SOL    HW2 4200   4.613   2.091   4.767
 1101SOL     OW 4201   5.109   2.201   6.743
 1101SOL    HW1 4202   5.128   2.210   6.841
 1101SOL    HW2 4203   5.174   2.256   6.692
 1102SOL     OW 4204   2.884   0.298   3.807
 1102SOL    HW1 4205   2.793   0.336   3.821
 1102SOL    HW2 4206   2.910   0.243   3.887
 1103SOL     OW 4207   3.614   5.985   1.079
 1103SOL    HW1 4208   3.555   6.042   1.135
 1103SOL    HW2 4209   3.572   5.895   1.067
 1104SOL     OW 4210   0.013   2.316   4.049
 1104SOL    HW1 4211   7.004   2.369   3.969
 1104SOL    HW2 4212   0.048   2.378   4.119
 1105SOL     OW 4213   4.997   0.941   6.676
 1105SOL    HW1 4214   4.956   0.911   6.589
 1105SOL    HW2 4215   4.993   0.867   6.743
 1106SOL     OW 4216   6.396   1.539   1.302
 1106SOL    HW1 4217   6.305   1.513   1.335
 1106SOL    HW2 4218   6.456   1.459   1.304
 1107SOL     OW 4219   1.029   1.622   0.039
 1107SOL    HW1 4220   0.950   1.681   0.053
 1107SOL    HW2 4221   1.108   1.661   0.085
 1108SOL     OW 4222   2.440   1.313   3.110
 1108SOL    HW1 4223   2.457   1.325   3.012
 1108SOL    HW2 4224   2.526   1.292   3.156
 1109SOL     OW 4225   4.948   1.855   5.046
 1109SOL    HW1 4226   4.910   1.791   5.113
 1109SOL    HW2 4227   5.000   1.805   4.978
 1110SOL     OW 4228   1.400   0.879   2.380
 1110SOL    HW1 4229   1.344   0.888   2.297
 1110SOL    HW2 4230   1.497   0.876   2.354
 1111SOL     OW 4231   5.925   3.266   6.540
 1111SOL    HW1 4232   5.902   3.297   6.632
 1111SOL    HW2 4233   5.882   3.327   6.473
 1112SOL     OW 4234   5.812   0.711   2.524
 1112SOL    HW1 4235   5.838   0.682   2.617
 1112SOL    HW2 4236   5.882   0.772   2.488
 1113SOL     OW 4237   6.447   2.910   3.140
 1113SOL    HW1 4238   6.503   2.829   3.124
 1113SOL    HW2 4239   6.379   2.918   3.067
 1114SOL     OW 4240   3.740   3.433   4.773
 1114SOL    HW1 4241   3.773   3.381   4.695
 1114SOL    HW2 4242   3.734   3.530   4.749
 1115SOL     OW 4243   2.023   4.687   5.744
 1115SOL    HW1 4244   1.932   4.659   5.774
 1115SOL    HW2 4245   2.065   4.612   5.693
 1116SOL     OW 4246   4.261   0.068   0.509
 1116SOL    HW1 4247   4.162   0.076   0.498
 1116SOL    HW2 4248   4.290   0.121   0.588
 1117SOL     OW 4249   1.817   2.419   2.164
 1117SOL    HW1 4250   1.829   2.328   2.123
 1117SOL    HW2 4251   1.889   2.480   2.131
 1118SOL     OW 4252   4.642   6.115   0.101
 1118SOL    HW1 4253   4.637   6.048   0.175
 1118SOL    HW2 4254   4.679   6.201   0.136
 1119SOL     OW 4255   3.614   5.160   3.886
 1119SOL    HW1 4256   3.691   5.104   3.917
 1119SOL    HW2 4257   3.541   5.101   3.851
 1120SOL     OW 4258   6.808   3.258   1.647
 1120SOL    HW1 4259   6.904   3.271   1.670
 1120SOL    HW2 4260   6.793   3.279   1.551
 1121SOL     OW 4261   6.238   4.255   5.543
 1121SOL    HW1 4262   6.213   4.321   5.614
 1121SOL    HW2 4263   6.332   4.223   5.559
 1122SOL     OW 4264   6.182   1.411   2.300
 1122SOL    HW1 4265   6.225   1.456   2.222
 1122SOL    HW2 4266   6.168   1.314   2.278
 1123SOL     OW 4267   3.823   1.910   4.873
 1123SOL    HW1 4268   3.726   1.932   4.863
 1123SOL    HW2 4269   3.869   1.920   4.785
 1124SOL     OW 4270   2.256   2.854   4.026
 1124SOL    HW1 4271   2.219   2.905   4.104
 1124SOL    HW2 4272   2.234   2.902   3.941
 1125SOL     OW 4273   1.387   3.110   3.253
 1125SOL    HW1 4274   1.408   3.085   3.158
 1125SOL    HW2 4275   1.319   3.047   3.290
 1126SOL     OW 4276   4.184   4.856   4.080
 1126SOL    HW1 4277   4.264   4.834   4.136
 1126SOL    HW2 4278   4.212   4.912   4.002
 1127SOL     OW 4279   6.525   6.732   1.417
 1127SOL    HW1 4280   6.440   6.691   1.448
 1127SOL    HW2 4281   6.538   6.820   1.463
 1128SOL     OW 4282   4.521   1.838   4.439
 1128SOL    HW1 4283   4.580   1.917   4.457
 1128SOL    HW2 4284   4.488   1.800   4.525
 1129SOL     OW 4285   1.190   0.341   0.135
 1129SOL    HW1 4286   1.129   0.347   0.214
 1129SOL    HW2 4287   1.222   0.433   0.112
 1130SOL     OW 4288   2.187   4.872   2.152
 1130SOL    HW1 4289   2.134   4.849   2.070
 1130SOL    HW2 4290   2.265   4.810   2.159
 1131SOL     OW 4291   2.056   5.508   3.935
 1131SOL    HW1 4292   2.031   5.412   3.949
 1131SOL    HW2 4293   2.112   5.517   3.853
 1132SOL     OW 4294   1.048   1.798   2.376
 1132SOL    HW1 4295   0.965   1.742   2.379
 1132SOL    HW2 4296   1.075   1.821   2.470
 1133SOL     OW 4297   1.367   6.484   6.627
 1133SOL    HW1 4298   1.269   6.494   6.644
 1133SOL    HW2 4299   1.384   6.476   6.529
 1134SOL     OW 4300   4.183   5.877   0.726
 1134SOL    HW1 4301   4.269   5.871   0.777
 1134SOL    HW2 4302   4.108   5.850   0.786
 1135SOL     OW 4303   1.476   6.889   3.251
 1135SOL    HW1 4304   1.524   6.803   3.267
 1135SOL    HW2 4305   1.383   6.881   3.287
 1136SOL     OW 4306   1.538   4.723   2.075
 1136SOL    HW1 4307   1.575   4.807   2.037
 1136SOL    HW2 4308   1.613   4.663   2.104
 1137SOL     OW 4309   1.423   5.757   4.276
 1137SOL    HW1 4310   1.406   5.673   4.326
 1137SOL    HW2 4311   1.351   5.771   4.208
 1138SOL     OW 4312   1.539   3.791   5.176
 1138SOL    HW1 4313   1.528   3.813   5.079
 1138SOL    HW2 4314   1.617   3.842   5.212
 1139SOL     OW 4315   2.714   5.633   5.182
 1139SOL    HW1 4316   2.810   5.605   5.185
 1139SOL    HW2 4317   2.672   5.599   5.097
 1140SOL     OW 4318   1.927   1.939   1.962
 1140SOL    HW1 4319   1.884   2.016   2.008
 1140SOL    HW2 4320   1.984   1.889   2.027
 1141SOL     OW 4321   6.405   4.837   5.544
 1141SOL    HW1 4322   6.498   4.864   5.519
 1141SOL    HW2 4323   6.408   4.783   5.628
 1142SOL     OW 4324   1.620   5.856   2.507
 1142SOL    HW1 4325   1.669   5.903   2.581
 1142SOL    HW2 4326   1.686   5.808   2.450
 1143SOL     OW 4327   6.934   4.146   1.685
 1143SOL    HW1 4328   6.967   4.158   1.778
 1143SOL    HW2 4329   7.001   4.093   1.632
 1144SOL     OW 4330   4.949   4.393   0.554
 1144SOL    HW1 4331   4.850   4.390   0.565
 1144SOL    HW2 4332   4.988   4.461   0.616
 1145SOL     OW 4333   5.944   6.990   0.293
 1145SOL    HW1 4334   5.914   0.054   0.339
 1145SOL    HW2 4335   6.018   6.948   0.346
 1146SOL     OW 4336   1.258   0.764   1.053
 1146SOL    HW1 4337   1.191   0.837   1.038
 1146SOL    HW2 4338   1.350   0.799   1.032
 1147SOL     OW 4339   2.021   6.074   1.100
 1147SOL    HW1 4340   2.086   6.030   1.039
 1147SOL    HW2 4341   1.999   6.165   1.066
 1148SOL     OW 4342   3.907   5.816   2.674
 1148SOL    HW1 4343   3.869   5.792   2.585
 1148SOL    HW2 4344   3.833   5.845   2.735
 1149SOL     OW 4345   5.128   2.808   1.882
 1149SOL    HW1 4346   5.066   2.731   1.869
 1149SOL    HW2 4347   5.141   2.825   1.979
 1150SOL     OW 4348   0.802   3.328   0.751
 1150SOL    HW1 4349   0.732   3.276   0.702
 1150SOL    HW2 4350   0.791   3.425   0.730
 1151SOL     OW 4351   5.419   5.263   4.173
 1151SOL    HW1 4352   5.513   5.245   4.144
 1151SOL    HW2 4353   5.400   5.361   4.166
 1152SOL     OW 4354   3.574   6.657   6.327
 1152SOL    HW1 4355   3.529   6.738   6.288
 1152SOL    HW2 4356   3.646   6.686   6.389
 1153SOL     OW 4357   6.083   6.841   1.473
 1153SOL    HW1 4358   6.020   6.786   1.419
 1153SOL    HW2 4359   6.143   6.781   1.527
 1154SOL     OW 4360   2.073   3.177   1.063
 1154SOL    HW1 4361   2.009   3.186   1.139
 1154SOL    HW2 4362   2.088   3.267   1.022
 1155SOL     OW 4363   3.636   5.745   3.814
 1155SOL    HW1 4364   3.673   5.734   3.721
 1155SOL    HW2 4365   3.708   5.780   3.874
 1156SOL     OW 4366   2.834   1.144   2.406
 1156SOL    HW1 4367   2.794   1.084   2.337
 1156SOL    HW2 4368   2.864   1.088   2.484
 1157SOL     OW 4369   2.813   1.588   0.495
 1157SOL    HW1 4370   2.782   1.510   0.441
 1157SOL    HW2 4371   2.759   1.669   0.472
 1158SOL     OW 4372   5.748   4.466   3.686
 1158SOL    HW1 4373   5.796   4.474   3.599
 1158SOL    HW2 4374   5.722   4.371   3.702
 1159SOL     OW 4375   6.041   4.816   0.280
 1159SOL    HW1 4376   6.003   4.900   0.319
 1159SOL    HW2 4377   5.984   4.739   0.307
 1160SOL     OW 4378   4.523   2.075   0.449
 1160SOL    HW1 4379   4.493   2.138   0.521
 1160SOL    HW2 4380   4.536   2.127   0.364
 1161SOL     OW 4381   6.644   5.363   0.838
 1161SOL    HW1 4382   6.558   5.398   0.801
 1161SOL    HW2 4383   6.638   5.359   0.938
 1162SOL     OW 4384   3.186   2.008   4.189
 1162SOL    HW1 4385   3.172   2.065   4.109
 1162SOL    HW2 4386   3.224   1.920   4.161
 1163SOL     OW 4387   5.784   2.321   1.510
 1163SOL    HW1 4388   5.717   2.267   1.561
 1163SOL    HW2 4389   5.773   2.418   1.532
 1164SOL     OW 4390   4.414   2.519   5.966
 1164SOL    HW1 4391   4.391   2.470   6.050
 1164SOL    HW2 4392   4.391   2.463   5.887
 1165SOL     OW 4393   4.639   6.934   3.472
 1165SOL    HW1 4394   4.687   7.016   3.506
 1165SOL    HW2 4395   4.691   6.853   3.498
 1166SOL     OW 4396   3.064   4.540   6.520
 1166SOL    HW1 4397   3.140   4.568   6.579
 1166SOL    HW2 4398   3.028   4.620   6.473
 1167SOL     OW 4399   4.726   4.105   3.004
 1167SOL    HW1 4400   4.819   4.142   2.991
 1167SOL    HW2 4401   4.659   4.172   2.970
 1168SOL     OW 4402   0.734   0.057   1.901
 1168SOL    HW1 4403   0.769   0.038   1.809
 1168SOL    HW2 4404   0.777   0.140   1.937
 1169SOL     OW 4405   4.360   1.568   5.384
 1169SOL    HW1 4406   4.356   1.651   5.329
 1169SOL    HW2 4407   4.453   1.554   5.418
 1170SOL     OW 4408   5.100   5.191   2.574
 1170SOL    HW1 4409   5.180   5.222   2.523
 1170SOL    HW2 4410   5.067   5.105   2.535
 1171SOL     OW 4411   0.205   6.177   0.950
 1171SOL    HW1 4412   0.184   6.092   0.999
 1171SOL    HW2 4413   0.161   6.254   0.996
 1172SOL     OW 4414   6.434   3.125   6.074
 1172SOL    HW1 4415   6.486   3.160   6.152
 1172SOL    HW2 4416   6.336   3.135   6.091
 1173SOL     OW 4417   3.376   2.622   0.735
 1173SOL    HW1 4418   3.361   2.711   0.692
 1173SOL    HW2 4419   3.402   2.635   0.830
 1174SOL     OW 4420   2.238   4.631   0.351
 1174SOL    HW1 4421   2.192   4.719   0.363
 1174SOL    HW2 4422   2.286   4.630   0.264
 1175SOL     OW 4423   3.302   2.944   3.879
 1175SOL    HW1 4424   3.257   2.968   3.793
 1175SOL    HW2 4425   3.250   2.981   3.955
 1176SOL     OW 4426   5.413   3.082   6.785
 1176SOL    HW1 4427   5.363   3.105   6.702
 1176SOL    HW2 4428   5.456   3.165   6.821
 1177SOL     OW 4429   1.307   1.570   4.758
 1177SOL    HW1 4430   1.328   1.545   4.853
 1177SOL    HW2 4431   1.304   1.487   4.702
 1178SOL     OW 4432   4.458   6.297   7.011
 1178SOL    HW1 4433   4.501   6.384   6.987
 1178SOL    HW2 4434   4.523   6.240   0.041
 1179SOL     OW 4435   0.287   5.847   0.023
 1179SOL    HW1 4436   0.349   5.911   0.068
 1179SOL    HW2 4437   0.193   5.882   0.030
 1180SOL     OW 4438   3.518   6.142   0.557
 1180SOL    HW1 4439   3.503   6.139   0.458
 1180SOL    HW2 4440   3.436   6.176   0.603
 1181SOL     OW 4441   6.479   6.588   6.541
 1181SOL    HW1 4442   6.419   6.510   6.556
 1181SOL    HW2 4443   6.462   6.657   6.612
 1182SOL     OW 4444   4.758   4.237   2.601
 1182SOL    HW1 4445   4.714   4.300   2.536
 1182SOL    HW2 4446   4.841   4.279   2.637
 1183SOL     OW 4447   1.722   3.917   6.589
 1183SOL    HW1 4448   1.637   3.905   6.639
 1183SOL    HW2 4449   1.741   3.835   6.535
 1184SOL     OW 4450   0.032   0.420   5.382
 1184SOL    HW1 4451   0.048   0.485   5.307
 1184SOL    HW2 4452   0.120   0.392   5.420
 1185SOL     OW 4453   6.305   0.982   6.888
 1185SOL    HW1 4454   6.404   0.986   6.883
 1185SOL    HW2 4455   6.265   1.037   6.815
 1186SOL     OW 4456   5.347   6.706   4.714
 1186SOL    HW1 4457   5.311   6.633   4.772
 1186SOL    HW2 4458   5.421   6.753   4.763
 1187SOL     OW 4459   6.282   1.256   5.828
 1187SOL    HW1 4460   6.251   1.163   5.846
 1187SOL    HW2 4461   6.248   1.316   5.901
 1188SOL     OW 4462   2.937   1.317   6.654
 1188SOL    HW1 4463   2.856   1.315   6.713
 1188SOL    HW2 4464   2.967   1.224   6.635
 1189SOL     OW 4465   5.319   3.561   3.544
 1189SOL    HW1 4466   5.367   3.631   3.596
 1189SOL    HW2 4467   5.275   3.603   3.465
 1190SOL     OW 4468   2.824   6.992   3.738
 1190SOL    HW1 4469   2.886   0.050   3.732
 1190SOL    HW2 4470   2.729   0.003   3.732
 1191SOL     OW 4471   4.230   6.300   2.975
 1191SOL    HW1 4472   4.169   6.252   3.039
 1191SOL    HW2 4473   4.180   6.319   2.890
 1192SOL     OW 4474   5.962   5.980   3.184
 1192SOL    HW1 4475   6.005   5.988   3.094
 1192SOL    HW2 4476   5.974   6.065   3.235
 1193SOL     OW 4477   0.014   5.795   4.822
 1193SOL    HW1 4478   6.992   5.877   4.860
 1193SOL    HW2 4479   0.062   5.746   4.894
 1194SOL     OW 4480   3.885   0.124   1.116
 1194SOL    HW1 4481   3.965   0.167   1.159
 1194SOL    HW2 4482   3.805   0.181   1.130
 1195SOL     OW 4483   5.148   2.613   3.644
 1195SOL    HW1 4484   5.131   2.673   3.565
 1195SOL    HW2 4485   5.102   2.526   3.630
 1196SOL     OW 4486   6.876   6.462   4.922
 1196SOL    HW1 4487   6.794   6.450   4.867
 1196SOL    HW2 4488   6.923   6.374   4.931
 1197SOL     OW 4489   1.838   6.335   0.501
 1197SOL    HW1 4490   1.848   6.427   0.463
 1197SOL    HW2 4491   1.767   6.286   0.450
 1198SOL     OW 4492   1.619   2.812   6.956
 1198SOL    HW1 4493   1.677   2.787   0.012
 1198SOL    HW2 4494   1.658   2.775   6.871
 1199SOL     OW 4495   6.456   3.662   1.943
 1199SOL    HW1 4496   6.519   3.587   1.962
 1199SOL    HW2 4497   6.460   3.685   1.846
 1200SOL     OW 4498   2.954   3.831   2.804
 1200SOL    HW1 4499   2.934   3.740   2.766
 1200SOL    HW2 4500   2.872   3.869   2.846
 1201SOL     OW 4501   1.437   1.793   4.727
 1201SOL    HW1 4502   1.406   1.699   4.742
 1201SOL    HW2 4503   1.359   1.852   4.707
 1202SOL     OW 4504   1.309   5.801   5.794
 1202SOL    HW1 4505   1.356   5.874   5.744
 1202SOL    HW2 4506   1.326   5.713   5.749
 1203SOL     OW 4507   3.503   5.856   5.435
 1203SOL    HW1 4508   3.559   5.935   5.408
 1203SOL    HW2 4509   3.514   5.840   5.533
 1204SOL     OW 4510   1.876   6.714   3.270
 1204SOL    HW1 4511   1.786   6.690   3.307
 1204SOL    HW2 4512   1.884   6.677   3.177
 1205SOL     OW 4513   5.720   3.682   1.913
 1205SOL    HW1 4514   5.731   3.591   1.872
 1205SOL    HW2 4515   5.679   3.673   2.004
 1206SOL     OW 4516   3.273   3.478   4.488
 1206SOL    HW1 4517   3.327   3.557   4.519
 1206SOL    HW2 4518   3.182   3.481   4.530
 1207SOL     OW 4519   1.101   6.049   2.960
 1207SOL    HW1 4520   1.111   6.022   2.865
 1207SOL    HW2 4521   1.174   6.009   3.015
 1208SOL     OW 4522   3.284   3.534   6.121
 1208SOL    HW1 4523   3.349   3.463   6.095
 1208SOL    HW2 4524   3.215   3.543   6.050
 1209SOL     OW 4525   3.643   6.085   5.464
 1209SOL    HW1 4526   3.585   6.166   5.472
 1209SOL    HW2 4527   3.705   6.081   5.542
 1210SOL     OW 4528   3.483   1.287   2.957
 1210SOL    HW1 4529   3.536   1.282   3.042
 1210SOL    HW2 4530   3.543   1.269   2.879
 1211SOL     OW 4531   0.824   2.626   0.629
 1211SOL    HW1 4532   0.906   2.630   0.572
 1211SOL    HW2 4533   0.747   2.667   0.579
 1212SOL     OW 4534   1.296   0.127   0.308
 1212SOL    HW1 4535   1.378   0.075   0.284
 1212SOL    HW2 4536   1.278   0.195   0.236
 1213SOL     OW 4537   5.511   2.992   1.452
 1213SOL    HW1 4538   5.444   3.015   1.381
 1213SOL    HW2 4539   5.539   3.076   1.499
 1214SOL     OW 4540   6.821   2.599   1.930
 1214SOL    HW1 4541   6.832   2.698   1.921
 1214SOL    HW2 4542   6.898   2.562   1.982
 1215SOL     OW 4543   1.674   5.614   3.165
 1215SOL    HW1 4544   1.769   5.627   3.135
 1215SOL    HW2 4545   1.664   5.526   3.211
 1216SOL     OW 4546   3.545   6.974   1.665
 1216SOL    HW1 4547   3.581   6.931   1.582
 1216SOL    HW2 4548   3.466   0.011   1.642
 1217SOL     OW 4549   2.638   4.508   6.930
 1217SOL    HW1 4550   2.647   4.433   6.996
 1217SOL    HW2 4551   2.542   4.521   6.907
 1218SOL     OW 4552   2.751   5.076   3.157
 1218SOL    HW1 4553   2.687   5.138   3.203
 1218SOL    HW2 4554   2.743   5.087   3.058
 1219SOL     OW 4555   3.795   6.061   2.224
 1219SOL    HW1 4556   3.890   6.063   2.193
 1219SOL    HW2 4557   3.793   6.051   2.323
 1220SOL     OW 4558   0.843   4.175   2.574
 1220SOL    HW1 4559   0.906   4.234   2.523
 1220SOL    HW2 4560   0.883   4.151   2.662
 1221SOL     OW 4561   4.539   4.675   6.357
 1221SOL    HW1 4562   4.481   4.687   6.277
 1221SOL    HW2 4563   4.629   4.717   6.341
 1222SOL     OW 4564   6.755   0.902   6.078
 1222SOL    HW1 4565   6.774   0.907   5.980
 1222SOL    HW2 4566   6.730   0.994   6.111
 1223SOL     OW 4567   3.396   6.374   1.027
 1223SOL    HW1 4568   3.485   6.419   1.021
 1223SOL    HW2 4569   3.404   6.278   0.999
 1224SOL     OW 4570   2.945   0.737   2.243
 1224SOL    HW1 4571   2.915   0.684   2.164
 1224SOL    HW2 4572   2.902   0.827   2.242
 1225SOL     OW 4573   2.882   4.036   5.795
 1225SOL    HW1 4574   2.892   4.083   5.707
 1225SOL    HW2 4575   2.792   3.994   5.800
 1226SOL     OW 4576   2.144   5.078   0.478
 1226SOL    HW1 4577   2.214   5.049   0.543
 1226SOL    HW2 4578   2.115   5.000   0.423
 1227SOL     OW 4579   0.796   3.671   5.993
 1227SOL    HW1 4580   0.790   3.623   5.906
 1227SOL    HW2 4581   0.837   3.762   5.979
 1228SOL     OW 4582   4.022   1.726   6.923
 1228SOL    HW1 4583   3.933   1.767   6.942
 1228SOL    HW2 4584   4.045   1.662   6.996
 1229SOL     OW 4585   2.961   4.291   6.613
 1229SOL    HW1 4586   2.994   4.380   6.581
 1229SOL    HW2 4587   3.028   4.220   6.590
 1230SOL     OW 4588   4.605   0.577   3.648
 1230SOL    HW1 4589   4.572   0.588   3.742
 1230SOL    HW2 4590   4.564   0.648   3.591
 1231SOL     OW 4591   0.933   4.058   4.775
 1231SOL    HW1 4592   0.864   4.106   4.720
 1231SOL    HW2 4593   0.896   3.971   4.805
 1232SOL     OW 4594   2.245   2.979   3.311
 1232SOL    HW1 4595   2.243   2.974   3.211
 1232SOL    HW2 4596   2.224   3.072   3.341
 1233SOL     OW 4597   1.030   2.725   4.462
 1233SOL    HW1 4598   0.976   2.804   4.491
 1233SOL    HW2 4599   0.971   2.644   4.456
 1234SOL     OW 4600   6.605   4.263   3.956
 1234SOL    HW1 4601   6.587   4.361   3.950
 1234SOL    HW2 4602   6.650   4.242   4.043
 1235SOL     OW 4603   6.504   5.731   3.940
 1235SOL    HW1 4604   6.600   5.726   3.968
 1235SOL    HW2 4605   6.487   5.820   3.898
 1236SOL     OW 4606   5.437   0.743   5.794
 1236SOL    HW1 4607   5.461   0.763   5.889
 1236SOL    HW2 4608   5.339   0.725   5.787
 1237SOL     OW 4609   2.580   4.872   6.281
 1237SOL    HW1 4610   2.659   4.817   6.311
 1237SOL    HW2 4611   2.597   4.907   6.189
 1238SOL     OW 4612   1.474   1.562   0.279
 1238SOL    HW1 4613   1.411   1.589   0.353
 1238SOL    HW2 4614   1.564   1.601   0.297
 1239SOL     OW 4615   0.728   0.218   5.733
 1239SOL    HW1 4616   0.728   0.153   5.809
 1239SOL    HW2 4617   0.696   0.172   5.650
 1240SOL     OW 4618   4.575   5.443   1.909
 1240SOL    HW1 4619   4.504   5.392   1.860
 1240SOL    HW2 4620   4.650   5.382   1.933
 1241SOL     OW 4621   0.242   2.114   4.260
 1241SOL    HW1 4622   0.150   2.141   4.289
 1241SOL    HW2 4623   0.289   2.193   4.220
 1242SOL     OW 4624   2.431   2.623   6.259
 1242SOL    HW1 4625   2.414   2.541   6.313
 1242SOL    HW2 4626   2.475   2.597   6.173
 1243SOL     OW 4627   2.272   5.259   5.147
 1243SOL    HW1 4628   2.201   5.217   5.204
 1243SOL    HW2 4629   2.235   5.341   5.103
 1244SOL     OW 4630   6.950   1.565   2.429
 1244SOL    HW1 4631   6.892   1.509   2.370
 1244SOL    HW2 4632   0.004   1.510   2.465
 1245SOL     OW 4633   2.843   3.354   5.698
 1245SOL    HW1 4634   2.943   3.346   5.698
 1245SOL    HW2 4635   2.812   3.394   5.612
 1246SOL     OW 4636   0.979   7.007   1.287
 1246SOL    HW1 4637   0.915   0.063   1.295
 1246SOL    HW2 4638   0.930   6.924   1.260
 1247SOL     OW 4639   1.439   6.999   6.710
 1247SOL    HW1 4640   1.365   0.043   6.731
 1247SOL    HW2 4641   1.400   6.913   6.677
 1248SOL     OW 4642   2.297   6.484   3.781
 1248SOL    HW1 4643   2.279   6.389   3.755
 1248SOL    HW2 4644   2.391   6.492   3.814
 1249SOL     OW 4645   5.642   2.780   3.061
 1249SOL    HW1 4646   5.644   2.741   2.969
 1249SOL    HW2 4647   5.693   2.866   3.061
 1250SOL     OW 4648   0.126   3.938   4.245
 1250SOL    HW1 4649   0.195   3.866   4.258
 1250SOL    HW2 4650   0.149   4.016   4.303
 1251SOL     OW 4651   3.422   0.471   6.234
 1251SOL    HW1 4652   3.400   0.424   6.320
 1251SOL    HW2 4653   3.441   0.567   6.253
 1252SOL     OW 4654   2.927   3.839   0.013
 1252SOL    HW1 4655   2.967   3.768   6.975
 1252SOL    HW2 4656   2.939   3.813   0.109
 1253SOL     OW 4657   4.360   0.631   2.650
 1253SOL    HW1 4658   4.325   0.667   2.563
 1253SOL    HW2 4659   4.291   0.571   2.691
 1254SOL     OW 4660   5.665   1.738   3.104
 1254SOL    HW1 4661   5.742   1.704   3.050
 1254SOL    HW2 4662   5.693   1.821   3.154
 1255SOL     OW 4663   6.278   0.556   0.580
 1255SOL    HW1 4664   6.322   0.596   0.499
 1255SOL    HW2 4665   6.341   0.491   0.622
 1256SOL     OW 4666   4.932   2.662   3.871
 1256SOL    HW1 4667   4.899   2.624   3.957
 1256SOL    HW2 4668   4.883   2.619   3.795
 1257SOL     OW 4669   6.128   1.147   3.844
 1257SOL    HW1 4670   6.109   1.193   3.757
 1257SOL    HW2 4671   6.147   1.215   3.914
 1258SOL     OW 4672   0.403   5.290   3.547
 1258SOL    HW1 4673   0.322   5.330   3.590
 1258SOL    HW2 4674   0.426   5.341   3.464
 1259SOL     OW 4675   4.930   2.630   4.982
 1259SOL    HW1 4676   4.837   2.613   4.947
 1259SOL    HW2 4677   4.994   2.569   4.936
 1260SOL     OW 4678   0.456   1.353   5.009
 1260SOL    HW1 4679   0.537   1.395   5.050
 1260SOL    HW2 4680   0.481   1.268   4.965
 1261SOL     OW 4681   6.620   4.004   0.907
 1261SOL    HW1 4682   6.574   4.057   0.836
 1261SOL    HW2 4683   6.719   4.003   0.889
 1262SOL     OW 4684   5.199   6.088   1.987
 1262SOL    HW1 4685   5.121   6.082   2.049
 1262SOL    HW2 4686   5.282   6.108   2.040
 1263SOL     OW 4687   0.147   2.174   3.530
 1263SOL    HW1 4688   0.072   2.108   3.523
 1263SOL    HW2 4689   0.150   2.231   3.448
 1264SOL     OW 4690   1.159   2.689   5.060
 1264SOL    HW1 4691   1.193   2.595   5.056
 1264SOL    HW2 4692   1.146   2.715   5.156
 1265SOL     OW 4693   5.504   0.176   5.521
 1265SOL    HW1 4694   5.470   0.111   5.453
 1265SOL    HW2 4695   5.459   0.264   5.507
 1266SOL     OW 4696   2.607   1.420   5.181
 1266SOL    HW1 4697   2.594   1.496   5.245
 1266SOL    HW2 4698   2.551   1.435   5.100
 1267SOL     OW 4699   3.388   0.225   2.385
 1267SOL    HW1 4700   3.473   0.173   2.398
 1267SOL    HW2 4701   3.392   0.274   2.298
 1268SOL     OW 4702   3.949   2.368   5.409
 1268SOL    HW1 4703   3.876   2.423   5.368
 1268SOL    HW2 4704   3.909   2.296   5.466
 1269SOL     OW 4705   5.892   1.812   3.685
 1269SOL    HW1 4706   5.983   1.797   3.725
 1269SOL    HW2 4707   5.839   1.727   3.691
 1270SOL     OW 4708   6.350   5.259   3.104
 1270SOL    HW1 4709   6.367   5.174   3.154
 1270SOL    HW2 4710   6.394   5.255   3.014
 1271SOL     OW 4711   2.114   1.465   1.610
 1271SOL    HW1 4712   2.078   1.533   1.547
 1271SOL    HW2 4713   2.038   1.417   1.655
 1272SOL     OW 4714   5.795   2.563   0.805
 1272SOL    HW1 4715   5.864   2.550   0.876
 1272SOL    HW2 4716   5.840   2.588   0.719
 1273SOL     OW 4717   1.930   4.245   5.723
 1273SOL    HW1 4718   2.016   4.197   5.742
 1273SOL    HW2 4719   1.880   4.196   5.651
 1274SOL     OW 4720   6.954   3.993   4.020
 1274SOL    HW1 4721   7.007   3.956   4.096
 1274SOL    HW2 4722   6.857   3.982   4.039
 1275SOL     OW 4723   2.313   1.528   2.750
 1275SOL    HW1 4724   2.328   1.603   2.686
 1275SOL    HW2 4725   2.272   1.564   2.834
 1276SOL     OW 4726   5.402   4.124   3.830
 1276SOL    HW1 4727   5.436   4.055   3.894
 1276SOL    HW2 4728   5.479   4.175   3.792
 1277SOL     OW 4729   0.844   5.709   6.752
 1277SOL    HW1 4730   0.757   5.662   6.764
 1277SOL    HW2 4731   0.828   5.806   6.733
 1278SOL     OW 4732   0.409   6.120   2.458
 1278SOL    HW1 4733   0.337   6.060   2.424
 1278SOL    HW2 4734   0.446   6.083   2.543
 1279SOL     OW 4735   2.790   3.210   0.780
 1279SOL    HW1 4736   2.769   3.279   0.711
 1279SOL    HW2 4737   2.877   3.232   0.825
 1280SOL     OW 4738   2.587   2.478   4.346
 1280SOL    HW1 4739   2.635   2.469   4.259
 1280SOL    HW2 4740   2.504   2.423   4.344
 1281SOL     OW 4741   5.892   6.217   4.669
 1281SOL    HW1 4742   5.942   6.224   4.755
 1281SOL    HW2 4743   5.800   6.182   4.686
 1282SOL     OW 4744   0.680   2.894   1.784
 1282SOL    HW1 4745   0.615   2.819   1.774
 1282SOL    HW2 4746   0.771   2.863   1.757
 1283SOL     OW 4747   6.849   1.443   4.220
 1283SOL    HW1 4748   6.874   1.538   4.202
 1283SOL    HW2 4749   6.811   1.436   4.312
 1284SOL     OW 4750   3.814   2.188   1.711
 1284SOL    HW1 4751   3.750   2.247   1.760
 1284SOL    HW2 4752   3.877   2.145   1.776
 1285SOL     OW 4753   4.461   1.459   4.319
 1285SOL    HW1 4754   4.457   1.454   4.219
 1285SOL    HW2 4755   4.543   1.509   4.346
 1286SOL     OW 4756   5.014   1.424   1.816
 1286SOL    HW1 4757   5.031   1.330   1.843
 1286SOL    HW2 4758   5.100   1.471   1.800
 1287SOL     OW 4759   4.934   5.317   5.732
 1287SOL    HW1 4760   5.003   5.307   5.804
 1287SOL    HW2 4761   4.978   5.314   5.643
 1288SOL     OW 4762   4.407   4.663   6.716
 1288SOL    HW1 4763   4.398   4.564   6.725
 1288SOL    HW2 4764   4.495   4.685   6.675
 1289SOL     OW 4765   6.679   6.947   0.431
 1289SOL    HW1 4766   6.729   6.885   0.370
 1289SOL    HW2 4767   6.743   6.994   0.491
 1290SOL     OW 4768   1.607   6.482   5.434
 1290SOL    HW1 4769   1.686   6.509   5.489
 1290SOL    HW2 4770   1.549   6.562   5.419
 1291SOL     OW 4771   5.763   5.543   3.634
 1291SOL    HW1 4772   5.700   5.603   3.683
 1291SOL    HW2 4773   5.834   5.511   3.697
 1292SOL     OW 4774   0.556   6.863   2.722
 1292SOL    HW1 4775   0.649   6.829   2.708
 1292SOL    HW2 4776   0.519   6.824   2.807
 1293SOL     OW 4777   4.672   0.769   1.198
 1293SOL    HW1 4778   4.716   0.854   1.169
 1293SOL    HW2 4779   4.739   0.711   1.244
 1294SOL     OW 4780   2.290   4.577   5.172
 1294SOL    HW1 4781   2.321   4.509   5.106
 1294SOL    HW2 4782   2.369   4.620   5.216
 1295SOL     OW 4783   6.862   4.456   0.055
 1295SOL    HW1 4784   6.891   4.545   0.090
 1295SOL    HW2 4785   6.869   4.388   0.127
 1296SOL     OW 4786   5.068   0.272   6.038
 1296SOL    HW1 4787   5.088   0.191   5.984
 1296SOL    HW2 4788   4.984   0.256   6.091
 1297SOL     OW 4789   6.131   6.536   0.126
 1297SOL    HW1 4790   6.218   6.576   0.154
 1297SOL    HW2 4791   6.090   6.593   0.054
 1298SOL     OW 4792   5.328   0.630   3.374
 1298SOL    HW1 4793   5.369   0.552   3.421
 1298SOL    HW2 4794   5.247   0.599   3.324
 1299SOL     OW 4795   1.117   3.687   4.760
 1299SOL    HW1 4796   1.158   3.773   4.790
 1299SOL    HW2 4797   1.183   3.612   4.772
 1300SOL     OW 4798   1.198   5.701   0.581
 1300SOL    HW1 4799   1.264   5.766   0.618
 1300SOL    HW2 4800   1.156   5.740   0.499
 1301SOL     OW 4801   6.422   0.598   0.337
 1301SOL    HW1 4802   6.520   0.580   0.345
 1301SOL    HW2 4803   6.381   0.533   0.273
 1302SOL     OW 4804   6.607   6.764   5.344
 1302SOL    HW1 4805   6.682   6.800   5.400
 1302SOL    HW2 4806   6.634   6.764   5.248
 1303SOL     OW 4807   2.992   6.800   1.912
 1303SOL    HW1 4808   3.085   6.787   1.948
 1303SOL    HW2 4809   2.989   6.882   1.855
 1304SOL     OW 4810   0.407   0.465   0.862
 1304SOL    HW1 4811   0.314   0.494   0.883
 1304SOL    HW2 4812   0.416   0.367   0.880
 1305SOL     OW 4813   4.042   4.239   6.277
 1305SOL    HW1 4814   3.976   4.174   6.240
 1305SOL    HW2 4815   4.046   4.229   6.376
 1306SOL     OW 4816   2.878   6.752   3.877
 1306SOL    HW1 4817   2.949   6.729   3.810
 1306SOL    HW2 4818   2.845   6.845   3.861
 1307SOL     OW 4819   1.699   2.779   4.214
 1307SOL    HW1 4820   1.797   2.780   4.195
 1307SOL    HW2 4821   1.684   2.779   4.313
 1308SOL     OW 4822   6.798   3.106   6.199
 1308SOL    HW1 4823   6.722   3.170   6.188
 1308SOL    HW2 4824   6.879   3.156   6.228
 1309SOL     OW 4825   5.610   3.790   6.549
 1309SOL    HW1 4826   5.514   3.819   6.544
 1309SOL    HW2 4827   5.659   3.846   6.615
 1310SOL     OW 4828   2.156   3.622   3.419
 1310SOL    HW1 4829   2.234   3.669   3.459
 1310SOL    HW2 4830   2.133   3.541   3.474
 1311SOL     OW 4831   5.333   5.043   0.282
 1311SOL    HW1 4832   5.273   5.056   0.203
 1311SOL    HW2 4833   5.428   5.038   0.251
 1312SOL     OW 4834   2.635   1.218   6.431
 1312SOL    HW1 4835   2.673   1.307   6.456
 1312SOL    HW2 4836   2.550   1.231   6.380
 1313SOL     OW 4837   5.840   5.124   1.586
 1313SOL    HW1 4838   5.880   5.164   1.668
 1313SOL    HW2 4839   5.764   5.064   1.612
 1314SOL     OW 4840   1.744   0.972   3.903
 1314SOL    HW1 4841   1.677   1.035   3.864
 1314SOL    HW2 4842   1.754   0.990   4.001
 1315SOL     OW 4843   6.446   0.922   2.746
 1315SOL    HW1 4844   6.400   0.945   2.832
 1315SOL    HW2 4845   6.545   0.937   2.756
 1316SOL     OW 4846   5.312   0.056   6.460
 1316SOL    HW1 4847   5.411   0.042   6.454
 1316SOL    HW2 4848   5.268   0.021   6.378
 1317SOL     OW 4849   3.566   3.008   5.191
 1317SOL    HW1 4850   3.515   3.092   5.169
 1317SOL    HW2 4851   3.505   2.930   5.182
 1318SOL     OW 4852   1.891   1.959   6.016
 1318SOL    HW1 4853   1.915   1.920   6.105
 1318SOL    HW2 4854   1.972   1.999   5.974
 1319SOL     OW 4855   6.932   0.676   0.268
 1319SOL    HW1 4856   6.993   0.698   0.192
 1319SOL    HW2 4857   6.978   0.694   0.355
 1320SOL     OW 4858   2.938   3.198   6.293
 1320SOL    HW1 4859   2.975   3.243   6.212
 1320SOL    HW2 4860   2.887   3.264   6.348
 1321SOL     OW 4861   0.066   2.526   1.204
 1321SOL    HW1 4862   6.991   2.519   1.175
 1321SOL    HW2 4863   0.096   2.622   1.199
 1322SOL     OW 4864   3.238   2.675   0.217
 1322SOL    HW1 4865   3.232   2.595   0.158
 1322SOL    HW2 4866   3.156   2.732   0.205
 1323SOL     OW 4867   4.081   0.220   1.549
 1323SOL    HW1 4868   4.166   0.255   1.588
 1323SOL    HW2 4869   4.011   0.292   1.553
 1324SOL     OW 4870   2.172   4.138   5.755
 1324SOL    HW1 4871   2.218   4.089   5.828
 1324SOL    HW2 4872   2.163   4.078   5.675
 1325SOL     OW 4873   3.782   6.106   4.969
 1325SOL    HW1 4874   3.812   6.149   5.053
 1325SOL    HW2 4875   3.708   6.159   4.928
 1326SOL     OW 4876   4.940   1.276   5.255
 1326SOL    HW1 4877   4.965   1.271   5.352
 1326SOL    HW2 4878   4.948   1.185   5.214
 1327SOL     OW 4879   4.923   6.016   2.568
 1327SOL    HW1 4880   4.824   6.033   2.571
 1327SOL    HW2 4881   4.954   5.989   2.659
 1328SOL     OW 4882   2.422   2.043   5.786
 1328SOL    HW1 4883   2.388   1.949   5.780
 1328SOL    HW2 4884   2.390   2.084   5.871
 1329SOL     OW 4885   1.486   3.118   3.712
 1329SOL    HW1 4886   1.526   3.032   3.745
 1329SOL    HW2 4887   1.539   3.150   3.633
 1330SOL     OW 4888   5.962   2.911   3.201
 1330SOL    HW1 4889   6.032   2.852   3.242
 1330SOL    HW2 4890   6.004   2.967   3.129
 1331SOL     OW 4891   4.745   2.432   3.841
 1331SOL    HW1 4892   4.794   2.372   3.904
 1331SOL    HW2 4893   4.663   2.467   3.885
 1332SOL     OW 4894   2.388   5.736   0.448
 1332SOL    HW1 4895   2.464   5.697   0.499
 1332SOL    HW2 4896   2.401   5.835   0.441
 1333SOL     OW 4897   3.440   3.654   2.973
 1333SOL    HW1 4898   3.405   3.744   2.947
 1333SOL    HW2 4899   3.540   3.656   2.973
 1334SOL     OW 4900   6.917   3.951   1.429
 1334SOL    HW1 4901   7.002   3.935   1.479
 1334SOL    HW2 4902   6.872   4.033   1.464
 1335SOL     OW 4903   6.907   3.565   3.231
 1335SOL    HW1 4904   6.882   3.509   3.151
 1335SOL    HW2 4905   6.992   3.530   3.271
 1336SOL     OW 4906   1.953   6.752   5.601
 1336SOL    HW1 4907   2.051   6.759   5.582
 1336SOL    HW2 4908   1.928   6.656   5.615
 1337SOL     OW 4909   0.709   6.841   2.023
 1337SOL    HW1 4910   0.701   6.861   2.121
 1337SOL    HW2 4911   0.700   6.925   1.971
 1338SOL     OW 4912   6.663   4.325   4.807
 1338SOL    HW1 4913   6.701   4.416   4.828
 1338SOL    HW2 4914   6.653   4.273   4.892
 1339SOL     OW 4915   5.853   1.339   6.687
 1339SOL    HW1 4916   5.902   1.326   6.600
 1339SOL    HW2 4917   5.862   1.257   6.743
 1340SOL     OW 4918   3.488   2.775   1.672
 1340SOL    HW1 4919   3.509   2.784   1.575
 1340SOL    HW2 4920   3.532   2.849   1.723
 1341SOL     OW 4921   4.866   5.590   6.220
 1341SOL    HW1 4922   4.932   5.524   6.183
 1341SOL    HW2 4923   4.899   5.683   6.201
 1342SOL     OW 4924   1.515   5.969   1.500
 1342SOL    HW1 4925   1.575   6.046   1.524
 1342SOL    HW2 4926   1.467   5.991   1.415
 1343SOL     OW 4927   4.711   5.815   2.948
 1343SOL    HW1 4928   4.688   5.907   2.981
 1343SOL    HW2 4929   4.663   5.797   2.863
 1344SOL     OW 4930   1.055   1.016   4.549
 1344SOL    HW1 4931   0.960   1.026   4.578
 1344SOL    HW2 4932   1.115   1.029   4.627
 1345SOL     OW 4933   1.636   6.834   6.435
 1345SOL    HW1 4934   1.593   6.795   6.516
 1345SOL    HW2 4935   1.705   6.901   6.463
 1346SOL     OW 4936   2.888   5.276   4.768
 1346SOL    HW1 4937   2.869   5.231   4.681
 1346SOL    HW2 4938   2.984   5.262   4.792
 1347SOL     OW 4939   1.790   0.539   6.276
 1347SOL    HW1 4940   1.739   0.621   6.301
 1347SOL    HW2 4941   1.881   0.542   6.318
 1348SOL     OW 4942   1.265   6.591   5.260
 1348SOL    HW1 4943   1.225   6.552   5.343
 1348SOL    HW2 4944   1.273   6.520   5.191
 1349SOL     OW 4945   5.319   4.054   4.192
 1349SOL    HW1 4946   5.256   4.104   4.131
 1349SOL    HW2 4947   5.410   4.054   4.152
 1350SOL     OW 4948   4.415   4.998   6.589
 1350SOL    HW1 4949   4.363   4.975   6.506
 1350SOL    HW2 4950   4.505   5.032   6.563
 1351SOL     OW 4951   0.226   2.498   5.917
 1351SOL    HW1 4952   0.132   2.486   5.951
 1351SOL    HW2 4953   0.287   2.440   5.971
 1352SOL     OW 4954   0.317   0.892   2.426
 1352SOL    HW1 4955   0.291   0.803   2.465
 1352SOL    HW2 4956   0.235   0.948   2.416
 1353SOL     OW 4957   6.757   1.419   6.896
 1353SOL    HW1 4958   6.758   1.499   6.836
 1353SOL    HW2 4959   6.794   1.444   6.986
 1354SOL     OW 4960   5.086   5.067   2.876
 1354SOL    HW1 4961   5.155   5.139   2.886
 1354SOL    HW2 4962   5.011   5.084   2.940
 1355SOL     OW 4963   4.519   3.427   5.355
 1355SOL    HW1 4964   4.573   3.473   5.285
 1355SOL    HW2 4965   4.560   3.338   5.375
 1356SOL     OW 4966   2.847   3.168   6.602
 1356SOL    HW1 4967   2.773   3.185   6.537
 1356SOL    HW2 4968   2.840   3.234   6.677
 1357SOL     OW 4969   1.705   2.652   5.434
 1357SOL    HW1 4970   1.776   2.610   5.489
 1357SOL    HW2 4971   1.676   2.588   5.363
 1358SOL     OW 4972   2.482   6.892   6.814
 1358SOL    HW1 4973   2.434   6.940   6.887
 1358SOL    HW2 4974   2.434   6.807   6.792
 1359SOL     OW 4975   6.250   4.280   0.526
 1359SOL    HW1 4976   6.253   4.325   0.437
 1359SOL    HW2 4977   6.304   4.196   0.522
 1360SOL     OW 4978   2.466   2.079   0.281
 1360SOL    HW1 4979   2.449   2.108   0.375
 1360SOL    HW2 4980   2.428   2.146   0.218
 1361SOL     OW 4981   6.622   5.013   5.173
 1361SOL    HW1 4982   6.702   5.072   5.168
 1361SOL    HW2 4983   6.566   5.039   5.252
 1362SOL     OW 4984   3.032   3.950   4.131
 1362SOL    HW1 4985   2.998   3.926   4.040
 1362SOL    HW2 4986   3.120   3.996   4.123
 1363SOL     OW 4987   0.667   6.403   3.544
 1363SOL    HW1 4988   0.588   6.459   3.519
 1363SOL    HW2 4989   0.739   6.414   3.475
 1364SOL     OW 4990   4.097   4.296   0.337
 1364SOL    HW1 4991   4.019   4.313   0.398
 1364SOL    HW2 4992   4.063   4.276   0.245
 1365SOL     OW 4993   5.986   2.342   6.313
 1365SOL    HW1 4994   6.006   2.389   6.227
 1365SOL    HW2 4995   5.974   2.410   6.385
 1366SOL     OW 4996   1.887   6.949   5.788
 1366SOL    HW1 4997   1.965   6.935   5.849
 1366SOL    HW2 4998   1.882   6.873   5.724
 1367SOL     OW 4999   3.097   1.664   2.335
 1367SOL    HW1 5000   3.027   1.620   2.392
 1367SOL    HW2 5001   3.061   1.750   2.299
 1368SOL     OW 5002   6.851   0.505   2.983
 1368SOL    HW1 5003   6.878   0.481   3.076
 1368SOL    HW2 5004   6.759   0.471   2.965
 1369SOL     OW 5005   0.632   0.324   2.299
 1369SOL    HW1 5006   0.695   0.384   2.250
 1369SOL    HW2 5007   0.549   0.375   2.324
 1370SOL     OW 5008   2.056   0.813   2.609
 1370SOL    HW1 5009   2.140   0.798   2.661
 1370SOL    HW2 5010   1.997   0.875   2.659
 1371SOL     OW 5011   3.326   0.778   6.320
 1371SOL    HW1 5012   3.355   0.868   6.352
 1371SOL    HW2 5013   3.277   0.731   6.392
 1372SOL     OW 5014   2.859   2.150   1.820
 1372SOL    HW1 5015   2.822   2.188   1.735
 1372SOL    HW2 5016   2.918   2.218   1.864
 1373SOL     OW 5017   1.701   6.036   0.118
 1373SOL    HW1 5018   1.620   6.094   0.113
 1373SOL    HW2 5019   1.780   6.084   0.080
 1374SOL     OW 5020   5.024   4.091   5.995
 1374SOL    HW1 5021   4.956   4.159   5.966
 1374SOL    HW2 5022   5.081   4.130   6.067
 1375SOL     OW 5023   0.848   4.183   4.527
 1375SOL    HW1 5024   0.804   4.115   4.467
 1375SOL    HW2 5025   0.877   4.261   4.472
 1376SOL     OW 5026   5.052   0.602   2.615
 1376SOL    HW1 5027   5.077   0.582   2.520
 1376SOL    HW2 5028   4.969   0.552   2.639
 1377SOL     OW 5029   0.623   4.583   4.274
 1377SOL    HW1 5030   0.586   4.501   4.318
 1377SOL    HW2 5031   0.572   4.603   4.191
 1378SOL     OW 5032   2.157   2.694   0.332
 1378SOL    HW1 5033   2.102   2.611   0.318
 1378SOL    HW2 5034   2.155   2.720   0.428
 1379SOL     OW 5035   3.902   5.999   1.197
 1379SOL    HW1 5036   3.896   5.904   1.167
 1379SOL    HW2 5037   3.972   6.047   1.145
 1380SOL     OW 5038   6.010   4.787   3.139
 1380SOL    HW1 5039   6.008   4.688   3.127
 1380SOL    HW2 5040   5.923   4.818   3.178
 1381SOL     OW 5041   5.001   6.747   2.477
 1381SOL    HW1 5042   5.077   6.772   2.537
 1381SOL    HW2 5043   5.018   6.657   2.437
 1382SOL     OW 5044   0.145   3.875   6.733
 1382SOL    HW1 5045   0.134   3.889   6.634
 1382SOL    HW2 5046   0.079   3.931   6.782
 1383SOL     OW 5047   2.606   0.048   1.115
 1383SOL    HW1 5048   2.546   0.094   1.181
 1383SOL    HW2 5049   2.652   0.116   1.058
 1384SOL     OW 5050   1.314   1.744   1.947
 1384SOL    HW1 5051   1.371   1.664   1.968
 1384SOL    HW2 5052   1.230   1.739   2.000
 1385SOL     OW 5053   5.156   3.646   4.226
 1385SOL    HW1 5054   5.197   3.722   4.277
 1385SOL    HW2 5055   5.063   3.670   4.199
 1386SOL     OW 5056   2.675   2.412   3.713
 1386SOL    HW1 5057   2.577   2.433   3.715
 1386SOL    HW2 5058   2.714   2.442   3.625
 1387SOL     OW 5059   3.314   0.687   3.959
 1387SOL    HW1 5060   3.223   0.729   3.969
 1387SOL    HW2 5061   3.375   0.723   4.030
 1388SOL     OW 5062   5.397   1.827   3.801
 1388SOL    HW1 5063   5.353   1.760   3.861
 1388SOL    HW2 5064   5.411   1.787   3.710
 1389SOL     OW 5065   0.006   0.357   3.531
 1389SOL    HW1 5066   7.011   0.402   3.619
 1389SOL    HW2 5067   0.093   0.308   3.534
 1390SOL     OW 5068   4.951   2.315   2.819
 1390SOL    HW1 5069   5.003   2.230   2.809
 1390SOL    HW2 5070   4.856   2.299   2.790
 1391SOL     OW 5071   5.689   0.814   5.088
 1391SOL    HW1 5072   5.592   0.797   5.071
 1391SOL    HW2 5073   5.698   0.887   5.156
 1392SOL     OW 5074   3.944   6.405   5.410
 1392SOL    HW1 5075   3.970   6.458   5.491
 1392SOL    HW2 5076   3.940   6.308   5.434
 1393SOL     OW 5077   4.906   0.439   0.229
 1393SOL    HW1 5078   4.974   0.456   0.157
 1393SOL    HW2 5079   4.928   0.495   0.309
 1394SOL     OW 5080   4.453   0.185   4.195
 1394SOL    HW1 5081   4.506   0.268   4.214
 1394SOL    HW2 5082   4.420   0.146   4.281
 1395SOL     OW 5083   0.443   5.491   2.478
 1395SOL    HW1 5084   0.464   5.397   2.506
 1395SOL    HW2 5085   0.521   5.550   2.497
 1396SOL     OW 5086   1.389   1.880   3.516
 1396SOL    HW1 5087   1.331   1.915   3.443
 1396SOL    HW2 5088   1.352   1.908   3.604
 1397SOL     OW 5089   2.141   4.766   5.008
 1397SOL    HW1 5090   2.188   4.691   5.054
 1397SOL    HW2 5091   2.207   4.821   4.957
 1398SOL     OW 5092   3.114   0.056   6.615
 1398SOL    HW1 5093   3.179   7.013   6.658
 1398SOL    HW2 5094   3.021   0.026   6.633
 1399SOL     OW 5095   3.641   7.015   0.398
 1399SOL    HW1 5096   3.664   0.025   0.491
 1399SOL    HW2 5097   3.725   7.011   0.343
 1400SOL     OW 5098   0.814   0.906   5.680
 1400SOL    HW1 5099   0.742   0.878   5.617
 1400SOL    HW2 5100   0.822   1.006   5.680
 1401SOL     OW 5101   4.878   0.148   2.194
 1401SOL    HW1 5102   4.907   0.056   2.221
 1401SOL    HW2 5103   4.863   0.203   2.277
 1402SOL     OW 5104   5.643   4.741   1.966
 1402SOL    HW1 5105   5.622   4.820   2.023
 1402SOL    HW2 5106   5.594   4.661   2.000
 1403SOL     OW 5107   3.121   3.346   6.891
 1403SOL    HW1 5108   3.024   3.342   6.864
 1403SOL    HW2 5109   3.178   3.315   6.815
 1404SOL     OW 5110   4.035   5.780   0.248
 1404SOL    HW1 5111   4.103   5.840   0.290
 1404SOL    HW2 5112   4.010   5.815   0.158
 1405SOL     OW 5113   0.779   3.475   0.005
 1405SOL    HW1 5114   0.789   3.554   0.065
 1405SOL    HW2 5115   0.686   3.471   6.990
 1406SOL     OW 5116   2.292   2.180   6.892
 1406SOL    HW1 5117   2.225   2.116   6.854
 1406SOL    HW2 5118   2.267   2.273   6.867
 1407SOL     OW 5119   0.119   2.595   1.717
 1407SOL    HW1 5120   0.217   2.580   1.718
 1407SOL    HW2 5121   0.080   2.557   1.633
 1408SOL     OW 5122   5.760   6.421   0.634
 1408SOL    HW1 5123   5.744   6.411   0.733
 1408SOL    HW2 5124   5.858   6.428   0.616
 1409SOL     OW 5125   6.143   1.934   5.846
 1409SOL    HW1 5126   6.124   2.031   5.834
 1409SOL    HW2 5127   6.242   1.919   5.846
 1410SOL     OW 5128   3.037   0.846   0.514
 1410SOL    HW1 5129   3.067   0.918   0.576
 1410SOL    HW2 5130   3.117   0.800   0.475
 1411SOL     OW 5131   3.703   5.935   6.952
 1411SOL    HW1 5132   3.616   5.903   6.915
 1411SOL    HW2 5133   3.689   6.022   6.999
 1412SOL     OW 5134   2.294   1.642   0.387
 1412SOL    HW1 5135   2.317   1.706   0.460
 1412SOL    HW2 5136   2.253   1.559   0.426
 1413SOL     OW 5137   2.242   1.535   5.024
 1413SOL    HW1 5138   2.250   1.475   5.104
 1413SOL    HW2 5139   2.332   1.549   4.983
 1414SOL     OW 5140   0.460   5.203   2.061
 1414SOL    HW1 5141   0.377   5.169   2.016
 1414SOL    HW2 5142   0.475   5.299   2.035
 1415SOL     OW 5143   3.917   1.932   5.314
 1415SOL    HW1 5144   3.863   1.979   5.244
 1415SOL    HW2 5145   3.856   1.881   5.375
 1416SOL     OW 5146   4.796   0.229   5.054
 1416SOL    HW1 5147   4.849   0.313   5.040
 1416SOL    HW2 5148   4.782   0.184   4.965
 1417SOL     OW 5149   3.779   3.325   4.292
 1417SOL    HW1 5150   3.819   3.363   4.209
 1417SOL    HW2 5151   3.682   3.304   4.276
 1418SOL     OW 5152   3.129   3.857   5.176
 1418SOL    HW1 5153   3.161   3.764   5.158
 1418SOL    HW2 5154   3.041   3.871   5.131
 1419SOL     OW 5155   0.406   5.468   2.006
 1419SOL    HW1 5156   0.369   5.493   2.095
 1419SOL    HW2 5157   0.376   5.535   1.938
 1420SOL     OW 5158   3.028   6.437   3.739
 1420SOL    HW1 5159   3.038   6.536   3.740
 1420SOL    HW2 5160   3.036   6.402   3.832
 1421SOL     OW 5161   1.610   5.728   0.685
 1421SOL    HW1 5162   1.662   5.648   0.716
 1421SOL    HW2 5163   1.593   5.788   0.763
 1422SOL     OW 5164   1.605   3.646   6.765
 1422SOL    HW1 5165   1.572   3.735   6.796
 1422SOL    HW2 5166   1.605   3.582   6.841
 1423SOL     OW 5167   5.212   1.097   5.039
 1423SOL    HW1 5168   5.210   1.046   4.953
 1423SOL    HW2 5169   5.129   1.078   5.091
 1424SOL     OW 5170   6.544   2.479   1.517
 1424SOL    HW1 5171   6.627   2.461   1.570
 1424SOL    HW2 5172   6.525   2.577   1.517
 1425SOL     OW 5173   5.444   6.499   3.113
 1425SOL    HW1 5174   5.388   6.416   3.118
 1425SOL    HW2 5175   5.416   6.554   3.034
 1426SOL     OW 5176   3.789   0.925   0.509
 1426SOL    HW1 5177   3.803   0.962   0.600
 1426SOL    HW2 5178   3.877   0.910   0.465
 1427SOL     OW 5179   0.823   0.329   4.162
 1427SOL    HW1 5180   0.910   0.303   4.205
 1427SOL    HW2 5181   0.814   0.428   4.163
 1428SOL     OW 5182   1.785   4.147   3.891
 1428SOL    HW1 5183   1.826   4.097   3.967
 1428SOL    HW2 5184   1.853   4.160   3.819
 1429SOL     OW 5185   6.117   0.333   1.719
 1429SOL    HW1 5186   6.200   0.354   1.770
 1429SOL    HW2 5187   6.139   0.273   1.642
 1430SOL     OW 5188   2.152   3.813   4.519
 1430SOL    HW1 5189   2.181   3.719   4.500
 1430SOL    HW2 5190   2.149   3.827   4.618
 1431SOL     OW 5191   3.550   2.227   0.737
 1431SOL    HW1 5192   3.582   2.261   0.649
 1431SOL    HW2 5193   3.451   2.238   0.743
 1432SOL     OW 5194   4.252   0.434   3.132
 1432SOL    HW1 5195   4.238   0.352   3.076
 1432SOL    HW2 5196   4.265   0.513   3.073
 1433SOL     OW 5197   2.834   2.050   4.071
 1433SOL    HW1 5198   2.867   2.136   4.110
 1433SOL    HW2 5199   2.907   2.007   4.019
 1434SOL     OW 5200   5.045   3.675   0.586
 1434SOL    HW1 5201   4.967   3.737   0.575
 1434SOL    HW2 5202   5.085   3.687   0.677
 1435SOL     OW 5203   0.324   6.002   3.873
 1435SOL    HW1 5204   0.270   6.082   3.900
 1435SOL    HW2 5205   0.265   5.921   3.873
 1436SOL     OW 5206   5.733   1.195   0.279
 1436SOL    HW1 5207   5.824   1.198   0.321
 1436SOL    HW2 5208   5.664   1.189   0.351
 1437SOL     OW 5209   4.402   1.695   0.925
 1437SOL    HW1 5210   4.413   1.705   0.826
 1437SOL    HW2 5211   4.418   1.783   0.970
 1438SOL     OW 5212   2.270   6.936   2.955
 1438SOL    HW1 5213   2.352   6.977   2.918
 1438SOL    HW2 5214   2.295   6.865   3.021
 1439SOL     OW 5215   0.518   5.662   5.021
 1439SOL    HW1 5216   0.487   5.757   5.016
 1439SOL    HW2 5217   0.453   5.608   5.074
 1440SOL     OW 5218   3.289   3.404   2.293
 1440SOL    HW1 5219   3.207   3.347   2.279
 1440SOL    HW2 5220   3.327   3.430   2.204
 1441SOL     OW 5221   0.268   1.851   5.613
 1441SOL    HW1 5222   0.231   1.861   5.520
 1441SOL    HW2 5223   0.193   1.838   5.678
 1442SOL     OW 5224   5.519   5.593   0.380
 1442SOL    HW1 5225   5.506   5.667   0.315
 1442SOL    HW2 5226   5.457   5.604   0.457
 1443SOL     OW 5227   1.321   3.018   3.516
 1443SOL    HW1 5228   1.400   3.006   3.576
 1443SOL    HW2 5229   1.330   3.103   3.464
 1444SOL     OW 5230   5.280   6.961   4.332
 1444SOL    HW1 5231   5.311   6.866   4.322
 1444SOL    HW2 5232   5.357   7.018   4.362
 1445SOL     OW 5233   0.030   2.056   0.288
 1445SOL    HW1 5234   0.004   1.967   0.250
 1445SOL    HW2 5235   0.076   2.043   0.376
 1446SOL     OW 5236   3.283   5.664   2.573
 1446SOL    HW1 5237   3.201   5.635   2.622
 1446SOL    HW2 5238   3.270   5.756   2.537
 1447SOL     OW 5239   6.814   0.446   4.587
 1447SOL    HW1 5240   6.813   0.543   4.561
 1447SOL    HW2 5241   6.909   0.413   4.587
 1448SOL     OW 5242   5.103   0.738   0.726
 1448SOL    HW1 5243   5.140   0.646   0.714
 1448SOL    HW2 5244   5.007   0.740   0.698
 1449SOL     OW 5245   4.475   5.184   0.235
 1449SOL    HW1 5246   4.526   5.237   0.166
 1449SOL    HW2 5247   4.387   5.229   0.253
 1450SOL     OW 5248   5.763   1.560   3.626
 1450SOL    HW1 5249   5.695   1.560   3.553
 1450SOL    HW2 5250   5.793   1.467   3.644
 1451SOL     OW 5251   1.358   0.126   1.829
 1451SOL    HW1 5252   1.393   0.088   1.915
 1451SOL    HW2 5253   1.261   0.150   1.840
 1452SOL     OW 5254   2.816   0.415   6.333
 1452SOL    HW1 5255   2.811   0.330   6.386
 1452SOL    HW2 5256   2.895   0.412   6.273
 1453SOL     OW 5257   5.502   4.525   4.303
 1453SOL    HW1 5258   5.524   4.573   4.388
 1453SOL    HW2 5259   5.579   4.531   4.240
 1454SOL     OW 5260   5.588   3.828   0.961
 1454SOL    HW1 5261   5.610   3.739   0.921
 1454SOL    HW2 5262   5.546   3.814   1.051
 1455SOL     OW 5263   1.714   1.859   1.790
 1455SOL    HW1 5264   1.782   1.899   1.851
 1455SOL    HW2 5265   1.622   1.886   1.820
 1456SOL     OW 5266   5.668   5.466   5.349
 1456SOL    HW1 5267   5.723   5.549   5.335
 1456SOL    HW2 5268   5.606   5.455   5.271
 1457SOL     OW 5269   1.806   0.840   4.473
 1457SOL    HW1 5270   1.713   0.806   4.460
 1457SOL    HW2 5271   1.803   0.927   4.521
 1458SOL     OW 5272   0.236   5.164   6.479
 1458SOL    HW1 5273   0.217   5.123   6.390
 1458SOL    HW2 5274   0.267   5.259   6.466
 1459SOL     OW 5275   2.434   6.670   1.788
 1459SOL    HW1 5276   2.416   6.725   1.707
 1459SOL    HW2 5277   2.409   6.575   1.770
 1460SOL     OW 5278   0.224   0.248   0.019
 1460SOL    HW1 5279   0.178   0.285   0.100
 1460SOL    HW2 5280   0.319   0.278   0.019
 1461SOL     OW 5281   5.105   4.932   2.412
 1461SOL    HW1 5282   5.082   4.932   2.315
 1461SOL    HW2 5283   5.203   4.914   2.423
 1462SOL     OW 5284   5.479   0.157   4.927
 1462SOL    HW1 5285   5.498   0.115   5.015
 1462SOL    HW2 5286   5.410   0.228   4.937
 1463SOL     OW 5287   1.051   2.420   5.358
 1463SOL    HW1 5288   1.004   2.371   5.285
 1463SOL    HW2 5289   1.140   2.452   5.324
 1464SOL     OW 5290   0.851   0.863   1.188
 1464SOL    HW1 5291   0.818   0.941   1.136
 1464SOL    HW2 5292   0.870   0.890   1.282
 1465SOL     OW 5293   1.834   0.685   3.572
 1465SOL    HW1 5294   1.819   0.667   3.669
 1465SOL    HW2 5295   1.762   0.746   3.538
 1466SOL     OW 5296   5.403   5.758   3.954
 1466SOL    HW1 5297   5.445   5.787   3.868
 1466SOL    HW2 5298   5.334   5.825   3.982
 1467SOL     OW 5299   6.825   3.946   4.343
 1467SOL    HW1 5300   6.830   3.859   4.293
 1467SOL    HW2 5301   6.913   3.993   4.335
 1468SOL     OW 5302   4.892   0.298   2.911
 1468SOL    HW1 5303   4.816   0.273   2.972
 1468SOL    HW2 5304   4.876   0.389   2.874
 1469SOL     OW 5305   0.641   0.764   2.001
 1469SOL    HW1 5306   0.696   0.718   2.072
 1469SOL    HW2 5307   0.564   0.811   2.044
 1470SOL     OW 5308   0.216   7.010   2.666
 1470SOL    HW1 5309   0.256   0.030   2.584
 1470SOL    HW2 5310   0.121   6.984   2.648
 1471SOL     OW 5311   6.398   1.138   0.767
 1471SOL    HW1 5312   6.353   1.168   0.851
 1471SOL    HW2 5313   6.329   1.112   0.699
 1472SOL     OW 5314   4.945   5.380   4.938
 1472SOL    HW1 5315   4.964   5.295   4.890
 1472SOL    HW2 5316   4.850   5.407   4.921
 1473SOL     OW 5317   6.846   3.758   3.736
 1473SOL    HW1 5318   6.867   3.699   3.815
 1473SOL    HW2 5319   6.753   3.793   3.746
 1474SOL     OW 5320   4.189   5.909   2.943
 1474SOL    HW1 5321   4.092   5.899   2.963
 1474SOL    HW2 5322   4.239   5.925   3.028
 1475SOL     OW 5323   6.485   6.925   2.808
 1475SOL    HW1 5324   6.546   6.948   2.732
 1475SOL    HW2 5325   6.394   6.906   2.773
 1476SOL     OW 5326   0.915   2.517   1.760
 1476SOL    HW1 5327   0.913   2.459   1.842
 1476SOL    HW2 5328   1.006   2.512   1.719
 1477SOL     OW 5329   2.697   6.562   4.764
 1477SOL    HW1 5330   2.631   6.636   4.781
 1477SOL    HW2 5331   2.648   6.475   4.757
 1478SOL     OW 5332   0.155   3.651   1.274
 1478SOL    HW1 5333   0.182   3.557   1.257
 1478SOL    HW2 5334   0.122   3.660   1.368
 1479SOL     OW 5335   1.556   5.507   0.226
 1479SOL    HW1 5336   1.527   5.573   0.156
 1479SOL    HW2 5337   1.476   5.474   0.276
 1480SOL     OW 5338   2.883   1.012   6.986
 1480SOL    HW1 5339   2.840   1.045   0.050
 1480SOL    HW2 5340   2.828   1.041   6.907
 1481SOL     OW 5341   6.930   3.370   6.963
 1481SOL    HW1 5342   6.997   3.444   6.971
 1481SOL    HW2 5343   6.968   3.298   6.905
 1482SOL     OW 5344   5.836   0.316   6.114
 1482SOL    HW1 5345   5.746   0.275   6.128
 1482SOL    HW2 5346   5.862   0.368   6.196
 1483SOL     OW 5347   6.279   2.212   6.817
 1483SOL    HW1 5348   6.345   2.150   6.859
 1483SOL    HW2 5349   6.280   2.199   6.718
 1484SOL     OW 5350   6.256   0.107   3.260
 1484SOL    HW1 5351   6.289   0.017   3.232
 1484SOL    HW2 5352   6.233   0.104   3.358
 1485SOL     OW 5353   5.595   3.596   4.107
 1485SOL    HW1 5354   5.674   3.658   4.111
 1485SOL    HW2 5355   5.615   3.513   4.159
 1486SOL     OW 5356   4.963   2.632   1.332
 1486SOL    HW1 5357   4.947   2.571   1.410
 1486SOL    HW2 5358   5.011   2.581   1.260
 1487SOL     OW 5359   0.417   0.081   5.549
 1487SOL    HW1 5360   0.515   0.084   5.529
 1487SOL    HW2 5361   0.379   7.015   5.513
 1488SOL     OW 5362   5.264   1.972   4.562
 1488SOL    HW1 5363   5.330   1.932   4.626
 1488SOL    HW2 5364   5.195   2.023   4.613
 1489SOL     OW 5365   3.410   4.990   4.987
 1489SOL    HW1 5366   3.418   5.077   4.938
 1489SOL    HW2 5367   3.317   4.956   4.977
 1490SOL     OW 5368   2.224   2.924   1.022
 1490SOL    HW1 5369   2.321   2.941   1.006
 1490SOL    HW2 5370   2.179   3.010   1.047
 1491SOL     OW 5371   0.616   2.266   4.728
 1491SOL    HW1 5372   0.579   2.354   4.700
 1491SOL    HW2 5373   0.585   2.245   4.821
 1492SOL     OW 5374   0.462   2.112   1.849
 1492SOL    HW1 5375   0.438   2.021   1.885
 1492SOL    HW2 5376   0.450   2.180   1.921
 1493SOL     OW 5377   6.237   2.755   5.011
 1493SOL    HW1 5378   6.231   2.673   5.067
 1493SOL    HW2 5379   6.269   2.832   5.066
 1494SOL     OW 5380   5.500   1.855   4.227
 1494SOL    HW1 5381   5.511   1.868   4.128
 1494SOL    HW2 5382   5.439   1.926   4.263
 1495SOL     OW 5383   1.577   3.894   2.191
 1495SOL    HW1 5384   1.602   3.964   2.257
 1495SOL    HW2 5385   1.651   3.883   2.125
 1496SOL     OW 5386   1.515   0.397   2.260
 1496SOL    HW1 5387   1.519   0.422   2.357
 1496SOL    HW2 5388   1.420   0.399   2.229
 1497SOL     OW 5389   5.924   5.475   5.965
 1497SOL    HW1 5390   5.838   5.475   5.914
 1497SOL    HW2 5391   5.996   5.516   5.909
 1498SOL     OW 5392   2.961   5.658   0.356
 1498SOL    HW1 5393   2.880   5.604   0.379
 1498SOL    HW2 5394   3.026   5.601   0.307
 1499SOL     OW 5395   0.813   4.193   4.143
 1499SOL    HW1 5396   0.782   4.199   4.048
 1499SOL    HW2 5397   0.853   4.103   4.160
 1500SOL     OW 5398   3.548   6.871   5.836
 1500SOL    HW1 5399   3.486   6.869   5.915
 1500SOL    HW2 5400   3.499   6.843   5.754
 1501SOL     OW 5401   3.394   0.234   0.964
 1501SOL    HW1 5402   3.333   0.169   0.918
 1501SOL    HW2 5403   3.361   0.249   1.058
 1502SOL     OW 5404   0.582   0.230   6.034
 1502SOL    HW1 5405   0.660   0.288   6.013
 1502SOL    HW2 5406   0.574   0.219   6.133
 1503SOL     OW 5407   3.558   4.229   5.137
 1503SOL    HW1 5408   3.477   4.177   5.166
 1503SOL    HW2 5409   3.563   4.228   5.037
 1504SOL     OW 5410   2.648   6.745   3.616
 1504SOL    HW1 5411   2.647   6.653   3.577
 1504SOL    HW2 5412   2.716   6.749   3.689
 1505SOL     OW 5413   5.384   6.913   2.964
 1505SOL    HW1 5414   5.295   6.946   2.995
 1505SOL    HW2 5415   5.456   6.966   3.008
 1506SOL     OW 5416   0.729   6.220   3.745
 1506SOL    HW1 5417   0.647   6.176   3.781
 1506SOL    HW2 5418   0.704   6.283   3.672
 1507SOL     OW 5419   2.049   1.323   6.955
 1507SOL    HW1 5420   2.052   1.407   7.008
 1507SOL    HW2 5421   1.973   1.326   6.891
 1508SOL     OW 5422   4.651   6.504   1.340
 1508SOL    HW1 5423   4.681   6.440   1.411
 1508SOL    HW2 5424   4.625   6.452   1.258
 1509SOL     OW 5425   5.770   1.553   6.373
 1509SOL    HW1 5426   5.794   1.465   6.333
 1509SOL    HW2 5427   5.671   1.566   6.368
 1510SOL     OW 5428   6.694   1.573   2.719
 1510SOL    HW1 5429   6.595   1.558   2.724
 1510SOL    HW2 5430   6.715   1.639   2.647
 1511SOL     OW 5431   0.643   2.758   0.217
 1511SOL    HW1 5432   0.595   2.828   0.164
 1511SOL    HW2 5433   0.740   2.784   0.226
 1512SOL     OW 5434   6.611   0.725   1.721
 1512SOL    HW1 5435   6.546   0.796   1.748
 1512SOL    HW2 5436   6.606   0.712   1.622
 1513SOL     OW 5437   2.445   0.790   2.918
 1513SOL    HW1 5438   2.486   0.699   2.910
 1513SOL    HW2 5439   2.509   0.858   2.884
 1514SOL     OW 5440   4.659   1.346   5.635
 1514SOL    HW1 5441   4.588   1.403   5.677
 1514SOL    HW2 5442   4.666   1.260   5.685
 1515SOL     OW 5443   5.320   5.278   5.751
 1515SOL    HW1 5444   5.262   5.290   5.671
 1515SOL    HW2 5445   5.346   5.367   5.787
 1516SOL     OW 5446   6.717   1.464   1.273
 1516SOL    HW1 5447   6.778   1.398   1.317
 1516SOL    HW2 5448   6.709   1.545   1.331
 1517SOL     OW 5449   3.502   5.176   2.264
 1517SOL    HW1 5450   3.552   5.177   2.178
 1517SOL    HW2 5451   3.412   5.219   2.251
 1518SOL     OW 5452   0.519   4.692   0.481
 1518SOL    HW1 5453   0.576   4.612   0.500
 1518SOL    HW2 5454   0.529   4.719   0.385
 1519SOL     OW 5455   0.345   4.084   1.120
 1519SOL    HW1 5456   0.273   4.118   1.182
 1519SOL    HW2 5457   0.320   4.105   1.026
 1520SOL     OW 5458   1.082   3.590   2.832
 1520SOL    HW1 5459   0.982   3.598   2.833
 1520SOL    HW2 5460   1.110   3.535   2.753
 1521SOL     OW 5461   2.523   4.990   5.390
 1521SOL    HW1 5462   2.610   4.967   5.432
 1521SOL    HW2 5463   2.513   4.941   5.304
 1522SOL     OW 5464   1.405   1.985   6.179
 1522SOL    HW1 5465   1.355   2.065   6.145
 1522SOL    HW2 5466   1.444   1.934   6.102
 1523SOL     OW 5467   5.778   1.243   1.451
 1523SOL    HW1 5468   5.683   1.273   1.441
 1523SOL    HW2 5469   5.828   1.265   1.367
 1524SOL     OW 5470   0.771   1.369   0.557
 1524SOL    HW1 5471   0.820   1.334   0.637
 1524SOL    HW2 5472   0.699   1.431   0.587
 1525SOL     OW 5473   5.124   1.738   5.569
 1525SOL    HW1 5474   5.048   1.694   5.616
 1525SOL    HW2 5475   5.089   1.798   5.497
 1526SOL     OW 5476   5.580   1.985   0.325
 1526SOL    HW1 5477   5.594   1.895   0.365
 1526SOL    HW2 5478   5.666   2.017   0.284
 1527SOL     OW 5479   3.049   1.086   5.736
 1527SOL    HW1 5480   2.957   1.118   5.712
 1527SOL    HW2 5481   3.045   0.991   5.766
 1528SOL     OW 5482   5.014   5.627   3.485
 1528SOL    HW1 5483   4.943   5.573   3.439
 1528SOL    HW2 5484   5.088   5.645   3.420
 1529SOL     OW 5485   1.944   6.796   5.310
 1529SOL    HW1 5486   1.851   6.803   5.274
 1529SOL    HW2 5487   1.941   6.787   5.409
 1530SOL     OW 5488   2.975   6.590   1.272
 1530SOL    HW1 5489   3.022   6.611   1.187
 1530SOL    HW2 5490   2.876   6.597   1.258
 1531SOL     OW 5491   5.394   1.155   6.511
 1531SOL    HW1 5492   5.452   1.121   6.437
 1531SOL    HW2 5493   5.335   1.080   6.543
 1532SOL     OW 5494   2.952   1.953   5.019
 1532SOL    HW1 5495   2.968   1.995   4.929
 1532SOL    HW2 5496   2.964   2.021   5.090
 1533SOL     OW 5497   4.695   3.035   0.055
 1533SOL    HW1 5498   4.665   3.041   0.150
 1533SOL    HW2 5499   4.794   3.050   0.050
 1534SOL     OW 5500   6.832   0.201   0.475
 1534SOL    HW1 5501   6.759   0.171   0.413
 1534SOL    HW2 5502   6.900   0.253   0.423
 1535SOL     OW 5503   5.316   4.711   4.559
 1535SOL    HW1 5504   5.256   4.632   4.549
 1535SOL    HW2 5505   5.373   4.720   4.477
 1536SOL     OW 5506   3.198   6.034   3.164
 1536SOL    HW1 5507   3.289   6.075   3.153
 1536SOL    HW2 5508   3.152   6.031   3.076
 1537SOL     OW 5509   2.602   6.083   4.308
 1537SOL    HW1 5510   2.512   6.105   4.271
 1537SOL    HW2 5511   2.593   6.008   4.374
 1538SOL     OW 5512   3.285   6.287   0.132
 1538SOL    HW1 5513   3.287   6.335   0.044
 1538SOL    HW2 5514   3.200   6.310   0.179
 1539SOL     OW 5515   2.398   6.463   2.107
 1539SOL    HW1 5516   2.309   6.463   2.063
 1539SOL    HW2 5517   2.442   6.374   2.093
 1540SOL     OW 5518   6.194   0.040   4.909
 1540SOL    HW1 5519   6.144   7.013   4.837
 1540SOL    HW2 5520   6.259   6.997   4.953
 1541SOL     OW 5521   5.465   1.733   2.132
 1541SOL    HW1 5522   5.377   1.687   2.120
 1541SOL    HW2 5523   5.526   1.709   2.057
 1542SOL     OW 5524   6.778   6.062   1.180
 1542SOL    HW1 5525   6.782   6.070   1.080
 1542SOL    HW2 5526   6.837   6.131   1.221
 1543SOL     OW 5527   3.187   3.265   3.398
 1543SOL    HW1 5528   3.166   3.170   3.376
 1543SOL    HW2 5529   3.243   3.269   3.481
 1544SOL     OW 5530   3.446   3.437   2.060
 1544SOL    HW1 5531   3.493   3.500   2.122
 1544SOL    HW2 5532   3.382   3.488   2.003
 1545SOL     OW 5533   0.420   6.488   5.185
 1545SOL    HW1 5534   0.372   6.435   5.255
 1545SOL    HW2 5535   0.515   6.503   5.213
 1546SOL     OW 5536   6.787   6.443   6.764
 1546SOL    HW1 5537   6.784   6.533   6.807
 1546SOL    HW2 5538   6.853   6.443   6.690
 1547SOL     OW 5539   3.280   6.030   0.025
 1547SOL    HW1 5540   3.266   6.112   0.081
 1547SOL    HW2 5541   3.276   5.949   0.083
 1548SOL     OW 5542   6.855   3.844   3.163
 1548SOL    HW1 5543   6.760   3.846   3.130
 1548SOL    HW2 5544   6.882   3.749   3.178
 1549SOL     OW 5545   6.548   2.235   0.993
 1549SOL    HW1 5546   6.635   2.278   0.966
 1549SOL    HW2 5547   6.511   2.184   0.916
 1550SOL     OW 5548   2.673   4.900   2.431
 1550SOL    HW1 5549   2.601   4.968   2.417
 1550SOL    HW2 5550   2.694   4.855   2.344
 1551SOL     OW 5551   0.616   2.607   1.721
 1551SOL    HW1 5552   0.705   2.560   1.722
 1551SOL    HW2 5553   0.545   2.545   1.754
 1552SOL     OW 5554   1.689   6.625   2.079
 1552SOL    HW1 5555   1.778   6.669   2.065
 1552SOL    HW2 5556   1.623   6.693   2.112
 1553SOL     OW 5557   5.892   1.623   5.696
 1553SOL    HW1 5558   5.803   1.590   5.726
 1553SOL    HW2 5559   5.894   1.723   5.704
 1554SOL     OW 5560   2.693   2.949   0.777
 1554SOL    HW1 5561   2.689   2.890   0.696
 1554SOL    HW2 5562   2.723   3.041   0.750
 1555SOL     OW 5563   4.152   1.578   0.964
 1555SOL    HW1 5564   4.101   1.643   0.907
 1555SOL    HW2 5565   4.249   1.602   0.963
 1556SOL     OW 5566   3.218   2.316   0.460
 1556SOL    HW1 5567   3.146   2.311   0.530
 1556SOL    HW2 5568   3.272   2.399   0.473
 1557SOL     OW 5569   1.258   2.906   0.994
 1557SOL    HW1 5570   1.329   2.919   1.062
 1557SOL    HW2 5571   1.289   2.841   0.924
 1558SOL     OW 5572   5.078   2.550   6.726
 1558SOL    HW1 5573   5.110   2.558   6.631
 1558SOL    HW2 5574   5.155   2.560   6.789
 1559SOL     OW 5575   2.800   6.016   3.440
 1559SOL    HW1 5576   2.838   6.103   3.473
 1559SOL    HW2 5577   2.733   5.982   3.507
 1560SOL     OW 5578   4.470   2.998   1.540
 1560SOL    HW1 5579   4.471   2.956   1.449
 1560SOL    HW2 5580   4.472   2.926   1.609
 1561SOL     OW 5581   5.906   6.244   0.374
 1561SOL    HW1 5582   5.912   6.153   0.416
 1561SOL    HW2 5583   5.839   6.299   0.423
 1562SOL     OW 5584   2.972   6.910   2.535
 1562SOL    HW1 5585   2.974   6.949   2.443
 1562SOL    HW2 5586   2.878   6.912   2.570
 1563SOL     OW 5587   1.926   3.869   3.782
 1563SOL    HW1 5588   1.900   3.909   3.870
 1563SOL    HW2 5589   1.989   3.792   3.797
 1564SOL     OW 5590   1.159   1.901   2.625
 1564SOL    HW1 5591   1.095   1.912   2.700
 1564SOL    HW2 5592   1.245   1.862   2.659
 1565SOL     OW 5593   4.841   1.675   5.219
 1565SOL    HW1 5594   4.852   1.624   5.304
 1565SOL    HW2 5595   4.807   1.614   5.148
 1566SOL     OW 5596   0.819   3.612   3.677
 1566SOL    HW1 5597   0.719   3.607   3.674
 1566SOL    HW2 5598   0.856   3.519   3.680
 1567SOL     OW 5599   5.561   0.690   4.843
 1567SOL    HW1 5600   5.585   0.785   4.861
 1567SOL    HW2 5601   5.461   0.681   4.841
 1568SOL     OW 5602   2.351   4.561   0.797
 1568SOL    HW1 5603   2.281   4.530   0.861
 1568SOL    HW2 5604   2.441   4.532   0.829
 1569SOL     OW 5605   2.098   0.828   2.347
 1569SOL    HW1 5606   2.151   0.752   2.310
 1569SOL    HW2 5607   2.100   0.824   2.447
 1570SOL     OW 5608   2.971   6.242   6.499
 1570SOL    HW1 5609   2.967   6.155   6.451
 1570SOL    HW2 5610   3.066   6.271   6.510
 1571SOL     OW 5611   0.228   1.615   4.233
 1571SOL    HW1 5612   0.232   1.643   4.137
 1571SOL    HW2 5613   0.134   1.619   4.266
 1572SOL     OW 5614   1.939   6.054   3.502
 1572SOL    HW1 5615   1.948   6.034   3.404
 1572SOL    HW2 5616   1.930   6.152   3.516
 1573SOL     OW 5617   5.670   6.111   0.776
 1573SOL    HW1 5618   5.637   6.191   0.826
 1573SOL    HW2 5619   5.674   6.131   0.678
 1574SOL     OW 5620   0.271   4.112   3.007
 1574SOL    HW1 5621   0.321   4.072   3.084
 1574SOL    HW2 5622   0.174   4.090   3.015
 1575SOL     OW 5623   6.962   2.062   0.696
 1575SOL    HW1 5624   6.955   2.160   0.675
 1575SOL    HW2 5625   0.014   2.021   0.641
 1576SOL     OW 5626   1.776   6.006   2.692
 1576SOL    HW1 5627   1.818   5.947   2.761
 1576SOL    HW2 5628   1.840   6.021   2.617
 1577SOL     OW 5629   4.308   5.813   4.132
 1577SOL    HW1 5630   4.282   5.828   4.228
 1577SOL    HW2 5631   4.368   5.733   4.126
 1578SOL     OW 5632   5.572   1.845   1.872
 1578SOL    HW1 5633   5.641   1.905   1.913
 1578SOL    HW2 5634   5.573   1.856   1.773
 1579SOL     OW 5635   1.415   3.024   2.060
 1579SOL    HW1 5636   1.512   3.012   2.042
 1579SOL    HW2 5637   1.402   3.051   2.156
 1580SOL     OW 5638   3.299   4.023   3.407
 1580SOL    HW1 5639   3.341   4.043   3.319
 1580SOL    HW2 5640   3.350   4.069   3.480
 1581SOL     OW 5641   4.744   4.665   5.205
 1581SOL    HW1 5642   4.801   4.746   5.189
 1581SOL    HW2 5643   4.696   4.642   5.120
 1582SOL     OW 5644   4.354   6.024   4.657
 1582SOL    HW1 5645   4.369   6.081   4.576
 1582SOL    HW2 5646   4.336   5.930   4.628
 1583SOL     OW 5647   0.988   4.992   5.030
 1583SOL    HW1 5648   1.036   4.911   5.065
 1583SOL    HW2 5649   0.949   4.971   4.940
 1584SOL     OW 5650   6.931   3.673   7.015
 1584SOL    HW1 5651   7.020   3.645   6.979
 1584SOL    HW2 5652   6.941   3.707   0.088
 1585SOL     OW 5653   5.103   6.499   4.532
 1585SOL    HW1 5654   5.134   6.419   4.480
 1585SOL    HW2 5655   5.060   6.564   4.471
 1586SOL     OW 5656   2.644   5.822   3.569
 1586SOL    HW1 5657   2.594   5.844   3.485
 1586SOL    HW2 5658   2.579   5.792   3.639
 1587SOL     OW 5659   3.741   6.394   0.316
 1587SOL    HW1 5660   3.749   6.390   0.415
 1587SOL    HW2 5661   3.815   6.342   0.274
 1588SOL     OW 5662   6.458   2.173   3.850
 1588SOL    HW1 5663   6.437   2.229   3.930
 1588SOL    HW2 5664   6.548   2.131   3.861
 1589SOL     OW 5665   6.805   2.010   4.305
 1589SOL    HW1 5666   6.901   1.991   4.326
 1589SOL    HW2 5667   6.748   1.938   4.343
 1590SOL     OW 5668   5.258   0.612   4.128
 1590SOL    HW1 5669   5.321   0.667   4.182
 1590SOL    HW2 5670   5.200   0.671   4.072
 1591SOL     OW 5671   0.294   5.976   0.488
 1591SOL    HW1 5672   0.339   5.975   0.578
 1591SOL    HW2 5673   0.322   5.896   0.436
 1592SOL     OW 5674   6.895   4.026   5.206
 1592SOL    HW1 5675   6.917   3.948   5.148
 1592SOL    HW2 5676   6.932   4.011   5.298
 1593SOL     OW 5677   3.809   5.728   1.239
 1593SOL    HW1 5678   3.734   5.781   1.199
 1593SOL    HW2 5679   3.778   5.635   1.258
 1594SOL     OW 5680   4.753   1.130   3.032
 1594SOL    HW1 5681   4.659   1.148   3.004
 1594SOL    HW2 5682   4.814   1.137   2.953
 1595SOL     OW 5683   0.110   3.541   6.890
 1595SOL    HW1 5684   0.109   3.525   6.791
 1595SOL    HW2 5685   0.177   3.612   6.912
 1596SOL     OW 5686   5.302   4.308   4.347
 1596SOL    HW1 5687   5.312   4.221   4.298
 1596SOL    HW2 5688   5.392   4.351   4.355
 1597SOL     OW 5689   4.082   6.458   1.024
 1597SOL    HW1 5690   4.039   6.436   0.937
 1597SOL    HW2 5691   4.040   6.404   1.097
 1598SOL     OW 5692   1.068   4.526   6.113
 1598SOL    HW1 5693   1.030   4.472   6.039
 1598SOL    HW2 5694   0.997   4.588   6.149
 1599SOL     OW 5695   4.568   5.684   3.588
 1599SOL    HW1 5696   4.501   5.638   3.646
 1599SOL    HW2 5697   4.639   5.725   3.644
 1600SOL     OW 5698   4.669   0.618   1.649
 1600SOL    HW1 5699   4.602   0.654   1.583
 1600SOL    HW2 5700   4.656   0.520   1.659
 1601SOL     OW 5701   6.565   0.834   5.001
 1601SOL    HW1 5702   6.620   0.771   5.056
 1601SOL    HW2 5703   6.539   0.790   4.915
 1602SOL     OW 5704   3.945   5.363   3.180
 1602SOL    HW1 5705   3.848   5.351   3.202
 1602SOL    HW2 5706   3.960   5.343   3.083
 1603SOL     OW 5707   3.167   4.893   1.820
 1603SOL    HW1 5708   3.197   4.967   1.880
 1603SOL    HW2 5709   3.246   4.837   1.794
 1604SOL     OW 5710   4.384   5.190   2.389
 1604SOL    HW1 5711   4.337   5.230   2.310
 1604SOL    HW2 5712   4.481   5.214   2.386
 1605SOL     OW 5713   5.037   4.754   0.461
 1605SOL    HW1 5714   5.007   4.768   0.556
 1605SOL    HW2 5715   5.001   4.827   0.403
 1606SOL     OW 5716   3.770   5.931   5.231
 1606SOL    HW1 5717   3.731   6.003   5.288
 1606SOL    HW2 5718   3.823   5.868   5.289
 1607SOL     OW 5719   4.910   3.828   3.834
 1607SOL    HW1 5720   5.005   3.814   3.860
 1607SOL    HW2 5721   4.882   3.760   3.767
 1608SOL     OW 5722   6.051   2.883   3.581
 1608SOL    HW1 5723   5.986   2.929   3.641
 1608SOL    HW2 5724   6.003   2.819   3.522
 1609SOL     OW 5725   1.955   6.917   1.014
 1609SOL    HW1 5726   2.002   6.995   0.972
 1609SOL    HW2 5727   1.857   6.923   0.994
 1610SOL     OW 5728   5.256   6.142   1.108
 1610SOL    HW1 5729   5.209   6.058   1.082
 1610SOL    HW2 5730   5.254   6.206   1.030
 1611SOL     OW 5731   0.607   3.956   6.783
 1611SOL    HW1 5732   0.613   4.052   6.809
 1611SOL    HW2 5733   0.677   3.904   6.832
 1612SOL     OW 5734   5.002   0.914   1.807
 1612SOL    HW1 5735   5.024   0.838   1.868
 1612SOL    HW2 5736   4.941   0.882   1.735
 1613SOL     OW 5737   0.158   5.986   2.408
 1613SOL    HW1 5738   0.079   5.994   2.468
 1613SOL    HW2 5739   0.131   6.012   2.315
 1614SOL     OW 5740   6.154   2.184   5.380
 1614SOL    HW1 5741   6.102   2.198   5.295
 1614SOL    HW2 5742   6.201   2.096   5.375
 1615SOL     OW 5743   0.129   3.275   5.100
 1615SOL    HW1 5744   0.116   3.346   5.032
 1615SOL    HW2 5745   0.045   3.220   5.108
 1616SOL     OW 5746   0.916   1.246   3.163
 1616SOL    HW1 5747   0.877   1.338   3.175
 1616SOL    HW2 5748   0.906   1.194   3.248
 1617SOL     OW 5749   6.486   5.477   4.078
 1617SOL    HW1 5750   6.390   5.448   4.082
 1617SOL    HW2 5751   6.493   5.560   4.022
 1618SOL     OW 5752   3.198   5.457   3.195
 1618SOL    HW1 5753   3.106   5.485   3.224
 1618SOL    HW2 5754   3.228   5.378   3.249
 1619SOL     OW 5755   0.827   3.547   6.411
 1619SOL    HW1 5756   0.783   3.550   6.321
 1619SOL    HW2 5757   0.828   3.639   6.451
 1620SOL     OW 5758   2.819   6.839   4.604
 1620SOL    HW1 5759   2.766   6.879   4.678
 1620SOL    HW2 5760   2.800   6.886   4.519
 1621SOL     OW 5761   5.613   4.672   1.112
 1621SOL    HW1 5762   5.607   4.747   1.177
 1621SOL    HW2 5763   5.584   4.703   1.022
 1622SOL     OW 5764   6.625   3.898   3.065
 1622SOL    HW1 5765   6.568   3.867   2.988
 1622SOL    HW2 5766   6.639   3.996   3.057
 1623SOL     OW 5767   1.002   2.607   3.785
 1623SOL    HW1 5768   0.954   2.520   3.790
 1623SOL    HW2 5769   0.960   2.665   3.716
 1624SOL     OW 5770   3.809   2.931   0.545
 1624SOL    HW1 5771   3.854   2.908   0.458
 1624SOL    HW2 5772   3.713   2.952   0.528
 1625SOL     OW 5773   0.673   6.420   0.278
 1625SOL    HW1 5774   0.690   6.447   0.373
 1625SOL    HW2 5775   0.733   6.344   0.254
 1626SOL     OW 5776   2.514   1.875   2.268
 1626SOL    HW1 5777   2.464   1.832   2.193
 1626SOL    HW2 5778   2.612   1.875   2.247
 1627SOL     OW 5779   4.354   1.495   6.073
 1627SOL    HW1 5780   4.269   1.531   6.112
 1627SOL    HW2 5781   4.428   1.508   6.139
 1628SOL     OW 5782   5.404   6.034   1.311
 1628SOL    HW1 5783   5.396   5.936   1.293
 1628SOL    HW2 5784   5.331   6.082   1.262
 1629SOL     OW 5785   1.679   6.670   3.597
 1629SOL    HW1 5786   1.710   6.752   3.645
 1629SOL    HW2 5787   1.604   6.628   3.647
 1630SOL     OW 5788   0.680   4.386   5.904
 1630SOL    HW1 5789   0.622   4.343   5.973
 1630SOL    HW2 5790   0.627   4.456   5.856
 1631SOL     OW 5791   5.111   3.957   0.174
 1631SOL    HW1 5792   5.145   4.049   0.190
 1631SOL    HW2 5793   5.140   3.897   0.249
 1632SOL     OW 5794   5.824   6.306   2.384
 1632SOL    HW1 5795   5.876   6.256   2.454
 1632SOL    HW2 5796   5.735   6.262   2.371
 1633SOL     OW 5797   6.073   3.904   4.529
 1633SOL    HW1 5798   6.113   3.900   4.437
 1633SOL    HW2 5799   6.131   3.961   4.587
 1634SOL     OW 5800   1.239   3.817   6.303
 1634SOL    HW1 5801   1.202   3.885   6.239
 1634SOL    HW2 5802   1.318   3.772   6.261
 1635SOL     OW 5803   2.338   0.287   3.705
 1635SOL    HW1 5804   2.369   0.347   3.631
 1635SOL    HW2 5805   2.253   0.243   3.679
 1636SOL     OW 5806   0.186   6.194   1.513
 1636SOL    HW1 5807   0.176   6.280   1.563
 1636SOL    HW2 5808   0.103   6.178   1.459
 1637SOL     OW 5809   1.278   1.492   2.454
 1637SOL    HW1 5810   1.316   1.443   2.533
 1637SOL    HW2 5811   1.189   1.531   2.479
 1638SOL     OW 5812   5.306   2.243   3.270
 1638SOL    HW1 5813   5.229   2.279   3.323
 1638SOL    HW2 5814   5.274   2.168   3.212
 1639SOL     OW 5815   4.868   2.465   1.510
 1639SOL    HW1 5816   4.919   2.383   1.484
 1639SOL    HW2 5817   4.801   2.442   1.581
 1640SOL     OW 5818   6.432   0.858   6.652
 1640SOL    HW1 5819   6.356   0.823   6.598
 1640SOL    HW2 5820   6.399   0.889   6.741
 1641SOL     OW 5821   5.778   0.951   3.241
 1641SOL    HW1 5822   5.851   1.018   3.254
 1641SOL    HW2 5823   5.724   0.944   3.324
 1642SOL     OW 5824   6.978   3.324   5.655
 1642SOL    HW1 5825   6.941   3.280   5.737
 1642SOL    HW2 5826   7.007   3.254   5.590
 1643SOL     OW 5827   2.405   5.133   3.728
 1643SOL    HW1 5828   2.375   5.042   3.701
 1643SOL    HW2 5829   2.363   5.157   3.816
 1644SOL     OW 5830   5.973   1.692   1.859
 1644SOL    HW1 5831   5.924   1.771   1.897
 1644SOL    HW2 5832   6.038   1.723   1.789
 1645SOL     OW 5833   2.703   0.553   4.764
 1645SOL    HW1 5834   2.730   0.465   4.804
 1645SOL    HW2 5835   2.627   0.591   4.817
 1646SOL     OW 5836   0.206   5.440   1.603
 1646SOL    HW1 5837   0.244   5.355   1.567
 1646SOL    HW2 5838   0.254   5.466   1.686
 1647SOL     OW 5839   6.238   3.507   4.920
 1647SOL    HW1 5840   6.325   3.461   4.900
 1647SOL    HW2 5841   6.163   3.457   4.877
 1648SOL     OW 5842   5.240   6.460   1.620
 1648SOL    HW1 5843   5.276   6.428   1.708
 1648SOL    HW2 5844   5.149   6.421   1.606
 1649SOL     OW 5845   3.461   1.167   2.650
 1649SOL    HW1 5846   3.494   1.168   2.556
 1649SOL    HW2 5847   3.464   1.259   2.688
 1650SOL     OW 5848   2.126   2.843   4.992
 1650SOL    HW1 5849   2.158   2.765   5.047
 1650SOL    HW2 5850   2.195   2.915   4.994
 1651SOL     OW 5851   1.129   2.000   3.803
 1651SOL    HW1 5852   1.208   2.054   3.775
 1651SOL    HW2 5853   1.132   1.987   3.902
 1652SOL     OW 5854   6.678   3.914   1.814
 1652SOL    HW1 5855   6.772   3.932   1.844
 1652SOL    HW2 5856   6.675   3.826   1.767
 1653SOL     OW 5857   6.639   4.619   1.750
 1653SOL    HW1 5858   6.731   4.658   1.751
 1653SOL    HW2 5859   6.639   4.536   1.694
 1654SOL     OW 5860   0.256   4.114   1.385
 1654SOL    HW1 5861   0.189   4.129   1.458
 1654SOL    HW2 5862   0.347   4.109   1.424
 1655SOL     OW 5863   0.366   0.612   6.039
 1655SOL    HW1 5864   0.445   0.606   6.099
 1655SOL    HW2 5865   0.390   0.664   5.957
 1656SOL     OW 5866   2.126   3.852   2.986
 1656SOL    HW1 5867   2.167   3.901   2.909
 1656SOL    HW2 5868   2.125   3.911   3.067
 1657SOL     OW 5869   0.887   0.699   6.179
 1657SOL    HW1 5870   0.894   0.771   6.111
 1657SOL    HW2 5871   0.848   0.735   6.263
 1658SOL     OW 5872   5.291   6.502   5.837
 1658SOL    HW1 5873   5.220   6.439   5.806
 1658SOL    HW2 5874   5.381   6.463   5.818
 1659SOL     OW 5875   3.683   0.142   6.171
 1659SOL    HW1 5876   3.592   0.177   6.193
 1659SOL    HW2 5877   3.733   0.211   6.118
 1660SOL     OW 5878   2.301   0.792   1.963
 1660SOL    HW1 5879   2.210   0.825   1.937
 1660SOL    HW2 5880   2.316   0.702   1.923
 1661SOL     OW 5881   4.983   4.267   3.174
 1661SOL    HW1 5882   5.078   4.245   3.154
 1661SOL    HW2 5883   4.960   4.355   3.131
 1662SOL     OW 5884   0.407   1.491   3.786
 1662SOL    HW1 5885   0.466   1.460   3.711
 1662SOL    HW2 5886   0.340   1.556   3.751
 1663SOL     OW 5887   5.243   3.942   0.945
 1663SOL    HW1 5888   5.189   3.888   1.011
 1663SOL    HW2 5889   5.336   3.954   0.981
 1664SOL     OW 5890   1.074   1.269   6.220
 1664SOL    HW1 5891   1.071   1.367   6.238
 1664SOL    HW2 5892   1.034   1.250   6.131
 1665SOL     OW 5893   2.309   3.615   6.584
 1665SOL    HW1 5894   2.253   3.696   6.563
 1665SOL    HW2 5895   2.272   3.536   6.535
 1666SOL     OW 5896   5.726   6.243   5.822
 1666SOL    HW1 5897   5.730   6.208   5.915
 1666SOL    HW2 5898   5.819   6.257   5.787
 1667SOL     OW 5899   0.024   5.442   1.175
 1667SOL    HW1 5900   6.959   5.432   1.126
 1667SOL    HW2 5901   0.100   5.413   1.117
 1668SOL     OW 5902   6.168   3.149   2.278
 1668SOL    HW1 5903   6.243   3.186   2.224
 1668SOL    HW2 5904   6.097   3.113   2.218
 1669SOL     OW 5905   6.386   2.942   5.609
 1669SOL    HW1 5906   6.313   3.003   5.577
 1669SOL    HW2 5907   6.440   2.912   5.530
 1670SOL     OW 5908   2.890   4.519   5.776
 1670SOL    HW1 5909   2.906   4.617   5.769
 1670SOL    HW2 5910   2.793   4.499   5.764
 1671SOL     OW 5911   5.519   2.082   0.842
 1671SOL    HW1 5912   5.588   2.146   0.809
 1671SOL    HW2 5913   5.447   2.133   0.889
 1672SOL     OW 5914   0.661   2.080   1.603
 1672SOL    HW1 5915   0.608   2.113   1.525
 1672SOL    HW2 5916   0.604   2.079   1.685
 1673SOL     OW 5917   1.819   0.421   5.242
 1673SOL    HW1 5918   1.792   0.368   5.322
 1673SOL    HW2 5919   1.884   0.368   5.187
 1674SOL     OW 5920   5.068   2.320   3.649
 1674SOL    HW1 5921   5.089   2.348   3.555
 1674SOL    HW2 5922   5.002   2.245   3.647
 1675SOL     OW 5923   5.522   0.457   1.855
 1675SOL    HW1 5924   5.459   0.488   1.926
 1675SOL    HW2 5925   5.605   0.513   1.858
 1676SOL     OW 5926   1.323   2.292   3.458
 1676SOL    HW1 5927   1.356   2.232   3.531
 1676SOL    HW2 5928   1.266   2.239   3.395
 1677SOL     OW 5929   2.856   3.575   2.709
 1677SOL    HW1 5930   2.841   3.596   2.612
 1677SOL    HW2 5931   2.872   3.477   2.720
 1678SOL     OW 5932   6.797   6.649   6.936
 1678SOL    HW1 5933   6.897   6.643   6.939
 1678SOL    HW2 5934   6.771   6.736   6.893
 1679SOL     OW 5935   6.144   1.974   0.485
 1679SOL    HW1 5936   6.075   1.971   0.413
 1679SOL    HW2 5937   6.108   1.930   0.568
 1680SOL     OW 5938   6.253   2.894   2.959
 1680SOL    HW1 5939   6.222   2.800   2.951
 1680SOL    HW2 5940   6.173   2.955   2.967
 1681SOL     OW 5941   3.491   5.859   5.005
 1681SOL    HW1 5942   3.547   5.786   5.044
 1681SOL    HW2 5943   3.533   5.947   5.024
 1682SOL     OW 5944   4.212   1.056   4.610
 1682SOL    HW1 5945   4.273   1.133   4.588
 1682SOL    HW2 5946   4.142   1.086   4.674
 1683SOL     OW 5947   0.893   2.590   3.133
 1683SOL    HW1 5948   0.856   2.518   3.074
 1683SOL    HW2 5949   0.840   2.595   3.217
 1684SOL     OW 5950   2.615   5.469   1.217
 1684SOL    HW1 5951   2.576   5.509   1.134
 1684SOL    HW2 5952   2.544   5.418   1.265
 1685SOL     OW 5953   0.164   1.283   5.599
 1685SOL    HW1 5954   0.094   1.287   5.670
 1685SOL    HW2 5955   0.128   1.232   5.520
 1686SOL     OW 5956   3.685   5.344   2.028
 1686SOL    HW1 5957   3.675   5.404   1.948
 1686SOL    HW2 5958   3.718   5.254   1.998
 1687SOL     OW 5959   4.820   4.107   0.642
 1687SOL    HW1 5960   4.884   4.144   0.575
 1687SOL    HW2 5961   4.849   4.133   0.734
 1688SOL     OW 5962   2.966   0.321   2.969
 1688SOL    HW1 5963   2.969   0.416   2.938
 1688SOL    HW2 5964   2.891   0.309   3.034
 1689SOL     OW 5965   3.822   0.675   2.018
 1689SOL    HW1 5966   3.750   0.659   1.951
 1689SOL    HW2 5967   3.844   0.589   2.065
 1690SOL     OW 5968   6.767   4.820   4.266
 1690SOL    HW1 5969   6.698   4.834   4.337
 1690SOL    HW2 5970   6.858   4.836   4.304
 1691SOL     OW 5971   3.956   2.701   5.348
 1691SOL    HW1 5972   3.968   2.798   5.330
 1691SOL    HW2 5973   4.018   2.648   5.291
 1692SOL     OW 5974   6.284   5.409   2.212
 1692SOL    HW1 5975   6.226   5.379   2.287
 1692SOL    HW2 5976   6.311   5.329   2.157
 1693SOL     OW 5977   5.640   6.739   5.410
 1693SOL    HW1 5978   5.691   6.823   5.428
 1693SOL    HW2 5979   5.628   6.728   5.312
 1694SOL     OW 5980   4.744   1.241   6.426
 1694SOL    HW1 5981   4.717   1.246   6.522
 1694SOL    HW2 5982   4.823   1.301   6.411
 1695SOL     OW 5983   4.381   0.120   4.935
 1695SOL    HW1 5984   4.442   0.051   4.895
 1695SOL    HW2 5985   4.379   0.109   5.035
 1696SOL     OW 5986   5.162   6.904   0.971
 1696SOL    HW1 5987   5.174   6.927   1.068
 1696SOL    HW2 5988   5.179   6.806   0.958
 1697SOL     OW 5989   4.484   2.816   1.746
 1697SOL    HW1 5990   4.525   2.895   1.791
 1697SOL    HW2 5991   4.547   2.738   1.751
 1698SOL     OW 5992   4.009   1.284   1.761
 1698SOL    HW1 5993   4.041   1.368   1.717
 1698SOL    HW2 5994   3.914   1.294   1.789
 1699SOL     OW 5995   1.858   0.937   1.194
 1699SOL    HW1 5996   1.764   0.972   1.203
 1699SOL    HW2 5997   1.882   0.888   1.278
 1700SOL     OW 5998   5.498   3.219   2.758
 1700SOL    HW1 5999   5.531   3.132   2.793
 1700SOL    HW2 6000   5.441   3.203   2.677
 1701SOL     OW 6001   0.928   5.670   4.997
 1701SOL    HW1 6002   0.866   5.695   5.071
 1701SOL    HW2 6003   0.904   5.578   4.964
 1702SOL     OW 6004   1.798   2.418   6.788
 1702SOL    HW1 6005   1.841   2.401   6.699
 1702SOL    HW2 6006   1.748   2.504   6.785
 1703SOL     OW 6007   1.389   1.974   2.094
 1703SOL    HW1 6008   1.429   1.942   2.180
 1703SOL    HW2 6009   1.344   1.898   2.049
 1704SOL     OW 6010   2.975   2.998   6.789
 1704SOL    HW1 6011   2.933   3.073   6.738
 1704SOL    HW2 6012   2.905   2.948   6.839
 1705SOL     OW 6013   5.235   3.444   0.403
 1705SOL    HW1 6014   5.280   3.354   0.401
 1705SOL    HW2 6015   5.283   3.503   0.468
 1706SOL     OW 6016   5.478   0.928   6.079
 1706SOL    HW1 6017   5.521   0.838   6.088
 1706SOL    HW2 6018   5.501   0.985   6.158
 1707SOL     OW 6019   3.732   1.113   2.006
 1707SOL    HW1 6020   3.830   1.111   2.025
 1707SOL    HW2 6021   3.692   1.196   2.044
 1708SOL     OW 6022   2.526   4.564   1.894
 1708SOL    HW1 6023   2.622   4.563   1.924
 1708SOL    HW2 6024   2.523   4.582   1.796
 1709SOL     OW 6025   5.033   4.477   1.279
 1709SOL    HW1 6026   4.954   4.510   1.330
 1709SOL    HW2 6027   5.014   4.386   1.242
 1710SOL     OW 6028   4.777   2.838   2.210
 1710SOL    HW1 6029   4.759   2.883   2.123
 1710SOL    HW2 6030   4.694   2.840   2.266
 1711SOL     OW 6031   4.132   5.591   0.035
 1711SOL    HW1 6032   4.067   5.654   0.076
 1711SOL    HW2 6033   4.099   5.497   0.046
 1712SOL     OW 6034   6.995   1.735   1.794
 1712SOL    HW1 6035   6.927   1.664   1.777
 1712SOL    HW2 6036   6.967   1.820   1.748
 1713SOL     OW 6037   3.264   1.396   2.357
 1713SOL    HW1 6038   3.231   1.303   2.376
 1713SOL    HW2 6039   3.186   1.454   2.333
 1714SOL     OW 6040   2.579   4.426   0.876
 1714SOL    HW1 6041   2.559   4.405   0.971
 1714SOL    HW2 6042   2.647   4.499   0.871
 1715SOL     OW 6043   0.916   6.154   1.183
 1715SOL    HW1 6044   0.941   6.061   1.211
 1715SOL    HW2 6045   0.824   6.153   1.144
 1716SOL     OW 6046   4.979   1.639   2.815
 1716SOL    HW1 6047   4.892   1.601   2.786
 1716SOL    HW2 6048   5.045   1.634   2.740
 1717SOL     OW 6049   3.516   6.526   3.407
 1717SOL    HW1 6050   3.467   6.446   3.440
 1717SOL    HW2 6051   3.605   6.497   3.369
 1718SOL     OW 6052   1.786   3.489   1.766
 1718SOL    HW1 6053   1.829   3.529   1.685
 1718SOL    HW2 6054   1.806   3.391   1.770
 1719SOL     OW 6055   1.030   5.081   3.169
 1719SOL    HW1 6056   1.009   5.165   3.218
 1719SOL    HW2 6057   0.959   5.064   3.100
 1720SOL     OW 6058   1.090   3.072   5.547
 1720SOL    HW1 6059   1.027   3.011   5.595
 1720SOL    HW2 6060   1.183   3.057   5.581
 1721SOL     OW 6061   2.370   2.701   0.174
 1721SOL    HW1 6062   2.441   2.676   0.240
 1721SOL    HW2 6063   2.282   2.708   0.221
 1722SOL     OW 6064   2.777   2.345   3.452
 1722SOL    HW1 6065   2.861   2.296   3.474
 1722SOL    HW2 6066   2.796   2.416   3.385
 1723SOL     OW 6067   6.316   4.213   1.173
 1723SOL    HW1 6068   6.306   4.287   1.106
 1723SOL    HW2 6069   6.378   4.242   1.246
 1724SOL     OW 6070   5.766   3.270   0.673
 1724SOL    HW1 6071   5.834   3.335   0.710
 1724SOL    HW2 6072   5.796   3.240   0.582
 1725SOL     OW 6073   1.797   6.609   6.368
 1725SOL    HW1 6074   1.734   6.686   6.375
 1725SOL    HW2 6075   1.768   6.548   6.294
 1726SOL     OW 6076   4.794   4.623   3.614
 1726SOL    HW1 6077   4.866   4.562   3.647
 1726SOL    HW2 6078   4.731   4.572   3.555
 1727SOL     OW 6079   3.413   2.869   3.230
 1727SOL    HW1 6080   3.367   2.781   3.239
 1727SOL    HW2 6081   3.377   2.917   3.149
 1728SOL     OW 6082   5.572   2.108   4.571
 1728SOL    HW1 6083   5.489   2.144   4.529
 1728SOL    HW2 6084   5.630   2.068   4.500
 1729SOL     OW 6085   1.409   3.044   3.000
 1729SOL    HW1 6086   1.500   3.003   2.990
 1729SOL    HW2 6087   1.401   3.122   2.938
 1730SOL     OW 6088   2.632   0.434   4.537
 1730SOL    HW1 6089   2.682   0.486   4.606
 1730SOL    HW2 6090   2.533   0.448   4.550
 1731SOL     OW 6091   5.195   4.313   3.551
 1731SOL    HW1 6092   5.204   4.264   3.637
 1731SOL    HW2 6093   5.154   4.403   3.567
 1732SOL     OW 6094   4.302   3.275   5.311
 1732SOL    HW1 6095   4.229   3.305   5.249
 1732SOL    HW2 6096   4.375   3.343   5.312
 1733SOL     OW 6097   1.727   2.002   6.471
 1733SOL    HW1 6098   1.697   2.006   6.567
 1733SOL    HW2 6099   1.656   2.040   6.412
 1734SOL     OW 6100   0.600   4.346   1.347
 1734SOL    HW1 6101   0.611   4.367   1.445
 1734SOL    HW2 6102   0.566   4.427   1.299
 1735SOL     OW 6103   2.950   5.156   5.862
 1735SOL    HW1 6104   2.937   5.094   5.940
 1735SOL    HW2 6105   2.980   5.245   5.895
 1736SOL     OW 6106   4.994   1.972   6.265
 1736SOL    HW1 6107   5.079   1.958   6.213
 1736SOL    HW2 6108   4.916   1.951   6.206
 1737SOL     OW 6109   2.864   1.178   6.272
 1737SOL    HW1 6110   2.917   1.094   6.261
 1737SOL    HW2 6111   2.807   1.172   6.354
 1738SOL     OW 6112   1.020   4.032   1.970
 1738SOL    HW1 6113   1.062   3.954   1.923
 1738SOL    HW2 6114   1.070   4.050   2.055
 1739SOL     OW 6115   4.875   5.245   2.703
 1739SOL    HW1 6116   4.972   5.223   2.691
 1739SOL    HW2 6117   4.843   5.207   2.790
 1740SOL     OW 6118   6.990   2.077   4.929
 1740SOL    HW1 6119   6.984   2.138   5.008
 1740SOL    HW2 6120   0.066   2.053   4.913
 1741SOL     OW 6121   1.323   2.928   4.632
 1741SOL    HW1 6122   1.328   2.947   4.534
 1741SOL    HW2 6123   1.300   2.831   4.646
 1742SOL     OW 6124   6.083   0.146   0.054
 1742SOL    HW1 6125   6.160   0.198   0.017
 1742SOL    HW2 6126   6.096   0.132   0.152
 1743SOL     OW 6127   1.088   2.296   1.933
 1743SOL    HW1 6128   1.128   2.378   1.892
 1743SOL    HW2 6129   1.137   2.274   2.017
 1744SOL     OW 6130   2.991   2.154   5.193
 1744SOL    HW1 6131   2.911   2.214   5.193
 1744SOL    HW2 6132   3.068   2.201   5.149
 1745SOL     OW 6133   6.302   6.170   0.617
 1745SOL    HW1 6134   6.334   6.256   0.656
 1745SOL    HW2 6135   6.298   6.178   0.518
 1746SOL     OW 6136   2.450   5.112   2.850
 1746SOL    HW1 6137   2.548   5.128   2.837
 1746SOL    HW2 6138   2.435   5.019   2.882
 1747SOL     OW 6139   3.012   0.113   2.373
 1747SOL    HW1 6140   2.914   0.133   2.372
 1747SOL    HW2 6141   3.045   0.117   2.467
 1748SOL     OW 6142   6.963   1.787   3.712
 1748SOL    HW1 6143   6.954   1.873   3.762
 1748SOL    HW2 6144   6.883   1.730   3.728
 1749SOL     OW 6145   6.392   5.478   2.726
 1749SOL    HW1 6146   6.306   5.444   2.764
 1749SOL    HW2 6147   6.457   5.495   2.801
 1750SOL     OW 6148   3.220   1.648   0.948
 1750SOL    HW1 6149   3.181   1.661   0.857
 1750SOL    HW2 6150   3.171   1.574   0.994
 1751SOL     OW 6151   6.165   4.385   4.613
 1751SOL    HW1 6152   6.182   4.474   4.570
 1751SOL    HW2 6153   6.245   4.359   4.667
 1752SOL     OW 6154   6.040   0.814   2.390
 1752SOL    HW1 6155   6.091   0.856   2.466
 1752SOL    HW2 6156   6.084   0.729   2.363
 1753SOL     OW 6157   6.448   1.392   1.608
 1753SOL    HW1 6158   6.466   1.357   1.517
 1753SOL    HW2 6159   6.365   1.448   1.606
 1754SOL     OW 6160   2.575   5.400   3.835
 1754SOL    HW1 6161   2.619   5.447   3.912
 1754SOL    HW2 6162   2.625   5.420   3.751
 1755SOL     OW 6163   6.337   6.855   5.052
 1755SOL    HW1 6164   6.285   6.771   5.035
 1755SOL    HW2 6165   6.433   6.832   5.066
 1756SOL     OW 6166   4.444   6.133   1.517
 1756SOL    HW1 6167   4.424   6.046   1.564
 1756SOL    HW2 6168   4.464   6.115   1.421
 1757SOL     OW 6169   2.646   5.289   4.905
 1757SOL    HW1 6170   2.691   5.245   4.827
 1757SOL    HW2 6171   2.704   5.280   4.986
 1758SOL     OW 6172   0.590   5.984   3.959
 1758SOL    HW1 6173   0.649   5.925   3.903
 1758SOL    HW2 6174   0.498   5.986   3.919
 1759SOL     OW 6175   1.517   5.346   6.080
 1759SOL    HW1 6176   1.571   5.405   6.020
 1759SOL    HW2 6177   1.570   5.265   6.104
 1760SOL     OW 6178   6.145   1.884   3.884
 1760SOL    HW1 6179   6.158   1.959   3.819
 1760SOL    HW2 6180   6.233   1.863   3.927
 1761SOL     OW 6181   5.470   2.637   3.429
 1761SOL    HW1 6182   5.566   2.618   3.407
 1761SOL    HW2 6183   5.436   2.567   3.492
 1762SOL     OW 6184   0.630   1.341   5.808
 1762SOL    HW1 6185   0.617   1.300   5.898
 1762SOL    HW2 6186   0.557   1.312   5.747
 1763SOL     OW 6187   1.659   5.011   3.896
 1763SOL    HW1 6188   1.722   4.971   3.830
 1763SOL    HW2 6189   1.674   4.969   3.986
 1764SOL     OW 6190   1.265   5.681   3.401
 1764SOL    HW1 6191   1.192   5.738   3.438
 1764SOL    HW2 6192   1.324   5.650   3.476
 1765SOL     OW 6193   5.323   3.539   2.020
 1765SOL    HW1 6194   5.273   3.604   2.078
 1765SOL    HW2 6195   5.270   3.521   1.937
 1766SOL     OW 6196   4.570   4.840   3.944
 1766SOL    HW1 6197   4.584   4.743   3.925
 1766SOL    HW2 6198   4.583   4.893   3.860
 1767SOL     OW 6199   1.420   4.408   1.384
 1767SOL    HW1 6200   1.391   4.320   1.349
 1767SOL    HW2 6201   1.400   4.414   1.482
 1768SOL     OW 6202   3.800   4.843   2.773
 1768SOL    HW1 6203   3.898   4.864   2.763
 1768SOL    HW2 6204   3.753   4.866   2.688
 1769SOL     OW 6205   5.447   0.423   0.862
 1769SOL    HW1 6206   5.353   0.396   0.884
 1769SOL    HW2 6207   5.445   0.504   0.804
 1770SOL     OW 6208   2.311   4.972   0.660
 1770SOL    HW1 6209   2.250   4.990   0.737
 1770SOL    HW2 6210   2.378   4.902   0.686
 1771SOL     OW 6211   0.904   2.876   6.077
 1771SOL    HW1 6212   0.858   2.837   6.157
 1771SOL    HW2 6213   0.835   2.900   6.008
 1772SOL     OW 6214   2.297   4.464   2.790
 1772SOL    HW1 6215   2.352   4.546   2.769
 1772SOL    HW2 6216   2.298   4.403   2.711
 1773SOL     OW 6217   2.319   6.671   4.984
 1773SOL    HW1 6218   2.331   6.683   4.885
 1773SOL    HW2 6219   2.331   6.574   5.007
 1774SOL     OW 6220   5.640   5.623   2.014
 1774SOL    HW1 6221   5.722   5.619   2.071
 1774SOL    HW2 6222   5.665   5.655   1.923
 1775SOL     OW 6223   1.213   6.260   1.049
 1775SOL    HW1 6224   1.166   6.284   0.964
 1775SOL    HW2 6225   1.148   6.263   1.125
 1776SOL     OW 6226   4.624   3.257   6.069
 1776SOL    HW1 6227   4.655   3.163   6.049
 1776SOL    HW2 6228   4.526   3.263   6.056
 1777SOL     OW 6229   4.663   5.877   0.325
 1777SOL    HW1 6230   4.599   5.803   0.307
 1777SOL    HW2 6231   4.621   5.945   0.385
 1778SOL     OW 6232   6.901   0.068   2.927
 1778SOL    HW1 6233   6.835   0.098   2.996
 1778SOL    HW2 6234   6.969   0.009   2.970
 1779SOL     OW 6235   6.482   0.186   4.955
 1779SOL    HW1 6236   6.507   0.187   4.858
 1779SOL    HW2 6237   6.403   0.126   4.968
 1780SOL     OW 6238   3.434   6.597   4.848
 1780SOL    HW1 6239   3.458   6.663   4.778
 1780SOL    HW2 6240   3.509   6.589   4.914
 1781SOL     OW 6241   4.951   1.538   6.133
 1781SOL    HW1 6242   4.925   1.443   6.152
 1781SOL    HW2 6243   4.937   1.558   6.036
 1782SOL     OW 6244   5.265   0.506   2.740
 1782SOL    HW1 6245   5.181   0.546   2.703
 1782SOL    HW2 6246   5.321   0.578   2.782
 1783SOL     OW 6247   1.375   3.332   6.911
 1783SOL    HW1 6248   1.354   3.344   6.814
 1783SOL    HW2 6249   1.326   3.253   6.947
 1784SOL     OW 6250   2.104   6.494   1.536
 1784SOL    HW1 6251   2.061   6.578   1.502
 1784SOL    HW2 6252   2.203   6.501   1.528
 1785SOL     OW 6253   1.767   5.986   4.574
 1785SOL    HW1 6254   1.748   6.000   4.477
 1785SOL    HW2 6255   1.714   5.907   4.608
 1786SOL     OW 6256   0.421   5.878   1.675
 1786SOL    HW1 6257   0.500   5.938   1.684
 1786SOL    HW2 6258   0.337   5.929   1.693
 1787SOL     OW 6259   2.129   2.505   5.988
 1787SOL    HW1 6260   2.120   2.604   6.001
 1787SOL    HW2 6261   2.045   2.469   5.948
 1788SOL     OW 6262   3.388   3.928   0.695
 1788SOL    HW1 6263   3.324   3.986   0.645
 1788SOL    HW2 6264   3.402   3.843   0.644
 1789SOL     OW 6265   5.868   2.392   2.136
 1789SOL    HW1 6266   5.952   2.364   2.183
 1789SOL    HW2 6267   5.836   2.479   2.174
 1790SOL     OW 6268   2.361   1.740   4.568
 1790SOL    HW1 6269   2.381   1.792   4.485
 1790SOL    HW2 6270   2.416   1.657   4.569
 1791SOL     OW 6271   6.310   0.481   3.535
 1791SOL    HW1 6272   6.399   0.472   3.490
 1791SOL    HW2 6273   6.322   0.472   3.634
 1792SOL     OW 6274   0.244   2.451   6.262
 1792SOL    HW1 6275   0.162   2.488   6.217
 1792SOL    HW2 6276   0.275   2.514   6.333
 1793SOL     OW 6277   0.387   1.395   4.606
 1793SOL    HW1 6278   0.479   1.358   4.613
 1793SOL    HW2 6279   0.385   1.468   4.539
 1794SOL     OW 6280   0.041   1.736   6.704
 1794SOL    HW1 6281   0.120   1.795   6.689
 1794SOL    HW2 6282   0.067   1.660   6.764
 1795SOL     OW 6283   5.644   4.622   0.433
 1795SOL    HW1 6284   5.544   4.623   0.444
 1795SOL    HW2 6285   5.666   4.594   0.339
 1796SOL     OW 6286   5.968   6.579   6.897
 1796SOL    HW1 6287   5.934   6.489   6.926
 1796SOL    HW2 6288   5.931   6.649   6.957
 1797SOL     OW 6289   2.597   6.229   5.228
 1797SOL    HW1 6290   2.671   6.202   5.291
 1797SOL    HW2 6291   2.634   6.289   5.158
 1798SOL     OW 6292   2.376   3.894   6.018
 1798SOL    HW1 6293   2.369   3.870   5.921
 1798SOL    HW2 6294   2.300   3.954   6.043
 1799SOL     OW 6295   3.499   1.513   2.238
 1799SOL    HW1 6296   3.469   1.597   2.192
 1799SOL    HW2 6297   3.422   1.473   2.289
 1800SOL     OW 6298   5.910   2.521   5.536
 1800SOL    HW1 6299   5.909   2.621   5.531
 1800SOL    HW2 6300   5.928   2.493   5.630
 1801SOL     OW 6301   0.442   1.639   2.090
 1801SOL    HW1 6302   0.353   1.645   2.133
 1801SOL    HW2 6303   0.513   1.639   2.160
 1802SOL     OW 6304   6.754   4.564   4.232
 1802SOL    HW1 6305   6.763   4.663   4.218
 1802SOL    HW2 6306   6.734   4.546   4.328
 1803SOL     OW 6307   0.089   6.209   3.871
 1803SOL    HW1 6308   0.095   6.307   3.853
 1803SOL    HW2 6309   0.087   6.159   3.784
 1804SOL     OW 6310   0.872   2.782   6.379
 1804SOL    HW1 6311   0.950   2.842   6.393
 1804SOL    HW2 6312   0.799   2.807   6.443
 1805SOL     OW 6313   6.303   4.767   6.350
 1805SOL    HW1 6314   6.244   4.795   6.426
 1805SOL    HW2 6315   6.252   4.708   6.288
 1806SOL     OW 6316   0.625   1.814   1.441
 1806SOL    HW1 6317   0.671   1.732   1.476
 1806SOL    HW2 6318   0.673   1.895   1.473
 1807SOL     OW 6319   6.558   2.349   1.843
 1807SOL    HW1 6320   6.478   2.321   1.789
 1807SOL    HW2 6321   6.613   2.412   1.789
 1808SOL     OW 6322   6.192   0.677   6.503
 1808SOL    HW1 6323   6.122   0.681   6.431
 1808SOL    HW2 6324   6.150   0.700   6.591
 1809SOL     OW 6325   5.370   0.382   5.137
 1809SOL    HW1 6326   5.351   0.479   5.127
 1809SOL    HW2 6327   5.298   0.339   5.191
 1810SOL     OW 6328   1.040   1.386   4.536
 1810SOL    HW1 6329   1.096   1.303   4.540
 1810SOL    HW2 6330   1.077   1.447   4.466
 1811SOL     OW 6331   3.334   5.784   1.977
 1811SOL    HW1 6332   3.365   5.704   1.925
 1811SOL    HW2 6333   3.408   5.851   1.982
 1812SOL     OW 6334   4.263   0.438   6.526
 1812SOL    HW1 6335   4.260   0.341   6.502
 1812SOL    HW2 6336   4.271   0.447   6.625
 1813SOL     OW 6337   5.353   3.103   2.272
 1813SOL    HW1 6338   5.349   3.158   2.189
 1813SOL    HW2 6339   5.434   3.044   2.269
 1814SOL     OW 6340   6.315   5.225   0.607
 1814SOL    HW1 6341   6.371   5.189   0.533
 1814SOL    HW2 6342   6.311   5.158   0.682
 1815SOL     OW 6343   6.087   5.164   1.315
 1815SOL    HW1 6344   6.061   5.239   1.376
 1815SOL    HW2 6345   6.172   5.122   1.347
 1816SOL     OW 6346   3.644   4.919   4.815
 1816SOL    HW1 6347   3.649   4.824   4.844
 1816SOL    HW2 6348   3.554   4.957   4.838
 1817SOL     OW 6349   6.771   3.137   3.504
 1817SOL    HW1 6350   6.788   3.039   3.507
 1817SOL    HW2 6351   6.803   3.179   3.588
 1818SOL     OW 6352   2.367   1.509   1.132
 1818SOL    HW1 6353   2.401   1.425   1.090
 1818SOL    HW2 6354   2.328   1.488   1.221
 1819SOL     OW 6355   1.003   3.967   1.088
 1819SOL    HW1 6356   1.040   4.000   1.175
 1819SOL    HW2 6357   1.067   3.900   1.048
 1820SOL     OW 6358   3.990   0.099   5.188
 1820SOL    HW1 6359   4.073   0.059   5.150
 1820SOL    HW2 6360   3.933   0.135   5.113
 1821SOL     OW 6361   3.916   1.630   2.853
 1821SOL    HW1 6362   3.971   1.683   2.918
 1821SOL    HW2 6363   3.909   1.536   2.884
 1822SOL     OW 6364   1.795   3.638   4.227
 1822SOL    HW1 6365   1.840   3.690   4.299
 1822SOL    HW2 6366   1.697   3.656   4.229
 1823SOL     OW 6367   3.735   0.215   3.756
 1823SOL    HW1 6368   3.669   0.274   3.803
 1823SOL    HW2 6369   3.692   0.126   3.737
 1824SOL     OW 6370   4.775   2.754   1.890
 1824SOL    HW1 6371   4.761   2.850   1.914
 1824SOL    HW2 6372   4.865   2.724   1.922
 1825SOL     OW 6373   0.987   3.395   0.427
 1825SOL    HW1 6374   0.999   3.466   0.496
 1825SOL    HW2 6375   1.064   3.395   0.364
 1826SOL     OW 6376   3.598   3.267   0.714
 1826SOL    HW1 6377   3.590   3.174   0.750
 1826SOL    HW2 6378   3.675   3.313   0.758
 1827SOL     OW 6379   5.334   4.687   0.716
 1827SOL    HW1 6380   5.282   4.602   0.716
 1827SOL    HW2 6381   5.344   4.720   0.622
 1828SOL     OW 6382   2.694   4.952   4.623
 1828SOL    HW1 6383   2.602   4.975   4.591
 1828SOL    HW2 6384   2.758   5.023   4.593
 1829SOL     OW 6385   1.742   6.174   2.309
 1829SOL    HW1 6386   1.782   6.248   2.255
 1829SOL    HW2 6387   1.657   6.144   2.267
 1830SOL     OW 6388   4.364   1.509   6.532
 1830SOL    HW1 6389   4.445   1.513   6.591
 1830SOL    HW2 6390   4.321   1.599   6.529
 1831SOL     OW 6391   3.575   4.888   0.685
 1831SOL    HW1 6392   3.578   4.792   0.657
 1831SOL    HW2 6393   3.567   4.946   0.604
 1832SOL     OW 6394   1.813   3.225   5.916
 1832SOL    HW1 6395   1.868   3.190   5.992
 1832SOL    HW2 6396   1.871   3.236   5.835
 1833SOL     OW 6397   6.160   1.092   0.256
 1833SOL    HW1 6398   6.171   1.071   0.159
 1833SOL    HW2 6399   6.077   1.048   0.291
 1834SOL     OW 6400   1.914   3.758   6.408
 1834SOL    HW1 6401   1.953   3.674   6.370
 1834SOL    HW2 6402   1.871   3.810   6.335
 1835SOL     OW 6403   6.416   6.946   0.502
 1835SOL    HW1 6404   6.422   6.898   0.589
 1835SOL    HW2 6405   6.507   6.973   0.472
 1836SOL     OW 6406   6.302   1.975   4.124
 1836SOL    HW1 6407   6.328   1.937   4.212
 1836SOL    HW2 6408   6.217   2.028   4.134
 1837SOL     OW 6409   1.382   2.201   0.347
 1837SOL    HW1 6410   1.429   2.114   0.358
 1837SOL    HW2 6411   1.284   2.188   0.362
 1838SOL     OW 6412   5.158   0.349   1.104
 1838SOL    HW1 6413   5.127   0.283   1.036
 1838SOL    HW2 6414   5.179   0.301   1.190
 1839SOL     OW 6415   6.637   1.629   6.426
 1839SOL    HW1 6416   6.619   1.553   6.363
 1839SOL    HW2 6417   6.612   1.715   6.381
 1840SOL     OW 6418   3.474   0.231   5.137
 1840SOL    HW1 6419   3.565   0.261   5.166
 1840SOL    HW2 6420   3.443   0.287   5.060
 1841SOL     OW 6421   2.337   0.444   1.791
 1841SOL    HW1 6422   2.315   0.377   1.862
 1841SOL    HW2 6423   2.431   0.477   1.804
 1842SOL     OW 6424   6.961   4.914   1.268
 1842SOL    HW1 6425   7.011   4.890   1.351
 1842SOL    HW2 6426   6.917   5.002   1.280
 1843SOL     OW 6427   3.482   1.447   6.901
 1843SOL    HW1 6428   3.408   1.514   6.907
 1843SOL    HW2 6429   3.465   1.384   6.825
 1844SOL     OW 6430   4.875   3.468   0.714
 1844SOL    HW1 6431   4.782   3.500   0.696
 1844SOL    HW2 6432   4.940   3.526   0.664
 1845SOL     OW 6433   1.191   2.942   4.372
 1845SOL    HW1 6434   1.133   2.867   4.404
 1845SOL    HW2 6435   1.142   3.028   4.381
 1846SOL     OW 6436   3.732   1.467   2.401
 1846SOL    HW1 6437   3.653   1.465   2.340
 1846SOL    HW2 6438   3.735   1.555   2.449
 1847SOL     OW 6439   2.900   5.856   6.957
 1847SOL    HW1 6440   2.887   5.871   0.035
 1847SOL    HW2 6441   2.968   5.920   6.922
 1848SOL     OW 6442   3.483   6.025   4.758
 1848SOL    HW1 6443   3.520   6.115   4.783
 1848SOL    HW2 6444   3.415   6.036   4.685
 1849SOL     OW 6445   4.772   2.858   2.721
 1849SOL    HW1 6446   4.767   2.950   2.761
 1849SOL    HW2 6447   4.765   2.790   2.794
 1850SOL     OW 6448   4.395   1.923   1.053
 1850SOL    HW1 6449   4.334   2.002   1.057
 1850SOL    HW2 6450   4.474   1.940   1.112
 1851SOL     OW 6451   0.949   5.019   4.432
 1851SOL    HW1 6452   0.959   4.978   4.341
 1851SOL    HW2 6453   0.867   4.984   4.475
 1852SOL     OW 6454   0.130   0.219   4.039
 1852SOL    HW1 6455   0.162   0.312   4.022
 1852SOL    HW2 6456   0.042   0.206   3.992
 1853SOL     OW 6457   0.764   1.979   5.511
 1853SOL    HW1 6458   0.786   1.889   5.473
 1853SOL    HW2 6459   0.840   2.009   5.569
 1854SOL     OW 6460   0.222   0.010   4.240
 1854SOL    HW1 6461   0.213   0.057   4.327
 1854SOL    HW2 6462   0.176   0.063   4.169
 1855SOL     OW 6463   6.801   1.273   4.915
 1855SOL    HW1 6464   6.729   1.246   4.979
 1855SOL    HW2 6465   6.800   1.372   4.903
 1856SOL     OW 6466   5.448   4.153   6.648
 1856SOL    HW1 6467   5.520   4.173   6.581
 1856SOL    HW2 6468   5.405   4.066   6.625
 1857SOL     OW 6469   4.331   1.124   6.365
 1857SOL    HW1 6470   4.376   1.146   6.452
 1857SOL    HW2 6471   4.393   1.069   6.309
 1858SOL     OW 6472   5.659   1.826   4.619
 1858SOL    HW1 6473   5.603   1.753   4.582
 1858SOL    HW2 6474   5.602   1.906   4.639
 1859SOL     OW 6475   6.895   6.630   2.385
 1859SOL    HW1 6476   6.905   6.702   2.317
 1859SOL    HW2 6477   6.985   6.595   2.411
 1860SOL     OW 6478   2.367   0.800   6.638
 1860SOL    HW1 6479   2.415   0.861   6.575
 1860SOL    HW2 6480   2.414   0.798   6.726
 1861SOL     OW 6481   6.579   6.512   5.258
 1861SOL    HW1 6482   6.673   6.514   5.224
 1861SOL    HW2 6483   6.562   6.592   5.315
 1862SOL     OW 6484   3.831   5.672   5.901
 1862SOL    HW1 6485   3.890   5.727   5.843
 1862SOL    HW2 6486   3.887   5.618   5.964
 1863SOL     OW 6487   6.948   1.143   1.483
 1863SOL    HW1 6488   6.983   1.109   1.396
 1863SOL    HW2 6489   6.972   1.240   1.493
 1864SOL     OW 6490   2.104   6.323   2.913
 1864SOL    HW1 6491   2.052   6.312   2.829
 1864SOL    HW2 6492   2.173   6.251   2.920
 1865SOL     OW 6493   6.547   2.404   5.813
 1865SOL    HW1 6494   6.560   2.496   5.852
 1865SOL    HW2 6495   6.632   2.351   5.825
 1866SOL     OW 6496   0.008   4.282   4.850
 1866SOL    HW1 6497   0.054   4.358   4.804
 1866SOL    HW2 6498   6.992   4.312   4.938
 1867SOL     OW 6499   1.175   1.028   1.225
 1867SOL    HW1 6500   1.178   0.989   1.133
 1867SOL    HW2 6501   1.087   1.073   1.240
 1868SOL     OW 6502   5.181   3.834   6.085
 1868SOL    HW1 6503   5.174   3.905   6.014
 1868SOL    HW2 6504   5.097   3.832   6.139
 1869SOL     OW 6505   5.062   0.712   5.449
 1869SOL    HW1 6506   5.002   0.633   5.432
 1869SOL    HW2 6507   5.006   0.794   5.459
 1870SOL     OW 6508   6.135   0.318   5.736
 1870SOL    HW1 6509   6.059   0.350   5.680
 1870SOL    HW2 6510   6.120   0.345   5.831
 1871SOL     OW 6511   2.128   5.331   6.978
 1871SOL    HW1 6512   2.029   5.320   6.967
 1871SOL    HW2 6513   2.160   5.402   6.916
 1872SOL     OW 6514   2.536   3.321   0.920
 1872SOL    HW1 6515   2.529   3.282   1.011
 1872SOL    HW2 6516   2.609   3.276   0.869
 1873SOL     OW 6517   5.954   1.640   2.533
 1873SOL    HW1 6518   5.930   1.544   2.523
 1873SOL    HW2 6519   5.877   1.689   2.575
 1874SOL     OW 6520   1.937   5.407   6.702
 1874SOL    HW1 6521   2.012   5.341   6.708
 1874SOL    HW2 6522   1.850   5.357   6.697
 1875SOL     OW 6523   1.152   6.600   2.545
 1875SOL    HW1 6524   1.057   6.632   2.550
 1875SOL    HW2 6525   1.202   6.632   2.625
 1876SOL     OW 6526   0.857   4.682   6.853
 1876SOL    HW1 6527   0.866   4.714   6.947
 1876SOL    HW2 6528   0.848   4.583   6.852
 1877SOL     OW 6529   0.954   0.793   3.075
 1877SOL    HW1 6530   1.044   0.784   3.033
 1877SOL    HW2 6531   0.909   0.876   3.041
 1878SOL     OW 6532   5.927   3.981   4.138
 1878SOL    HW1 6533   6.016   3.977   4.183
 1878SOL    HW2 6534   5.855   3.963   4.204
 1879SOL     OW 6535   4.213   6.515   5.388
 1879SOL    HW1 6536   4.120   6.479   5.378
 1879SOL    HW2 6537   4.260   6.509   5.300
 1880SOL     OW 6538   1.512   2.975   4.119
 1880SOL    HW1 6539   1.576   2.905   4.149
 1880SOL    HW2 6540   1.532   3.061   4.166
 1881SOL     OW 6541   2.015   1.612   3.407
 1881SOL    HW1 6542   2.065   1.543   3.459
 1881SOL    HW2 6543   1.949   1.657   3.466
 1882SOL     OW 6544   3.670   5.894   0.624
 1882SOL    HW1 6545   3.727   5.918   0.703
 1882SOL    HW2 6546   3.600   5.964   0.610
 1883SOL     OW 6547   2.191   3.020   2.631
 1883SOL    HW1 6548   2.119   2.962   2.593
 1883SOL    HW2 6549   2.223   3.084   2.561
 1884SOL     OW 6550   5.151   0.932   0.083
 1884SOL    HW1 6551   5.177   0.839   0.056
 1884SOL    HW2 6552   5.189   0.997   0.017
 1885SOL     OW 6553   0.432   1.337   0.903
 1885SOL    HW1 6554   0.372   1.337   0.823
 1885SOL    HW2 6555   0.405   1.412   0.964
 1886SOL     OW 6556   3.242   2.945   5.156
 1886SOL    HW1 6557   3.205   2.990   5.237
 1886SOL    HW2 6558   3.204   2.852   5.150
 1887SOL     OW 6559   0.836   6.129   4.844
 1887SOL    HW1 6560   0.892   6.047   4.853
 1887SOL    HW2 6561   0.864   6.180   4.763
 1888SOL     OW 6562   2.077   1.493   5.946
 1888SOL    HW1 6563   2.009   1.556   5.907
 1888SOL    HW2 6564   2.162   1.499   5.893
 1889SOL     OW 6565   3.686   3.205   0.320
 1889SOL    HW1 6566   3.669   3.257   0.236
 1889SOL    HW2 6567   3.631   3.242   0.395
 1890SOL     OW 6568   6.233   6.119   6.564
 1890SOL    HW1 6569   6.148   6.138   6.613
 1890SOL    HW2 6570   6.257   6.022   6.575
 1891SOL     OW 6571   4.894   3.306   6.434
 1891SOL    HW1 6572   4.818   3.266   6.383
 1891SOL    HW2 6573   4.862   3.333   6.525
 1892SOL     OW 6574   4.410   0.246   3.252
 1892SOL    HW1 6575   4.359   0.238   3.338
 1892SOL    HW2 6576   4.367   0.315   3.194
 1893SOL     OW 6577   3.024   1.685   6.830
 1893SOL    HW1 6578   3.012   1.655   6.735
 1893SOL    HW2 6579   2.953   1.751   6.853
 1894SOL     OW 6580   5.060   3.278   0.615
 1894SOL    HW1 6581   4.979   3.328   0.645
 1894SOL    HW2 6582   5.100   3.323   0.535
 1895SOL     OW 6583   4.285   5.651   3.105
 1895SOL    HW1 6584   4.275   5.640   3.006
 1895SOL    HW2 6585   4.362   5.712   3.124
 1896SOL     OW 6586   6.324   1.517   4.840
 1896SOL    HW1 6587   6.305   1.614   4.822
 1896SOL    HW2 6588   6.248   1.461   4.807
 1897SOL     OW 6589   4.987   5.536   3.056
 1897SOL    HW1 6590   4.901   5.586   3.066
 1897SOL    HW2 6591   5.062   5.602   3.042
 1898SOL     OW 6592   5.664   6.446   7.008
 1898SOL    HW1 6593   5.573   6.457   0.027
 1898SOL    HW2 6594   5.677   6.513   6.935
 1899SOL     OW 6595   2.398   2.452   3.649
 1899SOL    HW1 6596   2.340   2.396   3.591
 1899SOL    HW2 6597   2.359   2.544   3.657
 1900SOL     OW 6598   2.899   5.654   1.853
 1900SOL    HW1 6599   2.983   5.606   1.880
 1900SOL    HW2 6600   2.918   5.752   1.844
 1901SOL     OW 6601   1.315   0.784   5.739
 1901SOL    HW1 6602   1.291   0.704   5.685
 1901SOL    HW2 6603   1.363   0.755   5.822
 1902SOL     OW 6604   1.227   2.547   4.361
 1902SOL    HW1 6605   1.172   2.621   4.399
 1902SOL    HW2 6606   1.174   2.462   4.361
 1903SOL     OW 6607   6.536   5.027   3.953
 1903SOL    HW1 6608   6.613   5.021   3.889
 1903SOL    HW2 6609   6.538   5.116   3.999
 1904SOL     OW 6610   0.788   0.721   4.398
 1904SOL    HW1 6611   0.865   0.689   4.343
 1904SOL    HW2 6612   0.774   0.658   4.475
 1905SOL     OW 6613   5.927   3.131   5.368
 1905SOL    HW1 6614   5.836   3.088   5.363
 1905SOL    HW2 6615   5.969   3.107   5.456
 1906SOL     OW 6616   2.363   6.958   5.703
 1906SOL    HW1 6617   2.370   0.019   5.646
 1906SOL    HW2 6618   2.453   6.935   5.739
 1907SOL     OW 6619   4.156   6.956   3.115
 1907SOL    HW1 6620   4.089   6.905   3.062
 1907SOL    HW2 6621   4.109   0.005   3.170
 1908SOL     OW 6622   5.142   4.978   0.779
 1908SOL    HW1 6623   5.174   5.006   0.870
 1908SOL    HW2 6624   5.132   5.059   0.721
 1909SOL     OW 6625   5.306   5.457   3.461
 1909SOL    HW1 6626   5.303   5.368   3.416
 1909SOL    HW2 6627   5.262   5.525   3.402
 1910SOL     OW 6628   4.971   3.863   4.500
 1910SOL    HW1 6629   5.049   3.838   4.442
 1910SOL    HW2 6630   4.946   3.785   4.557
 1911SOL     OW 6631   1.054   2.482   5.638
 1911SOL    HW1 6632   1.095   2.459   5.549
 1911SOL    HW2 6633   1.125   2.482   5.708
 1912SOL     OW 6634   3.202   6.191   2.664
 1912SOL    HW1 6635   3.142   6.224   2.591
 1912SOL    HW2 6636   3.244   6.269   2.711
 1913SOL     OW 6637   2.774   4.020   6.817
 1913SOL    HW1 6638   2.843   3.952   6.790
 1913SOL    HW2 6639   2.752   4.078   6.739
 1914SOL     OW 6640   4.753   1.532   4.972
 1914SOL    HW1 6641   4.702   1.455   4.933
 1914SOL    HW2 6642   4.726   1.616   4.925
 1915SOL     OW 6643   2.792   6.744   5.659
 1915SOL    HW1 6644   2.847   6.753   5.577
 1915SOL    HW2 6645   2.834   6.679   5.722
 1916SOL     OW 6646   3.534   6.270   2.585
 1916SOL    HW1 6647   3.615   6.292   2.532
 1916SOL    HW2 6648   3.503   6.177   2.564
 1917SOL     OW 6649   3.387   4.151   3.684
 1917SOL    HW1 6650   3.472   4.148   3.632
 1917SOL    HW2 6651   3.369   4.244   3.714
 1918SOL     OW 6652   0.565   6.447   5.620
 1918SOL    HW1 6653   0.650   6.478   5.663
 1918SOL    HW2 6654   0.583   6.424   5.524
 1919SOL     OW 6655   5.713   0.816   2.239
 1919SOL    HW1 6656   5.754   0.880   2.174
 1919SOL    HW2 6657   5.784   0.780   2.300
 1920SOL     OW 6658   6.266   6.666   4.685
 1920SOL    HW1 6659   6.275   6.635   4.779
 1920SOL    HW2 6660   6.293   6.593   4.623
 1921SOL     OW 6661   2.464   6.538   0.175
 1921SOL    HW1 6662   2.413   6.458   0.209
 1921SOL    HW2 6663   2.425   6.621   0.213
 1922SOL     OW 6664   3.865   4.432   0.460
 1922SOL    HW1 6665   3.775   4.406   0.428
 1922SOL    HW2 6666   3.868   4.424   0.560
 1923SOL     OW 6667   2.229   3.078   1.341
 1923SOL    HW1 6668   2.187   2.990   1.319
 1923SOL    HW2 6669   2.161   3.151   1.331
 1924SOL     OW 6670   0.693   3.421   0.999
 1924SOL    HW1 6671   0.727   3.364   0.924
 1924SOL    HW2 6672   0.653   3.363   1.069
 1925SOL     OW 6673   3.052   4.364   0.299
 1925SOL    HW1 6674   3.148   4.348   0.321
 1925SOL    HW2 6675   3.045   4.411   0.211
 1926SOL     OW 6676   0.450   0.842   4.067
 1926SOL    HW1 6677   0.443   0.787   3.984
 1926SOL    HW2 6678   0.510   0.920   4.050
 1927SOL     OW 6679   5.344   3.337   1.327
 1927SOL    HW1 6680   5.264   3.292   1.368
 1927SOL    HW2 6681   5.426   3.314   1.379
 1928SOL     OW 6682   0.283   5.604   4.431
 1928SOL    HW1 6683   0.251   5.672   4.497
 1928SOL    HW2 6684   0.374   5.630   4.398
 1929SOL     OW 6685   0.463   5.452   3.052
 1929SOL    HW1 6686   0.470   5.456   3.152
 1929SOL    HW2 6687   0.519   5.524   3.011
 1930SOL     OW 6688   6.804   5.226   6.035
 1930SOL    HW1 6689   6.782   5.264   5.945
 1930SOL    HW2 6690   6.865   5.147   6.024
 1931SOL     OW 6691   1.338   2.074   4.067
 1931SOL    HW1 6692   1.387   2.009   4.009
 1931SOL    HW2 6693   1.242   2.046   4.074
 1932SOL     OW 6694   5.888   3.855   2.708
 1932SOL    HW1 6695   5.945   3.783   2.747
 1932SOL    HW2 6696   5.792   3.838   2.730
 1933SOL     OW 6697   2.884   5.077   0.162
 1933SOL    HW1 6698   2.905   4.992   0.211
 1933SOL    HW2 6699   2.863   5.149   0.227
 1934SOL     OW 6700   0.176   5.765   2.970
 1934SOL    HW1 6701   0.206   5.782   2.876
 1934SOL    HW2 6702   0.255   5.768   3.031
 1935SOL     OW 6703   1.221   1.155   3.334
 1935SOL    HW1 6704   1.280   1.090   3.381
 1935SOL    HW2 6705   1.217   1.132   3.237
 1936SOL     OW 6706   0.333   5.482   5.193
 1936SOL    HW1 6707   0.401   5.503   5.262
 1936SOL    HW2 6708   0.287   5.396   5.216
 1937SOL     OW 6709   4.356   1.605   2.983
 1937SOL    HW1 6710   4.324   1.653   2.901
 1937SOL    HW2 6711   4.375   1.671   3.055
 1938SOL     OW 6712   5.548   0.137   4.387
 1938SOL    HW1 6713   5.619   0.069   4.367
 1938SOL    HW2 6714   5.509   0.170   4.301
 1939SOL     OW 6715   2.979   0.085   4.457
 1939SOL    HW1 6716   2.950   0.095   4.552
 1939SOL    HW2 6717   2.913   0.028   4.408
 1940SOL     OW 6718   6.561   6.289   6.694
 1940SOL    HW1 6719   6.616   6.373   6.690
 1940SOL    HW2 6720   6.612   6.219   6.744
 1941SOL     OW 6721   4.757   5.044   2.308
 1941SOL    HW1 6722   4.799   5.131   2.282
 1941SOL    HW2 6723   4.696   5.058   2.385
 1942SOL     OW 6724   0.405   3.559   2.425
 1942SOL    HW1 6725   0.338   3.559   2.499
 1942SOL    HW2 6726   0.377   3.493   2.355
 1943SOL     OW 6727   2.708   5.414   3.591
 1943SOL    HW1 6728   2.800   5.446   3.613
 1943SOL    HW2 6729   2.664   5.478   3.528
 1944SOL     OW 6730   0.100   6.378   1.672
 1944SOL    HW1 6731   0.128   6.473   1.689
 1944SOL    HW2 6732   0.082   6.332   1.759
 1945SOL     OW 6733   2.784   4.846   2.750
 1945SOL    HW1 6734   2.740   4.832   2.839
 1945SOL    HW2 6735   2.731   4.799   2.679
 1946SOL     OW 6736   1.685   0.035   6.812
 1946SOL    HW1 6737   1.683   0.063   6.908
 1946SOL    HW2 6738   1.592   0.033   6.775
 1947SOL     OW 6739   4.693   0.228   3.067
 1947SOL    HW1 6740   4.610   0.174   3.053
 1947SOL    HW2 6741   4.723   0.219   3.162
 1948SOL     OW 6742   5.981   3.307   5.173
 1948SOL    HW1 6743   5.901   3.346   5.127
 1948SOL    HW2 6744   5.953   3.230   5.230
 1949SOL     OW 6745   4.538   4.379   6.414
 1949SOL    HW1 6746   4.537   4.479   6.410
 1949SOL    HW2 6747   4.451   4.343   6.380
 1950SOL     OW 6748   3.405   5.232   0.610
 1950SOL    HW1 6749   3.434   5.231   0.706
 1950SOL    HW2 6750   3.482   5.207   0.552
 1951SOL     OW 6751   6.238   2.316   0.164
 1951SOL    HW1 6752   6.200   2.261   0.239
 1951SOL    HW2 6753   6.274   2.255   0.093
 1952SOL     OW 6754   3.612   2.879   4.151
 1952SOL    HW1 6755   3.554   2.808   4.189
 1952SOL    HW2 6756   3.571   2.969   4.168
 1953SOL     OW 6757   0.809   2.885   4.522
 1953SOL    HW1 6758   0.836   2.955   4.588
 1953SOL    HW2 6759   0.711   2.896   4.501
 1954SOL     OW 6760   2.185   1.783   4.346
 1954SOL    HW1 6761   2.134   1.814   4.427
 1954SOL    HW2 6762   2.196   1.684   4.349
 1955SOL     OW 6763   6.066   5.616   2.219
 1955SOL    HW1 6764   6.136   5.553   2.184
 1955SOL    HW2 6765   6.110   5.696   2.260
 1956SOL     OW 6766   5.022   6.399   2.783
 1956SOL    HW1 6767   4.959   6.395   2.860
 1956SOL    HW2 6768   4.972   6.381   2.698
 1957SOL     OW 6769   1.889   6.137   4.776
 1957SOL    HW1 6770   1.849   6.086   4.699
 1957SOL    HW2 6771   1.967   6.189   4.743
 1958SOL     OW 6772   3.545   3.805   5.959
 1958SOL    HW1 6773   3.478   3.794   5.886
 1958SOL    HW2 6774   3.624   3.746   5.940
 1959SOL     OW 6775   2.652   0.563   1.023
 1959SOL    HW1 6776   2.558   0.586   1.048
 1959SOL    HW2 6777   2.665   0.578   0.925
 1960SOL     OW 6778   5.310   6.164   2.429
 1960SOL    HW1 6779   5.368   6.089   2.462
 1960SOL    HW2 6780   5.229   6.125   2.384
 1961SOL     OW 6781   5.293   5.288   5.197
 1961SOL    HW1 6782   5.258   5.343   5.273
 1961SOL    HW2 6783   5.297   5.344   5.114
 1962SOL     OW 6784   0.041   6.555   4.381
 1962SOL    HW1 6785   0.004   6.534   4.291
 1962SOL    HW2 6786   0.118   6.618   4.371
 1963SOL     OW 6787   2.502   0.766   3.446
 1963SOL    HW1 6788   2.451   0.823   3.511
 1963SOL    HW2 6789   2.439   0.729   3.378
 1964SOL     OW 6790   6.076   3.318   2.476
 1964SOL    HW1 6791   6.114   3.254   2.410
 1964SOL    HW2 6792   5.987   3.350   2.444
 1965SOL     OW 6793   2.171   6.240   3.346
 1965SOL    HW1 6794   2.124   6.267   3.431
 1965SOL    HW2 6795   2.125   6.160   3.307
 1966SOL     OW 6796   6.438   7.013   6.507
 1966SOL    HW1 6797   6.346   6.993   6.471
 1966SOL    HW2 6798   6.462   6.944   6.575
 1967SOL     OW 6799   5.483   3.464   4.925
 1967SOL    HW1 6800   5.530   3.523   4.991
 1967SOL    HW2 6801   5.400   3.510   4.892
 1968SOL     OW 6802   4.107   5.416   4.928
 1968SOL    HW1 6803   4.034   5.348   4.926
 1968SOL    HW2 6804   4.075   5.502   4.889
 1969SOL     OW 6805   6.816   1.272   1.741
 1969SOL    HW1 6806   6.722   1.240   1.752
 1969SOL    HW2 6807   6.868   1.204   1.689
 1970SOL     OW 6808   1.355   0.596   3.870
 1970SOL    HW1 6809   1.360   0.631   3.776
 1970SOL    HW2 6810   1.446   0.566   3.898
 1971SOL     OW 6811   0.189   1.313   6.172
 1971SOL    HW1 6812   0.099   1.330   6.213
 1971SOL    HW2 6813   0.186   1.229   6.119
 1972SOL     OW 6814   1.269   0.337   3.933
 1972SOL    HW1 6815   1.222   0.293   3.857
 1972SOL    HW2 6816   1.314   0.420   3.902
 1973SOL     OW 6817   2.116   3.367   0.489
 1973SOL    HW1 6818   2.066   3.311   0.555
 1973SOL    HW2 6819   2.205   3.325   0.471
 1974SOL     OW 6820   5.990   6.665   4.680
 1974SOL    HW1 6821   5.954   6.610   4.605
 1974SOL    HW2 6822   6.090   6.657   4.683
 1975SOL     OW 6823   2.479   0.045   2.851
 1975SOL    HW1 6824   2.506   0.041   2.755
 1975SOL    HW2 6825   2.553   0.013   2.909
 1976SOL     OW 6826   6.461   4.108   6.178
 1976SOL    HW1 6827   6.523   4.064   6.243
 1976SOL    HW2 6828   6.378   4.053   6.169
 1977SOL     OW 6829   3.388   2.253   5.315
 1977SOL    HW1 6830   3.317   2.317   5.284
 1977SOL    HW2 6831   3.417   2.277   5.408
 1978SOL     OW 6832   6.847   2.486   4.988
 1978SOL    HW1 6833   6.751   2.461   5.001
 1978SOL    HW2 6834   6.890   2.504   5.076
 1979SOL     OW 6835   6.783   3.964   2.096
 1979SOL    HW1 6836   6.745   4.053   2.071
 1979SOL    HW2 6837   6.709   3.902   2.122
 1980SOL     OW 6838   2.833   0.760   2.671
 1980SOL    HW1 6839   2.771   0.711   2.609
 1980SOL    HW2 6840   2.875   0.695   2.734
 1981SOL     OW 6841   5.158   2.918   2.152
 1981SOL    HW1 6842   5.236   2.960   2.199
 1981SOL    HW2 6843   5.085   2.898   2.218
 1982SOL     OW 6844   0.101   6.656   5.436
 1982SOL    HW1 6845   0.008   6.621   5.433
 1982SOL    HW2 6846   0.129   6.682   5.343
 1983SOL     OW 6847   0.768   4.670   1.715
 1983SOL    HW1 6848   0.732   4.577   1.717
 1983SOL    HW2 6849   0.867   4.667   1.700
 1984SOL     OW 6850   5.088   0.692   5.132
 1984SOL    HW1 6851   5.183   0.695   5.163
 1984SOL    HW2 6852   5.045   0.781   5.145
 1985SOL     OW 6853   1.771   5.826   1.354
 1985SOL    HW1 6854   1.730   5.917   1.360
 1985SOL    HW2 6855   1.723   5.772   1.285
 1986SOL     OW 6856   6.773   2.339   0.348
 1986SOL    HW1 6857   6.815   2.415   0.297
 1986SOL    HW2 6858   6.720   2.282   0.285
 1987SOL     OW 6859   2.421   3.746   6.801
 1987SOL    HW1 6860   2.395   3.712   6.711
 1987SOL    HW2 6861   2.503   3.699   6.833
 1988SOL     OW 6862   4.427   3.176   0.670
 1988SOL    HW1 6863   4.505   3.219   0.624
 1988SOL    HW2 6864   4.387   3.107   0.611
 1989SOL     OW 6865   1.940   2.228   3.927
 1989SOL    HW1 6866   1.880   2.266   3.998
 1989SOL    HW2 6867   1.884   2.195   3.851
 1990SOL     OW 6868   1.096   0.295   3.420
 1990SOL    HW1 6869   1.168   0.233   3.451
 1990SOL    HW2 6870   1.122   0.389   3.442
 1991SOL     OW 6871   4.478   6.145   2.954
 1991SOL    HW1 6872   4.504   6.151   3.050
 1991SOL    HW2 6873   4.394   6.197   2.939
 1992SOL     OW 6874   2.106   6.076   5.760
 1992SOL    HW1 6875   2.008   6.085   5.777
 1992SOL    HW2 6876   2.140   5.993   5.804
 1993SOL     OW 6877   3.172   3.074   3.670
 1993SOL    HW1 6878   3.092   3.133   3.660
 1993SOL    HW2 6879   3.190   3.028   3.583
 1994SOL     OW 6880   6.547   2.702   2.287
 1994SOL    HW1 6881   6.635   2.750   2.291
 1994SOL    HW2 6882   6.553   2.625   2.225
 1995SOL     OW 6883   3.921   2.125   1.483
 1995SOL    HW1 6884   3.930   2.026   1.482
 1995SOL    HW2 6885   3.881   2.154   1.571
 1996SOL     OW 6886   2.453   4.627   5.394
 1996SOL    HW1 6887   2.450   4.527   5.385
 1996SOL    HW2 6888   2.543   4.655   5.426
 1997SOL     OW 6889   5.700   6.415   3.495
 1997SOL    HW1 6890   5.604   6.441   3.489
 1997SOL    HW2 6891   5.758   6.493   3.472
 1998SOL     OW 6892   3.085   4.729   5.256
 1998SOL    HW1 6893   3.002   4.679   5.230
 1998SOL    HW2 6894   3.112   4.790   5.181
 1999SOL     OW 6895   2.406   1.718   1.994
 1999SOL    HW1 6896   2.372   1.623   1.998
 1999SOL    HW2 6897   2.503   1.717   1.970
 2000SOL     OW 6898   3.397   1.139   5.284
 2000SOL    HW1 6899   3.426   1.119   5.377
 2000SOL    HW2 6900   3.456   1.210   5.245
 2001SOL     OW 6901   2.585   3.044   6.774
 2001SOL    HW1 6902   2.566   2.978   6.702
 2001SOL    HW2 6903   2.651   3.004   6.839
 2002SOL     OW 6904   1.503   4.904   4.919
 2002SOL    HW1 6905   1.424   4.904   4.982
 2002SOL    HW2 6906   1.587   4.901   4.973
 2003SOL     OW 6907   6.640   4.160   3.335
 2003SOL    HW1 6908   6.710   4.098   3.373
 2003SOL    HW2 6909   6.685   4.238   3.292
 2004SOL     OW 6910   3.421   0.056   6.841
 2004SOL    HW1 6911   3.376   0.144   6.854
 2004SOL    HW2 6912   3.379   0.008   6.764
 2005SOL     OW 6913   2.625   6.444   5.025
 2005SOL    HW1 6914   2.527   6.443   5.005
 2005SOL    HW2 6915   2.669   6.368   4.977
 2006SOL     OW 6916   4.767   6.547   3.165
 2006SOL    HW1 6917   4.713   6.620   3.123
 2006SOL    HW2 6918   4.859   6.580   3.184
 2007SOL     OW 6919   6.344   5.420   6.831
 2007SOL    HW1 6920   6.278   5.380   6.767
 2007SOL    HW2 6921   6.367   5.353   6.901
 2008SOL     OW 6922   0.178   5.970   5.747
 2008SOL    HW1 6923   0.080   5.980   5.725
 2008SOL    HW2 6924   0.209   6.051   5.796
 2009SOL     OW 6925   1.150   0.201   6.913
 2009SOL    HW1 6926   1.137   0.237   7.005
 2009SOL    HW2 6927   1.068   0.150   6.886
 2010SOL     OW 6928   2.184   0.985   1.176
 2010SOL    HW1 6929   2.099   0.932   1.171
 2010SOL    HW2 6930   2.181   1.046   1.255
 2011SOL     OW 6931   0.242   1.935   5.017
 2011SOL    HW1 6932   0.311   1.957   4.949
 2011SOL    HW2 6933   0.210   1.841   5.003
 2012SOL     OW 6934   6.866   2.992   1.318
 2012SOL    HW1 6935   6.771   2.959   1.318
 2012SOL    HW2 6936   6.886   3.035   1.230
 2013SOL     OW 6937   4.398   2.062   2.118
 2013SOL    HW1 6938   4.314   2.106   2.150
 2013SOL    HW2 6939   4.468   2.131   2.102
 2014SOL     OW 6940   3.607   5.575   3.388
 2014SOL    HW1 6941   3.521   5.534   3.415
 2014SOL    HW2 6942   3.657   5.605   3.470
 2015SOL     OW 6943   3.504   6.232   0.299
 2015SOL    HW1 6944   3.580   6.296   0.306
 2015SOL    HW2 6945   3.449   6.254   0.218
 2016SOL     OW 6946   6.176   5.635   3.976
 2016SOL    HW1 6947   6.242   5.678   4.037
 2016SOL    HW2 6948   6.129   5.706   3.923
 2017SOL     OW 6949   2.232   5.155   2.099
 2017SOL    HW1 6950   2.144   5.183   2.137
 2017SOL    HW2 6951   2.255   5.063   2.130
 2018SOL     OW 6952   0.516   3.702   6.537
 2018SOL    HW1 6953   0.603   3.701   6.587
 2018SOL    HW2 6954   0.522   3.637   6.461
 2019SOL     OW 6955   5.473   1.079   2.887
 2019SOL    HW1 6956   5.383   1.071   2.844
 2019SOL    HW2 6957   5.466   1.137   2.968
 2020SOL     OW 6958   2.433   5.276   3.489
 2020SOL    HW1 6959   2.469   5.367   3.510
 2020SOL    HW2 6960   2.430   5.221   3.573
 2021SOL     OW 6961   2.395   6.413   1.660
 2021SOL    HW1 6962   2.494   6.404   1.644
 2021SOL    HW2 6963   2.366   6.344   1.726
 2022SOL     OW 6964   3.085   5.249   0.873
 2022SOL    HW1 6965   3.045   5.159   0.854
 2022SOL    HW2 6966   3.049   5.316   0.808
 2023SOL     OW 6967   6.566   2.183   6.146
 2023SOL    HW1 6968   6.474   2.200   6.113
 2023SOL    HW2 6969   6.606   2.269   6.180
 2024SOL     OW 6970   6.316   0.555   3.147
 2024SOL    HW1 6971   6.396   0.549   3.087
 2024SOL    HW2 6972   6.309   0.647   3.184
 2025SOL     OW 6973   6.307   0.866   0.874
 2025SOL    HW1 6974   6.373   0.902   0.940
 2025SOL    HW2 6975   6.323   0.909   0.785
 2026SOL     OW 6976   2.205   2.009   4.957
 2026SOL    HW1 6977   2.268   1.987   4.883
 2026SOL    HW2 6978   2.219   2.104   4.986
 2027SOL     OW 6979   7.017   0.540   2.290
 2027SOL    HW1 6980   0.034   0.478   2.221
 2027SOL    HW2 6981   6.999   0.629   2.249
 2028SOL     OW 6982   3.421   4.182   6.047
 2028SOL    HW1 6983   3.366   4.118   5.993
 2028SOL    HW2 6984   3.480   4.130   6.110
 2029SOL     OW 6985   1.990   0.532   0.675
 2029SOL    HW1 6986   1.918   0.510   0.609
 2029SOL    HW2 6987   2.058   0.591   0.633
 2030SOL     OW 6988   1.673   2.412   3.126
 2030SOL    HW1 6989   1.727   2.442   3.047
 2030SOL    HW2 6990   1.734   2.387   3.201
 2031SOL     OW 6991   6.192   0.215   2.993
 2031SOL    HW1 6992   6.234   0.193   3.081
 2031SOL    HW2 6993   6.253   0.186   2.918
 2032SOL     OW 6994   4.391   5.935   1.875
 2032SOL    HW1 6995   4.300   5.974   1.887
 2032SOL    HW2 6996   4.443   5.943   1.961
 2033SOL     OW 6997   6.867   5.040   6.400
 2033SOL    HW1 6998   6.866   5.137   6.374
 2033SOL    HW2 6999   6.896   5.032   6.495
 2034SOL     OW 7000   2.479   5.713   3.777
 2034SOL    HW1 7001   2.434   5.650   3.713
 2034SOL    HW2 7002   2.453   5.690   3.870
 2035SOL     OW 7003   0.412   2.007   2.482
 2035SOL    HW1 7004   0.348   2.004   2.405
 2035SOL    HW2 7005   0.364   2.035   2.565
 2036SOL     OW 7006   0.867   5.206   0.807
 2036SOL    HW1 7007   0.863   5.303   0.781
 2036SOL    HW2 7008   0.950   5.190   0.861
 2037SOL     OW 7009   0.258   1.662   6.904
 2037SOL    HW1 7010   0.194   1.717   6.957
 2037SOL    HW2 7011   0.334   1.634   6.963
 2038SOL     OW 7012   1.241   6.968   4.911
 2038SOL    HW1 7013   1.294   6.920   4.841
 2038SOL    HW2 7014   1.288   6.960   4.999
 2039SOL     OW 7015   1.113   5.700   2.055
 2039SOL    HW1 7016   1.193   5.650   2.024
 2039SOL    HW2 7017   1.034   5.639   2.057
 2040SOL     OW 7018   3.794   4.024   4.352
 2040SOL    HW1 7019   3.837   4.059   4.436
 2040SOL    HW2 7020   3.715   4.081   4.330
 2041SOL     OW 7021   5.126   2.685   6.489
 2041SOL    HW1 7022   5.113   2.784   6.496
 2041SOL    HW2 7023   5.223   2.663   6.493
 2042SOL     OW 7024   3.299   5.884   0.447
 2042SOL    HW1 7025   3.285   5.982   0.456
 2042SOL    HW2 7026   3.294   5.858   0.351
 2043SOL     OW 7027   4.744   5.288   2.467
 2043SOL    HW1 7028   4.790   5.266   2.553
 2043SOL    HW2 7029   4.795   5.358   2.418
 2044SOL     OW 7030   6.560   0.777   2.006
 2044SOL    HW1 7031   6.628   0.711   2.036
 2044SOL    HW2 7032   6.487   0.729   1.958
 2045SOL     OW 7033   3.233   6.340   6.496
 2045SOL    HW1 7034   3.200   6.385   6.579
 2045SOL    HW2 7035   3.333   6.343   6.494
 2046SOL     OW 7036   6.369   6.901   5.712
 2046SOL    HW1 7037   6.363   6.988   5.662
 2046SOL    HW2 7038   6.465   6.883   5.736
 2047SOL     OW 7039   4.884   2.771   0.023
 2047SOL    HW1 7040   4.906   2.768   6.946
 2047SOL    HW2 7041   4.926   2.852   0.064
 2048SOL     OW 7042   4.863   6.125   5.784
 2048SOL    HW1 7043   4.803   6.202   5.762
 2048SOL    HW2 7044   4.886   6.075   5.700
 2049SOL     OW 7045   4.896   5.608   0.032
 2049SOL    HW1 7046   4.854   5.517   0.027
 2049SOL    HW2 7047   4.918   5.639   6.960
 2050SOL     OW 7048   5.828   0.318   3.649
 2050SOL    HW1 7049   5.834   0.400   3.704
 2050SOL    HW2 7050   5.741   0.272   3.666
 2051SOL     OW 7051   2.825   5.280   1.118
 2051SOL    HW1 7052   2.811   5.190   1.158
 2051SOL    HW2 7053   2.740   5.333   1.124
 2052SOL     OW 7054   1.355   3.149   0.872
 2052SOL    HW1 7055   1.290   3.088   0.917
 2052SOL    HW2 7056   1.334   3.244   0.897
 2053SOL     OW 7057   4.863   1.323   0.661
 2053SOL    HW1 7058   4.837   1.408   0.705
 2053SOL    HW2 7059   4.948   1.289   0.701
 2054SOL     OW 7060   0.485   3.052   0.974
 2054SOL    HW1 7061   0.506   2.959   0.943
 2054SOL    HW2 7062   0.462   3.110   0.896
 2055SOL     OW 7063   6.397   1.720   3.941
 2055SOL    HW1 7064   6.465   1.670   3.889
 2055SOL    HW2 7065   6.439   1.803   3.980
 2056SOL     OW 7066   1.147   6.811   2.264
 2056SOL    HW1 7067   1.090   6.808   2.346
 2056SOL    HW2 7068   1.092   6.784   2.184
 2057SOL     OW 7069   5.623   2.760   4.539
 2057SOL    HW1 7070   5.648   2.849   4.578
 2057SOL    HW2 7071   5.668   2.749   4.451
 2058SOL     OW 7072   0.508   1.303   1.503
 2058SOL    HW1 7073   0.416   1.338   1.485
 2058SOL    HW2 7074   0.503   1.206   1.523
 2059SOL     OW 7075   1.308   0.614   6.556
 2059SOL    HW1 7076   1.279   0.527   6.596
 2059SOL    HW2 7077   1.392   0.601   6.504
 2060SOL     OW 7078   0.143   5.432   2.590
 2060SOL    HW1 7079   0.243   5.433   2.583
 2060SOL    HW2 7080   0.116   5.387   2.675
 2061SOL     OW 7081   1.321   1.052   0.852
 2061SOL    HW1 7082   1.333   1.001   0.767
 2061SOL    HW2 7083   1.406   1.048   0.905
 2062SOL     OW 7084   4.197   0.144   4.070
 2062SOL    HW1 7085   4.283   0.151   4.120
 2062SOL    HW2 7086   4.163   0.235   4.048
 2063SOL     OW 7087   2.254   1.821   0.781
 2063SOL    HW1 7088   2.332   1.841   0.722
 2063SOL    HW2 7089   2.196   1.902   0.788
 2064SOL     OW 7090   1.054   2.050   0.421
 2064SOL    HW1 7091   0.996   2.122   0.459
 2064SOL    HW2 7092   1.008   1.961   0.432
 2065SOL     OW 7093   6.945   3.747   2.622
 2065SOL    HW1 7094   6.896   3.670   2.583
 2065SOL    HW2 7095   6.914   3.763   2.716
 2066SOL     OW 7096   1.421   5.973   2.878
 2066SOL    HW1 7097   1.501   6.033   2.883
 2066SOL    HW2 7098   1.443   5.884   2.918
 2067SOL     OW 7099   0.512   0.032   0.232
 2067SOL    HW1 7100   0.467   6.995   0.163
 2067SOL    HW2 7101   0.487   7.020   0.323
 2068SOL     OW 7102   1.639   1.632   4.985
 2068SOL    HW1 7103   1.696   1.662   4.909
 2068SOL    HW2 7104   1.693   1.578   5.049
 2069SOL     OW 7105   0.900   2.141   1.816
 2069SOL    HW1 7106   0.981   2.191   1.846
 2069SOL    HW2 7107   0.842   2.200   1.760
 2070SOL     OW 7108   0.750   0.967   2.600
 2070SOL    HW1 7109   0.723   0.984   2.694
 2070SOL    HW2 7110   0.747   1.053   2.548
 2071SOL     OW 7111   2.315   6.276   5.288
 2071SOL    HW1 7112   2.294   6.330   5.369
 2071SOL    HW2 7113   2.406   6.237   5.295
 2072SOL     OW 7114   5.014   4.631   2.114
 2072SOL    HW1 7115   5.106   4.664   2.134
 2072SOL    HW2 7116   5.017   4.533   2.095
 2073SOL     OW 7117   3.217   6.573   5.166
 2073SOL    HW1 7118   3.220   6.672   5.154
 2073SOL    HW2 7119   3.207   6.528   5.077
 2074SOL     OW 7120   6.035   2.535   2.769
 2074SOL    HW1 7121   6.110   2.570   2.825
 2074SOL    HW2 7122   5.948   2.557   2.812
 2075SOL     OW 7123   3.413   3.303   6.084
 2075SOL    HW1 7124   3.466   3.287   6.000
 2075SOL    HW2 7125   3.475   3.335   6.156
 2076SOL     OW 7126   5.879   0.166   0.935
 2076SOL    HW1 7127   5.887   0.071   0.963
 2076SOL    HW2 7128   5.803   0.175   0.870
 2077SOL     OW 7129   4.613   1.276   3.793
 2077SOL    HW1 7130   4.573   1.191   3.826
 2077SOL    HW2 7131   4.611   1.345   3.866
 2078SOL     OW 7132   4.019   5.707   5.136
 2078SOL    HW1 7133   4.027   5.784   5.199
 2078SOL    HW2 7134   4.020   5.621   5.188
 2079SOL     OW 7135   6.083   0.214   3.688
 2079SOL    HW1 7136   5.992   0.243   3.656
 2079SOL    HW2 7137   6.096   0.244   3.782
 2080SOL     OW 7138   2.981   1.684   3.581
 2080SOL    HW1 7139   2.957   1.777   3.609
 2080SOL    HW2 7140   2.993   1.626   3.661
 2081SOL     OW 7141   1.222   6.415   4.226
 2081SOL    HW1 7142   1.223   6.315   4.230
 2081SOL    HW2 7143   1.223   6.445   4.131
 2082SOL     OW 7144   4.668   0.275   1.901
 2082SOL    HW1 7145   4.648   0.337   1.978
 2082SOL    HW2 7146   4.650   0.181   1.929
 2083SOL     OW 7147   4.012   4.300   5.809
 2083SOL    HW1 7148   4.013   4.214   5.758
 2083SOL    HW2 7149   3.921   4.314   5.848
 2084SOL     OW 7150   0.150   2.497   2.729
 2084SOL    HW1 7151   0.142   2.463   2.822
 2084SOL    HW2 7152   0.085   2.449   2.670
 2085SOL     OW 7153   5.534   6.599   6.452
 2085SOL    HW1 7154   5.506   6.506   6.426
 2085SOL    HW2 7155   5.456   6.645   6.496
 2086SOL     OW 7156   3.768   5.260   0.151
 2086SOL    HW1 7157   3.672   5.281   0.168
 2086SOL    HW2 7158   3.819   5.268   0.237
 2087SOL     OW 7159   6.094   6.225   3.498
 2087SOL    HW1 7160   6.072   6.224   3.596
 2087SOL    HW2 7161   6.014   6.197   3.445
 2088SOL     OW 7162   2.481   6.865   1.515
 2088SOL    HW1 7163   2.386   6.892   1.527
 2088SOL    HW2 7164   2.519   6.913   1.436
 2089SOL     OW 7165   2.419   0.947   0.108
 2089SOL    HW1 7166   2.365   1.017   0.061
 2089SOL    HW2 7167   2.395   0.857   0.073
 2090SOL     OW 7168   3.183   3.595   3.733
 2090SOL    HW1 7169   3.096   3.632   3.702
 2090SOL    HW2 7170   3.173   3.558   3.825
 2091SOL     OW 7171   2.467   4.864   1.202
 2091SOL    HW1 7172   2.447   4.943   1.143
 2091SOL    HW2 7173   2.550   4.819   1.169
 2092SOL     OW 7174   0.187   5.920   1.074
 2092SOL    HW1 7175   0.129   5.862   1.131
 2092SOL    HW2 7176   0.225   5.866   0.999
 2093SOL     OW 7177   1.158   2.830   1.544
 2093SOL    HW1 7178   1.243   2.787   1.513
 2093SOL    HW2 7179   1.120   2.885   1.470
 2094SOL     OW 7180   6.022   0.602   1.652
 2094SOL    HW1 7181   5.949   0.616   1.585
 2094SOL    HW2 7182   6.033   0.504   1.670
 2095SOL     OW 7183   6.553   5.196   4.963
 2095SOL    HW1 7184   6.539   5.130   4.888
 2095SOL    HW2 7185   6.550   5.148   5.050
 2096SOL     OW 7186   4.947   4.041   3.648
 2096SOL    HW1 7187   4.923   3.985   3.727
 2096SOL    HW2 7188   5.046   4.038   3.635
 2097SOL     OW 7189   6.414   3.678   6.389
 2097SOL    HW1 7190   6.394   3.689   6.487
 2097SOL    HW2 7191   6.393   3.584   6.361
 2098SOL     OW 7192   3.836   0.099   4.222
 2098SOL    HW1 7193   3.757   0.065   4.273
 2098SOL    HW2 7194   3.887   0.022   4.183
 2099SOL     OW 7195   2.855   1.867   3.089
 2099SOL    HW1 7196   2.898   1.802   3.027
 2099SOL    HW2 7197   2.791   1.924   3.038
 2100SOL     OW 7198   3.956   4.860   6.936
 2100SOL    HW1 7199   4.002   4.772   6.947
 2100SOL    HW2 7200   3.877   4.865   6.997
 2101SOL     OW 7201   6.531   0.475   2.202
 2101SOL    HW1 7202   6.483   0.418   2.269
 2101SOL    HW2 7203   6.532   0.570   2.234
 2102SOL     OW 7204   6.766   5.341   1.666
 2102SOL    HW1 7205   6.768   5.434   1.629
 2102SOL    HW2 7206   6.851   5.294   1.644
 2103SOL     OW 7207   3.617   3.355   6.263
 2103SOL    HW1 7208   3.618   3.265   6.219
 2103SOL    HW2 7209   3.574   3.347   6.353
 2104SOL     OW 7210   1.639   4.335   5.985
 2104SOL    HW1 7211   1.619   4.265   5.916
 2104SOL    HW2 7212   1.726   4.314   6.030
 2105SOL     OW 7213   5.612   6.331   1.882
 2105SOL    HW1 7214   5.551   6.405   1.910
 2105SOL    HW2 7215   5.601   6.316   1.783
 2106SOL     OW 7216   5.692   5.787   6.375
 2106SOL    HW1 7217   5.670   5.854   6.446
 2106SOL    HW2 7218   5.791   5.772   6.374
 2107SOL     OW 7219   2.725   5.165   0.608
 2107SOL    HW1 7220   2.627   5.149   0.612
 2107SOL    HW2 7221   2.761   5.180   0.700
 2108SOL     OW 7222   5.793   4.200   6.584
 2108SOL    HW1 7223   5.842   4.281   6.551
 2108SOL    HW2 7224   5.851   4.119   6.573
 2109SOL     OW 7225   5.568   5.641   2.564
 2109SOL    HW1 7226   5.649   5.680   2.520
 2109SOL    HW2 7227   5.528   5.710   2.625
 2110SOL     OW 7228   1.711   5.125   5.174
 2110SOL    HW1 7229   1.737   5.029   5.166
 2110SOL    HW2 7230   1.687   5.161   5.083
 2111SOL     OW 7231   1.940   2.443   0.129
 2111SOL    HW1 7232   1.882   2.514   0.089
 2111SOL    HW2 7233   1.958   2.372   0.060
 2112SOL     OW 7234   5.211   3.798   0.369
 2112SOL    HW1 7235   5.195   3.773   0.464
 2112SOL    HW2 7236   5.292   3.752   0.335
 2113SOL     OW 7237   6.461   1.897   2.841
 2113SOL    HW1 7238   6.469   1.951   2.758
 2113SOL    HW2 7239   6.544   1.844   2.855
 2114SOL     OW 7240   1.802   3.447   0.028
 2114SOL    HW1 7241   1.844   3.519   6.992
 2114SOL    HW2 7242   1.703   3.449   0.015
 2115SOL     OW 7243   3.484   5.616   1.816
 2115SOL    HW1 7244   3.476   5.547   1.744
 2115SOL    HW2 7245   3.575   5.656   1.814
 2116SOL     OW 7246   0.935   3.935   4.172
 2116SOL    HW1 7247   0.871   3.896   4.106
 2116SOL    HW2 7248   0.920   3.893   4.262
 2117SOL     OW 7249   6.918   5.839   6.155
 2117SOL    HW1 7250   6.921   5.938   6.138
 2117SOL    HW2 7251   6.824   5.807   6.146
 2118SOL     OW 7252   0.242   3.528   2.029
 2118SOL    HW1 7253   0.246   3.468   2.109
 2118SOL    HW2 7254   0.152   3.519   1.986
 2119SOL     OW 7255   3.997   6.395   0.755
 2119SOL    HW1 7256   3.917   6.449   0.730
 2119SOL    HW2 7257   3.986   6.301   0.722
 2120SOL     OW 7258   6.303   4.485   1.933
 2120SOL    HW1 7259   6.211   4.447   1.933
 2120SOL    HW2 7260   6.355   4.445   1.857
 2121SOL     OW 7261   0.628   3.976   4.945
 2121SOL    HW1 7262   0.727   3.990   4.950
 2121SOL    HW2 7263   0.598   3.920   5.023
 2122SOL     OW 7264   4.304   5.175   5.639
 2122SOL    HW1 7265   4.260   5.139   5.556
 2122SOL    HW2 7266   4.384   5.119   5.661
 2123SOL     OW 7267   4.632   4.383   3.535
 2123SOL    HW1 7268   4.713   4.343   3.578
 2123SOL    HW2 7269   4.621   4.344   3.444
 2124SOL     OW 7270   2.825   1.877   1.570
 2124SOL    HW1 7271   2.726   1.868   1.558
 2124SOL    HW2 7272   2.866   1.916   1.488
 2125SOL     OW 7273   5.078   6.175   0.765
 2125SOL    HW1 7274   5.008   6.158   0.696
 2125SOL    HW2 7275   5.091   6.093   0.822
 2126SOL     OW 7276   3.037   0.964   1.656
 2126SOL    HW1 7277   3.034   1.017   1.571
 2126SOL    HW2 7278   3.124   0.980   1.703
 2127SOL     OW 7279   5.415   3.185   4.987
 2127SOL    HW1 7280   5.413   3.282   4.962
 2127SOL    HW2 7281   5.414   3.129   4.904
 2128SOL     OW 7282   0.393   4.088   4.358
 2128SOL    HW1 7283   0.324   4.160   4.361
 2128SOL    HW2 7284   0.406   4.050   4.450
 2129SOL     OW 7285   4.395   2.375   5.302
 2129SOL    HW1 7286   4.453   2.320   5.242
 2129SOL    HW2 7287   4.451   2.440   5.354
 2130SOL     OW 7288   5.337   0.781   3.590
 2130SOL    HW1 7289   5.340   0.725   3.507
 2130SOL    HW2 7290   5.273   0.857   3.576
 2131SOL     OW 7291   5.294   1.722   6.399
 2131SOL    HW1 7292   5.370   1.679   6.447
 2131SOL    HW2 7293   5.238   1.772   6.464
 2132SOL     OW 7294   1.809   3.597   0.860
 2132SOL    HW1 7295   1.717   3.570   0.831
 2132SOL    HW2 7296   1.824   3.567   0.954
 2133SOL     OW 7297   2.349   4.253   6.302
 2133SOL    HW1 7298   2.349   4.204   6.389
 2133SOL    HW2 7299   2.292   4.335   6.311
 2134SOL     OW 7300   0.116   6.533   0.730
 2134SOL    HW1 7301   0.141   6.572   0.641
 2134SOL    HW2 7302   0.046   6.463   0.718
 2135SOL     OW 7303   6.605   4.516   5.310
 2135SOL    HW1 7304   6.601   4.473   5.400
 2135SOL    HW2 7305   6.662   4.598   5.314
 2136SOL     OW 7306   1.674   5.256   0.120
 2136SOL    HW1 7307   1.615   5.337   0.122
 2136SOL    HW2 7308   1.661   5.204   0.205
 2137SOL     OW 7309   1.143   6.186   3.714
 2137SOL    HW1 7310   1.186   6.271   3.745
 2137SOL    HW2 7311   1.186   6.108   3.759
 2138SOL     OW 7312   5.239   2.127   2.261
 2138SOL    HW1 7313   5.336   2.102   2.266
 2138SOL    HW2 7314   5.229   2.224   2.284
 2139SOL     OW 7315   2.563   6.772   5.792
 2139SOL    HW1 7316   2.503   6.692   5.782
 2139SOL    HW2 7317   2.640   6.764   5.729
 2140SOL     OW 7318   2.572   1.642   3.643
 2140SOL    HW1 7319   2.598   1.645   3.739
 2140SOL    HW2 7320   2.513   1.719   3.621
 2141SOL     OW 7321   6.571   3.559   3.402
 2141SOL    HW1 7322   6.513   3.525   3.328
 2141SOL    HW2 7323   6.637   3.624   3.366
 2142SOL     OW 7324   1.605   2.512   2.305
 2142SOL    HW1 7325   1.567   2.432   2.352
 2142SOL    HW2 7326   1.681   2.483   2.247
 2143SOL     OW 7327   0.293   5.444   5.895
 2143SOL    HW1 7328   0.240   5.479   5.972
 2143SOL    HW2 7329   0.259   5.485   5.810
 2144SOL     OW 7330   6.339   4.809   2.816
 2144SOL    HW1 7331   6.298   4.717   2.819
 2144SOL    HW2 7332   6.408   4.813   2.744
 2145SOL     OW 7333   4.263   1.348   3.007
 2145SOL    HW1 7334   4.321   1.427   2.988
 2145SOL    HW2 7335   4.319   1.273   3.040
 2146SOL     OW 7336   2.242   2.090   6.263
 2146SOL    HW1 7337   2.307   2.089   6.338
 2146SOL    HW2 7338   2.292   2.097   6.176
 2147SOL     OW 7339   5.979   6.420   4.500
 2147SOL    HW1 7340   5.969   6.379   4.410
 2147SOL    HW2 7341   5.920   6.374   4.565
 2148SOL     OW 7342   0.265   2.228   5.160
 2148SOL    HW1 7343   0.238   2.265   5.249
 2148SOL    HW2 7344   0.259   2.128   5.163
 2149SOL     OW 7345   0.892   6.353   7.001
 2149SOL    HW1 7346   0.895   6.313   0.071
 2149SOL    HW2 7347   0.839   6.438   7.004
 2150SOL     OW 7348   1.596   3.040   0.773
 2150SOL    HW1 7349   1.662   3.101   0.818
 2150SOL    HW2 7350   1.504   3.073   0.791
 2151SOL     OW 7351   0.748   4.375   6.719
 2151SOL    HW1 7352   0.743   4.448   6.651
 2151SOL    HW2 7353   0.824   4.314   6.696
 2152SOL     OW 7354   5.104   6.105   3.738
 2152SOL    HW1 7355   5.054   6.019   3.747
 2152SOL    HW2 7356   5.153   6.125   3.823
 2153SOL     OW 7357   5.325   0.183   3.923
 2153SOL    HW1 7358   5.271   0.267   3.920
 2153SOL    HW2 7359   5.274   0.113   3.973
 2154SOL     OW 7360   2.252   6.674   2.509
 2154SOL    HW1 7361   2.344   6.670   2.548
 2154SOL    HW2 7362   2.189   6.621   2.567
 2155SOL     OW 7363   4.148   1.122   0.994
 2155SOL    HW1 7364   4.090   1.196   1.027
 2155SOL    HW2 7365   4.204   1.087   1.069
 2156SOL     OW 7366   5.929   2.476   4.813
 2156SOL    HW1 7367   5.901   2.411   4.884
 2156SOL    HW2 7368   5.867   2.469   4.735
 2157SOL     OW 7369   3.968   6.224   4.692
 2157SOL    HW1 7370   3.931   6.138   4.658
 2157SOL    HW2 7371   3.975   6.290   4.617
 2158SOL     OW 7372   2.773   6.850   0.795
 2158SOL    HW1 7373   2.784   6.750   0.794
 2158SOL    HW2 7374   2.693   6.874   0.850
 2159SOL     OW 7375   0.720   0.648   5.827
 2159SOL    HW1 7376   0.753   0.736   5.859
 2159SOL    HW2 7377   0.620   0.650   5.819
 2160SOL     OW 7378   5.573   0.028   6.428
 2160SOL    HW1 7379   5.571   6.962   6.377
 2160SOL    HW2 7380   5.669   0.055   6.442
 2161SOL     OW 7381   1.544   4.014   0.654
 2161SOL    HW1 7382   1.503   3.958   0.582
 2161SOL    HW2 7383   1.617   3.962   0.699
 2162SOL     OW 7384   2.126   0.208   0.999
 2162SOL    HW1 7385   2.121   0.239   0.904
 2162SOL    HW2 7386   2.047   0.244   1.049
 2163SOL     OW 7387   1.647   3.023   3.275
 2163SOL    HW1 7388   1.554   3.060   3.287
 2163SOL    HW2 7389   1.653   2.933   3.319
 2164SOL     OW 7390   2.116   3.594   2.207
 2164SOL    HW1 7391   2.140   3.537   2.129
 2164SOL    HW2 7392   2.076   3.537   2.279
 2165SOL     OW 7393   6.395   1.184   4.732
 2165SOL    HW1 7394   6.454   1.148   4.804
 2165SOL    HW2 7395   6.301   1.193   4.767
 2166SOL     OW 7396   0.041   3.103   1.858
 2166SOL    HW1 7397   0.034   3.004   1.846
 2166SOL    HW2 7398   0.137   3.131   1.848
 2167SOL     OW 7399   1.490   2.194   3.071
 2167SOL    HW1 7400   1.552   2.271   3.086
 2167SOL    HW2 7401   1.536   2.109   3.095
 2168SOL     OW 7402   2.081   2.095   3.449
 2168SOL    HW1 7403   2.046   2.058   3.536
 2168SOL    HW2 7404   2.122   2.021   3.396
 2169SOL     OW 7405   6.554   0.330   1.277
 2169SOL    HW1 7406   6.641   0.375   1.256
 2169SOL    HW2 7407   6.569   0.232   1.285
 2170SOL     OW 7408   1.477   3.682   6.531
 2170SOL    HW1 7409   1.509   3.666   6.624
 2170SOL    HW2 7410   1.473   3.781   6.513
 2171SOL     OW 7411   6.761   6.064   0.893
 2171SOL    HW1 7412   6.724   6.154   0.870
 2171SOL    HW2 7413   6.850   6.052   0.849
 2172SOL     OW 7414   2.764   2.176   4.864
 2172SOL    HW1 7415   2.712   2.143   4.943
 2172SOL    HW2 7416   2.713   2.156   4.780
 2173SOL     OW 7417   4.758   0.718   4.817
 2173SOL    HW1 7418   4.813   0.643   4.780
 2173SOL    HW2 7419   4.680   0.680   4.868
 2174SOL     OW 7420   5.450   0.558   6.015
 2174SOL    HW1 7421   5.407   0.562   5.925
 2174SOL    HW2 7422   5.435   0.468   6.056
 2175SOL     OW 7423   3.369   3.779   5.765
 2175SOL    HW1 7424   3.373   3.798   5.667
 2175SOL    HW2 7425   3.274   3.775   5.795
 2176SOL     OW 7426   5.819   2.221   3.175
 2176SOL    HW1 7427   5.884   2.269   3.116
 2176SOL    HW2 7428   5.859   2.210   3.266
 2177SOL     OW 7429   1.044   1.059   4.905
 2177SOL    HW1 7430   0.966   0.998   4.887
 2177SOL    HW2 7431   1.010   1.148   4.935
 2178SOL     OW 7432   1.628   2.624   2.542
 2178SOL    HW1 7433   1.578   2.706   2.569
 2178SOL    HW2 7434   1.615   2.608   2.445
 2179SOL     OW 7435   1.339   3.751   0.061
 2179SOL    HW1 7436   1.334   3.849   0.040
 2179SOL    HW2 7437   1.314   3.698   7.001
 2180SOL     OW 7438   0.460   5.715   2.780
 2180SOL    HW1 7439   0.511   5.651   2.722
 2180SOL    HW2 7440   0.367   5.725   2.745
 2181SOL     OW 7441   4.113   4.764   4.343
 2181SOL    HW1 7442   4.131   4.690   4.277
 2181SOL    HW2 7443   4.101   4.850   4.294
 2182SOL     OW 7444   6.718   6.381   1.324
 2182SOL    HW1 7445   6.681   6.300   1.370
 2182SOL    HW2 7446   6.642   6.438   1.292
 2183SOL     OW 7447   3.336   3.179   6.750
 2183SOL    HW1 7448   3.319   3.081   6.743
 2183SOL    HW2 7449   3.360   3.202   6.844
 2184SOL     OW 7450   6.318   1.471   0.581
 2184SOL    HW1 7451   6.228   1.459   0.623
 2184SOL    HW2 7452   6.380   1.517   0.645
 2185SOL     OW 7453   0.885   1.249   6.008
 2185SOL    HW1 7454   0.899   1.348   6.012
 2185SOL    HW2 7455   0.798   1.226   6.052
 2186SOL     OW 7456   6.595   6.232   5.259
 2186SOL    HW1 7457   6.565   6.327   5.257
 2186SOL    HW2 7458   6.583   6.190   5.169
 2187SOL     OW 7459   5.491   4.637   1.757
 2187SOL    HW1 7460   5.539   4.708   1.808
 2187SOL    HW2 7461   5.519   4.640   1.661
 2188SOL     OW 7462   3.038   1.253   0.787
 2188SOL    HW1 7463   3.109   1.281   0.852
 2188SOL    HW2 7464   3.071   1.176   0.733
 2189SOL     OW 7465   1.977   0.485   2.339
 2189SOL    HW1 7466   2.017   0.530   2.258
 2189SOL    HW2 7467   1.878   0.497   2.339
 2190SOL     OW 7468   6.413   4.721   2.014
 2190SOL    HW1 7469   6.440   4.781   1.939
 2190SOL    HW2 7470   6.384   4.633   1.977
 2191SOL     OW 7471   3.408   0.395   6.806
 2191SOL    HW1 7472   3.424   0.474   6.747
 2191SOL    HW2 7473   3.494   0.350   6.826
 2192SOL     OW 7474   4.994   1.755   2.064
 2192SOL    HW1 7475   5.042   1.831   2.021
 2192SOL    HW2 7476   4.927   1.717   2.000
 2193SOL     OW 7477   2.124   0.588   4.898
 2193SOL    HW1 7478   2.067   0.670   4.890
 2193SOL    HW2 7479   2.217   0.614   4.924
 2194SOL     OW 7480   0.131   4.169   5.323
 2194SOL    HW1 7481   0.103   4.089   5.376
 2194SOL    HW2 7482   0.170   4.139   5.236
 2195SOL     OW 7483   6.940   3.831   4.972
 2195SOL    HW1 7484   6.877   3.770   4.922
 2195SOL    HW2 7485   6.966   3.907   4.912
 2196SOL     OW 7486   3.867   0.463   6.731
 2196SOL    HW1 7487   3.927   0.469   6.811
 2196SOL    HW2 7488   3.917   0.421   6.655
 2197SOL     OW 7489   3.296   5.601   6.513
 2197SOL    HW1 7490   3.307   5.700   6.499
 2197SOL    HW2 7491   3.301   5.581   6.611
 2198SOL     OW 7492   1.248   1.146   6.890
 2198SOL    HW1 7493   1.159   1.190   6.883
 2198SOL    HW2 7494   1.304   1.171   6.811
 2199SOL     OW 7495   4.189   6.658   3.676
 2199SOL    HW1 7496   4.149   6.680   3.587
 2199SOL    HW2 7497   4.209   6.742   3.726
 2200SOL     OW 7498   2.162   2.550   4.189
 2200SOL    HW1 7499   2.247   2.598   4.207
 2200SOL    HW2 7500   2.129   2.507   4.273
 2201SOL     OW 7501   5.501   3.915   4.888
 2201SOL    HW1 7502   5.591   3.874   4.870
 2201SOL    HW2 7503   5.501   3.956   4.979
 2202SOL     OW 7504   3.256   6.486   3.222
 2202SOL    HW1 7505   3.201   6.447   3.296
 2202SOL    HW2 7506   3.334   6.534   3.261
 2203SOL     OW 7507   2.288   5.881   1.189
 2203SOL    HW1 7508   2.272   5.891   1.288
 2203SOL    HW2 7509   2.213   5.829   1.148
 2204SOL     OW 7510   5.717   2.601   1.130
 2204SOL    HW1 7511   5.701   2.510   1.168
 2204SOL    HW2 7512   5.636   2.658   1.145
 2205SOL     OW 7513   5.863   5.878   1.254
 2205SOL    HW1 7514   5.876   5.787   1.293
 2205SOL    HW2 7515   5.810   5.870   1.170
 2206SOL     OW 7516   3.665   2.667   5.626
 2206SOL    HW1 7517   3.653   2.766   5.628
 2206SOL    HW2 7518   3.739   2.641   5.689
 2207SOL     OW 7519   4.570   5.713   1.899
 2207SOL    HW1 7520   4.557   5.615   1.917
 2207SOL    HW2 7521   4.482   5.755   1.878
 2208SOL     OW 7522   0.082   6.542   2.851
 2208SOL    HW1 7523   0.027   6.533   2.934
 2208SOL    HW2 7524   0.126   6.632   2.850
 2209SOL     OW 7525   2.940   5.566   3.298
 2209SOL    HW1 7526   2.892   5.514   3.368
 2209SOL    HW2 7527   2.936   5.664   3.320
 2210SOL     OW 7528   5.302   0.076   1.517
 2210SOL    HW1 7529   5.276   0.095   1.612
 2210SOL    HW2 7530   5.385   0.021   1.516
 2211SOL     OW 7531   1.734   2.167   1.090
 2211SOL    HW1 7532   1.795   2.232   1.135
 2211SOL    HW2 7533   1.643   2.207   1.082
 2212SOL     OW 7534   2.994   6.008   6.351
 2212SOL    HW1 7535   3.024   5.973   6.262
 2212SOL    HW2 7536   2.913   5.957   6.381
 2213SOL     OW 7537   3.571   1.750   4.759
 2213SOL    HW1 7538   3.510   1.786   4.687
 2213SOL    HW2 7539   3.537   1.778   4.848
 2214SOL     OW 7540   4.110   4.275   6.560
 2214SOL    HW1 7541   4.143   4.194   6.609
 2214SOL    HW2 7542   4.160   4.355   6.593
 2215SOL     OW 7543   5.131   6.028   0.454
 2215SOL    HW1 7544   5.052   6.074   0.492
 2215SOL    HW2 7545   5.104   5.977   0.372
 2216SOL     OW 7546   0.691   5.990   0.067
 2216SOL    HW1 7547   0.617   6.011   0.003
 2216SOL    HW2 7548   0.755   5.926   0.025
 2217SOL     OW 7549   4.093   1.512   3.712
 2217SOL    HW1 7550   4.069   1.488   3.807
 2217SOL    HW2 7551   4.080   1.433   3.653
 2218SOL     OW 7552   6.200   5.582   5.315
 2218SOL    HW1 7553   6.255   5.664   5.300
 2218SOL    HW2 7554   6.104   5.606   5.323
 2219SOL     OW 7555   5.233   1.724   0.271
 2219SOL    HW1 7556   5.234   1.712   0.171
 2219SOL    HW2 7557   5.289   1.652   0.313
 2220SOL     OW 7558   6.769   6.170   4.339
 2220SOL    HW1 7559   6.675   6.158   4.371
 2220SOL    HW2 7560   6.769   6.213   4.249
 2221SOL     OW 7561   5.784   0.795   4.376
 2221SOL    HW1 7562   5.768   0.868   4.309
 2221SOL    HW2 7563   5.873   0.753   4.358
 2222SOL     OW 7564   3.437   0.720   3.332
 2222SOL    HW1 7565   3.345   0.685   3.311
 2222SOL    HW2 7566   3.435   0.820   3.332
 2223SOL     OW 7567   1.033   0.052   5.216
 2223SOL    HW1 7568   1.065   6.983   5.183
 2223SOL    HW2 7569   0.984   0.099   5.143
 2224SOL     OW 7570   5.374   4.486   6.926
 2224SOL    HW1 7571   5.321   4.530   6.998
 2224SOL    HW2 7572   5.311   4.445   6.860
 2225SOL     OW 7573   6.482   6.558   1.177
 2225SOL    HW1 7574   6.519   6.648   1.202
 2225SOL    HW2 7575   6.453   6.509   1.259
 2226SOL     OW 7576   2.446   3.635   0.107
 2226SOL    HW1 7577   2.498   3.555   0.135
 2226SOL    HW2 7578   2.412   3.682   0.189
 2227SOL     OW 7579   3.930   2.130   2.087
 2227SOL    HW1 7580   3.851   2.187   2.066
 2227SOL    HW2 7581   3.911   2.073   2.167
 2228SOL     OW 7582   5.528   6.025   6.463
 2228SOL    HW1 7583   5.538   6.100   6.528
 2228SOL    HW2 7584   5.471   5.953   6.503
 2229SOL     OW 7585   3.087   3.275   3.911
 2229SOL    HW1 7586   3.099   3.226   3.825
 2229SOL    HW2 7587   3.170   3.268   3.966
 2230SOL     OW 7588   6.377   0.277   6.072
 2230SOL    HW1 7589   6.451   0.334   6.037
 2230SOL    HW2 7590   6.395   0.254   6.168
 2231SOL     OW 7591   1.640   0.471   6.052
 2231SOL    HW1 7592   1.689   0.494   6.136
 2231SOL    HW2 7593   1.542   0.487   6.066
 2232SOL     OW 7594   1.867   0.878   6.150
 2232SOL    HW1 7595   1.810   0.845   6.226
 2232SOL    HW2 7596   1.925   0.804   6.117
 2233SOL     OW 7597   3.114   4.730   1.245
 2233SOL    HW1 7598   3.133   4.775   1.333
 2233SOL    HW2 7599   3.170   4.772   1.174
 2234SOL     OW 7600   5.192   2.206   1.445
 2234SOL    HW1 7601   5.094   2.196   1.429
 2234SOL    HW2 7602   5.243   2.177   1.364
 2235SOL     OW 7603   0.801   1.983   2.710
 2235SOL    HW1 7604   0.813   2.002   2.612
 2235SOL    HW2 7605   0.820   2.066   2.762
 2236SOL     OW 7606   2.495   5.280   5.355
 2236SOL    HW1 7607   2.468   5.192   5.394
 2236SOL    HW2 7608   2.422   5.313   5.295
 2237SOL     OW 7609   6.751   6.365   6.124
 2237SOL    HW1 7610   6.737   6.367   6.025
 2237SOL    HW2 7611   6.668   6.397   6.171
 2238SOL     OW 7612   6.239   3.597   2.376
 2238SOL    HW1 7613   6.200   3.509   2.404
 2238SOL    HW2 7614   6.277   3.589   2.284
 2239SOL     OW 7615   4.386   0.226   2.813
 2239SOL    HW1 7616   4.455   0.294   2.837
 2239SOL    HW2 7617   4.330   0.206   2.893
 2240SOL     OW 7618   4.908   5.499   2.310
 2240SOL    HW1 7619   4.984   5.490   2.374
 2240SOL    HW2 7620   4.899   5.595   2.282
 2241SOL     OW 7621   0.805   1.707   2.656
 2241SOL    HW1 7622   0.828   1.800   2.685
 2241SOL    HW2 7623   0.814   1.645   2.734
 2242SOL     OW 7624   5.457   2.405   4.530
 2242SOL    HW1 7625   5.379   2.426   4.589
 2242SOL    HW2 7626   5.541   2.441   4.572
 2243SOL     OW 7627   2.564   6.966   0.489
 2243SOL    HW1 7628   2.664   6.966   0.491
 2243SOL    HW2 7629   2.528   7.014   0.569
 2244SOL     OW 7630   2.623   1.573   1.049
 2244SOL    HW1 7631   2.590   1.664   1.071
 2244SOL    HW2 7632   2.586   1.544   0.961
 2245SOL     OW 7633   0.415   0.497   0.234
 2245SOL    HW1 7634   0.415   0.447   0.148
 2245SOL    HW2 7635   0.494   0.468   0.289
 2246SOL     OW 7636   4.424   1.790   5.690
 2246SOL    HW1 7637   4.346   1.807   5.631
 2246SOL    HW2 7638   4.491   1.863   5.679
 2247SOL     OW 7639   2.801   3.383   2.086
 2247SOL    HW1 7640   2.836   3.381   1.992
 2247SOL    HW2 7641   2.701   3.372   2.084
 2248SOL     OW 7642   5.257   3.577   4.833
 2248SOL    HW1 7643   5.228   3.668   4.864
 2248SOL    HW2 7644   5.281   3.580   4.736
 2249SOL     OW 7645   2.275   6.219   3.687
 2249SOL    HW1 7646   2.367   6.227   3.649
 2249SOL    HW2 7647   2.262   6.127   3.724
 2250SOL     OW 7648   4.322   6.108   6.202
 2250SOL    HW1 7649   4.351   6.103   6.297
 2250SOL    HW2 7650   4.265   6.189   6.188
 2251SOL     OW 7651   4.592   6.196   4.913
 2251SOL    HW1 7652   4.541   6.171   4.995
 2251SOL    HW2 7653   4.617   6.113   4.863
 2252SOL     OW 7654   3.695   1.012   2.644
 2252SOL    HW1 7655   3.714   0.965   2.730
 2252SOL    HW2 7656   3.604   1.054   2.649
 2253SOL     OW 7657   0.789   3.666   1.882
 2253SOL    HW1 7658   0.764   3.699   1.791
 2253SOL    HW2 7659   0.766   3.569   1.890
 2254SOL     OW 7660   3.740   2.907   2.699
 2254SOL    HW1 7661   3.726   2.925   2.797
 2254SOL    HW2 7662   3.759   2.810   2.685
 2255SOL     OW 7663   1.400   2.521   6.482
 2255SOL    HW1 7664   1.487   2.490   6.443
 2255SOL    HW2 7665   1.419   2.586   6.556
 2256SOL     OW 7666   5.875   0.488   1.132
 2256SOL    HW1 7667   5.952   0.516   1.190
 2256SOL    HW2 7668   5.881   0.390   1.113
 2257SOL     OW 7669   0.243   0.290   5.462
 2257SOL    HW1 7670   0.237   0.201   5.508
 2257SOL    HW2 7671   0.335   0.326   5.472
 2258SOL     OW 7672   2.384   6.846   4.403
 2258SOL    HW1 7673   2.341   6.756   4.412
 2258SOL    HW2 7674   2.318   6.917   4.430
 2259SOL     OW 7675   6.038   1.231   4.430
 2259SOL    HW1 7676   6.007   1.264   4.341
 2259SOL    HW2 7677   6.113   1.166   4.418
 2260SOL     OW 7678   1.184   3.844   0.741
 2260SOL    HW1 7679   1.103   3.822   0.795
 2260SOL    HW2 7680   1.203   3.942   0.747
 2261SOL     OW 7681   5.129   4.482   6.388
 2261SOL    HW1 7682   5.126   4.478   6.289
 2261SOL    HW2 7683   5.125   4.389   6.425
 2262SOL     OW 7684   6.626   6.819   4.154
 2262SOL    HW1 7685   6.722   6.836   4.131
 2262SOL    HW2 7686   6.591   6.894   4.210
 2263SOL     OW 7687   1.960   4.317   6.655
 2263SOL    HW1 7688   1.873   4.347   6.695
 2263SOL    HW2 7689   1.962   4.217   6.653
 2264SOL     OW 7690   2.147   0.198   5.789
 2264SOL    HW1 7691   2.073   0.187   5.722
 2264SOL    HW2 7692   2.160   0.112   5.838
 2265SOL     OW 7693   0.007   6.126   4.131
 2265SOL    HW1 7694   6.928   6.138   4.124
 2265SOL    HW2 7695   0.051   6.164   4.050
 2266SOL     OW 7696   4.712   2.790   6.641
 2266SOL    HW1 7697   4.614   2.770   6.650
 2266SOL    HW2 7698   4.749   2.737   6.565
 2267SOL     OW 7699   5.787   3.028   4.544
 2267SOL    HW1 7700   5.875   3.028   4.496
 2267SOL    HW2 7701   5.801   3.012   4.641
 2268SOL     OW 7702   1.311   6.473   4.652
 2268SOL    HW1 7703   1.303   6.373   4.649
 2268SOL    HW2 7704   1.241   6.510   4.713
 2269SOL     OW 7705   1.720   2.314   5.338
 2269SOL    HW1 7706   1.693   2.362   5.255
 2269SOL    HW2 7707   1.814   2.341   5.363
 2270SOL     OW 7708   4.953   1.462   6.482
 2270SOL    HW1 7709   5.051   1.445   6.473
 2270SOL    HW2 7710   4.935   1.560   6.475
 2271SOL     OW 7711   4.237   5.804   5.395
 2271SOL    HW1 7712   4.162   5.830   5.457
 2271SOL    HW2 7713   4.310   5.760   5.447
 2272SOL     OW 7714   5.674   1.345   6.074
 2272SOL    HW1 7715   5.646   1.280   6.003
 2272SOL    HW2 7716   5.599   1.410   6.090
 2273SOL     OW 7717   0.907   3.166   3.550
 2273SOL    HW1 7718   0.953   3.092   3.600
 2273SOL    HW2 7719   0.968   3.201   3.479
 2274SOL     OW 7720   1.242   0.973   0.364
 2274SOL    HW1 7721   1.184   1.051   0.388
 2274SOL    HW2 7722   1.243   0.961   0.265
 2275SOL     OW 7723   5.693   3.961   3.005
 2275SOL    HW1 7724   5.643   4.034   2.958
 2275SOL    HW2 7725   5.746   3.999   3.080
 2276SOL     OW 7726   1.755   2.037   1.366
 2276SOL    HW1 7727   1.747   1.937   1.363
 2276SOL    HW2 7728   1.695   2.078   1.298
 2277SOL     OW 7729   4.128   3.266   3.432
 2277SOL    HW1 7730   4.073   3.199   3.381
 2277SOL    HW2 7731   4.216   3.226   3.455
 2278SOL     OW 7732   0.410   2.729   4.006
 2278SOL    HW1 7733   0.401   2.817   3.959
 2278SOL    HW2 7734   0.419   2.745   4.104
 2279SOL     OW 7735   1.220   4.698   5.955
 2279SOL    HW1 7736   1.174   4.627   6.008
 2279SOL    HW2 7737   1.315   4.671   5.938
 2280SOL     OW 7738   4.906   2.102   5.569
 2280SOL    HW1 7739   4.839   2.150   5.513
 2280SOL    HW2 7740   4.879   2.006   5.580
 2281SOL     OW 7741   5.666   6.927   2.401
 2281SOL    HW1 7742   5.577   6.948   2.360
 2281SOL    HW2 7743   5.653   6.906   2.498
 2282SOL     OW 7744   3.630   5.773   6.033
 2282SOL    HW1 7745   3.709   5.730   5.989
 2282SOL    HW2 7746   3.608   5.858   5.985
 2283SOL     OW 7747   0.301   0.705   4.572
 2283SOL    HW1 7748   0.238   0.710   4.494
 2283SOL    HW2 7749   0.363   0.784   4.570
 2284SOL     OW 7750   1.194   3.415   6.640
 2284SOL    HW1 7751   1.108   3.365   6.652
 2284SOL    HW2 7752   1.178   3.497   6.586
 2285SOL     OW 7753   1.776   4.150   6.994
 2285SOL    HW1 7754   1.790   4.101   0.059
 2285SOL    HW2 7755   1.681   4.183   6.990
 2286SOL     OW 7756   4.520   5.013   2.826
 2286SOL    HW1 7757   4.601   4.961   2.853
 2286SOL    HW2 7758   4.532   5.109   2.849
 2287SOL     OW 7759   1.109   1.472   4.264
 2287SOL    HW1 7760   1.174   1.396   4.263
 2287SOL    HW2 7761   1.078   1.492   4.171
 2288SOL     OW 7762   6.689   5.476   2.791
 2288SOL    HW1 7763   6.651   5.568   2.778
 2288SOL    HW2 7764   6.648   5.435   2.873
 2289SOL     OW 7765   0.567   5.371   0.459
 2289SOL    HW1 7766   0.482   5.390   0.408
 2289SOL    HW2 7767   0.546   5.363   0.556
 2290SOL     OW 7768   1.014   4.888   6.727
 2290SOL    HW1 7769   1.026   4.968   6.785
 2290SOL    HW2 7770   0.947   4.827   6.769
 2291SOL     OW 7771   2.329   1.635   0.118
 2291SOL    HW1 7772   2.318   1.620   0.216
 2291SOL    HW2 7773   2.268   1.708   0.089
 2292SOL     OW 7774   2.180   0.841   4.141
 2292SOL    HW1 7775   2.223   0.932   4.149
 2292SOL    HW2 7776   2.134   0.834   4.053
 2293SOL     OW 7777   5.584   3.855   2.529
 2293SOL    HW1 7778   5.587   3.821   2.623
 2293SOL    HW2 7779   5.506   3.918   2.519
 2294SOL     OW 7780   4.269   6.424   0.169
 2294SOL    HW1 7781   4.353   6.394   0.122
 2294SOL    HW2 7782   4.272   6.522   0.183
 2295SOL     OW 7783   0.716   1.595   1.834
 2295SOL    HW1 7784   0.705   1.671   1.897
 2295SOL    HW2 7785   0.813   1.576   1.820
 2296SOL     OW 7786   2.983   6.709   0.591
 2296SOL    HW1 7787   2.894   6.662   0.583
 2296SOL    HW2 7788   3.055   6.640   0.600
 2297SOL     OW 7789   4.296   6.549   6.619
 2297SOL    HW1 7790   4.205   6.570   6.656
 2297SOL    HW2 7791   4.337   6.476   6.673
 2298SOL     OW 7792   4.359   3.066   6.798
 2298SOL    HW1 7793   4.300   3.068   6.878
 2298SOL    HW2 7794   4.447   3.025   6.822
 2299SOL     OW 7795   4.469   6.931   0.127
 2299SOL    HW1 7796   4.519   6.876   0.194
 2299SOL    HW2 7797   4.530   7.002   0.091
 2300SOL     OW 7798   1.263   4.421   1.052
 2300SOL    HW1 7799   1.271   4.426   0.952
 2300SOL    HW2 7800   1.167   4.412   1.077
 2301SOL     OW 7801   4.120   3.601   1.686
 2301SOL    HW1 7802   4.145   3.689   1.725
 2301SOL    HW2 7803   4.057   3.554   1.748
 2302SOL     OW 7804   2.121   5.193   2.583
 2302SOL    HW1 7805   2.133   5.097   2.556
 2302SOL    HW2 7806   2.129   5.201   2.682
 2303SOL     OW 7807   6.938   3.116   5.229
 2303SOL    HW1 7808   6.909   3.209   5.206
 2303SOL    HW2 7809   6.861   3.053   5.217
 2304SOL     OW 7810   2.193   1.436   4.304
 2304SOL    HW1 7811   2.287   1.423   4.335
 2304SOL    HW2 7812   2.133   1.373   4.355
 2305SOL     OW 7813   4.040   4.636   1.816
 2305SOL    HW1 7814   4.135   4.666   1.820
 2305SOL    HW2 7815   4.033   4.556   1.757
 2306SOL     OW 7816   0.275   4.118   0.338
 2306SOL    HW1 7817   0.365   4.125   0.293
 2306SOL    HW2 7818   0.215   4.061   0.283
 2307SOL     OW 7819   0.334   1.698   2.505
 2307SOL    HW1 7820   0.299   1.766   2.569
 2307SOL    HW2 7821   0.366   1.617   2.555
 2308SOL     OW 7822   0.118   6.869   0.444
 2308SOL    HW1 7823   0.205   6.918   0.443
 2308SOL    HW2 7824   0.064   6.896   0.364
 2309SOL     OW 7825   3.211   5.044   5.791
 2309SOL    HW1 7826   3.127   5.099   5.799
 2309SOL    HW2 7827   3.234   5.007   5.881
 2310SOL     OW 7828   5.682   1.455   2.841
 2310SOL    HW1 7829   5.681   1.529   2.773
 2310SOL    HW2 7830   5.611   1.473   2.909
 2311SOL     OW 7831   2.589   0.481   2.583
 2311SOL    HW1 7832   2.656   0.496   2.511
 2311SOL    HW2 7833   2.497   0.482   2.544
 2312SOL     OW 7834   2.557   1.049   2.566
 2312SOL    HW1 7835   2.573   0.988   2.488
 2312SOL    HW2 7836   2.461   1.077   2.567
 2313SOL     OW 7837   5.198   3.470   1.806
 2313SOL    HW1 7838   5.195   3.370   1.800
 2313SOL    HW2 7839   5.130   3.509   1.745
 2314SOL     OW 7840   6.557   6.437   2.983
 2314SOL    HW1 7841   6.623   6.424   3.058
 2314SOL    HW2 7842   6.465   6.415   3.015
 2315SOL     OW 7843   4.358   5.734   4.618
 2315SOL    HW1 7844   4.299   5.689   4.684
 2315SOL    HW2 7845   4.447   5.688   4.615
 2316SOL     OW 7846   2.629   1.749   5.769
 2316SOL    HW1 7847   2.678   1.748   5.681
 2316SOL    HW2 7848   2.692   1.779   5.841
 2317SOL     OW 7849   6.937   5.655   2.934
 2317SOL    HW1 7850   0.014   5.674   2.945
 2317SOL    HW2 7851   6.916   5.565   2.971
 2318SOL     OW 7852   1.242   4.758   5.418
 2318SOL    HW1 7853   1.333   4.788   5.446
 2318SOL    HW2 7854   1.223   4.668   5.457
 2319SOL     OW 7855   1.835   4.911   3.730
 2319SOL    HW1 7856   1.871   4.820   3.748
 2319SOL    HW2 7857   1.899   4.961   3.671
 2320SOL     OW 7858   0.852   1.950   5.156
 2320SOL    HW1 7859   0.920   1.933   5.228
 2320SOL    HW2 7860   0.895   1.942   5.066
 2321SOL     OW 7861   2.062   4.452   5.590
 2321SOL    HW1 7862   2.028   4.499   5.508
 2321SOL    HW2 7863   2.020   4.361   5.596
 2322SOL     OW 7864   1.600   4.110   1.874
 2322SOL    HW1 7865   1.640   4.091   1.784
 2322SOL    HW2 7866   1.501   4.113   1.866
 2323SOL     OW 7867   2.528   5.446   0.765
 2323SOL    HW1 7868   2.542   5.357   0.722
 2323SOL    HW2 7869   2.610   5.470   0.818
 2324SOL     OW 7870   6.507   5.186   2.890
 2324SOL    HW1 7871   6.589   5.146   2.931
 2324SOL    HW2 7872   6.502   5.160   2.793
 2325SOL     OW 7873   6.517   5.474   2.014
 2325SOL    HW1 7874   6.467   5.391   1.989
 2325SOL    HW2 7875   6.453   5.550   2.024
 2326SOL     OW 7876   1.992   0.276   0.293
 2326SOL    HW1 7877   1.939   0.319   0.366
 2326SOL    HW2 7878   2.018   0.345   0.225
 2327SOL     OW 7879   0.175   6.810   2.363
 2327SOL    HW1 7880   0.264   6.828   2.403
 2327SOL    HW2 7881   0.136   6.728   2.405
 2328SOL     OW 7882   2.061   3.469   2.665
 2328SOL    HW1 7883   2.059   3.569   2.675
 2328SOL    HW2 7884   1.968   3.434   2.659
 2329SOL     OW 7885   0.218   5.365   2.891
 2329SOL    HW1 7886   0.274   5.291   2.855
 2329SOL    HW2 7887   0.269   5.415   2.961
 2330SOL     OW 7888   6.405   3.260   0.970
 2330SOL    HW1 7889   6.397   3.160   0.966
 2330SOL    HW2 7890   6.490   3.289   0.925
 2331SOL     OW 7891   4.653   5.799   1.211
 2331SOL    HW1 7892   4.697   5.710   1.196
 2331SOL    HW2 7893   4.670   5.829   1.304
 2332SOL     OW 7894   6.081   6.826   5.807
 2332SOL    HW1 7895   6.031   6.913   5.803
 2332SOL    HW2 7896   6.175   6.840   5.776
 2333SOL     OW 7897   0.507   4.565   2.467
 2333SOL    HW1 7898   0.418   4.551   2.423
 2333SOL    HW2 7899   0.528   4.488   2.526
 2334SOL     OW 7900   2.704   1.575   6.544
 2334SOL    HW1 7901   2.778   1.641   6.531
 2334SOL    HW2 7902   2.656   1.595   6.629
 2335SOL     OW 7903   6.680   1.210   3.220
 2335SOL    HW1 7904   6.766   1.218   3.170
 2335SOL    HW2 7905   6.696   1.230   3.317
 2336SOL     OW 7906   1.597   1.434   2.920
 2336SOL    HW1 7907   1.590   1.400   3.013
 2336SOL    HW2 7908   1.686   1.477   2.906
 2337SOL     OW 7909   4.519   1.943   1.749
 2337SOL    HW1 7910   4.599   1.955   1.809
 2337SOL    HW2 7911   4.435   1.951   1.803
 2338SOL     OW 7912   0.121   3.928   3.398
 2338SOL    HW1 7913   0.219   3.924   3.416
 2338SOL    HW2 7914   0.093   3.848   3.346
 2339SOL     OW 7915   3.295   2.948   2.619
 2339SOL    HW1 7916   3.204   2.987   2.605
 2339SOL    HW2 7917   3.317   2.888   2.542
 2340SOL     OW 7918   1.944   4.730   6.642
 2340SOL    HW1 7919   1.849   4.760   6.634
 2340SOL    HW2 7920   1.976   4.747   6.736
 2341SOL     OW 7921   2.423   4.332   4.028
 2341SOL    HW1 7922   2.330   4.299   4.014
 2341SOL    HW2 7923   2.487   4.258   4.007
 2342SOL     OW 7924   3.486   0.944   3.825
 2342SOL    HW1 7925   3.487   1.014   3.897
 2342SOL    HW2 7926   3.391   0.925   3.799
 2343SOL     OW 7927   1.080   0.212   1.738
 2343SOL    HW1 7928   1.039   0.156   1.811
 2343SOL    HW2 7929   1.109   0.153   1.663
 2344SOL     OW 7930   5.549   3.935   0.530
 2344SOL    HW1 7931   5.507   4.015   0.486
 2344SOL    HW2 7932   5.610   3.966   0.603
 2345SOL     OW 7933   3.245   6.075   4.596
 2345SOL    HW1 7934   3.304   6.055   4.517
 2345SOL    HW2 7935   3.196   6.161   4.580
 2346SOL     OW 7936   4.281   3.728   6.808
 2346SOL    HW1 7937   4.291   3.711   6.710
 2346SOL    HW2 7938   4.331   3.811   6.833
 2347SOL     OW 7939   1.323   1.997   1.485
 2347SOL    HW1 7940   1.369   1.922   1.532
 2347SOL    HW2 7941   1.225   1.992   1.505
 2348SOL     OW 7942   0.221   4.929   2.745
 2348SOL    HW1 7943   0.248   5.015   2.788
 2348SOL    HW2 7944   0.205   4.944   2.647
 2349SOL     OW 7945   0.315   4.286   5.100
 2349SOL    HW1 7946   0.375   4.267   5.178
 2349SOL    HW2 7947   0.263   4.204   5.078
 2350SOL     OW 7948   5.841   3.090   6.876
 2350SOL    HW1 7949   5.759   3.040   6.902
 2350SOL    HW2 7950   5.838   3.182   6.914
 2351SOL     OW 7951   2.845   5.074   2.575
 2351SOL    HW1 7952   2.773   5.015   2.540
 2351SOL    HW2 7953   2.907   5.098   2.500
 2352SOL     OW 7954   0.246   2.708   3.622
 2352SOL    HW1 7955   0.245   2.612   3.653
 2352SOL    HW2 7956   0.341   2.741   3.621
 2353SOL     OW 7957   3.430   5.152   4.777
 2353SOL    HW1 7958   3.447   5.248   4.795
 2353SOL    HW2 7959   3.417   5.138   4.679
 2354SOL     OW 7960   1.956   2.940   3.638
 2354SOL    HW1 7961   1.888   2.869   3.656
 2354SOL    HW2 7962   1.916   3.030   3.657
 2355SOL     OW 7963   2.379   6.007   4.715
 2355SOL    HW1 7964   2.319   5.927   4.715
 2355SOL    HW2 7965   2.463   5.985   4.666
 2356SOL     OW 7966   6.191   2.747   0.055
 2356SOL    HW1 7967   6.227   2.831   0.016
 2356SOL    HW2 7968   6.110   2.768   0.110
 2357SOL     OW 7969   2.540   6.444   2.449
 2357SOL    HW1 7970   2.635   6.413   2.457
 2357SOL    HW2 7971   2.499   6.450   2.540
 2358SOL     OW 7972   3.717   4.978   6.574
 2358SOL    HW1 7973   3.776   5.007   6.499
 2358SOL    HW2 7974   3.625   5.014   6.560
 2359SOL     OW 7975   1.591   0.046   4.740
 2359SOL    HW1 7976   1.544   6.993   4.692
 2359SOL    HW2 7977   1.572   0.133   4.694
 2360SOL     OW 7978   6.486   3.621   0.015
 2360SOL    HW1 7979   6.569   3.585   6.992
 2360SOL    HW2 7980   6.512   3.688   0.085
 2361SOL     OW 7981   3.677   1.039   6.815
 2361SOL    HW1 7982   3.645   1.105   6.882
 2361SOL    HW2 7983   3.671   1.079   6.723
 2362SOL     OW 7984   3.390   5.472   3.520
 2362SOL    HW1 7985   3.357   5.378   3.528
 2362SOL    HW2 7986   3.401   5.512   3.611
 2363SOL     OW 7987   3.973   0.321   4.286
 2363SOL    HW1 7988   4.059   0.287   4.249
 2363SOL    HW2 7989   3.902   0.251   4.273
 2364SOL     OW 7990   0.839   2.563   0.904
 2364SOL    HW1 7991   0.927   2.523   0.929
 2364SOL    HW2 7992   0.838   2.585   0.807
 2365SOL     OW 7993   5.487   2.282   6.482
 2365SOL    HW1 7994   5.503   2.200   6.537
 2365SOL    HW2 7995   5.412   2.266   6.419
 2366SOL     OW 7996   4.376   5.460   0.776
 2366SOL    HW1 7997   4.288   5.415   0.791
 2366SOL    HW2 7998   4.406   5.446   0.682
 2367SOL     OW 7999   2.228   3.353   6.167
 2367SOL    HW1 8000   2.270   3.415   6.101
 2367SOL    HW2 8001   2.299   3.301   6.214
 2368SOL     OW 8002   6.094   5.848   2.395
 2368SOL    HW1 8003   6.171   5.836   2.457
 2368SOL    HW2 8004   6.012   5.871   2.448
 2369SOL     OW 8005   2.356   0.751   3.208
 2369SOL    HW1 8006   2.380   0.839   3.168
 2369SOL    HW2 8007   2.398   0.678   3.155
 2370SOL     OW 8008   6.331   2.163   6.539
 2370SOL    HW1 8009   6.372   2.072   6.552
 2370SOL    HW2 8010   6.329   2.185   6.442
 2371SOL     OW 8011   2.685   6.428   1.658
 2371SOL    HW1 8012   2.677   6.425   1.558
 2371SOL    HW2 8013   2.723   6.516   1.686
 2372SOL     OW 8014   6.583   2.889   2.881
 2372SOL    HW1 8015   6.491   2.902   2.843
 2372SOL    HW2 8016   6.651   2.923   2.816
 2373SOL     OW 8017   2.598   3.617   6.493
 2373SOL    HW1 8018   2.614   3.666   6.408
 2373SOL    HW2 8019   2.502   3.626   6.519
 2374SOL     OW 8020   5.654   3.368   4.717
 2374SOL    HW1 8021   5.622   3.306   4.645
 2374SOL    HW2 8022   5.584   3.375   4.788
 2375SOL     OW 8023   2.645   6.673   5.167
 2375SOL    HW1 8024   2.727   6.683   5.223
 2375SOL    HW2 8025   2.646   6.585   5.121
 2376SOL     OW 8026   6.407   3.207   4.612
 2376SOL    HW1 8027   6.436   3.121   4.655
 2376SOL    HW2 8028   6.460   3.221   4.528
 2377SOL     OW 8029   3.978   3.311   3.780
 2377SOL    HW1 8030   3.889   3.301   3.825
 2377SOL    HW2 8031   3.967   3.298   3.682
 2378SOL     OW 8032   5.478   2.669   0.010
 2378SOL    HW1 8033   5.524   2.624   0.086
 2378SOL    HW2 8034   5.442   2.601   6.967
 2379SOL     OW 8035   6.899   6.919   0.048
 2379SOL    HW1 8036   6.895   6.893   6.972
 2379SOL    HW2 8037   6.965   6.861   0.095
 2380SOL     OW 8038   6.210   1.907   2.164
 2380SOL    HW1 8039   6.210   1.848   2.245
 2380SOL    HW2 8040   6.145   1.982   2.178
 2381SOL     OW 8041   1.597   6.636   3.348
 2381SOL    HW1 8042   1.629   6.547   3.316
 2381SOL    HW2 8043   1.620   6.647   3.445
 2382SOL     OW 8044   1.444   3.530   5.197
 2382SOL    HW1 8045   1.440   3.492   5.104
 2382SOL    HW2 8046   1.489   3.619   5.194
 2383SOL     OW 8047   5.955   6.284   1.641
 2383SOL    HW1 8048   5.873   6.227   1.643
 2383SOL    HW2 8049   6.023   6.249   1.706
 2384SOL     OW 8050   4.737   1.970   1.953
 2384SOL    HW1 8051   4.762   2.046   2.012
 2384SOL    HW2 8052   4.709   1.892   2.009
 2385SOL     OW 8053   0.735   2.324   6.895
 2385SOL    HW1 8054   0.770   2.251   6.836
 2385SOL    HW2 8055   0.744   2.412   6.848
 2386SOL     OW 8056   4.418   5.153   3.949
 2386SOL    HW1 8057   4.442   5.202   3.864
 2386SOL    HW2 8058   4.353   5.081   3.928
 2387SOL     OW 8059   1.928   1.215   2.772
 2387SOL    HW1 8060   1.953   1.118   2.764
 2387SOL    HW2 8061   1.997   1.271   2.727
 2388SOL     OW 8062   6.537   1.584   3.760
 2388SOL    HW1 8063   6.556   1.656   3.694
 2388SOL    HW2 8064   6.610   1.515   3.757
 2389SOL     OW 8065   3.830   6.133   2.500
 2389SOL    HW1 8066   3.829   6.230   2.526
 2389SOL    HW2 8067   3.892   6.083   2.560
 2390SOL     OW 8068   2.958   4.237   1.326
 2390SOL    HW1 8069   2.866   4.227   1.290
 2390SOL    HW2 8070   2.973   4.331   1.356
 2391SOL     OW 8071   3.881   5.165   5.558
 2391SOL    HW1 8072   3.924   5.237   5.613
 2391SOL    HW2 8073   3.916   5.170   5.464
 2392SOL     OW 8074   4.063   1.219   6.274
 2392SOL    HW1 8075   3.986   1.195   6.333
 2392SOL    HW2 8076   4.138   1.155   6.289
 2393SOL     OW 8077   3.619   5.224   5.608
 2393SOL    HW1 8078   3.713   5.196   5.590
 2393SOL    HW2 8079   3.569   5.149   5.651
 2394SOL     OW 8080   6.760   4.746   5.729
 2394SOL    HW1 8081   6.766   4.806   5.809
 2394SOL    HW2 8082   6.851   4.708   5.710
 2395SOL     OW 8083   4.460   6.996   6.207
 2395SOL    HW1 8084   4.465   0.056   6.147
 2395SOL    HW2 8085   4.368   6.959   6.205
 2396SOL     OW 8086   3.813   4.467   0.732
 2396SOL    HW1 8087   3.896   4.501   0.778
 2396SOL    HW2 8088   3.752   4.426   0.800
 2397SOL     OW 8089   0.225   4.062   3.676
 2397SOL    HW1 8090   0.237   4.136   3.609
 2397SOL    HW2 8091   0.130   4.030   3.673
 2398SOL     OW 8092   4.680   4.419   5.742
 2398SOL    HW1 8093   4.766   4.420   5.692
 2398SOL    HW2 8094   4.670   4.504   5.793
 2399SOL     OW 8095   4.273   2.130   1.865
 2399SOL    HW1 8096   4.289   2.121   1.963
 2399SOL    HW2 8097   4.262   2.039   1.824
 2400SOL     OW 8098   2.099   5.198   1.309
 2400SOL    HW1 8099   2.167   5.236   1.247
 2400SOL    HW2 8100   2.141   5.179   1.397
 2401SOL     OW 8101   6.976   6.104   6.495
 2401SOL    HW1 8102   6.880   6.082   6.513
 2401SOL    HW2 8103   6.981   6.188   6.441
 2402SOL     OW 8104   6.705   6.319   4.091
 2402SOL    HW1 8105   6.624   6.262   4.074
 2402SOL    HW2 8106   6.735   6.360   4.005
 2403SOL     OW 8107   0.360   1.065   5.317
 2403SOL    HW1 8108   0.265   1.044   5.342
 2403SOL    HW2 8109   0.362   1.148   5.262
 2404SOL     OW 8110   1.295   0.692   0.368
 2404SOL    HW1 8111   1.218   0.654   0.317
 2404SOL    HW2 8112   1.271   0.782   0.404
 2405SOL     OW 8113   3.035   4.012   1.481
 2405SOL    HW1 8114   3.043   4.038   1.577
 2405SOL    HW2 8115   3.003   4.091   1.428
 2406SOL     OW 8116   4.521   0.997   1.390
 2406SOL    HW1 8117   4.512   0.898   1.401
 2406SOL    HW2 8118   4.455   1.043   1.450
 2407SOL     OW 8119   4.944   0.671   4.032
 2407SOL    HW1 8120   4.933   0.583   3.986
 2407SOL    HW2 8121   5.012   0.725   3.983
 2408SOL     OW 8122   4.577   4.460   2.203
 2408SOL    HW1 8123   4.580   4.539   2.141
 2408SOL    HW2 8124   4.564   4.377   2.149
 2409SOL     OW 8125   1.023   4.132   0.348
 2409SOL    HW1 8126   0.985   4.203   0.289
 2409SOL    HW2 8127   0.950   4.092   0.404
 2410SOL     OW 8128   3.148   3.260   2.560
 2410SOL    HW1 8129   3.248   3.266   2.568
 2410SOL    HW2 8130   3.123   3.174   2.516
 2411SOL     OW 8131   4.163   6.860   4.289
 2411SOL    HW1 8132   4.142   6.787   4.353
 2411SOL    HW2 8133   4.228   6.827   4.220
 2412SOL     OW 8134   3.903   3.749   0.893
 2412SOL    HW1 8135   3.947   3.684   0.955
 2412SOL    HW2 8136   3.818   3.708   0.858
 2413SOL     OW 8137   4.429   6.954   2.797
 2413SOL    HW1 8138   4.426   0.027   2.833
 2413SOL    HW2 8139   4.388   6.891   2.863
 2414SOL     OW 8140   5.662   3.400   4.290
 2414SOL    HW1 8141   5.721   3.350   4.227
 2414SOL    HW2 8142   5.661   3.354   4.379
 2415SOL     OW 8143   4.432   1.127   3.359
 2415SOL    HW1 8144   4.406   1.222   3.340
 2415SOL    HW2 8145   4.531   1.117   3.347
 2416SOL     OW 8146   5.549   1.840   6.441
 2416SOL    HW1 8147   5.515   1.838   6.347
 2416SOL    HW2 8148   5.553   1.746   6.476
 2417SOL     OW 8149   3.131   4.084   4.900
 2417SOL    HW1 8150   3.186   4.134   4.967
 2417SOL    HW2 8151   3.046   4.134   4.883
 2418SOL     OW 8152   3.437   3.323   2.800
 2418SOL    HW1 8153   3.349   3.370   2.811
 2418SOL    HW2 8154   3.451   3.302   2.703
 2419SOL     OW 8155   0.174   0.270   3.102
 2419SOL    HW1 8156   0.175   0.222   3.015
 2419SOL    HW2 8157   0.080   0.301   3.122
 2420SOL     OW 8158   2.265   0.053   1.921
 2420SOL    HW1 8159   2.269   6.984   1.965
 2420SOL    HW2 8160   2.240   0.122   1.990
 2421SOL     OW 8161   3.632   1.578   3.711
 2421SOL    HW1 8162   3.612   1.513   3.637
 2421SOL    HW2 8163   3.725   1.613   3.700
 2422SOL     OW 8164   4.855   1.654   0.934
 2422SOL    HW1 8165   4.826   1.666   1.029
 2422SOL    HW2 8166   4.823   1.566   0.900
 2423SOL     OW 8167   1.927   4.985   2.274
 2423SOL    HW1 8168   2.017   4.951   2.246
 2423SOL    HW2 8169   1.903   4.946   2.364
 2424SOL     OW 8170   6.349   0.220   0.510
 2424SOL    HW1 8171   6.422   0.243   0.575
 2424SOL    HW2 8172   6.299   0.139   0.543
 2425SOL     OW 8173   6.869   6.827   4.438
 2425SOL    HW1 8174   6.898   6.885   4.361
 2425SOL    HW2 8175   6.871   6.731   4.409
 2426SOL     OW 8176   2.663   4.709   4.109
 2426SOL    HW1 8177   2.672   4.802   4.075
 2426SOL    HW2 8178   2.638   4.710   4.205
 2427SOL     OW 8179   6.326   0.121   5.625
 2427SOL    HW1 8180   6.259   0.195   5.633
 2427SOL    HW2 8181   6.381   0.135   5.542
 2428SOL     OW 8182   5.727   1.015   0.585
 2428SOL    HW1 8183   5.816   0.970   0.575
 2428SOL    HW2 8184   5.654   0.949   0.566
 2429SOL     OW 8185   5.109   4.947   2.136
 2429SOL    HW1 8186   5.022   4.914   2.098
 2429SOL    HW2 8187   5.185   4.902   2.090
 2430SOL     OW 8188   5.307   0.061   2.708
 2430SOL    HW1 8189   5.403   0.078   2.726
 2430SOL    HW2 8190   5.250   0.120   2.765
 2431SOL     OW 8191   4.620   6.960   2.242
 2431SOL    HW1 8192   4.717   6.967   2.262
 2431SOL    HW2 8193   4.575   0.026   2.264
 2432SOL     OW 8194   2.465   5.960   2.691
 2432SOL    HW1 8195   2.481   5.941   2.594
 2432SOL    HW2 8196   2.549   5.941   2.743
 2433SOL     OW 8197   4.860   0.440   0.910
 2433SOL    HW1 8198   4.890   0.497   0.987
 2433SOL    HW2 8199   4.910   0.353   0.912
 2434SOL     OW 8200   3.836   2.996   4.829
 2434SOL    HW1 8201   3.848   2.974   4.925
 2434SOL    HW2 8202   3.755   2.950   4.793
 2435SOL     OW 8203   6.258   6.152   6.143
 2435SOL    HW1 8204   6.265   6.128   6.240
 2435SOL    HW2 8205   6.259   6.252   6.133
 2436SOL     OW 8206   2.902   4.998   0.950
 2436SOL    HW1 8207   2.916   4.948   0.865
 2436SOL    HW2 8208   2.821   5.057   0.942
 2437SOL     OW 8209   6.447   0.815   5.930
 2437SOL    HW1 8210   6.524   0.766   5.968
 2437SOL    HW2 8211   6.441   0.797   5.831
 2438SOL     OW 8212   3.018   3.306   0.894
 2438SOL    HW1 8213   3.069   3.342   0.972
 2438SOL    HW2 8214   3.069   3.231   0.852
 2439SOL     OW 8215   5.948   4.531   6.075
 2439SOL    HW1 8216   5.941   4.578   5.987
 2439SOL    HW2 8217   6.035   4.554   6.119
 2440SOL     OW 8218   5.791   4.733   5.574
 2440SOL    HW1 8219   5.731   4.758   5.499
 2440SOL    HW2 8220   5.847   4.812   5.600
 2441SOL     OW 8221   6.096   2.365   0.720
 2441SOL    HW1 8222   6.168   2.296   0.706
 2441SOL    HW2 8223   6.100   2.433   0.647
 2442SOL     OW 8224   0.271   1.909   5.309
 2442SOL    HW1 8225   0.274   1.903   5.209
 2442SOL    HW2 8226   0.352   1.864   5.347
 2443SOL     OW 8227   2.914   4.882   5.034
 2443SOL    HW1 8228   2.905   4.784   5.013
 2443SOL    HW2 8229   2.843   4.908   5.099
 2444SOL     OW 8230   3.463   2.879   5.961
 2444SOL    HW1 8231   3.476   2.908   6.056
 2444SOL    HW2 8232   3.416   2.791   5.960
 2445SOL     OW 8233   1.073   0.181   0.814
 2445SOL    HW1 8234   1.108   0.089   0.830
 2445SOL    HW2 8235   1.067   0.230   0.901
 2446SOL     OW 8236   5.094   3.128   6.107
 2446SOL    HW1 8237   5.025   3.061   6.134
 2446SOL    HW2 8238   5.173   3.081   6.068
 2447SOL     OW 8239   0.605   3.141   6.605
 2447SOL    HW1 8240   0.603   3.138   6.505
 2447SOL    HW2 8241   0.644   3.228   6.635
 2448SOL     OW 8242   0.216   6.764   4.359
 2448SOL    HW1 8243   0.218   6.852   4.310
 2448SOL    HW2 8244   0.283   6.702   4.318
 2449SOL     OW 8245   0.859   3.161   5.059
 2449SOL    HW1 8246   0.902   3.072   5.045
 2449SOL    HW2 8247   0.930   3.230   5.074
 2450SOL     OW 8248   1.987   3.229   1.342
 2450SOL    HW1 8249   2.050   3.291   1.388
 2450SOL    HW2 8250   1.922   3.192   1.409
 2451SOL     OW 8251   2.186   5.963   4.221
 2451SOL    HW1 8252   2.251   5.986   4.149
 2451SOL    HW2 8253   2.102   6.016   4.209
 2452SOL     OW 8254   2.552   2.420   4.732
 2452SOL    HW1 8255   2.630   2.455   4.680
 2452SOL    HW2 8256   2.485   2.494   4.744
 2453SOL     OW 8257   0.968   3.772   0.862
 2453SOL    HW1 8258   0.873   3.805   0.862
 2453SOL    HW2 8259   0.975   3.691   0.921
 2454SOL     OW 8260   1.785   6.914   1.714
 2454SOL    HW1 8261   1.863   6.967   1.746
 2454SOL    HW2 8262   1.817   6.829   1.673
 2455SOL     OW 8263   5.599   3.498   1.159
 2455SOL    HW1 8264   5.694   3.475   1.181
 2455SOL    HW2 8265   5.590   3.512   1.060
 2456SOL     OW 8266   3.026   6.665   1.012
 2456SOL    HW1 8267   3.116   6.640   0.975
 2456SOL    HW2 8268   2.955   6.631   0.950
 2457SOL     OW 8269   5.653   6.214   1.148
 2457SOL    HW1 8270   5.627   6.120   1.169
 2457SOL    HW2 8271   5.626   6.237   1.055
 2458SOL     OW 8272   0.224   6.248   1.896
 2458SOL    HW1 8273   0.305   6.238   1.954
 2458SOL    HW2 8274   0.219   6.171   1.832
 2459SOL     OW 8275   1.138   1.243   0.338
 2459SOL    HW1 8276   1.215   1.232   0.275
 2459SOL    HW2 8277   1.105   1.337   0.336
 2460SOL     OW 8278   2.780   4.719   1.417
 2460SOL    HW1 8279   2.853   4.716   1.486
 2460SOL    HW2 8280   2.700   4.764   1.456
 2461SOL     OW 8281   4.881   1.072   2.812
 2461SOL    HW1 8282   4.932   0.988   2.793
 2461SOL    HW2 8283   4.851   1.113   2.726
 2462SOL     OW 8284   2.845   3.944   6.144
 2462SOL    HW1 8285   2.851   4.042   6.161
 2462SOL    HW2 8286   2.937   3.906   6.132
 2463SOL     OW 8287   0.712   2.593   5.198
 2463SOL    HW1 8288   0.766   2.524   5.150
 2463SOL    HW2 8289   0.747   2.604   5.291
 2464SOL     OW 8290   1.063   3.145   0.492
 2464SOL    HW1 8291   1.050   3.238   0.458
 2464SOL    HW2 8292   0.982   3.117   0.543
 2465SOL     OW 8293   6.361   5.005   2.442
 2465SOL    HW1 8294   6.315   4.981   2.357
 2465SOL    HW2 8295   6.374   5.104   2.446
 2466SOL     OW 8296   3.618   1.439   1.782
 2466SOL    HW1 8297   3.566   1.523   1.793
 2466SOL    HW2 8298   3.694   1.455   1.719
 2467SOL     OW 8299   0.804   0.911   4.839
 2467SOL    HW1 8300   0.814   0.816   4.867
 2467SOL    HW2 8301   0.794   0.915   4.739
 2468SOL     OW 8302   6.271   4.579   6.751
 2468SOL    HW1 8303   6.348   4.637   6.726
 2468SOL    HW2 8304   6.188   4.609   6.703
 2469SOL     OW 8305   2.988   2.470   5.776
 2469SOL    HW1 8306   3.019   2.453   5.683
 2469SOL    HW2 8307   2.915   2.538   5.775
 2470SOL     OW 8308   5.451   2.970   0.916
 2470SOL    HW1 8309   5.479   2.896   0.978
 2470SOL    HW2 8310   5.422   3.049   0.969
 2471SOL     OW 8311   0.127   1.385   2.490
 2471SOL    HW1 8312   0.129   1.342   2.580
 2471SOL    HW2 8313   0.164   1.322   2.422
 2472SOL     OW 8314   5.955   1.165   3.500
 2472SOL    HW1 8315   6.038   1.220   3.508
 2472SOL    HW2 8316   5.979   1.070   3.482
 2473SOL     OW 8317   0.658   6.041   5.522
 2473SOL    HW1 8318   0.634   5.957   5.571
 2473SOL    HW2 8319   0.575   6.084   5.488
 2474SOL     OW 8320   6.266   6.646   4.304
 2474SOL    HW1 8321   6.288   6.729   4.355
 2474SOL    HW2 8322   6.349   6.611   4.260
 2475SOL     OW 8323   4.160   2.115   6.178
 2475SOL    HW1 8324   4.251   2.075   6.171
 2475SOL    HW2 8325   4.158   2.181   6.254
 2476SOL     OW 8326   0.621   1.317   3.260
 2476SOL    HW1 8327   0.656   1.226   3.283
 2476SOL    HW2 8328   0.696   1.382   3.261
 2477SOL     OW 8329   4.638   4.745   2.595
 2477SOL    HW1 8330   4.714   4.703   2.645
 2477SOL    HW2 8331   4.673   4.816   2.535
 2478SOL     OW 8332   0.277   0.279   2.237
 2478SOL    HW1 8333   0.305   0.185   2.254
 2478SOL    HW2 8334   0.180   0.282   2.213
 2479SOL     OW 8335   0.846   2.891   6.900
 2479SOL    HW1 8336   0.880   2.798   6.887
 2479SOL    HW2 8337   0.847   2.940   6.813
 2480SOL     OW 8338   6.492   5.457   1.620
 2480SOL    HW1 8339   6.534   5.544   1.595
 2480SOL    HW2 8340   6.554   5.382   1.597
 2481SOL     OW 8341   3.884   5.134   2.420
 2481SOL    HW1 8342   3.939   5.190   2.358
 2481SOL    HW2 8343   3.823   5.075   2.368
 2482SOL     OW 8344   4.433   2.416   4.942
 2482SOL    HW1 8345   4.396   2.378   4.857
 2482SOL    HW2 8346   4.358   2.439   5.004
 2483SOL     OW 8347   0.662   3.065   0.019
 2483SOL    HW1 8348   0.730   2.999   7.009
 2483SOL    HW2 8349   0.701   3.123   0.091
 2484SOL     OW 8350   3.677   3.933   5.738
 2484SOL    HW1 8351   3.640   3.900   5.652
 2484SOL    HW2 8352   3.621   3.899   5.814
 2485SOL     OW 8353   0.887   5.809   7.009
 2485SOL    HW1 8354   0.972   5.822   0.040
 2485SOL    HW2 8355   0.905   5.817   6.911
 2486SOL     OW 8356   0.593   5.503   3.811
 2486SOL    HW1 8357   0.622   5.407   3.813
 2486SOL    HW2 8358   0.659   5.559   3.861
 2487SOL     OW 8359   3.436   1.404   1.524
 2487SOL    HW1 8360   3.468   1.393   1.430
 2487SOL    HW2 8361   3.509   1.440   1.581
 2488SOL     OW 8362   3.286   5.857   6.456
 2488SOL    HW1 8363   3.307   5.923   6.527
 2488SOL    HW2 8364   3.194   5.872   6.421
 2489SOL     OW 8365   0.074   5.886   4.569
 2489SOL    HW1 8366   0.018   5.850   4.494
 2489SOL    HW2 8367   0.039   5.851   4.656
 2490SOL     OW 8368   5.692   3.194   0.965
 2490SOL    HW1 8369   5.696   3.239   0.876
 2490SOL    HW2 8370   5.600   3.202   1.002
 2491SOL     OW 8371   6.862   4.015   3.366
 2491SOL    HW1 8372   6.864   3.968   3.278
 2491SOL    HW2 8373   6.935   3.980   3.424
 2492SOL     OW 8374   4.129   1.567   6.222
 2492SOL    HW1 8375   4.139   1.520   6.310
 2492SOL    HW2 8376   4.034   1.598   6.212
 2493SOL     OW 8377   6.645   0.398   5.119
 2493SOL    HW1 8378   6.595   0.342   5.054
 2493SOL    HW2 8379   6.581   0.441   5.183
 2494SOL     OW 8380   5.028   4.884   1.089
 2494SOL    HW1 8381   4.970   4.956   1.128
 2494SOL    HW2 8382   4.971   4.821   1.036
 2495SOL     OW 8383   0.050   1.021   2.412
 2495SOL    HW1 8384   0.024   0.928   2.386
 2495SOL    HW2 8385   6.989   1.073   2.436
 2496SOL     OW 8386   2.178   4.976   0.890
 2496SOL    HW1 8387   2.126   5.060   0.872
 2496SOL    HW2 8388   2.115   4.900   0.902
 2497SOL     OW 8389   5.288   0.560   6.267
 2497SOL    HW1 8390   5.300   0.613   6.183
 2497SOL    HW2 8391   5.218   0.603   6.324
 2498SOL     OW 8392   0.870   3.477   4.659
 2498SOL    HW1 8393   0.806   3.403   4.681
 2498SOL    HW2 8394   0.880   3.537   4.738
 2499SOL     OW 8395   5.511   1.377   0.196
 2499SOL    HW1 8396   5.555   1.290   0.215
 2499SOL    HW2 8397   5.475   1.415   0.280
 2500SOL     OW 8398   4.615   3.738   6.298
 2500SOL    HW1 8399   4.628   3.654   6.245
 2500SOL    HW2 8400   4.560   3.802   6.245
 2501SOL     OW 8401   0.014   4.965   0.758
 2501SOL    HW1 8402   0.049   4.910   0.834
 2501SOL    HW2 8403   6.934   4.957   0.754
 2502SOL     OW 8404   0.535   0.691   3.851
 2502SOL    HW1 8405   0.598   0.625   3.811
 2502SOL    HW2 8406   0.442   0.671   3.823
 2503SOL     OW 8407   5.576   6.441   4.688
 2503SOL    HW1 8408   5.666   6.458   4.727
 2503SOL    HW2 8409   5.506   6.483   4.746
 2504SOL     OW 8410   2.247   4.424   3.310
 2504SOL    HW1 8411   2.154   4.392   3.290
 2504SOL    HW2 8412   2.296   4.439   3.224
 2505SOL     OW 8413   4.879   4.316   4.610
 2505SOL    HW1 8414   4.910   4.305   4.516
 2505SOL    HW2 8415   4.923   4.246   4.667
 2506SOL     OW 8416   0.621   0.767   0.534
 2506SOL    HW1 8417   0.678   0.711   0.594
 2506SOL    HW2 8418   0.652   0.863   0.539
 2507SOL     OW 8419   6.353   6.434   6.801
 2507SOL    HW1 8420   6.427   6.371   6.773
 2507SOL    HW2 8421   6.304   6.395   6.879
 2508SOL     OW 8422   1.508   2.160   1.920
 2508SOL    HW1 8423   1.481   2.087   1.983
 2508SOL    HW2 8424   1.455   2.242   1.940
 2509SOL     OW 8425   6.016   0.732   3.626
 2509SOL    HW1 8426   5.957   0.654   3.604
 2509SOL    HW2 8427   5.992   0.809   3.568
 2510SOL     OW 8428   4.267   5.929   2.197
 2510SOL    HW1 8429   4.313   5.973   2.274
 2510SOL    HW2 8430   4.288   5.832   2.197
 2511SOL     OW 8431   0.365   6.241   3.478
 2511SOL    HW1 8432   0.441   6.246   3.414
 2511SOL    HW2 8433   0.397   6.264   3.570
 2512SOL     OW 8434   6.075   3.716   4.206
 2512SOL    HW1 8435   6.080   3.625   4.166
 2512SOL    HW2 8436   6.011   3.716   4.283
 2513SOL     OW 8437   0.161   4.787   0.570
 2513SOL    HW1 8438   0.260   4.786   0.584
 2513SOL    HW2 8439   0.117   4.834   0.646
 2514SOL     OW 8440   6.999   1.909   3.471
 2514SOL    HW1 8441   6.911   1.956   3.467
 2514SOL    HW2 8442   7.001   1.846   3.549
 2515SOL     OW 8443   1.177   4.609   6.823
 2515SOL    HW1 8444   1.251   4.660   6.865
 2515SOL    HW2 8445   1.135   4.664   6.751
 2516SOL     OW 8446   5.193   7.009   4.052
 2516SOL    HW1 8447   5.148   6.930   4.011
 2516SOL    HW2 8448   5.174   7.011   4.150
 2517SOL     OW 8449   2.107   5.710   1.097
 2517SOL    HW1 8450   2.138   5.696   1.003
 2517SOL    HW2 8451   2.034   5.645   1.118
 2518SOL     OW 8452   2.364   2.267   0.115
 2518SOL    HW1 8453   2.417   2.351   0.104
 2518SOL    HW2 8454   2.333   2.235   0.026
 2519SOL     OW 8455   5.689   4.326   4.877
 2519SOL    HW1 8456   5.646   4.317   4.787
 2519SOL    HW2 8457   5.621   4.315   4.949
 2520SOL     OW 8458   3.752   5.202   1.210
 2520SOL    HW1 8459   3.745   5.137   1.134
 2520SOL    HW2 8460   3.676   5.187   1.274
 2521SOL     OW 8461   6.024   6.327   5.893
 2521SOL    HW1 8462   6.030   6.427   5.892
 2521SOL    HW2 8463   5.999   6.296   5.984
 2522SOL     OW 8464   2.569   4.862   5.128
 2522SOL    HW1 8465   2.552   4.920   5.048
 2522SOL    HW2 8466   2.573   4.766   5.101
 2523SOL     OW 8467   0.907   1.844   5.794
 2523SOL    HW1 8468   0.896   1.872   5.889
 2523SOL    HW2 8469   0.865   1.754   5.780
 2524SOL     OW 8470   1.690   6.850   4.351
 2524SOL    HW1 8471   1.687   6.833   4.450
 2524SOL    HW2 8472   1.664   6.767   4.302
 2525SOL     OW 8473   2.653   4.783   2.173
 2525SOL    HW1 8474   2.715   4.723   2.123
 2525SOL    HW2 8475   2.560   4.772   2.138
 2526SOL     OW 8476   1.408   2.728   4.365
 2526SOL    HW1 8477   1.361   2.810   4.330
 2526SOL    HW2 8478   1.349   2.649   4.355
 2527SOL     OW 8479   6.929   6.478   4.107
 2527SOL    HW1 8480   6.918   6.480   4.008
 2527SOL    HW2 8481   6.868   6.409   4.146
 2528SOL     OW 8482   5.267   5.486   0.868
 2528SOL    HW1 8483   5.201   5.443   0.930
 2528SOL    HW2 8484   5.231   5.482   0.774
 2529SOL     OW 8485   5.068   4.651   5.379
 2529SOL    HW1 8486   5.164   4.625   5.374
 2529SOL    HW2 8487   5.012   4.579   5.337
 2530SOL     OW 8488   0.918   6.168   3.194
 2530SOL    HW1 8489   0.971   6.130   3.270
 2530SOL    HW2 8490   0.908   6.099   3.122
 2531SOL     OW 8491   5.611   2.000   6.831
 2531SOL    HW1 8492   5.555   2.007   6.749
 2531SOL    HW2 8493   5.638   2.092   6.861
 2532SOL     OW 8494   0.873   5.452   5.760
 2532SOL    HW1 8495   0.811   5.451   5.682
 2532SOL    HW2 8496   0.825   5.481   5.842
 2533SOL     OW 8497   5.853   0.568   5.152
 2533SOL    HW1 8498   5.808   0.486   5.187
 2533SOL    HW2 8499   5.785   0.641   5.141
 2534SOL     OW 8500   6.650   1.257   3.513
 2534SOL    HW1 8501   6.586   1.266   3.590
 2534SOL    HW2 8502   6.742   1.239   3.549
 2535SOL     OW 8503   3.099   1.038   2.010
 2535SOL    HW1 8504   3.174   1.043   1.945
 2535SOL    HW2 8505   3.054   1.127   2.016
 2536SOL     OW 8506   0.318   0.485   4.041
 2536SOL    HW1 8507   0.300   0.545   4.119
 2536SOL    HW2 8508   0.365   0.402   4.073
 2537SOL     OW 8509   3.005   6.244   2.470
 2537SOL    HW1 8510   3.035   6.315   2.406
 2537SOL    HW2 8511   2.976   6.163   2.419
 2538SOL     OW 8512   0.129   4.953   5.181
 2538SOL    HW1 8513   0.226   4.961   5.157
 2538SOL    HW2 8514   0.088   4.877   5.131
 2539SOL     OW 8515   1.917   0.349   5.611
 2539SOL    HW1 8516   1.946   0.437   5.575
 2539SOL    HW2 8517   1.855   0.305   5.545
 2540SOL     OW 8518   4.984   2.653   2.545
 2540SOL    HW1 8519   4.935   2.567   2.535
 2540SOL    HW2 8520   5.016   2.662   2.639
 2541SOL     OW 8521   1.389   1.561   6.768
 2541SOL    HW1 8522   1.377   1.537   6.865
 2541SOL    HW2 8523   1.482   1.536   6.740
 2542SOL     OW 8524   3.834   1.545   3.480
 2542SOL    HW1 8525   3.844   1.449   3.506
 2542SOL    HW2 8526   3.821   1.552   3.381
 2543SOL     OW 8527   5.964   0.404   5.540
 2543SOL    HW1 8528   5.880   0.359   5.571
 2543SOL    HW2 8529   6.000   0.356   5.460
 2544SOL     OW 8530   0.036   6.738   1.088
 2544SOL    HW1 8531   0.083   6.784   1.012
 2544SOL    HW2 8532   0.072   6.771   1.175
 2545SOL     OW 8533   0.088   1.453   6.859
 2545SOL    HW1 8534   0.183   1.480   6.872
 2545SOL    HW2 8535   0.039   1.456   6.946
 2546SOL     OW 8536   6.379   3.905   2.424
 2546SOL    HW1 8537   6.475   3.886   2.402
 2546SOL    HW2 8538   6.342   3.830   2.478
 2547SOL     OW 8539   5.602   3.546   0.855
 2547SOL    HW1 8540   5.684   3.494   0.832
 2547SOL    HW2 8541   5.564   3.587   0.771
 2548SOL     OW 8542   6.706   0.054   5.432
 2548SOL    HW1 8543   6.778   0.097   5.377
 2548SOL    HW2 8544   6.731   6.979   5.449
 2549SOL     OW 8545   3.056   5.367   0.538
 2549SOL    HW1 8546   3.141   5.397   0.494
 2549SOL    HW2 8547   2.996   5.325   0.470
 2550SOL     OW 8548   3.657   0.318   0.923
 2550SOL    HW1 8549   3.567   0.275   0.931
 2550SOL    HW2 8550   3.723   0.251   0.890
 2551SOL     OW 8551   3.589   4.447   1.309
 2551SOL    HW1 8552   3.681   4.484   1.302
 2551SOL    HW2 8553   3.536   4.471   1.228
 2552SOL     OW 8554   2.414   4.629   1.427
 2552SOL    HW1 8555   2.473   4.696   1.472
 2552SOL    HW2 8556   2.465   4.544   1.414
 2553SOL     OW 8557   4.673   1.476   0.067
 2553SOL    HW1 8558   4.692   1.522   0.154
 2553SOL    HW2 8559   4.575   1.460   0.059
 2554SOL     OW 8560   0.711   5.677   0.799
 2554SOL    HW1 8561   0.657   5.662   0.715
 2554SOL    HW2 8562   0.731   5.774   0.808
 2555SOL     OW 8563   0.927   6.441   5.381
 2555SOL    HW1 8564   0.958   6.430   5.287
 2555SOL    HW2 8565   0.938   6.536   5.409
 2556SOL     OW 8566   5.311   0.077   0.623
 2556SOL    HW1 8567   5.400   0.108   0.656
 2556SOL    HW2 8568   5.247   0.070   0.699
 2557SOL     OW 8569   2.851   1.416   0.237
 2557SOL    HW1 8570   2.890   1.353   0.304
 2557SOL    HW2 8571   2.923   1.454   0.180
 2558SOL     OW 8572   5.389   1.858   1.420
 2558SOL    HW1 8573   5.358   1.943   1.379
 2558SOL    HW2 8574   5.344   1.844   1.508
 2559SOL     OW 8575   6.139   5.278   3.309
 2559SOL    HW1 8576   6.040   5.295   3.313
 2559SOL    HW2 8577   6.170   5.281   3.214
 2560SOL     OW 8578   4.472   2.432   1.758
 2560SOL    HW1 8579   4.468   2.472   1.850
 2560SOL    HW2 8580   4.379   2.423   1.722
 2561SOL     OW 8581   3.325   0.142   4.778
 2561SOL    HW1 8582   3.272   0.221   4.748
 2561SOL    HW2 8583   3.269   0.085   4.838
 2562SOL     OW 8584   1.594   6.632   4.823
 2562SOL    HW1 8585   1.598   6.640   4.922
 2562SOL    HW2 8586   1.602   6.536   4.796
 2563SOL     OW 8587   4.139   2.263   6.406
 2563SOL    HW1 8588   4.042   2.276   6.388
 2563SOL    HW2 8589   4.150   2.208   6.489
 2564SOL     OW 8590   1.584   1.521   0.611
 2564SOL    HW1 8591   1.514   1.592   0.609
 2564SOL    HW2 8592   1.588   1.481   0.703
 2565SOL     OW 8593   0.393   0.739   1.134
 2565SOL    HW1 8594   0.299   0.711   1.117
 2565SOL    HW2 8595   0.456   0.675   1.090
 2566SOL     OW 8596   2.958   1.493   1.017
 2566SOL    HW1 8597   2.876   1.512   0.962
 2566SOL    HW2 8598   2.976   1.395   1.016
 2567SOL     OW 8599   2.214   1.073   6.513
 2567SOL    HW1 8600   2.238   0.993   6.458
 2567SOL    HW2 8601   2.284   1.088   6.583
 2568SOL     OW 8602   2.614   6.059   0.963
 2568SOL    HW1 8603   2.559   6.090   1.040
 2568SOL    HW2 8604   2.555   6.012   0.897
 2569SOL     OW 8605   2.325   6.688   6.718
 2569SOL    HW1 8606   2.226   6.704   6.725
 2569SOL    HW2 8607   2.349   6.606   6.771
 2570SOL     OW 8608   0.128   6.879   3.960
 2570SOL    HW1 8609   0.131   6.783   3.988
 2570SOL    HW2 8610   0.219   6.919   3.969
 2571SOL     OW 8611   3.854   3.366   3.080
 2571SOL    HW1 8612   3.936   3.310   3.094
 2571SOL    HW2 8613   3.775   3.321   3.124
 2572SOL     OW 8614   2.412   5.701   2.406
 2572SOL    HW1 8615   2.458   5.773   2.355
 2572SOL    HW2 8616   2.473   5.623   2.418
 2573SOL     OW 8617   0.094   1.259   3.167
 2573SOL    HW1 8618   0.163   1.191   3.142
 2573SOL    HW2 8619   0.130   1.351   3.152
 2574SOL     OW 8620   0.308   3.774   1.842
 2574SOL    HW1 8621   0.330   3.680   1.868
 2574SOL    HW2 8622   0.250   3.815   1.912
 2575SOL     OW 8623   4.593   3.981   5.381
 2575SOL    HW1 8624   4.509   3.925   5.384
 2575SOL    HW2 8625   4.660   3.936   5.322
 2576SOL     OW 8626   0.547   0.129   3.171
 2576SOL    HW1 8627   0.509   0.194   3.106
 2576SOL    HW2 8628   0.632   0.090   3.134
 2577SOL     OW 8629   1.767   4.554   0.924
 2577SOL    HW1 8630   1.771   4.456   0.942
 2577SOL    HW2 8631   1.710   4.571   0.844
 2578SOL     OW 8632   4.748   2.749   4.766
 2578SOL    HW1 8633   4.683   2.738   4.690
 2578SOL    HW2 8634   4.763   2.846   4.783
 2579SOL     OW 8635   0.276   1.209   6.772
 2579SOL    HW1 8636   0.350   1.256   6.821
 2579SOL    HW2 8637   0.298   1.112   6.763
 2580SOL     OW 8638   1.803   2.046   5.381
 2580SOL    HW1 8639   1.824   2.058   5.478
 2580SOL    HW2 8640   1.805   2.135   5.335
 2581SOL     OW 8641   5.688   6.911   4.354
 2581SOL    HW1 8642   5.702   6.874   4.445
 2581SOL    HW2 8643   5.657   6.838   4.293
 2582SOL     OW 8644   6.769   4.355   3.190
 2582SOL    HW1 8645   6.683   4.403   3.203
 2582SOL    HW2 8646   6.786   4.343   3.093
 2583SOL     OW 8647   3.172   1.011   0.245
 2583SOL    HW1 8648   3.207   0.924   0.211
 2583SOL    HW2 8649   3.103   0.993   0.315
 2584SOL     OW 8650   4.165   0.813   3.202
 2584SOL    HW1 8651   4.182   0.878   3.276
 2584SOL    HW2 8652   4.074   0.828   3.164
 2585SOL     OW 8653   3.566   0.491   2.323
 2585SOL    HW1 8654   3.495   0.519   2.258
 2585SOL    HW2 8655   3.608   0.406   2.292
 2586SOL     OW 8656   0.917   1.584   3.746
 2586SOL    HW1 8657   0.853   1.531   3.691
 2586SOL    HW2 8658   0.926   1.676   3.707
 2587SOL     OW 8659   6.506   4.843   2.593
 2587SOL    HW1 8660   6.458   4.909   2.536
 2587SOL    HW2 8661   6.510   4.755   2.546
 2588SOL     OW 8662   3.859   6.657   2.673
 2588SOL    HW1 8663   3.777   6.650   2.730
 2588SOL    HW2 8664   3.855   6.740   2.618
 2589SOL     OW 8665   4.469   6.471   1.652
 2589SOL    HW1 8666   4.562   6.434   1.652
 2589SOL    HW2 8667   4.465   6.551   1.711
 2590SOL     OW 8668   4.085   5.873   3.980
 2590SOL    HW1 8669   4.164   5.843   4.034
 2590SOL    HW2 8670   4.107   5.868   3.883
 2591SOL     OW 8671   5.948   0.533   0.284
 2591SOL    HW1 8672   5.852   0.532   0.314
 2591SOL    HW2 8673   5.984   0.626   0.293
 2592SOL     OW 8674   2.740   4.767   1.757
 2592SOL    HW1 8675   2.749   4.866   1.763
 2592SOL    HW2 8676   2.743   4.728   1.850
 2593SOL     OW 8677   3.264   6.948   3.895
 2593SOL    HW1 8678   3.276   6.894   3.812
 2593SOL    HW2 8679   3.265   0.025   3.872
 2594SOL     OW 8680   1.947   5.935   6.886
 2594SOL    HW1 8681   1.932   6.029   6.915
 2594SOL    HW2 8682   2.034   5.928   6.836
 2595SOL     OW 8683   0.044   3.129   4.011
 2595SOL    HW1 8684   0.133   3.147   4.051
 2595SOL    HW2 8685   0.052   3.128   3.911
 2596SOL     OW 8686   4.234   2.138   1.105
 2596SOL    HW1 8687   4.252   2.198   1.028
 2596SOL    HW2 8688   4.200   2.192   1.182
 2597SOL     OW 8689   2.705   2.303   6.131
 2597SOL    HW1 8690   2.651   2.281   6.212
 2597SOL    HW2 8691   2.679   2.393   6.097
 2598SOL     OW 8692   6.995   1.224   2.903
 2598SOL    HW1 8693   6.933   1.303   2.909
 2598SOL    HW2 8694   0.001   1.196   2.995
 2599SOL     OW 8695   4.754   5.961   6.341
 2599SOL    HW1 8696   4.739   6.060   6.341
 2599SOL    HW2 8697   4.782   5.932   6.249
 2600SOL     OW 8698   0.836   2.610   4.738
 2600SOL    HW1 8699   0.914   2.659   4.777
 2600SOL    HW2 8700   0.763   2.675   4.716
 2601SOL     OW 8701   4.152   3.777   5.239
 2601SOL    HW1 8702   4.150   3.747   5.143
 2601SOL    HW2 8703   4.058   3.783   5.273
 2602SOL     OW 8704   5.821   6.579   6.125
 2602SOL    HW1 8705   5.868   6.599   6.210
 2602SOL    HW2 8706   5.885   6.581   6.049
 2603SOL     OW 8707   1.652   1.694   6.697
 2603SOL    HW1 8708   1.606   1.750   6.766
 2603SOL    HW2 8709   1.740   1.734   6.675
 2604SOL     OW 8710   5.179   1.621   0.719
 2604SOL    HW1 8711   5.273   1.654   0.720
 2604SOL    HW2 8712   5.124   1.677   0.657
 2605SOL     OW 8713   5.691   3.629   4.436
 2605SOL    HW1 8714   5.787   3.658   4.432
 2605SOL    HW2 8715   5.685   3.534   4.406
 2606SOL     OW 8716   6.586   4.690   1.370
 2606SOL    HW1 8717   6.530   4.615   1.336
 2606SOL    HW2 8718   6.656   4.713   1.303
 2607SOL     OW 8719   0.599   1.075   4.409
 2607SOL    HW1 8720   0.503   1.093   4.388
 2607SOL    HW2 8721   0.650   1.061   4.324
 2608SOL     OW 8722   4.626   0.580   0.592
 2608SOL    HW1 8723   4.582   0.652   0.645
 2608SOL    HW2 8724   4.650   0.614   0.501
 2609SOL     OW 8725   1.094   3.634   3.238
 2609SOL    HW1 8726   1.034   3.642   3.158
 2609SOL    HW2 8727   1.046   3.666   3.319
 2610SOL     OW 8728   5.236   5.811   4.548
 2610SOL    HW1 8729   5.314   5.763   4.508
 2610SOL    HW2 8730   5.164   5.745   4.571
 2611SOL     OW 8731   2.845   5.710   2.392
 2611SOL    HW1 8732   2.778   5.635   2.392
 2611SOL    HW2 8733   2.889   5.716   2.303
 2612SOL     OW 8734   0.550   6.937   5.355
 2612SOL    HW1 8735   0.581   6.988   5.275
 2612SOL    HW2 8736   0.599   6.850   5.360
 2613SOL     OW 8737   4.150   1.319   0.434
 2613SOL    HW1 8738   4.181   1.224   0.444
 2613SOL    HW2 8739   4.050   1.321   0.428
 2614SOL     OW 8740   6.019   6.095   6.732
 2614SOL    HW1 8741   5.947   6.030   6.707
 2614SOL    HW2 8742   5.977   6.180   6.763
 2615SOL     OW 8743   6.173   3.773   1.397
 2615SOL    HW1 8744   6.093   3.831   1.379
 2615SOL    HW2 8745   6.253   3.815   1.355
 2616SOL     OW 8746   4.170   3.861   1.788
 2616SOL    HW1 8747   4.097   3.883   1.853
 2616SOL    HW2 8748   4.202   3.945   1.744
 2617SOL     OW 8749   2.510   6.160   1.179
 2617SOL    HW1 8750   2.416   6.149   1.212
 2617SOL    HW2 8751   2.573   6.121   1.246
 2618SOL     OW 8752   1.056   6.297   0.253
 2618SOL    HW1 8753   1.041   6.221   0.316
 2618SOL    HW2 8754   1.100   6.263   0.170
 2619SOL     OW 8755   6.316   1.526   1.880
 2619SOL    HW1 8756   6.343   1.602   1.940
 2619SOL    HW2 8757   6.307   1.442   1.935
 2620SOL     OW 8758   1.652   5.911   4.303
 2620SOL    HW1 8759   1.727   5.865   4.256
 2620SOL    HW2 8760   1.570   5.854   4.298
 2621SOL     OW 8761   0.898   5.674   4.679
 2621SOL    HW1 8762   0.927   5.729   4.758
 2621SOL    HW2 8763   0.802   5.648   4.690
 2622SOL     OW 8764   2.411   2.628   4.772
 2622SOL    HW1 8765   2.416   2.709   4.714
 2622SOL    HW2 8766   2.400   2.655   4.868
 2623SOL     OW 8767   3.167   0.715   6.086
 2623SOL    HW1 8768   3.207   0.686   5.999
 2623SOL    HW2 8769   3.237   0.757   6.143
 2624SOL     OW 8770   5.743   2.177   4.330
 2624SOL    HW1 8771   5.686   2.206   4.254
 2624SOL    HW2 8772   5.771   2.082   4.317
 2625SOL     OW 8773   2.746   0.299   6.039
 2625SOL    HW1 8774   2.800   0.343   6.111
 2625SOL    HW2 8775   2.690   0.367   5.993
 2626SOL     OW 8776   1.507   6.986   3.000
 2626SOL    HW1 8777   1.480   6.944   3.086
 2626SOL    HW2 8778   1.563   0.046   3.017
 2627SOL     OW 8779   0.487   6.594   4.922
 2627SOL    HW1 8780   0.492   6.535   5.004
 2627SOL    HW2 8781   0.393   6.624   4.909
 2628SOL     OW 8782   4.431   5.755   0.224
 2628SOL    HW1 8783   4.430   5.745   0.125
 2628SOL    HW2 8784   4.357   5.815   0.253
 2629SOL     OW 8785   2.888   3.808   1.740
 2629SOL    HW1 8786   2.907   3.895   1.694
 2629SOL    HW2 8787   2.886   3.823   1.839
 2630SOL     OW 8788   3.227   2.018   2.960
 2630SOL    HW1 8789   3.295   2.017   3.034
 2630SOL    HW2 8790   3.206   2.112   2.935
 2631SOL     OW 8791   4.054   6.136   4.290
 2631SOL    HW1 8792   4.013   6.183   4.368
 2631SOL    HW2 8793   3.985   6.126   4.217
 2632SOL     OW 8794   4.898   1.409   1.311
 2632SOL    HW1 8795   4.901   1.384   1.407
 2632SOL    HW2 8796   4.944   1.339   1.256
 2633SOL     OW 8797   0.077   2.355   6.768
 2633SOL    HW1 8798   0.106   2.427   6.705
 2633SOL    HW2 8799   7.009   2.318   6.739
 2634SOL     OW 8800   2.904   4.900   0.692
 2634SOL    HW1 8801   2.813   4.909   0.651
 2634SOL    HW2 8802   2.967   4.964   0.647
 2635SOL     OW 8803   5.761   4.974   3.446
 2635SOL    HW1 8804   5.761   4.903   3.516
 2635SOL    HW2 8805   5.777   5.063   3.490
 2636SOL     OW 8806   5.916   5.879   5.297
 2636SOL    HW1 8807   5.918   5.979   5.304
 2636SOL    HW2 8808   5.822   5.849   5.280
 2637SOL     OW 8809   4.600   6.291   2.760
 2637SOL    HW1 8810   4.613   6.380   2.803
 2637SOL    HW2 8811   4.569   6.225   2.829
 2638SOL     OW 8812   4.813   5.599   1.200
 2638SOL    HW1 8813   4.897   5.550   1.221
 2638SOL    HW2 8814   4.734   5.542   1.222
 2639SOL     OW 8815   6.632   6.561   0.163
 2639SOL    HW1 8816   6.669   6.572   0.071
 2639SOL    HW2 8817   6.706   6.553   0.229
 2640SOL     OW 8818   6.610   6.685   6.338
 2640SOL    HW1 8819   6.708   6.694   6.355
 2640SOL    HW2 8820   6.565   6.653   6.421
 2641SOL     OW 8821   0.148   5.453   0.612
 2641SOL    HW1 8822   0.167   5.538   0.660
 2641SOL    HW2 8823   0.049   5.442   0.601
 2642SOL     OW 8824   6.679   0.406   3.844
 2642SOL    HW1 8825   6.650   0.416   3.939
 2642SOL    HW2 8826   6.616   0.344   3.796
 2643SOL     OW 8827   1.925   0.209   2.067
 2643SOL    HW1 8828   1.858   0.262   2.015
 2643SOL    HW2 8829   1.884   0.175   2.151
 2644SOL     OW 8830   6.744   6.110   4.772
 2644SOL    HW1 8831   6.661   6.163   4.793
 2644SOL    HW2 8832   6.794   6.156   4.699
 2645SOL     OW 8833   5.924   6.197   6.129
 2645SOL    HW1 8834   5.959   6.247   6.208
 2645SOL    HW2 8835   5.934   6.099   6.144
 2646SOL     OW 8836   5.936   5.946   6.212
 2646SOL    HW1 8837   5.961   5.914   6.303
 2646SOL    HW2 8838   5.934   5.868   6.149
 2647SOL     OW 8839   3.285   3.805   6.811
 2647SOL    HW1 8840   3.204   3.748   6.820
 2647SOL    HW2 8841   3.367   3.750   6.830
 2648SOL     OW 8842   4.118   1.639   3.445
 2648SOL    HW1 8843   4.035   1.595   3.410
 2648SOL    HW2 8844   4.133   1.611   3.540
 2649SOL     OW 8845   3.127   3.546   5.117
 2649SOL    HW1 8846   3.068   3.465   5.120
 2649SOL    HW2 8847   3.177   3.548   5.030
 2650SOL     OW 8848   0.606   6.815   2.278
 2650SOL    HW1 8849   0.531   6.793   2.340
 2650SOL    HW2 8850   0.656   6.731   2.255
 2651SOL     OW 8851   0.842   0.145   3.509
 2651SOL    HW1 8852   0.760   0.201   3.522
 2651SOL    HW2 8853   0.905   0.191   3.447
 2652SOL     OW 8854   2.982   3.347   2.760
 2652SOL    HW1 8855   3.020   3.335   2.851
 2652SOL    HW2 8856   3.049   3.319   2.691
 2653SOL     OW 8857   7.015   6.086   0.803
 2653SOL    HW1 8858   0.078   6.124   0.845
 2653SOL    HW2 8859   0.010   5.990   0.781
 2654SOL     OW 8860   6.710   1.996   5.995
 2654SOL    HW1 8861   6.668   2.069   6.049
 2654SOL    HW2 8862   6.647   1.968   5.923
 2655SOL     OW 8863   5.411   5.337   4.459
 2655SOL    HW1 8864   5.459   5.424   4.475
 2655SOL    HW2 8865   5.456   5.287   4.385
 2656SOL     OW 8866   5.842   3.528   4.975
 2656SOL    HW1 8867   5.857   3.476   4.891
 2656SOL    HW2 8868   5.745   3.531   4.996
 2657SOL     OW 8869   3.676   2.368   6.028
 2657SOL    HW1 8870   3.749   2.422   5.986
 2657SOL    HW2 8871   3.712   2.278   6.053
 2658SOL     OW 8872   5.951   4.210   4.942
 2658SOL    HW1 8873   5.870   4.251   4.899
 2658SOL    HW2 8874   5.954   4.236   5.038
 2659SOL     OW 8875   6.672   1.813   3.667
 2659SOL    HW1 8876   6.705   1.758   3.590
 2659SOL    HW2 8877   6.583   1.852   3.644
 2660SOL     OW 8878   0.508   2.510   3.164
 2660SOL    HW1 8879   0.531   2.604   3.190
 2660SOL    HW2 8880   0.550   2.489   3.076
 2661SOL     OW 8881   3.359   6.772   3.188
 2661SOL    HW1 8882   3.419   6.852   3.196
 2661SOL    HW2 8883   3.368   6.716   3.270
 2662SOL     OW 8884   3.702   0.958   4.019
 2662SOL    HW1 8885   3.641   0.928   4.093
 2662SOL    HW2 8886   3.721   0.880   3.959
 2663SOL     OW 8887   0.770   4.246   3.046
 2663SOL    HW1 8888   0.762   4.185   3.125
 2663SOL    HW2 8889   0.752   4.194   2.962
 2664SOL     OW 8890   4.533   4.288   1.591
 2664SOL    HW1 8891   4.509   4.295   1.688
 2664SOL    HW2 8892   4.462   4.332   1.535
 2665SOL     OW 8893   4.583   6.669   4.821
 2665SOL    HW1 8894   4.621   6.657   4.913
 2665SOL    HW2 8895   4.539   6.584   4.792
 2666SOL     OW 8896   4.859   5.782   1.586
 2666SOL    HW1 8897   4.820   5.700   1.629
 2666SOL    HW2 8898   4.922   5.826   1.649
 2667SOL     OW 8899   1.888   5.380   2.967
 2667SOL    HW1 8900   1.962   5.330   2.922
 2667SOL    HW2 8901   1.882   5.353   3.063
 2668SOL     OW 8902   6.953   2.224   5.144
 2668SOL    HW1 8903   0.002   2.161   5.180
 2668SOL    HW2 8904   6.953   2.308   5.198
 2669SOL     OW 8905   4.002   5.970   4.939
 2669SOL    HW1 8906   3.911   6.005   4.962
 2669SOL    HW2 8907   4.065   5.986   5.015
 2670SOL     OW 8908   2.664   6.657   4.280
 2670SOL    HW1 8909   2.761   6.676   4.270
 2670SOL    HW2 8910   2.641   6.649   4.377
 2671SOL     OW 8911   3.383   4.083   6.545
 2671SOL    HW1 8912   3.328   4.074   6.461
 2671SOL    HW2 8913   3.432   4.171   6.543
 2672SOL     OW 8914   0.668   4.425   7.017
 2672SOL    HW1 8915   0.579   4.402   0.035
 2672SOL    HW2 8916   0.662   4.427   6.917
 2673SOL     OW 8917   3.404   2.044   3.149
 2673SOL    HW1 8918   3.453   1.958   3.136
 2673SOL    HW2 8919   3.459   2.106   3.205
 2674SOL     OW 8920   5.932   5.604   5.330
 2674SOL    HW1 8921   5.917   5.700   5.306
 2674SOL    HW2 8922   5.901   5.588   5.424
 2675SOL     OW 8923   0.179   4.798   5.935
 2675SOL    HW1 8924   0.225   4.825   5.851
 2675SOL    HW2 8925   0.244   4.802   6.011
 2676SOL     OW 8926   4.272   0.359   1.710
 2676SOL    HW1 8927   4.264   0.312   1.798
 2676SOL    HW2 8928   4.238   0.452   1.718
 2677SOL     OW 8929   2.498   4.468   2.240
 2677SOL    HW1 8930   2.593   4.438   2.229
 2677SOL    HW2 8931   2.436   4.391   2.228
 2678SOL     OW 8932   0.336   6.213   6.635
 2678SOL    HW1 8933   0.321   6.217   6.536
 2678SOL    HW2 8934   0.293   6.131   6.672
 2679SOL     OW 8935   2.716   5.047   1.798
 2679SOL    HW1 8936   2.766   5.026   1.882
 2679SOL    HW2 8937   2.635   5.101   1.819
 2680SOL     OW 8938   0.716   2.690   1.138
 2680SOL    HW1 8939   0.806   2.688   1.096
 2680SOL    HW2 8940   0.723   2.664   1.234
 2681SOL     OW 8941   2.225   1.906   2.017
 2681SOL    HW1 8942   2.272   1.992   1.998
 2681SOL    HW2 8943   2.291   1.831   2.011
 2682SOL     OW 8944   6.820   2.990   4.125
 2682SOL    HW1 8945   6.892   3.036   4.074
 2682SOL    HW2 8946   6.736   2.989   4.071
 2683SOL     OW 8947   1.513   6.994   0.260
 2683SOL    HW1 8948   1.507   6.916   0.322
 2683SOL    HW2 8949   1.604   0.014   0.264
 2684SOL     OW 8950   2.097   5.552   2.811
 2684SOL    HW1 8951   2.138   5.576   2.723
 2684SOL    HW2 8952   2.077   5.636   2.862
 2685SOL     OW 8953   5.126   5.391   5.521
 2685SOL    HW1 8954   5.068   5.392   5.440
 2685SOL    HW2 8955   5.156   5.485   5.542
 2686SOL     OW 8956   1.150   3.068   5.171
 2686SOL    HW1 8957   1.166   3.011   5.091
 2686SOL    HW2 8958   1.231   3.124   5.190
 2687SOL     OW 8959   4.578   4.858   3.322
 2687SOL    HW1 8960   4.517   4.883   3.246
 2687SOL    HW2 8961   4.643   4.931   3.339
 2688SOL     OW 8962   3.512   4.363   5.819
 2688SOL    HW1 8963   3.441   4.419   5.775
 2688SOL    HW2 8964   3.468   4.295   5.878
 2689SOL     OW 8965   6.654   2.581   4.383
 2689SOL    HW1 8966   6.620   2.635   4.460
 2689SOL    HW2 8967   6.595   2.501   4.370
 2690SOL     OW 8968   3.046   3.929   3.353
 2690SOL    HW1 8969   2.982   4.002   3.378
 2690SOL    HW2 8970   3.140   3.963   3.360
 2691SOL     OW 8971   1.462   6.202   2.158
 2691SOL    HW1 8972   1.476   6.221   2.255
 2691SOL    HW2 8973   1.473   6.286   2.106
 2692SOL     OW 8974   0.081   4.865   3.346
 2692SOL    HW1 8975   7.002   4.873   3.332
 2692SOL    HW2 8976   0.126   4.942   3.301
 2693SOL     OW 8977   1.584   3.586   3.038
 2693SOL    HW1 8978   1.548   3.608   2.948
 2693SOL    HW2 8979   1.516   3.534   3.090
 2694SOL     OW 8980   1.942   1.619   2.622
 2694SOL    HW1 8981   1.860   1.666   2.591
 2694SOL    HW2 8982   2.011   1.686   2.650
 2695SOL     OW 8983   4.213   2.163   2.687
 2695SOL    HW1 8984   4.122   2.154   2.728
 2695SOL    HW2 8985   4.249   2.073   2.665
 2696SOL     OW 8986   3.731   3.621   5.907
 2696SOL    HW1 8987   3.829   3.604   5.902
 2696SOL    HW2 8988   3.683   3.555   5.849
 2697SOL     OW 8989   2.774   1.127   4.871
 2697SOL    HW1 8990   2.849   1.176   4.827
 2697SOL    HW2 8991   2.774   1.147   4.969
 2698SOL     OW 8992   1.942   2.126   6.667
 2698SOL    HW1 8993   1.947   2.145   6.569
 2698SOL    HW2 8994   1.872   2.057   6.685
 2699SOL     OW 8995   1.597   5.367   3.256
 2699SOL    HW1 8996   1.505   5.391   3.287
 2699SOL    HW2 8997   1.650   5.334   3.334
 2700SOL     OW 8998   2.025   4.502   2.952
 2700SOL    HW1 8999   2.112   4.524   2.907
 2700SOL    HW2 9000   2.019   4.404   2.966
 2701SOL     OW 9001   3.119   0.467   5.537
 2701SOL    HW1 9002   3.099   0.539   5.470
 2701SOL    HW2 9003   3.036   0.415   5.555
 2702SOL     OW 9004   6.634   6.341   2.542
 2702SOL    HW1 9005   6.568   6.266   2.552
 2702SOL    HW2 9006   6.707   6.330   2.609
 2703SOL     OW 9007   1.868   1.871   3.032
 2703SOL    HW1 9008   1.877   1.817   2.948
 2703SOL    HW2 9009   1.937   1.943   3.033
 2704SOL     OW 9010   1.313   6.171   0.570
 2704SOL    HW1 9011   1.318   6.193   0.472
 2704SOL    HW2 9012   1.381   6.226   0.619
 2705SOL     OW 9013   6.830   3.462   2.514
 2705SOL    HW1 9014   6.891   3.414   2.450
 2705SOL    HW2 9015   6.813   3.405   2.594
 2706SOL     OW 9016   6.558   2.327   3.641
 2706SOL    HW1 9017   6.518   2.250   3.691
 2706SOL    HW2 9018   6.557   2.409   3.700
 2707SOL     OW 9019   2.461   1.384   6.718
 2707SOL    HW1 9020   2.395   1.418   6.651
 2707SOL    HW2 9021   2.455   1.439   6.801
 2708SOL     OW 9022   1.760   4.762   6.950
 2708SOL    HW1 9023   1.712   4.676   6.932
 2708SOL    HW2 9024   1.708   4.838   6.912
 2709SOL     OW 9025   4.840   6.798   1.673
 2709SOL    HW1 9026   4.848   6.722   1.738
 2709SOL    HW2 9027   4.774   6.864   1.708
 2710SOL     OW 9028   6.700   4.431   2.491
 2710SOL    HW1 9029   6.661   4.459   2.403
 2710SOL    HW2 9030   6.748   4.344   2.481
 2711SOL     OW 9031   1.560   0.046   2.438
 2711SOL    HW1 9032   1.588   6.974   2.464
 2711SOL    HW2 9033   1.462   0.057   2.457
 2712SOL     OW 9034   3.272   5.400   2.818
 2712SOL    HW1 9035   3.204   5.455   2.770
 2712SOL    HW2 9036   3.314   5.336   2.754
 2713SOL     OW 9037   2.066   2.621   5.499
 2713SOL    HW1 9038   1.990   2.589   5.554
 2713SOL    HW2 9039   2.131   2.669   5.557
 2714SOL     OW 9040   5.524   0.055   6.735
 2714SOL    HW1 9041   5.465   0.101   6.802
 2714SOL    HW2 9042   5.501   0.088   6.643
 2715SOL     OW 9043   6.381   0.582   0.054
 2715SOL    HW1 9044   6.472   0.609   0.024
 2715SOL    HW2 9045   6.375   0.483   0.060
 2716SOL     OW 9046   6.498   0.057   2.147
 2716SOL    HW1 9047   6.471   0.005   2.228
 2716SOL    HW2 9048   6.442   0.028   2.069
 2717SOL     OW 9049   0.389   6.930   3.175
 2717SOL    HW1 9050   0.299   6.972   3.169
 2717SOL    HW2 9051   0.459   7.002   3.181
 2718SOL     OW 9052   0.715   4.136   3.345
 2718SOL    HW1 9053   0.770   4.206   3.390
 2718SOL    HW2 9054   0.618   4.151   3.365
 2719SOL     OW 9055   4.263   4.921   2.879
 2719SOL    HW1 9056   4.281   4.841   2.937
 2719SOL    HW2 9057   4.347   4.974   2.868
 2720SOL     OW 9058   0.832   6.074   4.073
 2720SOL    HW1 9059   0.761   6.020   4.027
 2720SOL    HW2 9060   0.843   6.161   4.025
 2721SOL     OW 9061   5.240   6.241   3.541
 2721SOL    HW1 9062   5.190   6.186   3.608
 2721SOL    HW2 9063   5.182   6.318   3.512
 2722SOL     OW 9064   0.959   5.986   1.724
 2722SOL    HW1 9065   1.005   5.952   1.806
 2722SOL    HW2 9066   1.003   5.948   1.643
 2723SOL     OW 9067   1.995   1.614   4.574
 2723SOL    HW1 9068   2.040   1.582   4.657
 2723SOL    HW2 9069   1.997   1.714   4.571
 2724SOL     OW 9070   4.399   5.831   6.193
 2724SOL    HW1 9071   4.373   5.923   6.164
 2724SOL    HW2 9072   4.445   5.836   6.282
 2725SOL     OW 9073   2.735   4.670   3.774
 2725SOL    HW1 9074   2.831   4.651   3.795
 2725SOL    HW2 9075   2.676   4.612   3.831
 2726SOL     OW 9076   4.372   6.299   2.587
 2726SOL    HW1 9077   4.310   6.330   2.660
 2726SOL    HW2 9078   4.463   6.285   2.625
 2727SOL     OW 9079   1.690   6.140   4.176
 2727SOL    HW1 9080   1.667   6.056   4.225
 2727SOL    HW2 9081   1.789   6.154   4.179
 2728SOL     OW 9082   2.777   6.981   5.168
 2728SOL    HW1 9083   2.741   0.051   5.192
 2728SOL    HW2 9084   2.705   6.913   5.182
 2729SOL     OW 9085   0.061   4.694   2.790
 2729SOL    HW1 9086   0.102   4.785   2.793
 2729SOL    HW2 9087   0.011   4.682   2.704
 2730SOL     OW 9088   1.445   4.686   1.137
 2730SOL    HW1 9089   1.520   4.709   1.075
 2730SOL    HW2 9090   1.412   4.594   1.117
 2731SOL     OW 9091   2.829   3.870   0.890
 2731SOL    HW1 9092   2.914   3.902   0.931
 2731SOL    HW2 9093   2.837   3.871   0.790
 2732SOL     OW 9094   5.386   3.223   4.272
 2732SOL    HW1 9095   5.309   3.229   4.336
 2732SOL    HW2 9096   5.409   3.315   4.239
 2733SOL     OW 9097   2.073   0.587   6.342
 2733SOL    HW1 9098   2.051   0.655   6.271
 2733SOL    HW2 9099   2.060   0.629   6.432
 2734SOL     OW 9100   1.959   0.094   4.417
 2734SOL    HW1 9101   1.976   0.016   4.357
 2734SOL    HW2 9102   1.925   0.171   4.364
 2735SOL     OW 9103   1.492   5.497   1.546
 2735SOL    HW1 9104   1.560   5.531   1.612
 2735SOL    HW2 9105   1.440   5.423   1.588
 2736SOL     OW 9106   4.232   6.915   6.518
 2736SOL    HW1 9107   4.185   6.829   6.497
 2736SOL    HW2 9108   4.306   6.896   6.583
 2737SOL     OW 9109   4.078   3.693   5.524
 2737SOL    HW1 9110   4.164   3.720   5.481
 2737SOL    HW2 9111   4.001   3.733   5.473
 2738SOL     OW 9112   6.128   4.143   4.229
 2738SOL    HW1 9113   6.109   4.240   4.235
 2738SOL    HW2 9114   6.227   4.127   4.234
 2739SOL     OW 9115   4.422   4.443   0.014
 2739SOL    HW1 9116   4.512   4.469   0.050
 2739SOL    HW2 9117   4.433   4.365   6.972
 2740SOL     OW 9118   6.272   2.705   4.414
 2740SOL    HW1 9119   6.255   2.712   4.316
 2740SOL    HW2 9120   6.216   2.631   4.453
 2741SOL     OW 9121   2.179   3.325   5.120
 2741SOL    HW1 9122   2.216   3.328   5.027
 2741SOL    HW2 9123   2.194   3.234   5.158
 2742SOL     OW 9124   2.748   6.197   5.474
 2742SOL    HW1 9125   2.845   6.192   5.451
 2742SOL    HW2 9126   2.723   6.122   5.534
 2743SOL     OW 9127   5.646   4.592   6.922
 2743SOL    HW1 9128   5.705   4.512   6.909
 2743SOL    HW2 9129   5.552   4.567   6.900
 2744SOL     OW 9130   4.815   6.674   0.236
 2744SOL    HW1 9131   4.892   6.735   0.254
 2744SOL    HW2 9132   4.840   6.607   0.166
 2745SOL     OW 9133   3.078   6.020   2.151
 2745SOL    HW1 9134   3.097   6.096   2.090
 2745SOL    HW2 9135   3.162   5.967   2.165
 2746SOL     OW 9136   1.015   2.040   6.419
 2746SOL    HW1 9137   0.923   2.060   6.384
 2746SOL    HW2 9138   1.008   1.997   6.509
 2747SOL     OW 9139   5.005   5.849   3.711
 2747SOL    HW1 9140   5.043   5.807   3.794
 2747SOL    HW2 9141   5.023   5.790   3.632
 2748SOL     OW 9142   5.638   1.335   5.100
 2748SOL    HW1 9143   5.642   1.305   5.196
 2748SOL    HW2 9144   5.648   1.434   5.096
 2749SOL     OW 9145   4.911   4.832   3.478
 2749SOL    HW1 9146   4.884   4.766   3.548
 2749SOL    HW2 9147   5.011   4.837   3.474
 2750SOL     OW 9148   1.287   6.641   0.528
 2750SOL    HW1 9149   1.217   6.628   0.458
 2750SOL    HW2 9150   1.365   6.581   0.509
 2751SOL     OW 9151   1.963   0.188   6.723
 2751SOL    HW1 9152   1.874   0.170   6.763
 2751SOL    HW2 9153   1.953   0.252   6.646
 2752SOL     OW 9154   0.890   6.472   6.243
 2752SOL    HW1 9155   0.979   6.488   6.284
 2752SOL    HW2 9156   0.818   6.503   6.305
 2753SOL     OW 9157   3.464   5.221   5.305
 2753SOL    HW1 9158   3.539   5.235   5.369
 2753SOL    HW2 9159   3.471   5.287   5.230
 2754SOL     OW 9160   0.940   6.131   4.312
 2754SOL    HW1 9161   1.025   6.083   4.337
 2754SOL    HW2 9162   0.917   6.111   4.217
 2755SOL     OW 9163   4.659   6.071   2.592
 2755SOL    HW1 9164   4.639   6.155   2.642
 2755SOL    HW2 9165   4.593   6.000   2.619
 2756SOL     OW 9166   0.419   2.867   5.194
 2756SOL    HW1 9167   0.427   2.768   5.181
 2756SOL    HW2 9168   0.369   2.885   5.279
 2757SOL     OW 9169   5.435   4.034   6.293
 2757SOL    HW1 9170   5.482   4.102   6.347
 2757SOL    HW2 9171   5.396   4.077   6.211
 2758SOL     OW 9172   0.204   6.444   1.351
 2758SOL    HW1 9173   0.194   6.366   1.411
 2758SOL    HW2 9174   0.226   6.413   1.258
 2759SOL     OW 9175   3.451   3.682   5.259
 2759SOL    HW1 9176   3.440   3.727   5.171
 2759SOL    HW2 9177   3.402   3.595   5.258
 2760SOL     OW 9178   5.296   5.274   2.415
 2760SOL    HW1 9179   5.358   5.196   2.420
 2760SOL    HW2 9180   5.348   5.359   2.416
 2761SOL     OW 9181   1.488   3.358   4.020
 2761SOL    HW1 9182   1.461   3.448   3.988
 2761SOL    HW2 9183   1.414   3.293   4.002
 2762SOL     OW 9184   4.536   1.459   1.887
 2762SOL    HW1 9185   4.620   1.411   1.863
 2762SOL    HW2 9186   4.485   1.406   1.955
 2763SOL     OW 9187   5.913   0.981   4.155
 2763SOL    HW1 9188   5.992   0.947   4.104
 2763SOL    HW2 9189   5.926   1.078   4.175
 2764SOL     OW 9190   6.888   2.889   3.522
 2764SOL    HW1 9191   6.901   2.850   3.613
 2764SOL    HW2 9192   6.894   2.817   3.453
 2765SOL     OW 9193   0.248   6.520   6.690
 2765SOL    HW1 9194   0.324   6.574   6.655
 2765SOL    HW2 9195   0.275   6.424   6.697
 2766SOL     OW 9196   4.876   0.132   0.274
 2766SOL    HW1 9197   4.808   0.206   0.274
 2766SOL    HW2 9198   4.968   0.170   0.269
 2767SOL     OW 9199   0.595   5.570   5.825
 2767SOL    HW1 9200   0.659   5.564   5.902
 2767SOL    HW2 9201   0.524   5.500   5.835
 2768SOL     OW 9202   3.911   6.296   1.514
 2768SOL    HW1 9203   3.997   6.244   1.514
 2768SOL    HW2 9204   3.880   6.309   1.608
 2769SOL     OW 9205   0.642   4.835   5.468
 2769SOL    HW1 9206   0.670   4.898   5.540
 2769SOL    HW2 9207   0.577   4.880   5.407
 2770SOL     OW 9208   2.566   6.688   0.455
 2770SOL    HW1 9209   2.560   6.787   0.461
 2770SOL    HW2 9210   2.482   6.647   0.493
 2771SOL     OW 9211   4.187   6.950   5.055
 2771SOL    HW1 9212   4.268   6.964   5.112
 2771SOL    HW2 9213   4.216   6.935   4.960
 2772SOL     OW 9214   5.413   2.040   3.613
 2772SOL    HW1 9215   5.369   1.992   3.690
 2772SOL    HW2 9216   5.349   2.107   3.575
 2773SOL     OW 9217   5.731   2.212   6.300
 2773SOL    HW1 9218   5.674   2.294   6.301
 2773SOL    HW2 9219   5.827   2.239   6.289
 2774SOL     OW 9220   6.954   0.514   4.169
 2774SOL    HW1 9221   6.968   0.426   4.213
 2774SOL    HW2 9222   6.886   0.567   4.220
 2775SOL     OW 9223   0.091   1.940   4.726
 2775SOL    HW1 9224   0.008   1.983   4.760
 2775SOL    HW2 9225   0.116   1.864   4.786
 2776SOL     OW 9226   4.473   4.010   6.153
 2776SOL    HW1 9227   4.452   4.075   6.225
 2776SOL    HW2 9228   4.482   4.058   6.066
 2777SOL     OW 9229   1.939   2.086   0.271
 2777SOL    HW1 9230   1.999   2.153   0.315
 2777SOL    HW2 9231   1.870   2.134   0.217
 2778SOL     OW 9232   3.493   0.139   5.548
 2778SOL    HW1 9233   3.532   0.196   5.476
 2778SOL    HW2 9234   3.533   0.165   5.636
 2779SOL     OW 9235   5.020   0.843   2.746
 2779SOL    HW1 9236   5.059   0.817   2.834
 2779SOL    HW2 9237   5.033   0.769   2.680
 2780SOL     OW 9238   0.623   1.280   4.618
 2780SOL    HW1 9239   0.608   1.192   4.572
 2780SOL    HW2 9240   0.705   1.273   4.675
 2781SOL     OW 9241   0.482   0.252   2.869
 2781SOL    HW1 9242   0.494   0.198   2.785
 2781SOL    HW2 9243   0.563   0.308   2.884
 2782SOL     OW 9244   5.496   6.947   5.098
 2782SOL    HW1 9245   5.535   6.989   5.179
 2782SOL    HW2 9246   5.397   6.941   5.108
 2783SOL     OW 9247   5.802   2.621   1.708
 2783SOL    HW1 9248   5.895   2.656   1.719
 2783SOL    HW2 9249   5.776   2.624   1.611
 2784SOL     OW 9250   0.311   2.734   1.969
 2784SOL    HW1 9251   0.348   2.797   2.037
 2784SOL    HW2 9252   0.309   2.779   1.879
 2785SOL     OW 9253   5.524   4.002   3.494
 2785SOL    HW1 9254   5.465   4.056   3.434
 2785SOL    HW2 9255   5.599   3.964   3.440
 2786SOL     OW 9256   0.054   5.788   0.695
 2786SOL    HW1 9257   7.018   5.712   0.726
 2786SOL    HW2 9258   0.127   5.805   0.760
 2787SOL     OW 9259   0.761   6.595   5.797
 2787SOL    HW1 9260   0.860   6.609   5.791
 2787SOL    HW2 9261   0.714   6.680   5.775
 2788SOL     OW 9262   2.915   6.479   0.282
 2788SOL    HW1 9263   2.898   6.509   0.376
 2788SOL    HW2 9264   2.945   6.384   0.282
 2789SOL     OW 9265   1.820   1.462   3.907
 2789SOL    HW1 9266   1.761   1.444   3.828
 2789SOL    HW2 9267   1.909   1.421   3.892
 2790SOL     OW 9268   6.711   5.461   1.390
 2790SOL    HW1 9269   6.713   5.362   1.398
 2790SOL    HW2 9270   6.805   5.496   1.392
 2791SOL     OW 9271   0.641   3.200   5.240
 2791SOL    HW1 9272   0.568   3.200   5.171
 2791SOL    HW2 9273   0.726   3.168   5.199
 2792SOL     OW 9274   3.223   2.362   6.106
 2792SOL    HW1 9275   3.216   2.311   6.020
 2792SOL    HW2 9276   3.318   2.366   6.135
 2793SOL     OW 9277   3.715   3.591   6.600
 2793SOL    HW1 9278   3.733   3.581   6.502
 2793SOL    HW2 9279   3.620   3.569   6.619
 2794SOL     OW 9280   1.953   1.739   6.888
 2794SOL    HW1 9281   1.956   1.659   6.947
 2794SOL    HW2 9282   1.896   1.810   6.931
 2795SOL     OW 9283   1.701   6.877   0.925
 2795SOL    HW1 9284   1.667   6.947   0.987
 2795SOL    HW2 9285   1.659   6.789   0.947
 2796SOL     OW 9286   3.074   6.050   6.860
 2796SOL    HW1 9287   3.007   6.110   6.904
 2796SOL    HW2 9288   3.152   6.038   6.921
 2797SOL     OW 9289   4.848   3.990   4.297
 2797SOL    HW1 9290   4.798   4.067   4.337
 2797SOL    HW2 9291   4.897   3.941   4.369
 2798SOL     OW 9292   5.247   2.380   1.928
 2798SOL    HW1 9293   5.276   2.467   1.970
 2798SOL    HW2 9294   5.308   2.307   1.958
 2799SOL     OW 9295   3.534   6.379   5.193
 2799SOL    HW1 9296   3.471   6.305   5.172
 2799SOL    HW2 9297   3.487   6.467   5.184
 2800SOL     OW 9298   5.076   1.575   6.772
 2800SOL    HW1 9299   5.019   1.577   6.854
 2800SOL    HW2 9300   5.021   1.542   6.695
 2801SOL     OW 9301   0.356   4.548   3.357
 2801SOL    HW1 9302   0.418   4.492   3.302
 2801SOL    HW2 9303   0.323   4.494   3.435
 2802SOL     OW 9304   1.267   4.821   4.575
 2802SOL    HW1 9305   1.358   4.805   4.613
 2802SOL    HW2 9306   1.260   4.777   4.486
 2803SOL     OW 9307   3.176   2.383   6.721
 2803SOL    HW1 9308   3.202   2.438   6.642
 2803SOL    HW2 9309   3.258   2.342   6.761
 2804SOL     OW 9310   6.220   2.724   4.137
 2804SOL    HW1 9311   6.155   2.781   4.086
 2804SOL    HW2 9312   6.187   2.630   4.140
 2805SOL     OW 9313   4.404   4.396   0.621
 2805SOL    HW1 9314   4.350   4.479   0.605
 2805SOL    HW2 9315   4.349   4.329   0.670
 2806SOL     OW 9316   0.430   3.324   4.749
 2806SOL    HW1 9317   0.399   3.383   4.823
 2806SOL    HW2 9318   0.396   3.231   4.763
 2807SOL     OW 9319   4.398   1.792   4.198
 2807SOL    HW1 9320   4.433   1.786   4.292
 2807SOL    HW2 9321   4.469   1.760   4.135
 2808SOL     OW 9322   1.258   6.222   6.369
 2808SOL    HW1 9323   1.275   6.126   6.347
 2808SOL    HW2 9324   1.161   6.243   6.354
 2809SOL     OW 9325   0.593   6.088   1.057
 2809SOL    HW1 9326   0.511   6.066   1.109
 2809SOL    HW2 9327   0.567   6.128   0.969
 2810SOL     OW 9328   0.619   6.346   2.573
 2810SOL    HW1 9329   0.610   6.263   2.519
 2810SOL    HW2 9330   0.675   6.329   2.653
 2811SOL     OW 9331   0.674   1.023   0.577
 2811SOL    HW1 9332   0.609   1.086   0.620
 2811SOL    HW2 9333   0.767   1.044   0.608
 2812SOL     OW 9334   1.971   1.216   1.049
 2812SOL    HW1 9335   1.873   1.226   1.065
 2812SOL    HW2 9336   2.007   1.144   1.108
 2813SOL     OW 9337   6.680   1.801   1.045
 2813SOL    HW1 9338   6.610   1.740   1.008
 2813SOL    HW2 9339   6.731   1.843   0.970
 2814SOL     OW 9340   2.525   4.138   6.960
 2814SOL    HW1 9341   2.612   4.105   6.996
 2814SOL    HW2 9342   2.540   4.181   6.871
 2815SOL     OW 9343   6.808   5.635   4.867
 2815SOL    HW1 9344   6.864   5.680   4.937
 2815SOL    HW2 9345   6.801   5.537   4.888
 2816SOL     OW 9346   1.137   4.980   4.762
 2816SOL    HW1 9347   1.165   4.931   4.680
 2816SOL    HW2 9348   1.178   4.935   4.842
 2817SOL     OW 9349   2.576   0.836   2.086
 2817SOL    HW1 9350   2.664   0.821   2.041
 2817SOL    HW2 9351   2.503   0.822   2.020
 2818SOL     OW 9352   1.659   0.878   0.586
 2818SOL    HW1 9353   1.719   0.958   0.586
 2818SOL    HW2 9354   1.711   0.797   0.611
 2819SOL     OW 9355   6.761   0.515   6.427
 2819SOL    HW1 9356   6.774   0.427   6.381
 2819SOL    HW2 9357   6.718   0.579   6.365
 2820SOL     OW 9358   2.039   1.725   0.334
 2820SOL    HW1 9359   2.051   1.805   0.275
 2820SOL    HW2 9360   2.128   1.697   0.371
 2821SOL     OW 9361   3.075   2.200   6.283
 2821SOL    HW1 9362   3.099   2.280   6.228
 2821SOL    HW2 9363   3.032   2.131   6.225
 2822SOL     OW 9364   4.203   2.878   1.317
 2822SOL    HW1 9365   4.214   2.852   1.413
 2822SOL    HW2 9366   4.290   2.914   1.282
 2823SOL     OW 9367   5.933   3.969   2.439
 2823SOL    HW1 9368   5.917   3.875   2.409
 2823SOL    HW2 9369   5.917   3.976   2.537
 2824SOL     OW 9370   0.576   4.687   5.113
 2824SOL    HW1 9371   0.543   4.664   5.021
 2824SOL    HW2 9372   0.513   4.649   5.181
 2825SOL     OW 9373   5.168   2.006   5.847
 2825SOL    HW1 9374   5.262   2.040   5.851
 2825SOL    HW2 9375   5.170   1.907   5.830
 2826SOL     OW 9376   2.832   3.329   6.814
 2826SOL    HW1 9377   2.800   3.273   6.890
 2826SOL    HW2 9378   2.760   3.392   6.786
 2827SOL     OW 9379   6.592   1.707   7.008
 2827SOL    HW1 9380   6.537   1.712   0.071
 2827SOL    HW2 9381   6.558   1.633   6.950
 2828SOL     OW 9382   1.539   4.037   0.266
 2828SOL    HW1 9383   1.580   4.128   0.264
 2828SOL    HW2 9384   1.448   4.042   0.306
 2829SOL     OW 9385   3.333   3.985   1.757
 2829SOL    HW1 9386   3.254   3.976   1.817
 2829SOL    HW2 9387   3.413   3.944   1.801
 2830SOL     OW 9388   3.096   5.532   4.270
 2830SOL    HW1 9389   3.157   5.609   4.290
 2830SOL    HW2 9390   3.003   5.554   4.299
 2831SOL     OW 9391   6.556   1.252   1.822
 2831SOL    HW1 9392   6.504   1.281   1.903
 2831SOL    HW2 9393   6.523   1.303   1.742
 2832SOL     OW 9394   1.307   3.971   1.743
 2832SOL    HW1 9395   1.389   3.913   1.748
 2832SOL    HW2 9396   1.309   4.038   1.817
 2833SOL     OW 9397   6.534   3.311   3.567
 2833SOL    HW1 9398   6.543   3.372   3.489
 2833SOL    HW2 9399   6.597   3.234   3.557
 2834SOL     OW 9400   2.977   0.430   4.583
 2834SOL    HW1 9401   2.957   0.528   4.594
 2834SOL    HW2 9402   2.961   0.403   4.488
 2835SOL     OW 9403   6.986   0.973   0.008
 2835SOL    HW1 9404   7.019   0.969   0.103
 2835SOL    HW2 9405   6.957   1.067   7.008
 2836SOL     OW 9406   3.170   5.620   1.477
 2836SOL    HW1 9407   3.197   5.582   1.389
 2836SOL    HW2 9408   3.099   5.690   1.463
 2837SOL     OW 9409   5.769   3.779   2.319
 2837SOL    HW1 9410   5.717   3.820   2.395
 2837SOL    HW2 9411   5.727   3.806   2.232
 2838SOL     OW 9412   0.058   3.711   5.932
 2838SOL    HW1 9413   0.065   3.708   5.832
 2838SOL    HW2 9414   0.137   3.760   5.970
 2839SOL     OW 9415   5.740   2.962   5.835
 2839SOL    HW1 9416   5.823   3.018   5.826
 2839SOL    HW2 9417   5.687   2.996   5.913
 2840SOL     OW 9418   6.256   6.609   5.002
 2840SOL    HW1 9419   6.248   6.517   4.966
 2840SOL    HW2 9420   6.216   6.613   5.093
 2841SOL     OW 9421   5.645   3.785   2.794
 2841SOL    HW1 9422   5.617   3.693   2.823
 2841SOL    HW2 9423   5.647   3.845   2.874
 2842SOL     OW 9424   0.722   6.789   3.659
 2842SOL    HW1 9425   0.673   6.800   3.573
 2842SOL    HW2 9426   0.671   6.728   3.719
 2843SOL     OW 9427   1.119   3.401   4.507
 2843SOL    HW1 9428   1.038   3.404   4.565
 2843SOL    HW2 9429   1.108   3.463   4.430
 2844SOL     OW 9430   5.458   4.162   0.420
 2844SOL    HW1 9431   5.429   4.111   0.339
 2844SOL    HW2 9432   5.555   4.184   0.412
 2845SOL     OW 9433   3.887   1.864   1.434
 2845SOL    HW1 9434   3.791   1.839   1.451
 2845SOL    HW2 9435   3.928   1.797   1.373
 2846SOL     OW 9436   4.823   6.853   6.988
 2846SOL    HW1 9437   4.829   6.861   0.067
 2846SOL    HW2 9438   4.836   6.758   6.962
 2847SOL     OW 9439   5.255   4.701   2.210
 2847SOL    HW1 9440   5.273   4.744   2.298
 2847SOL    HW2 9441   5.284   4.762   2.136
 2848SOL     OW 9442   0.531   3.452   6.871
 2848SOL    HW1 9443   0.459   3.522   6.863
 2848SOL    HW2 9444   0.489   3.365   6.897
 2849SOL     OW 9445   5.386   0.829   1.636
 2849SOL    HW1 9446   5.316   0.818   1.566
 2849SOL    HW2 9447   5.364   0.907   1.694
 2850SOL     OW 9448   0.810   1.013   0.922
 2850SOL    HW1 9449   0.764   0.927   0.901
 2850SOL    HW2 9450   0.743   1.082   0.950
 2851SOL     OW 9451   3.628   3.577   1.780
 2851SOL    HW1 9452   3.528   3.581   1.781
 2851SOL    HW2 9453   3.664   3.626   1.860
 2852SOL     OW 9454   0.586   5.188   4.769
 2852SOL    HW1 9455   0.561   5.277   4.732
 2852SOL    HW2 9456   0.610   5.196   4.865
 2853SOL     OW 9457   0.170   4.738   5.567
 2853SOL    HW1 9458   0.094   4.732   5.502
 2853SOL    HW2 9459   0.164   4.661   5.631
 2854SOL     OW 9460   3.094   0.404   6.839
 2854SOL    HW1 9461   3.003   0.444   6.849
 2854SOL    HW2 9462   3.162   0.477   6.838
 2855SOL     OW 9463   2.030   2.138   4.176
 2855SOL    HW1 9464   2.028   2.181   4.086
 2855SOL    HW2 9465   2.111   2.080   4.184
 2856SOL     OW 9466   1.292   5.878   4.962
 2856SOL    HW1 9467   1.366   5.918   5.015
 2856SOL    HW2 9468   1.309   5.779   4.952
 2857SOL     OW 9469   0.307   4.385   0.642
 2857SOL    HW1 9470   0.273   4.293   0.620
 2857SOL    HW2 9471   0.333   4.432   0.558
 2858SOL     OW 9472   5.463   4.542   3.697
 2858SOL    HW1 9473   5.448   4.506   3.788
 2858SOL    HW2 9474   5.556   4.521   3.667
 2859SOL     OW 9475   6.260   4.886   2.195
 2859SOL    HW1 9476   6.270   4.971   2.143
 2859SOL    HW2 9477   6.296   4.810   2.141
 2860SOL     OW 9478   1.344   6.625   3.490
 2860SOL    HW1 9479   1.326   6.722   3.505
 2860SOL    HW2 9480   1.414   6.615   3.419
 2861SOL     OW 9481   5.279   3.551   5.129
 2861SOL    HW1 9482   5.293   3.580   5.034
 2861SOL    HW2 9483   5.183   3.562   5.154
 2862SOL     OW 9484   4.569   0.601   0.108
 2862SOL    HW1 9485   4.506   0.535   0.066
 2862SOL    HW2 9486   4.618   0.650   0.036
 2863SOL     OW 9487   5.585   1.688   5.788
 2863SOL    HW1 9488   5.493   1.662   5.758
 2863SOL    HW2 9489   5.580   1.725   5.880
 2864SOL     OW 9490   4.212   4.508   1.069
 2864SOL    HW1 9491   4.173   4.442   1.133
 2864SOL    HW2 9492   4.305   4.481   1.044
 2865SOL     OW 9493   5.534   5.161   6.066
 2865SOL    HW1 9494   5.592   5.113   6.132
 2865SOL    HW2 9495   5.493   5.094   6.003
 2866SOL     OW 9496   3.872   5.592   0.685
 2866SOL    HW1 9497   3.966   5.570   0.708
 2866SOL    HW2 9498   3.867   5.624   0.590
 2867SOL     OW 9499   0.361   6.418   2.864
 2867SOL    HW1 9500   0.288   6.487   2.872
 2867SOL    HW2 9501   0.353   6.372   2.776
 2868SOL     OW 9502   6.813   6.812   5.530
 2868SOL    HW1 9503   6.820   6.713   5.520
 2868SOL    HW2 9504   6.904   6.852   5.537
 2869SOL     OW 9505   5.126   5.022   5.189
 2869SOL    HW1 9506   5.130   5.119   5.215
 2869SOL    HW2 9507   5.143   5.013   5.091
 2870SOL     OW 9508   0.682   1.180   1.276
 2870SOL    HW1 9509   0.626   1.236   1.337
 2870SOL    HW2 9510   0.644   1.087   1.271
 2871SOL     OW 9511   4.644   1.308   3.503
 2871SOL    HW1 9512   4.607   1.301   3.596
 2871SOL    HW2 9513   4.610   1.392   3.461
 2872SOL     OW 9514   3.600   1.826   2.694
 2872SOL    HW1 9515   3.532   1.801   2.763
 2872SOL    HW2 9516   3.554   1.845   2.607
 2873SOL     OW 9517   0.855   0.049   2.709
 2873SOL    HW1 9518   0.854   6.971   2.691
 2873SOL    HW2 9519   0.819   0.098   2.629
 2874SOL     OW 9520   1.785   0.717   3.272
 2874SOL    HW1 9521   1.746   0.739   3.361
 2874SOL    HW2 9522   1.835   0.797   3.237
 2875SOL     OW 9523   2.426   0.309   2.914
 2875SOL    HW1 9524   2.463   0.217   2.900
 2875SOL    HW2 9525   2.500   0.376   2.907
 2876SOL     OW 9526   0.687   6.817   0.951
 2876SOL    HW1 9527   0.786   6.807   0.943
 2876SOL    HW2 9528   0.653   6.762   1.027
 2877SOL     OW 9529   1.271   3.418   6.036
 2877SOL    HW1 9530   1.354   3.450   6.083
 2877SOL    HW2 9531   1.191   3.445   6.089
 2878SOL     OW 9532   3.133   3.053   4.446
 2878SOL    HW1 9533   3.042   3.088   4.421
 2878SOL    HW2 9534   3.189   3.129   4.479
 2879SOL     OW 9535   5.749   5.430   0.335
 2879SOL    HW1 9536   5.678   5.495   0.361
 2879SOL    HW2 9537   5.809   5.413   0.414
 2880SOL     OW 9538   1.368   1.525   2.829
 2880SOL    HW1 9539   1.461   1.492   2.847
 2880SOL    HW2 9540   1.305   1.483   2.894
 2881SOL     OW 9541   5.141   5.081   0.054
 2881SOL    HW1 9542   5.124   5.158   7.013
 2881SOL    HW2 9543   5.173   5.003   0.001
 2882SOL     OW 9544   4.622   6.509   6.900
 2882SOL    HW1 9545   4.656   6.523   6.807
 2882SOL    HW2 9546   4.561   6.584   6.925
 2883SOL     OW 9547   5.334   6.221   3.089
 2883SOL    HW1 9548   5.403   6.152   3.067
 2883SOL    HW2 9549   5.272   6.232   3.011
 2884SOL     OW 9550   6.165   5.712   3.468
 2884SOL    HW1 9551   6.148   5.633   3.526
 2884SOL    HW2 9552   6.089   5.775   3.474
 2885SOL     OW 9553   0.361   3.809   3.447
 2885SOL    HW1 9554   0.335   3.780   3.539
 2885SOL    HW2 9555   0.363   3.730   3.386
 2886SOL     OW 9556   2.314   4.264   4.752
 2886SOL    HW1 9557   2.278   4.224   4.668
 2886SOL    HW2 9558   2.303   4.198   4.827
 2887SOL     OW 9559   7.015   5.195   2.714
 2887SOL    HW1 9560   0.040   5.141   2.643
 2887SOL    HW2 9561   0.037   5.176   2.802
 2888SOL     OW 9562   4.471   6.180   6.400
 2888SOL    HW1 9563   4.549   6.219   6.352
 2888SOL    HW2 9564   4.484   6.190   6.499
 2889SOL     OW 9565   3.926   5.948   4.639
 2889SOL    HW1 9566   3.932   5.868   4.580
 2889SOL    HW2 9567   4.003   5.949   4.702
 2890SOL     OW 9568   1.961   2.450   0.406
 2890SOL    HW1 9569   1.902   2.450   0.487
 2890SOL    HW2 9570   1.907   2.476   0.326
 2891SOL     OW 9571   1.003   1.407   5.437
 2891SOL    HW1 9572   1.058   1.491   5.435
 2891SOL    HW2 9573   0.916   1.425   5.482
 2892SOL     OW 9574   5.510   4.266   1.872
 2892SOL    HW1 9575   5.588   4.326   1.888
 2892SOL    HW2 9576   5.426   4.321   1.862
 2893SOL     OW 9577   6.369   5.798   5.357
 2893SOL    HW1 9578   6.405   5.785   5.265
 2893SOL    HW2 9579   6.441   5.837   5.415
 2894SOL     OW 9580   1.479   5.515   0.939
 2894SOL    HW1 9581   1.570   5.503   0.899
 2894SOL    HW2 9582   1.465   5.450   1.013
 2895SOL     OW 9583   4.863   6.908   6.270
 2895SOL    HW1 9584   4.823   6.936   6.357
 2895SOL    HW2 9585   4.810   6.947   6.195
 2896SOL     OW 9586   6.541   0.433   5.665
 2896SOL    HW1 9587   6.460   0.439   5.606
 2896SOL    HW2 9588   6.578   0.340   5.661
 2897SOL     OW 9589   3.633   5.974   3.624
 2897SOL    HW1 9590   3.690   5.933   3.552
 2897SOL    HW2 9591   3.549   5.921   3.634
 2898SOL     OW 9592   5.207   2.783   3.160
 2898SOL    HW1 9593   5.280   2.716   3.148
 2898SOL    HW2 9594   5.118   2.738   3.153
 2899SOL     OW 9595   6.383   2.727   1.277
 2899SOL    HW1 9596   6.313   2.679   1.330
 2899SOL    HW2 9597   6.350   2.741   1.183
 2900SOL     OW 9598   2.908   2.921   5.370
 2900SOL    HW1 9599   2.932   2.927   5.466
 2900SOL    HW2 9600   2.976   2.866   5.322
 2901SOL     OW 9601   1.545   3.832   1.712
 2901SOL    HW1 9602   1.518   3.796   1.623
 2901SOL    HW2 9603   1.579   3.758   1.770
 2902SOL     OW 9604   5.339   6.103   3.342
 2902SOL    HW1 9605   5.339   6.169   3.267
 2902SOL    HW2 9606   5.298   6.145   3.423
 2903SOL     OW 9607   0.600   5.444   1.133
 2903SOL    HW1 9608   0.578   5.432   1.230
 2903SOL    HW2 9609   0.682   5.501   1.125
 2904SOL     OW 9610   2.737   4.700   4.745
 2904SOL    HW1 9611   2.736   4.798   4.728
 2904SOL    HW2 9612   2.807   4.678   4.813
 2905SOL     OW 9613   1.093   5.076   1.317
 2905SOL    HW1 9614   1.027   5.082   1.242
 2905SOL    HW2 9615   1.180   5.040   1.282
 2906SOL     OW 9616   7.005   6.128   6.098
 2906SOL    HW1 9617   6.998   6.168   6.189
 2906SOL    HW2 9618   6.936   6.169   6.038
 2907SOL     OW 9619   6.635   1.174   5.788
 2907SOL    HW1 9620   6.562   1.169   5.720
 2907SOL    HW2 9621   6.641   1.267   5.824
 2908SOL     OW 9622   4.291   6.330   4.030
 2908SOL    HW1 9623   4.361   6.316   3.960
 2908SOL    HW2 9624   4.208   6.280   4.004
 2909SOL     OW 9625   0.075   6.857   1.691
 2909SOL    HW1 9626   0.113   6.771   1.724
 2909SOL    HW2 9627   0.145   6.907   1.641
 2910SOL     OW 9628   1.127   0.992   4.295
 2910SOL    HW1 9629   1.150   0.898   4.269
 2910SOL    HW2 9630   1.096   0.994   4.390
 2911SOL     OW 9631   6.525   3.838   4.187
 2911SOL    HW1 9632   6.611   3.884   4.163
 2911SOL    HW2 9633   6.532   3.741   4.164
 2912SOL     OW 9634   0.704   1.446   2.087
 2912SOL    HW1 9635   0.625   1.386   2.095
 2912SOL    HW2 9636   0.701   1.494   1.999
 2913SOL     OW 9637   0.911   6.361   3.907
 2913SOL    HW1 9638   0.948   6.434   3.850
 2913SOL    HW2 9639   0.846   6.307   3.854
 2914SOL     OW 9640   3.634   4.135   1.120
 2914SOL    HW1 9641   3.557   4.146   1.183
 2914SOL    HW2 9642   3.661   4.039   1.117
 2915SOL     OW 9643   1.867   1.055   4.131
 2915SOL    HW1 9644   1.952   1.018   4.094
 2915SOL    HW2 9645   1.875   1.154   4.139
 2916SOL     OW 9646   0.290   5.445   6.505
 2916SOL    HW1 9647   0.224   5.519   6.491
 2916SOL    HW2 9648   0.369   5.460   6.445
 2917SOL     OW 9649   2.281   0.414   3.435
 2917SOL    HW1 9650   2.276   0.435   3.338
 2917SOL    HW2 9651   2.270   0.499   3.488
 2918SOL     OW 9652   5.039   2.385   1.200
 2918SOL    HW1 9653   4.954   2.433   1.180
 2918SOL    HW2 9654   5.054   2.313   1.132
 2919SOL     OW 9655   1.262   6.393   5.033
 2919SOL    HW1 9656   1.276   6.308   5.084
 2919SOL    HW2 9657   1.164   6.414   5.030
 2920SOL     OW 9658   2.645   2.413   1.906
 2920SOL    HW1 9659   2.744   2.401   1.897
 2920SOL    HW2 9660   2.623   2.437   2.001
 2921SOL     OW 9661   0.457   5.448   3.331
 2921SOL    HW1 9662   0.515   5.491   3.401
 2921SOL    HW2 9663   0.387   5.512   3.302
 2922SOL     OW 9664   3.888   5.079   3.338
 2922SOL    HW1 9665   3.897   4.980   3.326
 2922SOL    HW2 9666   3.792   5.105   3.325
 2923SOL     OW 9667   1.748   5.658   4.461
 2923SOL    HW1 9668   1.784   5.721   4.393
 2923SOL    HW2 9669   1.691   5.707   4.526
 2924SOL     OW 9670   5.504   1.589   6.521
 2924SOL    HW1 9671   5.448   1.608   6.602
 2924SOL    HW2 9672   5.532   1.493   6.522
 2925SOL     OW 9673   5.547   0.044   4.695
 2925SOL    HW1 9674   5.522   0.083   4.784
 2925SOL    HW2 9675   5.548   6.965   4.702
 2926SOL     OW 9676   6.143   3.249   4.667
 2926SOL    HW1 9677   6.125   3.166   4.720
 2926SOL    HW2 9678   6.238   3.248   4.635
 2927SOL     OW 9679   1.163   2.497   2.449
 2927SOL    HW1 9680   1.196   2.464   2.360
 2927SOL    HW2 9681   1.114   2.583   2.436
 2928SOL     OW 9682   5.167   4.467   0.769
 2928SOL    HW1 9683   5.151   4.460   0.867
 2928SOL    HW2 9684   5.196   4.378   0.733
 2929SOL     OW 9685   2.179   1.856   3.299
 2929SOL    HW1 9686   2.272   1.892   3.292
 2929SOL    HW2 9687   2.179   1.778   3.361
 2930SOL     OW 9688   0.624   3.270   4.240
 2930SOL    HW1 9689   0.530   3.266   4.274
 2930SOL    HW2 9690   0.672   3.346   4.284
 2931SOL     OW 9691   6.584   4.376   6.207
 2931SOL    HW1 9692   6.535   4.290   6.220
 2931SOL    HW2 9693   6.683   4.358   6.205
 2932SOL     OW 9694   6.291   5.826   1.025
 2932SOL    HW1 9695   6.376   5.851   1.071
 2932SOL    HW2 9696   6.219   5.890   1.052
 2933SOL     OW 9697   0.896   6.948   0.191
 2933SOL    HW1 9698   0.937   6.957   0.282
 2933SOL    HW2 9699   0.837   0.007   0.173
 2934SOL     OW 9700   5.732   5.138   1.917
 2934SOL    HW1 9701   5.802   5.208   1.907
 2934SOL    HW2 9702   5.751   5.062   1.854
 2935SOL     OW 9703   0.916   3.838   5.596
 2935SOL    HW1 9704   0.943   3.812   5.688
 2935SOL    HW2 9705   0.817   3.823   5.585
 2936SOL     OW 9706   4.009   5.734   2.046
 2936SOL    HW1 9707   4.033   5.828   2.021
 2936SOL    HW2 9708   4.049   5.671   1.979
 2937SOL     OW 9709   6.125   3.829   3.099
 2937SOL    HW1 9710   6.030   3.809   3.122
 2937SOL    HW2 9711   6.154   3.770   3.024
 2938SOL     OW 9712   0.433   5.372   0.692
 2938SOL    HW1 9713   0.348   5.323   0.675
 2938SOL    HW2 9714   0.420   5.435   0.769
 2939SOL     OW 9715   6.263   6.643   1.557
 2939SOL    HW1 9716   6.226   6.571   1.498
 2939SOL    HW2 9717   6.294   6.602   1.643
 2940SOL     OW 9718   4.640   6.488   4.142
 2940SOL    HW1 9719   4.731   6.458   4.112
 2940SOL    HW2 9720   4.630   6.471   4.240
 2941SOL     OW 9721   2.729   5.118   2.854
 2941SOL    HW1 9722   2.807   5.181   2.851
 2941SOL    HW2 9723   2.750   5.036   2.800
 2942SOL     OW 9724   3.480   2.099   1.570
 2942SOL    HW1 9725   3.472   2.189   1.612
 2942SOL    HW2 9726   3.576   2.077   1.556
 2943SOL     OW 9727   0.405   3.883   3.752
 2943SOL    HW1 9728   0.490   3.928   3.778
 2943SOL    HW2 9729   0.338   3.952   3.724
 2944SOL     OW 9730   0.633   6.021   3.147
 2944SOL    HW1 9731   0.694   6.001   3.070
 2944SOL    HW2 9732   0.586   5.937   3.174
 2945SOL     OW 9733   5.925   3.819   0.706
 2945SOL    HW1 9734   5.980   3.873   0.770
 2945SOL    HW2 9735   5.835   3.863   0.695
 2946SOL     OW 9736   3.399   3.754   4.159
 2946SOL    HW1 9737   3.401   3.768   4.258
 2946SOL    HW2 9738   3.484   3.710   4.130
 2947SOL     OW 9739   6.105   5.387   6.711
 2947SOL    HW1 9740   6.075   5.482   6.708
 2947SOL    HW2 9741   6.053   5.337   6.780
 2948SOL     OW 9742   6.391   4.161   0.763
 2948SOL    HW1 9743   6.380   4.085   0.699
 2948SOL    HW2 9744   6.435   4.237   0.717
 2949SOL     OW 9745   1.482   6.274   1.102
 2949SOL    HW1 9746   1.388   6.277   1.068
 2949SOL    HW2 9747   1.538   6.339   1.049
 2950SOL     OW 9748   5.675   5.172   2.551
 2950SOL    HW1 9749   5.691   5.218   2.638
 2950SOL    HW2 9750   5.699   5.075   2.560
 2951SOL     OW 9751   0.736   2.174   1.177
 2951SOL    HW1 9752   0.774   2.265   1.164
 2951SOL    HW2 9753   0.768   2.113   1.105
 2952SOL     OW 9754   0.433   1.576   4.416
 2952SOL    HW1 9755   0.503   1.647   4.427
 2952SOL    HW2 9756   0.368   1.603   4.345
 2953SOL     OW 9757   1.462   5.708   2.990
 2953SOL    HW1 9758   1.537   5.695   3.054
 2953SOL    HW2 9759   1.405   5.626   2.987
 2954SOL     OW 9760   0.877   4.177   6.001
 2954SOL    HW1 9761   0.817   4.244   5.958
 2954SOL    HW2 9762   0.969   4.183   5.961
 2955SOL     OW 9763   1.658   4.635   6.591
 2955SOL    HW1 9764   1.668   4.728   6.627
 2955SOL    HW2 9765   1.574   4.629   6.538
 2956SOL     OW 9766   5.670   4.238   4.418
 2956SOL    HW1 9767   5.717   4.158   4.455
 2956SOL    HW2 9768   5.736   4.301   4.378
 2957SOL     OW 9769   1.421   5.295   2.646
 2957SOL    HW1 9770   1.439   5.200   2.672
 2957SOL    HW2 9771   1.479   5.356   2.701
 2958SOL     OW 9772   1.592   4.561   1.713
 2958SOL    HW1 9773   1.545   4.486   1.760
 2958SOL    HW2 9774   1.591   4.544   1.615
 2959SOL     OW 9775   0.194   4.530   3.818
 2959SOL    HW1 9776   0.120   4.587   3.853
 2959SOL    HW2 9777   0.156   4.453   3.766
 2960SOL     OW 9778   4.758   6.240   0.932
 2960SOL    HW1 9779   4.765   6.149   0.891
 2960SOL    HW2 9780   4.664   6.272   0.927
 2961SOL     OW 9781   5.913   2.332   1.880
 2961SOL    HW1 9782   5.897   2.326   1.979
 2961SOL    HW2 9783   5.842   2.281   1.832
 2962SOL     OW 9784   6.883   6.921   4.090
 2962SOL    HW1 9785   6.981   6.905   4.081
 2962SOL    HW2 9786   6.855   6.994   4.028
 2963SOL     OW 9787   1.893   1.343   5.487
 2963SOL    HW1 9788   1.861   1.435   5.505
 2963SOL    HW2 9789   1.855   1.280   5.555
 2964SOL     OW 9790   1.554   0.284   6.527
 2964SOL    HW1 9791   1.470   0.295   6.473
 2964SOL    HW2 9792   1.623   0.237   6.472
 2965SOL     OW 9793   5.972   0.470   6.307
 2965SOL    HW1 9794   6.062   0.432   6.326
 2965SOL    HW2 9795   5.981   0.565   6.275
 2966SOL     OW 9796   3.689   5.907   2.829
 2966SOL    HW1 9797   3.664   5.837   2.896
 2966SOL    HW2 9798   3.618   5.978   2.827
 2967SOL     OW 9799   5.527   6.819   4.865
 2967SOL    HW1 9800   5.526   6.878   4.946
 2967SOL    HW2 9801   5.622   6.800   4.839
 2968SOL     OW 9802   1.228   4.174   1.582
 2968SOL    HW1 9803   1.250   4.089   1.630
 2968SOL    HW2 9804   1.131   4.175   1.558
 2969SOL     OW 9805   4.580   2.631   4.571
 2969SOL    HW1 9806   4.606   2.623   4.475
 2969SOL    HW2 9807   4.502   2.571   4.589
 2970SOL     OW 9808   2.540   2.209   5.605
 2970SOL    HW1 9809   2.494   2.137   5.657
 2970SOL    HW2 9810   2.637   2.212   5.631
 2971SOL     OW 9811   4.349   3.785   6.525
 2971SOL    HW1 9812   4.419   3.715   6.538
 2971SOL    HW2 9813   4.314   3.780   6.431
 2972SOL     OW 9814   0.514   5.952   6.438
 2972SOL    HW1 9815   0.452   5.887   6.481
 2972SOL    HW2 9816   0.491   5.963   6.342
 2973SOL     OW 9817   5.477   0.762   4.288
 2973SOL    HW1 9818   5.487   0.745   4.386
 2973SOL    HW2 9819   5.558   0.812   4.256
 2974SOL     OW 9820   5.551   6.000   2.493
 2974SOL    HW1 9821   5.626   6.066   2.483
 2974SOL    HW2 9822   5.544   5.946   2.409
 2975SOL     OW 9823   6.725   3.501   4.505
 2975SOL    HW1 9824   6.716   3.597   4.532
 2975SOL    HW2 9825   6.780   3.495   4.422
 2976SOL     OW 9826   3.912   0.445   1.548
 2976SOL    HW1 9827   3.851   0.500   1.490
 2976SOL    HW2 9828   3.909   0.479   1.642
 2977SOL     OW 9829   1.700   1.204   2.224
 2977SOL    HW1 9830   1.747   1.195   2.312
 2977SOL    HW2 9831   1.607   1.236   2.240
 2978SOL     OW 9832   3.806   6.053   0.376
 2978SOL    HW1 9833   3.713   6.058   0.340
 2978SOL    HW2 9834   3.871   6.058   0.301
 2979SOL     OW 9835   2.395   1.219   5.622
 2979SOL    HW1 9836   2.325   1.249   5.557
 2979SOL    HW2 9837   2.483   1.213   5.575
 2980SOL     OW 9838   3.575   2.935   3.861
 2980SOL    HW1 9839   3.612   2.935   3.954
 2980SOL    HW2 9840   3.475   2.934   3.865
 2981SOL     OW 9841   3.084   1.982   1.730
 2981SOL    HW1 9842   2.985   1.991   1.745
 2981SOL    HW2 9843   3.122   2.070   1.704
 2982SOL     OW 9844   1.655   0.752   1.436
 2982SOL    HW1 9845   1.755   0.761   1.433
 2982SOL    HW2 9846   1.625   0.749   1.531
 2983SOL     OW 9847   6.547   2.876   6.617
 2983SOL    HW1 9848   6.500   2.815   6.681
 2983SOL    HW2 9849   6.627   2.915   6.661
 2984SOL     OW 9850   0.469   6.266   1.340
 2984SOL    HW1 9851   0.410   6.185   1.337
 2984SOL    HW2 9852   0.461   6.316   1.253
 2985SOL     OW 9853   6.623   0.184   5.685
 2985SOL    HW1 9854   6.649   0.145   5.596
 2985SOL    HW2 9855   6.539   0.140   5.717
 2986SOL     OW 9856   3.712   3.389   2.847
 2986SOL    HW1 9857   3.626   3.342   2.868
 2986SOL    HW2 9858   3.778   3.372   2.919
 2987SOL     OW 9859   2.266   5.585   5.067
 2987SOL    HW1 9860   2.179   5.634   5.070
 2987SOL    HW2 9861   2.309   5.587   5.157
 2988SOL     OW 9862   0.638   1.145   6.725
 2988SOL    HW1 9863   0.604   1.055   6.698
 2988SOL    HW2 9864   0.663   1.197   6.643
 2989SOL     OW 9865   5.524   3.888   5.829
 2989SOL    HW1 9866   5.484   3.978   5.847
 2989SOL    HW2 9867   5.623   3.893   5.838
 2990SOL     OW 9868   4.829   1.029   5.620
 2990SOL    HW1 9869   4.734   1.022   5.651
 2990SOL    HW2 9870   4.890   0.990   5.689
 2991SOL     OW 9871   6.432   2.487   0.209
 2991SOL    HW1 9872   6.425   2.548   0.287
 2991SOL    HW2 9873   6.358   2.420   0.212
 2992SOL     OW 9874   0.994   4.142   5.152
 2992SOL    HW1 9875   0.968   4.074   5.221
 2992SOL    HW2 9876   0.915   4.162   5.094
 2993SOL     OW 9877   3.308   5.076   0.159
 2993SOL    HW1 9878   3.314   5.161   0.107
 2993SOL    HW2 9879   3.307   4.999   0.096
 2994SOL     OW 9880   2.421   5.125   4.989
 2994SOL    HW1 9881   2.364   5.169   5.059
 2994SOL    HW2 9882   2.515   5.158   4.996
 2995SOL     OW 9883   4.988   0.135   1.719
 2995SOL    HW1 9884   5.052   0.211   1.725
 2995SOL    HW2 9885   5.034   0.054   1.683
 2996SOL     OW 9886   6.774   1.002   4.205
 2996SOL    HW1 9887   6.855   1.053   4.232
 2996SOL    HW2 9888   6.707   1.003   4.279
 2997SOL     OW 9889   4.823   5.873   4.159
 2997SOL    HW1 9890   4.915   5.858   4.196
 2997SOL    HW2 9891   4.756   5.827   4.219
 2998SOL     OW 9892   2.514   0.153   2.202
 2998SOL    HW1 9893   2.470   0.137   2.290
 2998SOL    HW2 9894   2.578   0.078   2.182
 2999SOL     OW 9895   1.818   4.842   0.225
 2999SOL    HW1 9896   1.790   4.760   0.274
 2999SOL    HW2 9897   1.781   4.840   0.133
 3000SOL     OW 9898   2.171   4.003   6.371
 3000SOL    HW1 9899   2.229   4.050   6.437
 3000SOL    HW2 9900   2.121   3.930   6.417
 3001SOL     OW 9901   3.810   0.892   6.438
 3001SOL    HW1 9902   3.723   0.939   6.423
 3001SOL    HW2 9903   3.819   0.818   6.371
 3002SOL     OW 9904   1.203   2.192   2.184
 3002SOL    HW1 9905   1.188   2.103   2.141
 3002SOL    HW2 9906   1.223   2.179   2.281
 3003SOL     OW 9907   0.956   5.926   0.682
 3003SOL    HW1 9908   0.910   5.898   0.598
 3003SOL    HW2 9909   1.025   5.858   0.707
 3004SOL     OW 9910   3.304   6.827   4.503
 3004SOL    HW1 9911   3.239   6.797   4.432
 3004SOL    HW2 9912   3.317   6.926   4.497
 3005SOL     OW 9913   2.474   2.186   0.801
 3005SOL    HW1 9914   2.384   2.229   0.812
 3005SOL    HW2 9915   2.477   2.101   0.854
 3006SOL     OW 9916   5.533   1.198   5.878
 3006SOL    HW1 9917   5.568   1.116   5.833
 3006SOL    HW2 9918   5.433   1.190   5.888
 3007SOL     OW 9919   6.216   5.903   5.974
 3007SOL    HW1 9920   6.229   5.997   6.006
 3007SOL    HW2 9921   6.137   5.900   5.912
 3008SOL     OW 9922   5.429   4.261   5.699
 3008SOL    HW1 9923   5.476   4.333   5.750
 3008SOL    HW2 9924   5.353   4.301   5.648
 3009SOL     OW 9925   5.363   3.272   2.048
 3009SOL    HW1 9926   5.379   3.235   1.957
 3009SOL    HW2 9927   5.361   3.372   2.043
 3010SOL     OW 9928   4.169   4.838   1.564
 3010SOL    HW1 9929   4.141   4.792   1.648
 3010SOL    HW2 9930   4.264   4.866   1.571
 3011SOL     OW 9931   5.902   6.776   0.092
 3011SOL    HW1 9932   5.957   6.819   0.163
 3011SOL    HW2 9933   5.808   6.808   0.099
 3012SOL     OW 9934   2.381   1.453   4.585
 3012SOL    HW1 9935   2.290   1.476   4.619
 3012SOL    HW2 9936   2.412   1.369   4.630
 3013SOL     OW 9937   0.727   5.732   5.164
 3013SOL    HW1 9938   0.641   5.711   5.117
 3013SOL    HW2 9939   0.712   5.729   5.263
 3014SOL     OW 9940   3.590   0.192   0.200
 3014SOL    HW1 9941   3.522   0.171   0.130
 3014SOL    HW2 9942   3.575   0.132   0.280
 3015SOL     OW 9943   2.120   6.953   5.933
 3015SOL    HW1 9944   2.091   6.963   6.029
 3015SOL    HW2 9945   2.205   6.900   5.929
 3016SOL     OW 9946   3.233   1.228   4.409
 3016SOL    HW1 9947   3.233   1.272   4.499
 3016SOL    HW2 9948   3.213   1.296   4.339
 3017SOL     OW 9949   1.436   6.153   0.176
 3017SOL    HW1 9950   1.477   6.226   0.230
 3017SOL    HW2 9951   1.354   6.187   0.131
 3018SOL     OW 9952   2.694   2.470   1.649
 3018SOL    HW1 9953   2.719   2.385   1.603
 3018SOL    HW2 9954   2.665   2.451   1.742
 3019SOL     OW 9955   1.598   0.557   5.075
 3019SOL    HW1 9956   1.642   0.634   5.029
 3019SOL    HW2 9957   1.662   0.515   5.139
 3020SOL     OW 9958   4.680   4.418   6.708
 3020SOL    HW1 9959   4.642   4.508   6.686
 3020SOL    HW2 9960   4.687   4.364   6.624
 3021SOL     OW 9961   4.460   6.445   4.423
 3021SOL    HW1 9962   4.402   6.490   4.355
 3021SOL    HW2 9963   4.553   6.479   4.416
 3022SOL     OW 9964   3.996   6.900   3.802
 3022SOL    HW1 9965   4.024   6.921   3.896
 3022SOL    HW2 9966   3.926   6.828   3.803
 3023SOL     OW 9967   5.212   4.683   5.029
 3023SOL    HW1 9968   5.287   4.746   5.050
 3023SOL    HW2 9969   5.243   4.589   5.043
 3024SOL     OW 9970   6.538   1.413   0.146
 3024SOL    HW1 9971   6.501   1.449   0.061
 3024SOL    HW2 9972   6.568   1.319   0.132
 3025SOL     OW 9973   4.435   5.137   0.876
 3025SOL    HW1 9974   4.381   5.133   0.960
 3025SOL    HW2 9975   4.456   5.232   0.854
 3026SOL     OW 9976   0.288   0.223   2.525
 3026SOL    HW1 9977   0.309   0.267   2.438
 3026SOL    HW2 9978   0.371   0.213   2.579
 3027SOL     OW 9979   4.241   0.158   0.783
 3027SOL    HW1 9980   4.168   0.096   0.813
 3027SOL    HW2 9981   4.325   0.139   0.834
 3028SOL     OW 9982   3.827   3.302   4.552
 3028SOL    HW1 9983   3.878   3.216   4.559
 3028SOL    HW2 9984   3.818   3.327   4.455
 3029SOL     OW 9985   0.124   2.382   4.963
 3029SOL    HW1 9986   0.029   2.408   4.982
 3029SOL    HW2 9987   0.156   2.319   5.034
 3030SOL     OW 9988   0.680   3.143   6.327
 3030SOL    HW1 9989   0.685   3.043   6.317
 3030SOL    HW2 9990   0.745   3.186   6.265
 3031SOL     OW 9991   0.406   4.676   6.708
 3031SOL    HW1 9992   0.432   4.700   6.614
 3031SOL    HW2 9993   0.483   4.692   6.769
 3032SOL     OW 9994   3.674   6.907   3.710
 3032SOL    HW1 9995   3.651   6.852   3.791
 3032SOL    HW2 9996   3.763   6.878   3.675
 3033SOL     OW 9997   1.960   0.852   6.785
 3033SOL    HW1 9998   1.924   0.942   6.811
 3033SOL    HW2 9999   1.983   0.800   6.868
 3034SOL     OW10000   5.631   3.416   3.288
 3034SOL    HW110001   5.599   3.508   3.268
 3034SOL    HW210002   5.562   3.367   3.340
 3035SOL     OW10003   6.707   3.464   6.637
 3035SOL    HW110004   6.761   3.518   6.572
 3035SOL    HW210005   6.685   3.375   6.597
 3036SOL     OW10006   3.368   2.078   5.977
 3036SOL    HW110007   3.429   2.062   5.900
 3036SOL    HW210008   3.308   2.156   5.957
 3037SOL     OW10009   0.551   4.988   6.347
 3037SOL    HW110010   0.596   4.983   6.257
 3037SOL    HW210011   0.561   5.081   6.384
 3038SOL     OW10012   5.923   4.759   5.267
 3038SOL    HW110013   5.959   4.695   5.334
 3038SOL    HW210014   5.908   4.711   5.180
 3039SOL     OW10015   5.825   3.431   6.360
 3039SOL    HW110016   5.743   3.478   6.392
 3039SOL    HW210017   5.844   3.457   6.265
 3040SOL     OW10018   4.011   6.511   6.537
 3040SOL    HW110019   3.960   6.527   6.453
 3040SOL    HW210020   4.070   6.431   6.526
 3041SOL     OW10021   2.180   5.643   6.927
 3041SOL    HW110022   2.155   5.721   6.869
 3041SOL    HW210023   2.274   5.654   6.959
 3042SOL     OW10024   0.118   5.139   3.962
 3042SOL    HW110025   0.135   5.137   4.061
 3042SOL    HW210026   0.196   5.100   3.914
 3043SOL     OW10027   2.523   3.962   1.180
 3043SOL    HW110028   2.533   4.042   1.121
 3043SOL    HW210029   2.599   3.900   1.165
 3044SOL     OW10030   4.106   3.605   4.663
 3044SOL    HW110031   4.148   3.515   4.676
 3044SOL    HW210032   4.158   3.656   4.594
 3045SOL     OW10033   5.610   0.530   3.208
 3045SOL    HW110034   5.588   0.448   3.155
 3045SOL    HW210035   5.692   0.573   3.169
 3046SOL     OW10036   6.502   5.641   1.341
 3046SOL    HW110037   6.565   5.563   1.338
 3046SOL    HW210038   6.504   5.681   1.433
 3047SOL     OW10039   5.440   1.734   3.529
 3047SOL    HW110040   5.458   1.636   3.519
 3047SOL    HW210041   5.525   1.785   3.518
 3048SOL     OW10042   4.502   4.831   1.247
 3048SOL    HW110043   4.412   4.874   1.257
 3048SOL    HW210044   4.547   4.867   1.166
 3049SOL     OW10045   0.482   0.766   1.676
 3049SOL    HW110046   0.458   0.862   1.685
 3049SOL    HW210047   0.564   0.747   1.730
 3050SOL     OW10048   3.886   2.314   6.310
 3050SOL    HW110049   3.872   2.317   6.211
 3050SOL    HW210050   3.798   2.324   6.356
 3051SOL     OW10051   2.110   5.183   6.683
 3051SOL    HW110052   2.178   5.161   6.754
 3051SOL    HW210053   2.127   5.126   6.602
 3052SOL     OW10054   6.018   6.303   3.770
 3052SOL    HW110055   5.976   6.394   3.758
 3052SOL    HW210056   6.009   6.276   3.866
 3053SOL     OW10057   0.676   5.251   6.364
 3053SOL    HW110058   0.756   5.249   6.304
 3053SOL    HW210059   0.705   5.238   6.459
 3054SOL     OW10060   6.079   6.480   3.166
 3054SOL    HW110061   5.990   6.526   3.165
 3054SOL    HW210062   6.117   6.483   3.258
 3055SOL     OW10063   5.111   6.534   0.584
 3055SOL    HW110064   5.035   6.509   0.644
 3055SOL    HW210065   5.082   6.523   0.489
 3056SOL     OW10066   4.361   2.362   0.958
 3056SOL    HW110067   4.336   2.450   0.997
 3056SOL    HW210068   4.456   2.340   0.980
 3057SOL     OW10069   6.820   3.517   3.606
 3057SOL    HW110070   6.832   3.605   3.653
 3057SOL    HW210071   6.733   3.517   3.557
 3058SOL     OW10072   6.631   4.416   5.828
 3058SOL    HW110073   6.635   4.322   5.862
 3058SOL    HW210074   6.683   4.475   5.890
 3059SOL     OW10075   1.483   2.498   3.296
 3059SOL    HW110076   1.447   2.435   3.364
 3059SOL    HW210077   1.557   2.454   3.245
 3060SOL     OW10078   5.690   3.842   3.344
 3060SOL    HW110079   5.672   3.771   3.412
 3060SOL    HW210080   5.733   3.801   3.263
 3061SOL     OW10081   5.950   6.228   2.594
 3061SOL    HW110082   5.925   6.180   2.678
 3061SOL    HW210083   6.049   6.242   2.592
 3062SOL     OW10084   3.963   5.128   1.018
 3062SOL    HW110085   3.913   5.101   0.936
 3062SOL    HW210086   3.932   5.075   1.097
 3063SOL     OW10087   6.592   4.744   0.210
 3063SOL    HW110088   6.617   4.724   0.115
 3063SOL    HW210089   6.515   4.808   0.211
 3064SOL     OW10090   4.720   1.750   6.060
 3064SOL    HW110091   4.689   1.728   6.152
 3064SOL    HW210092   4.735   1.849   6.053
 3065SOL     OW10093   5.256   0.902   6.522
 3065SOL    HW110094   5.188   0.831   6.539
 3065SOL    HW210095   5.314   0.912   6.603
 3066SOL     OW10096   5.570   0.145   6.151
 3066SOL    HW110097   5.605   0.136   6.245
 3066SOL    HW210098   5.494   0.211   6.151
 3067SOL     OW10099   1.973   1.875   4.533
 3067SOL    HW110100   1.904   1.877   4.606
 3067SOL    HW210101   1.939   1.926   4.454
 3068SOL     OW10102   5.759   0.092   0.641
 3068SOL    HW110103   5.763   7.015   0.617
 3068SOL    HW210104   5.796   0.146   0.565
 3069SOL     OW10105   5.439   6.436   3.578
 3069SOL    HW110106   5.456   6.470   3.670
 3069SOL    HW210107   5.377   6.357   3.583
 3070SOL     OW10108   3.256   1.085   1.482
 3070SOL    HW110109   3.217   1.175   1.500
 3070SOL    HW210110   3.212   1.046   1.400
 3071SOL     OW10111   5.645   4.602   4.969
 3071SOL    HW110112   5.708   4.551   5.027
 3071SOL    HW210113   5.579   4.539   4.927
 3072SOL     OW10114   1.469   6.729   5.391
 3072SOL    HW110115   1.434   6.811   5.437
 3072SOL    HW210116   1.397   6.691   5.332
 3073SOL     OW10117   6.601   5.712   2.667
 3073SOL    HW110118   6.503   5.721   2.649
 3073SOL    HW210119   6.648   5.691   2.581
 3074SOL     OW10120   3.235   2.866   1.846
 3074SOL    HW110121   3.210   2.778   1.887
 3074SOL    HW210122   3.311   2.906   1.897
 3075SOL     OW10123   3.847   4.995   0.769
 3075SOL    HW110124   3.768   4.943   0.802
 3075SOL    HW210125   3.825   5.035   0.679
 3076SOL     OW10126   2.165   1.721   3.928
 3076SOL    HW110127   2.132   1.738   3.835
 3076SOL    HW210128   2.105   1.766   3.994
 3077SOL     OW10129   0.229   3.784   2.143
 3077SOL    HW110130   0.242   3.697   2.097
 3077SOL    HW210131   0.317   3.818   2.177
 3078SOL     OW10132   6.947   4.559   0.873
 3078SOL    HW110133   6.993   4.473   0.854
 3078SOL    HW210134   6.885   4.581   0.797
 3079SOL     OW10135   0.823   3.908   3.726
 3079SOL    HW110136   0.813   3.809   3.714
 3079SOL    HW210137   0.824   3.953   3.637
 3080SOL     OW10138   3.821   4.729   1.683
 3080SOL    HW110139   3.898   4.694   1.736
 3080SOL    HW210140   3.735   4.707   1.729
 3081SOL     OW10141   1.955   2.768   6.327
 3081SOL    HW110142   1.894   2.826   6.273
 3081SOL    HW210143   2.050   2.787   6.301
 3082SOL     OW10144   5.528   4.265   4.643
 3082SOL    HW110145   5.448   4.204   4.640
 3082SOL    HW210146   5.580   4.256   4.559
 3083SOL     OW10147   3.996   5.751   0.937
 3083SOL    HW110148   4.078   5.714   0.982
 3083SOL    HW210149   3.949   5.678   0.888
 3084SOL     OW10150   6.924   5.456   4.309
 3084SOL    HW110151   6.826   5.468   4.292
 3084SOL    HW210152   6.939   5.434   4.406
 3085SOL     OW10153   6.335   5.692   6.916
 3085SOL    HW110154   6.264   5.753   6.882
 3085SOL    HW210155   6.349   5.617   6.851
 3086SOL     OW10156   6.044   6.363   6.346
 3086SOL    HW110157   6.093   6.308   6.414
 3086SOL    HW210158   6.109   6.400   6.280
 3087SOL     OW10159   2.850   0.341   2.120
 3087SOL    HW110160   2.843   0.366   2.023
 3087SOL    HW210161   2.939   0.370   2.155
 3088SOL     OW10162   2.502   3.417   5.418
 3088SOL    HW110163   2.522   3.493   5.480
 3088SOL    HW210164   2.439   3.448   5.346
 3089SOL     OW10165   3.787   6.807   0.073
 3089SOL    HW110166   3.723   6.863   0.021
 3089SOL    HW210167   3.737   6.741   0.128
 3090SOL     OW10168   1.559   2.236   2.336
 3090SOL    HW110169   1.530   2.194   2.422
 3090SOL    HW210170   1.480   2.246   2.276
 3091SOL     OW10171   1.284   2.758   6.881
 3091SOL    HW110172   1.312   2.677   6.828
 3091SOL    HW210173   1.279   2.837   6.820
 3092SOL     OW10174   5.025   1.086   3.276
 3092SOL    HW110175   5.042   1.184   3.283
 3092SOL    HW210176   4.935   1.070   3.235
 3093SOL     OW10177   6.537   4.916   6.777
 3093SOL    HW110178   6.584   4.999   6.748
 3093SOL    HW210179   6.441   4.937   6.794
 3094SOL     OW10180   2.397   1.471   5.971
 3094SOL    HW110181   2.394   1.468   5.871
 3094SOL    HW210182   2.391   1.566   6.002
 3095SOL     OW10183   1.803   3.642   5.273
 3095SOL    HW110184   1.806   3.594   5.186
 3095SOL    HW210185   1.740   3.596   5.335
 3096SOL     OW10186   1.744   2.794   3.724
 3096SOL    HW110187   1.743   2.695   3.709
 3096SOL    HW210188   1.651   2.828   3.726
 3097SOL     OW10189   5.402   2.727   5.779
 3097SOL    HW110190   5.333   2.658   5.756
 3097SOL    HW210191   5.360   2.799   5.834
 3098SOL     OW10192   1.390   3.237   2.366
 3098SOL    HW110193   1.383   3.324   2.416
 3098SOL    HW210194   1.486   3.208   2.363
 3099SOL     OW10195   0.687   6.973   5.824
 3099SOL    HW110196   0.633   6.909   5.769
 3099SOL    HW210197   0.763   6.925   5.867
 3100SOL     OW10198   5.931   4.509   2.196
 3100SOL    HW110199   5.999   4.535   2.264
 3100SOL    HW210200   5.843   4.495   2.241
 3101SOL     OW10201   5.194   1.020   4.727
 3101SOL    HW110202   5.131   0.991   4.655
 3101SOL    HW210203   5.287   1.028   4.689
 3102SOL     OW10204   5.817   4.300   2.609
 3102SOL    HW110205   5.779   4.247   2.533
 3102SOL    HW210206   5.785   4.395   2.603
 3103SOL     OW10207   1.344   1.242   1.963
 3103SOL    HW110208   1.383   1.198   2.043
 3103SOL    HW210209   1.272   1.305   1.991
 3104SOL     OW10210   6.012   2.163   6.031
 3104SOL    HW110211   6.045   2.135   5.941
 3104SOL    HW210212   5.988   2.260   6.030
 3105SOL     OW10213   5.768   4.264   0.448
 3105SOL    HW110214   5.776   4.285   0.546
 3105SOL    HW210215   5.857   4.232   0.414
 3106SOL     OW10216   5.442   1.518   6.026
 3106SOL    HW110217   5.386   1.457   6.082
 3106SOL    HW210218   5.384   1.566   5.961
 3107SOL     OW10219   4.320   2.214   4.775
 3107SOL    HW110220   4.252   2.216   4.849
 3107SOL    HW210221   4.274   2.194   4.688
 3108SOL     OW10222   1.857   4.575   3.847
 3108SOL    HW110223   1.915   4.550   3.768
 3108SOL    HW210224   1.792   4.501   3.864
 3109SOL     OW10225   6.956   5.568   3.289
 3109SOL    HW110226   6.978   5.492   3.350
 3109SOL    HW210227   6.861   5.595   3.302
 3110SOL     OW10228   1.295   6.040   4.457
 3110SOL    HW110229   1.277   6.020   4.361
 3110SOL    HW210230   1.285   5.957   4.511
 3111SOL     OW10231   6.681   3.989   4.025
 3111SOL    HW110232   6.663   4.074   3.974
 3111SOL    HW210233   6.654   3.911   3.969
 3112SOL     OW10234   4.281   0.742   0.964
 3112SOL    HW110235   4.321   0.822   1.009
 3112SOL    HW210236   4.334   0.661   0.989
 3113SOL     OW10237   1.220   0.087   4.083
 3113SOL    HW110238   1.256   0.078   4.176
 3113SOL    HW210239   1.231   0.182   4.053
 3114SOL     OW10240   4.522   6.146   5.179
 3114SOL    HW110241   4.548   6.221   5.240
 3114SOL    HW210242   4.424   6.149   5.162
 3115SOL     OW10243   4.636   5.793   4.344
 3115SOL    HW110244   4.671   5.752   4.428
 3115SOL    HW210245   4.596   5.882   4.365
 3116SOL     OW10246   0.782   2.109   6.719
 3116SOL    HW110247   0.696   2.060   6.728
 3116SOL    HW210248   0.791   2.144   6.626
 3117SOL     OW10249   4.201   6.862   1.092
 3117SOL    HW110250   4.247   6.906   1.016
 3117SOL    HW210251   4.180   6.929   1.163
 3118SOL     OW10252   0.899   2.055   3.203
 3118SOL    HW110253   0.815   2.098   3.171
 3118SOL    HW210254   0.899   1.958   3.179
 3119SOL     OW10255   4.481   6.532   3.854
 3119SOL    HW110256   4.564   6.547   3.801
 3119SOL    HW210257   4.506   6.509   3.949
 3120SOL     OW10258   3.161   6.310   6.765
 3120SOL    HW110259   3.129   6.233   6.820
 3120SOL    HW210260   3.194   6.383   6.826
 3121SOL     OW10261   3.630   2.104   3.305
 3121SOL    HW110262   3.701   2.068   3.244
 3121SOL    HW210263   3.647   2.073   3.398
 3122SOL     OW10264   5.625   3.851   6.091
 3122SOL    HW110265   5.648   3.762   6.051
 3122SOL    HW210266   5.547   3.890   6.042
 3123SOL     OW10267   2.061   2.763   2.880
 3123SOL    HW110268   2.081   2.686   2.942
 3123SOL    HW210269   2.057   2.848   2.933
 3124SOL     OW10270   4.698   6.584   5.816
 3124SOL    HW110271   4.742   6.512   5.870
 3124SOL    HW210272   4.645   6.642   5.876
 3125SOL     OW10273   1.493   1.900   5.039
 3125SOL    HW110274   1.503   1.842   4.958
 3125SOL    HW210275   1.571   1.884   5.101
 3126SOL     OW10276   4.916   4.465   5.628
 3126SOL    HW110277   4.887   4.496   5.537
 3126SOL    HW210278   4.955   4.542   5.678
 3127SOL     OW10279   6.410   2.189   5.737
 3127SOL    HW110280   6.482   2.122   5.753
 3127SOL    HW210281   6.443   2.280   5.760
 3128SOL     OW10282   3.847   0.976   0.783
 3128SOL    HW110283   3.945   0.959   0.766
 3128SOL    HW210284   3.816   0.918   0.858
 3129SOL     OW10285   4.231   4.613   0.286
 3129SOL    HW110286   4.214   4.514   0.287
 3129SOL    HW210287   4.327   4.631   0.307
 3130SOL     OW10288   6.594   6.125   2.271
 3130SOL    HW110289   6.638   6.207   2.234
 3130SOL    HW210290   6.619   6.114   2.367
 3131SOL     OW10291   6.509   2.924   3.414
 3131SOL    HW110292   6.498   2.953   3.319
 3131SOL    HW210293   6.554   2.835   3.417
 3132SOL     OW10294   4.693   4.188   6.512
 3132SOL    HW110295   4.659   4.094   6.509
 3132SOL    HW210296   4.621   4.250   6.481
 3133SOL     OW10297   5.349   6.596   3.357
 3133SOL    HW110298   5.402   6.577   3.274
 3133SOL    HW210299   5.387   6.542   3.432
 3134SOL     OW10300   5.222   4.731   2.845
 3134SOL    HW110301   5.159   4.793   2.798
 3134SOL    HW210302   5.172   4.648   2.873
 3135SOL     OW10303   3.583   0.733   6.189
 3135SOL    HW110304   3.603   0.702   6.282
 3135SOL    HW210305   3.505   0.796   6.191
 3136SOL     OW10306   6.772   6.896   2.301
 3136SOL    HW110307   6.758   6.995   2.298
 3136SOL    HW210308   6.684   6.850   2.296
 3137SOL     OW10309   4.616   5.200   6.940
 3137SOL    HW110310   4.545   5.134   6.919
 3137SOL    HW210311   4.608   5.279   6.879
 3138SOL     OW10312   6.708   6.784   4.743
 3138SOL    HW110313   6.764   6.803   4.823
 3138SOL    HW210314   6.744   6.703   4.696
 3139SOL     OW10315   1.464   5.008   1.553
 3139SOL    HW110316   1.491   4.955   1.633
 3139SOL    HW210317   1.520   4.981   1.475
 3140SOL     OW10318   5.260   6.183   0.205
 3140SOL    HW110319   5.351   6.225   0.205
 3140SOL    HW210320   5.266   6.088   0.235
 3141SOL     OW10321   5.687   1.594   0.134
 3141SOL    HW110322   5.771   1.565   0.089
 3141SOL    HW210323   5.629   1.514   0.152
 3142SOL     OW10324   4.396   1.271   4.107
 3142SOL    HW110325   4.442   1.331   4.041
 3142SOL    HW210326   4.461   1.243   4.177
 3143SOL     OW10327   6.866   1.346   0.606
 3143SOL    HW110328   6.907   1.424   0.560
 3143SOL    HW210329   6.768   1.343   0.587
 3144SOL     OW10330   4.139   5.055   0.038
 3144SOL    HW110331   4.079   4.992   7.008
 3144SOL    HW210332   4.184   5.007   0.113
 3145SOL     OW10333   1.375   5.565   5.662
 3145SOL    HW110334   1.351   5.493   5.727
 3145SOL    HW210335   1.299   5.580   5.599
 3146SOL     OW10336   6.027   2.083   4.502
 3146SOL    HW110337   5.997   1.991   4.527
 3146SOL    HW210338   5.963   2.150   4.539
 3147SOL     OW10339   4.812   6.531   1.079
 3147SOL    HW110340   4.828   6.439   1.115
 3147SOL    HW210341   4.720   6.535   1.038
 3148SOL     OW10342   6.078   4.775   7.011
 3148SOL    HW110343   6.125   4.696   6.972
 3148SOL    HW210344   6.073   4.766   0.090
 3149SOL     OW10345   4.212   3.442   6.848
 3149SOL    HW110346   4.207   3.391   6.762
 3149SOL    HW210347   4.212   3.540   6.829
 3150SOL     OW10348   0.274   0.174   5.223
 3150SOL    HW110349   0.212   0.190   5.146
 3150SOL    HW210350   0.231   0.203   5.308
 3151SOL     OW10351   6.775   1.352   6.031
 3151SOL    HW110352   6.747   1.267   6.076
 3151SOL    HW210353   6.747   1.430   6.087
 3152SOL     OW10354   2.542   1.879   5.362
 3152SOL    HW110355   2.491   1.825   5.429
 3152SOL    HW210356   2.572   1.820   5.287
 3153SOL     OW10357   5.826   5.945   1.877
 3153SOL    HW110358   5.792   5.976   1.789
 3153SOL    HW210359   5.829   6.022   1.941
 3154SOL     OW10360   3.316   1.881   1.051
 3154SOL    HW110361   3.415   1.894   1.061
 3154SOL    HW210362   3.299   1.809   0.983
 3155SOL     OW10363   0.408   5.625   6.930
 3155SOL    HW110364   0.359   5.701   6.970
 3155SOL    HW210365   0.455   5.655   6.847
 3156SOL     OW10366   3.179   4.115   1.196
 3156SOL    HW110367   3.107   4.145   1.259
 3156SOL    HW210368   3.269   4.139   1.234
 3157SOL     OW10369   1.568   1.180   3.845
 3157SOL    HW110370   1.591   1.232   3.762
 3157SOL    HW210371   1.494   1.226   3.894
 3158SOL     OW10372   2.860   0.700   6.377
 3158SOL    HW110373   2.880   0.722   6.282
 3158SOL    HW210374   2.838   0.602   6.385
 3159SOL     OW10375   4.980   6.957   1.282
 3159SOL    HW110376   4.942   0.025   1.307
 3159SOL    HW210377   4.957   6.889   1.352
 3160SOL     OW10378   2.463   0.930   4.443
 3160SOL    HW110379   2.462   0.961   4.538
 3160SOL    HW210380   2.528   0.855   4.432
 3161SOL     OW10381   2.008   2.864   2.113
 3161SOL    HW110382   2.091   2.882   2.060
 3161SOL    HW210383   1.930   2.908   2.069
 3162SOL     OW10384   1.088   5.934   1.957
 3162SOL    HW110385   1.168   5.986   1.987
 3162SOL    HW210386   1.092   5.842   1.995
 3163SOL     OW10387   4.765   4.532   1.255
 3163SOL    HW110388   4.691   4.531   1.323
 3163SOL    HW210389   4.761   4.448   1.201
 3164SOL     OW10390   2.450   6.854   4.152
 3164SOL    HW110391   2.446   6.816   4.244
 3164SOL    HW210392   2.375   6.919   4.140
 3165SOL     OW10393   1.049   5.560   6.824
 3165SOL    HW110394   0.983   5.619   6.777
 3165SOL    HW210395   1.116   5.617   6.872
 3166SOL     OW10396   4.064   1.887   4.723
 3166SOL    HW110397   4.044   1.849   4.632
 3166SOL    HW210398   4.068   1.812   4.790
 3167SOL     OW10399   6.356   2.997   1.785
 3167SOL    HW110400   6.346   3.046   1.699
 3167SOL    HW210401   6.317   2.906   1.778
 3168SOL     OW10402   5.541   1.342   1.388
 3168SOL    HW110403   5.460   1.312   1.337
 3168SOL    HW210404   5.567   1.433   1.357
 3169SOL     OW10405   0.741   3.636   1.607
 3169SOL    HW110406   0.653   3.590   1.624
 3169SOL    HW210407   0.734   3.690   1.523
 3170SOL     OW10408   2.210   4.207   3.867
 3170SOL    HW110409   2.273   4.243   3.798
 3170SOL    HW210410   2.119   4.195   3.826
 3171SOL     OW10411   5.307   1.389   5.102
 3171SOL    HW110412   5.374   1.402   5.030
 3171SOL    HW210413   5.254   1.306   5.084
 3172SOL     OW10414   5.978   3.957   1.325
 3172SOL    HW110415   5.908   4.009   1.374
 3172SOL    HW210416   5.981   3.988   1.229
 3173SOL     OW10417   5.508   3.287   6.965
 3173SOL    HW110418   5.566   3.276   0.025
 3173SOL    HW210419   5.435   3.352   6.986
 3174SOL     OW10420   3.204   2.563   6.542
 3174SOL    HW110421   3.206   2.545   6.444
 3174SOL    HW210422   3.130   2.627   6.563
 3175SOL     OW10423   5.911   6.449   5.154
 3175SOL    HW110424   5.821   6.453   5.199
 3175SOL    HW210425   5.981   6.429   5.223
 3176SOL     OW10426   0.768   5.128   4.189
 3176SOL    HW110427   0.860   5.103   4.159
 3176SOL    HW210428   0.763   5.227   4.204
 3177SOL     OW10429   4.803   3.059   2.878
 3177SOL    HW110430   4.759   3.047   2.967
 3177SOL    HW210431   4.857   3.144   2.878
 3178SOL     OW10432   0.975   0.531   2.585
 3178SOL    HW110433   0.989   0.496   2.678
 3178SOL    HW210434   0.944   0.626   2.589
 3179SOL     OW10435   0.739   3.064   2.083
 3179SOL    HW110436   0.745   3.160   2.054
 3179SOL    HW210437   0.816   3.013   2.044
 3180SOL     OW10438   6.362   6.636   0.218
 3180SOL    HW110439   6.456   6.610   0.198
 3180SOL    HW210440   6.351   6.734   0.206
 3181SOL     OW10441   0.525   6.044   4.857
 3181SOL    HW110442   0.620   6.074   4.847
 3181SOL    HW210443   0.468   6.122   4.882
 3182SOL     OW10444   1.228   6.789   1.320
 3182SOL    HW110445   1.278   6.822   1.400
 3182SOL    HW210446   1.210   6.866   1.258
 3183SOL     OW10447   4.357   4.072   0.656
 3183SOL    HW110448   4.259   4.089   0.668
 3183SOL    HW210449   4.409   4.128   0.720
 3184SOL     OW10450   6.244   1.318   4.064
 3184SOL    HW110451   6.331   1.285   4.101
 3184SOL    HW210452   6.260   1.359   3.974
 3185SOL     OW10453   1.020   6.653   5.872
 3185SOL    HW110454   1.108   6.670   5.829
 3185SOL    HW210455   1.034   6.608   5.961
 3186SOL     OW10456   0.540   2.291   5.793
 3186SOL    HW110457   0.451   2.247   5.800
 3186SOL    HW210458   0.582   2.266   5.706
 3187SOL     OW10459   5.468   0.098   3.521
 3187SOL    HW110460   5.530   0.137   3.453
 3187SOL    HW210461   5.464   7.019   3.509
 3188SOL     OW10462   1.622   6.056   1.199
 3188SOL    HW110463   1.575   6.139   1.168
 3188SOL    HW210464   1.662   6.010   1.120
 3189SOL     OW10465   2.458   1.324   6.245
 3189SOL    HW110466   2.375   1.345   6.295
 3189SOL    HW210467   2.513   1.407   6.234
 3190SOL     OW10468   5.910   6.374   4.217
 3190SOL    HW110469   5.938   6.334   4.130
 3190SOL    HW210470   5.837   6.440   4.202
 3191SOL     OW10471   3.787   4.759   1.376
 3191SOL    HW110472   3.838   4.740   1.460
 3191SOL    HW210473   3.699   4.800   1.398
 3192SOL     OW10474   5.376   0.726   2.889
 3192SOL    HW110475   5.424   0.747   2.974
 3192SOL    HW210476   5.277   0.736   2.904
 3193SOL     OW10477   3.152   5.230   4.743
 3193SOL    HW110478   3.230   5.284   4.775
 3193SOL    HW210479   3.184   5.154   4.687
 3194SOL     OW10480   1.947   6.771   5.002
 3194SOL    HW110481   1.974   6.808   4.913
 3194SOL    HW210482   1.956   6.842   5.072
 3195SOL     OW10483   0.547   6.586   0.096
 3195SOL    HW110484   0.607   6.663   0.071
 3195SOL    HW210485   0.588   6.535   0.171
 3196SOL     OW10486   6.421   6.988   2.403
 3196SOL    HW110487   6.499   7.009   2.462
 3196SOL    HW210488   6.337   6.985   2.457
 3197SOL     OW10489   2.601   0.698   0.054
 3197SOL    HW110490   2.659   0.770   0.091
 3197SOL    HW210491   2.650   0.610   0.058
 3198SOL     OW10492   5.363   3.475   4.173
 3198SOL    HW110493   5.282   3.515   4.215
 3198SOL    HW210494   5.434   3.545   4.165
 3199SOL     OW10495   4.820   3.876   3.475
 3199SOL    HW110496   4.828   3.783   3.512
 3199SOL    HW210497   4.854   3.941   3.543
 3200SOL     OW10498   6.012   3.932   4.967
 3200SOL    HW110499   6.086   3.894   4.913
 3200SOL    HW210500   6.006   4.030   4.952
 3201SOL     OW10501   6.433   4.059   1.943
 3201SOL    HW110502   6.491   4.117   2.000
 3201SOL    HW210503   6.470   3.966   1.941
 3202SOL     OW10504   3.001   2.763   6.015
 3202SOL    HW110505   3.069   2.714   5.960
 3202SOL    HW210506   3.040   2.784   6.104
 3203SOL     OW10507   3.280   6.747   1.989
 3203SOL    HW110508   3.368   6.720   2.028
 3203SOL    HW210509   3.282   6.735   1.890
 3204SOL     OW10510   4.601   0.575   3.948
 3204SOL    HW110511   4.576   0.646   4.013
 3204SOL    HW210512   4.595   0.485   3.991
 3205SOL     OW10513   4.373   2.485   6.415
 3205SOL    HW110514   4.300   2.543   6.451
 3205SOL    HW210515   4.419   2.439   6.491
 3206SOL     OW10516   3.012   4.664   0.781
 3206SOL    HW110517   3.008   4.763   0.776
 3206SOL    HW210518   3.106   4.635   0.803
 3207SOL     OW10519   2.368   6.051   3.420
 3207SOL    HW110520   2.454   6.095   3.442
 3207SOL    HW210521   2.303   6.119   3.387
 3208SOL     OW10522   6.576   3.831   5.874
 3208SOL    HW110523   6.662   3.878   5.891
 3208SOL    HW210524   6.586   3.734   5.896
 3209SOL     OW10525   5.039   6.797   6.036
 3209SOL    HW110526   5.118   6.785   6.096
 3209SOL    HW210527   4.956   6.769   6.085
 3210SOL     OW10528   5.227   5.280   1.915
 3210SOL    HW110529   5.220   5.257   2.012
 3210SOL    HW210530   5.310   5.334   1.899
 3211SOL     OW10531   1.998   6.302   6.529
 3211SOL    HW110532   1.987   6.361   6.608
 3211SOL    HW210533   1.909   6.260   6.506
 3212SOL     OW10534   3.551   6.695   4.361
 3212SOL    HW110535   3.545   6.614   4.304
 3212SOL    HW210536   3.463   6.713   4.403
 3213SOL     OW10537   1.286   0.587   5.552
 3213SOL    HW110538   1.350   0.511   5.564
 3213SOL    HW210539   1.255   0.589   5.457
 3214SOL     OW10540   3.709   0.863   2.870
 3214SOL    HW110541   3.613   0.858   2.898
 3214SOL    HW210542   3.754   0.777   2.890
 3215SOL     OW10543   2.135   3.124   2.296
 3215SOL    HW110544   2.071   3.064   2.249
 3215SOL    HW210545   2.203   3.158   2.231
 3216SOL     OW10546   6.271   5.056   0.850
 3216SOL    HW110547   6.206   4.983   0.828
 3216SOL    HW210548   6.239   5.107   0.930
 3217SOL     OW10549   6.574   5.890   4.218
 3217SOL    HW110550   6.624   5.875   4.133
 3217SOL    HW210551   6.605   5.825   4.287
 3218SOL     OW10552   5.723   1.231   3.341
 3218SOL    HW110553   5.799   1.219   3.405
 3218SOL    HW210554   5.753   1.208   3.249
 3219SOL     OW10555   5.773   1.892   4.326
 3219SOL    HW110556   5.684   1.848   4.318
 3219SOL    HW210557   5.810   1.876   4.418
 3220SOL     OW10558   0.134   3.649   5.651
 3220SOL    HW110559   0.183   3.568   5.685
 3220SOL    HW210560   0.059   3.621   5.592
 3221SOL     OW10561   4.303   1.632   2.002
 3221SOL    HW110562   4.244   1.610   2.079
 3221SOL    HW210563   4.331   1.548   1.956
 3222SOL     OW10564   3.179   0.931   3.780
 3222SOL    HW110565   3.118   0.894   3.710
 3222SOL    HW210566   3.165   0.883   3.866
 3223SOL     OW10567   1.675   6.036   0.638
 3223SOL    HW110568   1.635   5.946   0.625
 3223SOL    HW210569   1.745   6.052   0.568
 3224SOL     OW10570   4.794   2.897   4.483
 3224SOL    HW110571   4.882   2.851   4.492
 3224SOL    HW210572   4.772   2.944   4.569
 3225SOL     OW10573   4.604   1.280   4.614
 3225SOL    HW110574   4.514   1.292   4.571
 3225SOL    HW210575   4.618   1.184   4.636
 3226SOL     OW10576   6.428   0.829   0.604
 3226SOL    HW110577   6.461   0.832   0.510
 3226SOL    HW210578   6.454   0.742   0.646
 3227SOL     OW10579   5.962   4.240   5.745
 3227SOL    HW110580   6.009   4.324   5.718
 3227SOL    HW210581   5.873   4.263   5.784
 3228SOL     OW10582   2.421   4.120   0.354
 3228SOL    HW110583   2.404   4.052   0.426
 3228SOL    HW210584   2.481   4.192   0.389
 3229SOL     OW10585   1.371   1.473   1.187
 3229SOL    HW110586   1.390   1.529   1.268
 3229SOL    HW210587   1.399   1.523   1.105
 3230SOL     OW10588   2.793   6.248   4.970
 3230SOL    HW110589   2.828   6.159   4.999
 3230SOL    HW210590   2.836   6.273   4.883
 3231SOL     OW10591   2.509   2.539   2.615
 3231SOL    HW110592   2.486   2.482   2.694
 3231SOL    HW210593   2.427   2.584   2.581
 3232SOL     OW10594   2.607   4.539   3.293
 3232SOL    HW110595   2.631   4.444   3.315
 3232SOL    HW210596   2.560   4.542   3.204
 3233SOL     OW10597   2.524   0.329   6.613
 3233SOL    HW110598   2.536   0.317   6.712
 3233SOL    HW210599   2.448   0.273   6.582
 3234SOL     OW10600   3.318   3.315   1.013
 3234SOL    HW110601   3.260   3.236   1.037
 3234SOL    HW210602   3.412   3.297   1.042
 3235SOL     OW10603   6.768   1.428   2.960
 3235SOL    HW110604   6.765   1.483   2.877
 3235SOL    HW210605   6.683   1.441   3.012
 3236SOL     OW10606   5.588   0.041   0.345
 3236SOL    HW110607   5.627   7.012   0.424
 3236SOL    HW210608   5.629   0.132   0.339
 3237SOL     OW10609   6.030   0.964   5.631
 3237SOL    HW110610   5.987   1.050   5.658
 3237SOL    HW210611   5.997   0.936   5.541
 3238SOL     OW10612   6.287   5.004   1.597
 3238SOL    HW110613   6.201   4.958   1.574
 3238SOL    HW210614   6.270   5.101   1.611
 3239SOL     OW10615   6.097   0.266   5.335
 3239SOL    HW110616   6.174   0.291   5.276
 3239SOL    HW210617   6.038   0.201   5.288
 3240SOL     OW10618   1.168   1.680   0.830
 3240SOL    HW110619   1.208   1.762   0.870
 3240SOL    HW210620   1.177   1.604   0.895
 3241SOL     OW10621   0.212   3.176   5.467
 3241SOL    HW110622   0.167   3.094   5.433
 3241SOL    HW210623   0.169   3.257   5.426
 3242SOL     OW10624   6.931   4.030   4.774
 3242SOL    HW110625   6.833   4.014   4.759
 3242SOL    HW210626   6.946   4.128   4.789
 3243SOL     OW10627   5.576   5.726   4.163
 3243SOL    HW110628   5.501   5.736   4.097
 3243SOL    HW210629   5.650   5.789   4.140
 3244SOL     OW10630   4.864   0.064   6.848
 3244SOL    HW110631   4.951   0.070   6.800
 3244SOL    HW210632   4.859   6.997   6.897
 3245SOL     OW10633   3.228   6.355   4.286
 3245SOL    HW110634   3.319   6.396   4.281
 3245SOL    HW210635   3.200   6.346   4.381
 3246SOL     OW10636   6.560   5.845   3.139
 3246SOL    HW110637   6.542   5.936   3.176
 3246SOL    HW210638   6.485   5.818   3.079
 3247SOL     OW10639   1.906   3.955   4.056
 3247SOL    HW110640   1.808   3.956   4.074
 3247SOL    HW210641   1.949   3.879   4.105
 3248SOL     OW10642   6.154   2.668   3.749
 3248SOL    HW110643   6.101   2.711   3.823
 3248SOL    HW210644   6.243   2.713   3.741
 3249SOL     OW10645   3.526   4.129   4.013
 3249SOL    HW110646   3.575   4.094   3.934
 3249SOL    HW210647   3.584   4.192   4.065
 3250SOL     OW10648   4.554   6.362   3.634
 3250SOL    HW110649   4.653   6.351   3.639
 3250SOL    HW210650   4.532   6.453   3.599
 3251SOL     OW10651   2.522   2.157   2.363
 3251SOL    HW110652   2.454   2.229   2.369
 3251SOL    HW210653   2.484   2.078   2.316
 3252SOL     OW10654   1.819   1.595   2.940
 3252SOL    HW110655   1.879   1.587   3.020
 3252SOL    HW210656   1.874   1.597   2.857
 3253SOL     OW10657   6.738   4.042   0.260
 3253SOL    HW110658   6.758   4.058   0.163
 3253SOL    HW210659   6.661   3.980   0.269
 3254SOL     OW10660   6.151   6.624   0.509
 3254SOL    HW110661   6.172   6.550   0.572
 3254SOL    HW210662   6.171   6.595   0.415
 3255SOL     OW10663   3.565   5.489   2.217
 3255SOL    HW110664   3.632   5.563   2.216
 3255SOL    HW210665   3.604   5.408   2.173
 3256SOL     OW10666   5.708   2.612   1.460
 3256SOL    HW110667   5.745   2.698   1.426
 3256SOL    HW210668   5.647   2.573   1.391
 3257SOL     OW10669   2.898   0.996   3.376
 3257SOL    HW110670   2.873   0.920   3.435
 3257SOL    HW210671   2.847   1.078   3.404
 3258SOL     OW10672   1.655   5.618   4.111
 3258SOL    HW110673   1.556   5.628   4.111
 3258SOL    HW210674   1.680   5.526   4.079
 3259SOL     OW10675   5.668   4.547   4.076
 3259SOL    HW110676   5.717   4.632   4.059
 3259SOL    HW210677   5.727   4.485   4.128
 3260SOL     OW10678   1.464   4.751   2.822
 3260SOL    HW110679   1.430   4.673   2.875
 3260SOL    HW210680   1.450   4.836   2.874
 3261SOL     OW10681   6.123   0.236   4.237
 3261SOL    HW110682   6.115   0.183   4.152
 3261SOL    HW210683   6.038   0.230   4.288
 3262SOL     OW10684   3.010   1.926   3.297
 3262SOL    HW110685   2.955   1.891   3.221
 3262SOL    HW210686   3.071   1.998   3.264
 3263SOL     OW10687   6.068   0.556   1.333
 3263SOL    HW110688   5.990   0.526   1.388
 3263SOL    HW210689   6.147   0.570   1.393
 3264SOL     OW10690   1.555   4.527   0.077
 3264SOL    HW110691   1.534   4.555   0.171
 3264SOL    HW210692   1.530   4.600   0.014
 3265SOL     OW10693   0.130   5.770   6.715
 3265SOL    HW110694   0.086   5.775   6.805
 3265SOL    HW210695   0.060   5.770   6.644
 3266SOL     OW10696   3.609   5.203   6.341
 3266SOL    HW110697   3.656   5.115   6.338
 3266SOL    HW210698   3.515   5.192   6.310
 3267SOL     OW10699   3.581   6.932   1.160
 3267SOL    HW110700   3.580   6.877   1.076
 3267SOL    HW210701   3.494   6.979   1.170
 3268SOL     OW10702   5.519   3.767   1.725
 3268SOL    HW110703   5.601   3.743   1.673
 3268SOL    HW210704   5.520   3.717   1.812
 3269SOL     OW10705   2.120   4.856   1.649
 3269SOL    HW110706   2.037   4.803   1.634
 3269SOL    HW210707   2.175   4.856   1.565
 3270SOL     OW10708   1.422   2.948   5.973
 3270SOL    HW110709   1.500   2.997   5.935
 3270SOL    HW210710   1.377   2.894   5.902
 3271SOL     OW10711   1.008   3.375   1.253
 3271SOL    HW110712   0.928   3.319   1.273
 3271SOL    HW210713   1.072   3.370   1.330
 3272SOL     OW10714   3.979   6.684   1.130
 3272SOL    HW110715   4.060   6.728   1.093
 3272SOL    HW210716   3.986   6.585   1.116
 3273SOL     OW10717   3.778   3.807   6.799
 3273SOL    HW110718   3.706   3.876   6.790
 3273SOL    HW210719   3.781   3.751   6.717
 3274SOL     OW10720   4.850   6.982   1.919
 3274SOL    HW110721   4.900   0.035   1.872
 3274SOL    HW210722   4.766   7.019   1.958
 3275SOL     OW10723   5.034   0.589   2.030
 3275SOL    HW110724   5.005   0.498   2.001
 3275SOL    HW210725   4.958   0.635   2.076
 3276SOL     OW10726   6.286   5.181   0.185
 3276SOL    HW110727   6.318   5.206   0.093
 3276SOL    HW210728   6.249   5.262   0.230
 3277SOL     OW10729   3.815   1.713   2.560
 3277SOL    HW110730   3.867   1.720   2.645
 3277SOL    HW210731   3.722   1.748   2.574
 3278SOL     OW10732   5.047   1.134   6.410
 3278SOL    HW110733   5.033   1.070   6.485
 3278SOL    HW210734   5.086   1.219   6.444
 3279SOL     OW10735   3.877   0.496   2.372
 3279SOL    HW110736   3.969   0.525   2.400
 3279SOL    HW210737   3.871   0.396   2.374
 3280SOL     OW10738   0.442   2.821   4.270
 3280SOL    HW110739   0.456   2.902   4.213
 3280SOL    HW210740   0.469   2.843   4.364
 3281SOL     OW10741   5.711   2.175   2.236
 3281SOL    HW110742   5.773   2.237   2.189
 3281SOL    HW210743   5.701   2.204   2.331
 3282SOL     OW10744   6.271   4.379   5.310
 3282SOL    HW110745   6.233   4.321   5.382
 3282SOL    HW210746   6.273   4.474   5.340
 3283SOL     OW10747   3.027   1.748   0.479
 3283SOL    HW110748   2.951   1.685   0.489
 3283SOL    HW210749   2.993   1.837   0.447
 3284SOL     OW10750   2.181   0.427   5.317
 3284SOL    HW110751   2.113   0.495   5.288
 3284SOL    HW210752   2.166   0.405   5.414
 3285SOL     OW10753   3.943   2.198   4.033
 3285SOL    HW110754   3.851   2.228   4.057
 3285SOL    HW210755   3.965   2.114   4.082
 3286SOL     OW10756   1.406   3.319   2.882
 3286SOL    HW110757   1.503   3.295   2.877
 3286SOL    HW210758   1.363   3.302   2.793
 3287SOL     OW10759   2.262   1.162   0.590
 3287SOL    HW110760   2.304   1.245   0.627
 3287SOL    HW210761   2.323   1.121   0.522
 3288SOL     OW10762   2.948   5.951   1.919
 3288SOL    HW110763   2.987   5.953   2.011
 3288SOL    HW210764   3.015   5.988   1.854
 3289SOL     OW10765   5.174   0.694   7.000
 3289SOL    HW110766   5.179   0.606   0.027
 3289SOL    HW210767   5.094   0.695   6.940
 3290SOL     OW10768   0.989   5.434   0.138
 3290SOL    HW110769   0.965   5.390   0.051
 3290SOL    HW210770   0.966   5.373   0.214
 3291SOL     OW10771   4.898   6.178   5.145
 3291SOL    HW110772   4.865   6.241   5.075
 3291SOL    HW210773   4.847   6.092   5.139
 3292SOL     OW10774   7.020   2.655   6.973
 3292SOL    HW110775   6.974   2.637   6.887
 3292SOL    HW210776   6.953   2.659   0.027
 3293SOL     OW10777   6.391   4.565   2.463
 3293SOL    HW110778   6.488   4.567   2.439
 3293SOL    HW210779   6.336   4.579   2.381
 3294SOL     OW10780   3.569   2.954   5.711
 3294SOL    HW110781   3.503   2.926   5.642
 3294SOL    HW210782   3.540   2.922   5.801
 3295SOL     OW10783   1.540   2.738   3.399
 3295SOL    HW110784   1.520   2.702   3.491
 3295SOL    HW210785   1.547   2.662   3.335
 3296SOL     OW10786   2.552   0.757   6.835
 3296SOL    HW110787   2.542   0.758   6.934
 3296SOL    HW210788   2.649   0.765   6.811
 3297SOL     OW10789   3.653   0.600   5.523
 3297SOL    HW110790   3.601   0.541   5.461
 3297SOL    HW210791   3.679   0.548   5.604
 3298SOL     OW10792   3.357   4.590   5.758
 3298SOL    HW110793   3.431   4.618   5.820
 3298SOL    HW210794   3.271   4.630   5.790
 3299SOL     OW10795   3.212   6.746   4.255
 3299SOL    HW110796   3.238   6.698   4.171
 3299SOL    HW210797   3.235   6.843   4.246
 3300SOL     OW10798   2.071   0.623   3.450
 3300SOL    HW110799   2.075   0.674   3.364
 3300SOL    HW210800   1.978   0.628   3.487
 3301SOL     OW10801   1.068   1.615   2.782
 3301SOL    HW110802   1.101   1.590   2.691
 3301SOL    HW210803   1.048   1.532   2.834
 3302SOL     OW10804   1.375   4.925   5.195
 3302SOL    HW110805   1.438   4.955   5.267
 3302SOL    HW210806   1.283   4.915   5.233
 3303SOL     OW10807   3.742   3.930   0.541
 3303SOL    HW110808   3.732   3.836   0.510
 3303SOL    HW210809   3.740   3.934   0.641
 3304SOL     OW10810   2.221   3.952   0.476
 3304SOL    HW110811   2.127   3.953   0.511
 3304SOL    HW210812   2.285   3.972   0.551
 3305SOL     OW10813   2.847   2.909   0.340
 3305SOL    HW110814   2.934   2.888   0.296
 3305SOL    HW210815   2.836   3.008   0.346
 3306SOL     OW10816   2.793   0.287   1.206
 3306SOL    HW110817   2.809   0.190   1.227
 3306SOL    HW210818   2.860   0.317   1.138
 3307SOL     OW10819   1.939   5.539   4.865
 3307SOL    HW110820   2.021   5.586   4.832
 3307SOL    HW210821   1.966   5.458   4.916
 3308SOL     OW10822   4.734   5.109   1.570
 3308SOL    HW110823   4.699   5.033   1.514
 3308SOL    HW210824   4.765   5.074   1.658
 3309SOL     OW10825   5.860   3.825   3.731
 3309SOL    HW110826   5.801   3.865   3.801
 3309SOL    HW210827   5.954   3.857   3.744
 3310SOL     OW10828   6.212   4.552   6.195
 3310SOL    HW110829   6.222   4.505   6.283
 3310SOL    HW210830   6.273   4.510   6.128
 3311SOL     OW10831   2.360   3.222   0.069
 3311SOL    HW110832   2.286   3.266   0.119
 3311SOL    HW210833   2.385   3.278   7.011
 3312SOL     OW10834   4.851   3.261   0.237
 3312SOL    HW110835   4.768   3.293   0.190
 3312SOL    HW210836   4.865   3.314   0.320
 3313SOL     OW10837   0.189   0.209   4.451
 3313SOL    HW110838   0.173   0.159   4.537
 3313SOL    HW210839   0.260   0.278   4.466
 3314SOL     OW10840   3.396   6.166   2.993
 3314SOL    HW110841   3.482   6.202   3.030
 3314SOL    HW210842   3.347   6.239   2.946
 3315SOL     OW10843   1.202   6.529   3.976
 3315SOL    HW110844   1.141   6.602   4.005
 3315SOL    HW210845   1.187   6.508   3.880
 3316SOL     OW10846   3.473   1.978   0.167
 3316SOL    HW110847   3.549   2.026   0.123
 3316SOL    HW210848   3.502   1.884   0.187
 3317SOL     OW10849   5.832   1.646   1.421
 3317SOL    HW110850   5.902   1.578   1.402
 3317SOL    HW210851   5.875   1.736   1.431
 3318SOL     OW10852   3.489   2.970   0.373
 3318SOL    HW110853   3.547   3.041   0.333
 3318SOL    HW210854   3.497   2.886   0.320
 3319SOL     OW10855   6.507   6.574   4.196
 3319SOL    HW110856   6.557   6.659   4.182
 3319SOL    HW210857   6.570   6.504   4.231
 3320SOL     OW10858   6.359   0.733   2.290
 3320SOL    HW110859   6.293   0.668   2.326
 3320SOL    HW210860   6.312   0.814   2.256
 3321SOL     OW10861   4.828   1.827   0.288
 3321SOL    HW110862   4.859   1.921   0.300
 3321SOL    HW210863   4.890   1.765   0.337
 3322SOL     OW10864   5.832   2.841   1.337
 3322SOL    HW110865   5.778   2.874   1.259
 3322SOL    HW210866   5.902   2.778   1.304
 3323SOL     OW10867   1.882   1.344   1.665
 3323SOL    HW110868   1.784   1.326   1.652
 3323SOL    HW210869   1.903   1.345   1.763
 3324SOL     OW10870   5.727   4.913   5.903
 3324SOL    HW110871   5.825   4.917   5.919
 3324SOL    HW210872   5.697   4.997   5.858
 3325SOL     OW10873   2.790   5.145   5.615
 3325SOL    HW110874   2.843   5.147   5.700
 3325SOL    HW210875   2.779   5.051   5.584
 3326SOL     OW10876   3.660   1.907   2.109
 3326SOL    HW110877   3.706   1.995   2.120
 3326SOL    HW210878   3.566   1.922   2.077
 3327SOL     OW10879   1.645   5.835   6.039
 3327SOL    HW110880   1.638   5.909   6.105
 3327SOL    HW210881   1.650   5.873   5.947
 3328SOL     OW10882   4.895   3.066   5.183
 3328SOL    HW110883   4.895   3.149   5.238
 3328SOL    HW210884   4.981   3.016   5.199
 3329SOL     OW10885   0.213   6.177   5.925
 3329SOL    HW110886   0.151   6.139   5.992
 3329SOL    HW210887   0.300   6.127   5.927
 3330SOL     OW10888   6.768   3.508   2.974
 3330SOL    HW110889   6.782   3.430   2.913
 3330SOL    HW210890   6.710   3.480   3.051
 3331SOL     OW10891   2.051   2.991   0.603
 3331SOL    HW110892   2.101   2.905   0.601
 3331SOL    HW210893   2.098   3.059   0.547
 3332SOL     OW10894   6.913   4.036   1.170
 3332SOL    HW110895   6.817   4.011   1.186
 3332SOL    HW210896   6.966   4.017   1.252
 3333SOL     OW10897   2.892   5.754   5.855
 3333SOL    HW110898   2.903   5.660   5.887
 3333SOL    HW210899   2.942   5.816   5.917
 3334SOL     OW10900   1.709   3.139   1.119
 3334SOL    HW110901   1.683   3.201   1.192
 3334SOL    HW210902   1.727   3.191   1.036
 3335SOL     OW10903   5.394   4.486   4.776
 3335SOL    HW110904   5.429   4.422   4.708
 3335SOL    HW210905   5.374   4.573   4.731
 3336SOL     OW10906   3.255   6.404   5.416
 3336SOL    HW110907   3.271   6.494   5.376
 3336SOL    HW210908   3.229   6.340   5.344
 3337SOL     OW10909   3.379   1.380   0.793
 3337SOL    HW110910   3.364   1.377   0.695
 3337SOL    HW210911   3.374   1.475   0.825
 3338SOL     OW10912   6.871   4.722   6.873
 3338SOL    HW110913   6.932   4.778   6.929
 3338SOL    HW210914   6.814   4.665   6.932
 3339SOL     OW10915   1.003   4.699   5.649
 3339SOL    HW110916   1.037   4.793   5.650
 3339SOL    HW210917   1.064   4.641   5.595
 3340SOL     OW10918   4.122   0.279   2.025
 3340SOL    HW110919   4.130   0.211   2.097
 3340SOL    HW210920   4.041   0.336   2.041
 3341SOL     OW10921   0.707   0.091   0.852
 3341SOL    HW110922   0.806   0.083   0.844
 3341SOL    HW210923   0.673   0.018   0.911
 3342SOL     OW10924   2.496   0.066   5.494
 3342SOL    HW110925   2.498   0.009   5.412
 3342SOL    HW210926   2.504   0.162   5.468
 3343SOL     OW10927   0.395   2.811   1.709
 3343SOL    HW110928   0.416   2.713   1.713
 3343SOL    HW210929   0.441   2.851   1.630
 3344SOL     OW10930   0.827   2.504   6.366
 3344SOL    HW110931   0.846   2.603   6.368
 3344SOL    HW210932   0.827   2.473   6.271
 3345SOL     OW10933   2.299   3.540   5.259
 3345SOL    HW110934   2.273   3.461   5.204
 3345SOL    HW210935   2.219   3.571   5.312
 3346SOL     OW10936   2.106   5.875   2.313
 3346SOL    HW110937   2.070   5.816   2.240
 3346SOL    HW210938   2.174   5.937   2.276
 3347SOL     OW10939   5.735   3.677   3.548
 3347SOL    HW110940   5.775   3.723   3.628
 3347SOL    HW210941   5.762   3.580   3.548
 3348SOL     OW10942   3.880   3.664   3.169
 3348SOL    HW110943   3.974   3.631   3.162
 3348SOL    HW210944   3.842   3.640   3.258
 3349SOL     OW10945   5.211   3.177   6.493
 3349SOL    HW110946   5.160   3.210   6.572
 3349SOL    HW210947   5.262   3.252   6.452
 3350SOL     OW10948   1.602   2.709   1.272
 3350SOL    HW110949   1.679   2.714   1.335
 3350SOL    HW210950   1.625   2.649   1.196
 3351SOL     OW10951   5.637   2.456   0.485
 3351SOL    HW110952   5.638   2.527   0.556
 3351SOL    HW210953   5.617   2.368   0.527
 3352SOL     OW10954   0.119   3.115   0.463
 3352SOL    HW110955   0.164   3.163   0.388
 3352SOL    HW210956   0.029   3.083   0.433
 3353SOL     OW10957   1.697   6.629   5.847
 3353SOL    HW110958   1.625   6.698   5.837
 3353SOL    HW210959   1.660   6.550   5.896
 3354SOL     OW10960   0.735   0.534   1.756
 3354SOL    HW110961   0.796   0.455   1.753
 3354SOL    HW210962   0.693   0.540   1.847
 3355SOL     OW10963   6.194   0.861   2.617
 3355SOL    HW110964   6.285   0.855   2.658
 3355SOL    HW210965   6.143   0.936   2.659
 3356SOL     OW10966   1.404   3.656   6.132
 3356SOL    HW110967   1.490   3.636   6.178
 3356SOL    HW210968   1.419   3.723   6.059
 3357SOL     OW10969   2.863   5.229   2.153
 3357SOL    HW110970   2.787   5.289   2.127
 3357SOL    HW210971   2.841   5.135   2.127
 3358SOL     OW10972   6.855   4.703   3.525
 3358SOL    HW110973   6.913   4.706   3.607
 3358SOL    HW210974   6.852   4.794   3.484
 3359SOL     OW10975   2.345   1.449   1.939
 3359SOL    HW110976   2.334   1.393   1.856
 3359SOL    HW210977   2.439   1.441   1.971
 3360SOL     OW10978   2.522   0.958   6.470
 3360SOL    HW110979   2.562   0.900   6.400
 3360SOL    HW210980   2.569   1.046   6.471
 3361SOL     OW10981   3.427   0.985   3.375
 3361SOL    HW110982   3.405   1.082   3.383
 3361SOL    HW210983   3.472   0.954   3.459
 3362SOL     OW10984   2.960   1.678   4.080
 3362SOL    HW110985   2.911   1.760   4.110
 3362SOL    HW210986   3.056   1.686   4.108
 3363SOL     OW10987   0.055   0.855   6.138
 3363SOL    HW110988   6.979   0.877   6.150
 3363SOL    HW210989   0.067   0.756   6.131
 3364SOL     OW10990   2.336   4.810   5.816
 3364SOL    HW110991   2.355   4.730   5.760
 3364SOL    HW210992   2.310   4.887   5.757
 3365SOL     OW10993   6.509   2.540   5.435
 3365SOL    HW110994   6.503   2.441   5.450
 3365SOL    HW210995   6.417   2.576   5.419
 3366SOL     OW10996   5.311   1.372   6.819
 3366SOL    HW110997   5.331   1.430   6.898
 3366SOL    HW210998   5.283   1.430   6.742
 3367SOL     OW10999   1.772   6.846   2.787
 3367SOL    HW111000   1.763   6.944   2.770
 3367SOL    HW211001   1.686   6.810   2.824
 3368SOL     OW11002   6.505   1.494   4.613
 3368SOL    HW111003   6.440   1.495   4.689
 3368SOL    HW211004   6.456   1.507   4.527
 3369SOL     OW11005   3.580   6.021   6.516
 3369SOL    HW111006   3.576   5.971   6.429
 3369SOL    HW211007   3.656   5.987   6.571
 3370SOL     OW11008   5.825   6.938   5.514
 3370SOL    HW111009   5.884   6.956   5.592
 3370SOL    HW211010   5.881   6.924   5.432
 3371SOL     OW11011   6.874   4.664   1.134
 3371SOL    HW111012   6.912   4.757   1.143
 3371SOL    HW211013   6.895   4.629   1.043
 3372SOL     OW11014   0.159   2.253   2.453
 3372SOL    HW111015   0.101   2.173   2.468
 3372SOL    HW211016   0.219   2.265   2.532
 3373SOL     OW11017   0.700   2.579   6.798
 3373SOL    HW111018   0.751   2.605   6.879
 3373SOL    HW211019   0.602   2.593   6.815
 3374SOL     OW11020   3.660   5.690   5.157
 3374SOL    HW111021   3.688   5.625   5.228
 3374SOL    HW211022   3.701   5.780   5.176
 3375SOL     OW11023   3.703   3.710   4.417
 3375SOL    HW111024   3.673   3.690   4.323
 3375SOL    HW211025   3.652   3.788   4.452
 3376SOL     OW11026   2.872   3.129   1.881
 3376SOL    HW111027   2.972   3.135   1.877
 3376SOL    HW211028   2.833   3.217   1.856
 3377SOL     OW11029   2.658   5.415   5.538
 3377SOL    HW111030   2.718   5.352   5.588
 3377SOL    HW211031   2.605   5.363   5.470
 3378SOL     OW11032   0.499   1.192   0.694
 3378SOL    HW111033   0.485   1.236   0.605
 3378SOL    HW211034   0.499   1.261   0.766
 3379SOL     OW11035   6.094   4.869   5.558
 3379SOL    HW111036   6.146   4.792   5.522
 3379SOL    HW211037   6.157   4.943   5.584
 3380SOL     OW11038   0.512   3.835   5.155
 3380SOL    HW111039   0.490   3.738   5.149
 3380SOL    HW211040   0.578   3.850   5.228
 3381SOL     OW11041   3.369   2.308   1.750
 3381SOL    HW111042   3.349   2.406   1.747
 3381SOL    HW211043   3.459   2.293   1.792
 3382SOL     OW11044   0.089   6.774   0.170
 3382SOL    HW111045   0.132   6.684   0.155
 3382SOL    HW211046   0.155   6.846   0.151
 3383SOL     OW11047   0.651   4.288   2.025
 3383SOL    HW111048   0.699   4.226   2.087
 3383SOL    HW211049   0.640   4.244   1.936
 3384SOL     OW11050   3.199   3.084   4.143
 3384SOL    HW111051   3.266   3.157   4.150
 3384SOL    HW211052   3.155   3.070   4.231
 3385SOL     OW11053   6.902   4.552   3.813
 3385SOL    HW111054   6.873   4.458   3.796
 3385SOL    HW211055   6.826   4.604   3.850
 3386SOL     OW11056   6.229   4.109   4.623
 3386SOL    HW111057   6.278   4.136   4.705
 3386SOL    HW211058   6.200   4.191   4.573
 3387SOL     OW11059   3.333   1.801   2.822
 3387SOL    HW111060   3.267   1.727   2.819
 3387SOL    HW211061   3.294   1.878   2.874
 3388SOL     OW11062   5.600   2.190   1.654
 3388SOL    HW111063   5.604   2.125   1.578
 3388SOL    HW211064   5.509   2.232   1.658
 3389SOL     OW11065   4.273   5.323   2.857
 3389SOL    HW111066   4.253   5.356   2.765
 3389SOL    HW211067   4.372   5.309   2.867
 3390SOL     OW11068   4.552   2.158   5.720
 3390SOL    HW111069   4.620   2.221   5.758
 3390SOL    HW211070   4.461   2.184   5.751
 3391SOL     OW11071   3.519   2.023   3.934
 3391SOL    HW111072   3.575   1.952   3.891
 3391SOL    HW211073   3.424   2.014   3.905
 3392SOL     OW11074   4.762   5.671   3.177
 3392SOL    HW111075   4.715   5.709   3.098
 3392SOL    HW211076   4.695   5.639   3.244
 3393SOL     OW11077   0.232   0.470   0.433
 3393SOL    HW111078   0.177   0.553   0.439
 3393SOL    HW211079   0.326   0.493   0.410
 3394SOL     OW11080   5.756   1.009   2.558
 3394SOL    HW111081   5.676   0.951   2.543
 3394SOL    HW211082   5.734   1.078   2.628
 3395SOL     OW11083   1.171   3.823   5.530
 3395SOL    HW111084   1.203   3.794   5.440
 3395SOL    HW211085   1.073   3.805   5.538
 3396SOL     OW11086   6.206   3.451   4.361
 3396SOL    HW111087   6.234   3.542   4.392
 3396SOL    HW211088   6.203   3.388   4.438
 3397SOL     OW11089   3.317   5.898   6.123
 3397SOL    HW111090   3.297   5.933   6.215
 3397SOL    HW211091   3.363   5.969   6.069
 3398SOL     OW11092   0.653   0.921   2.855
 3398SOL    HW111093   0.653   0.821   2.857
 3398SOL    HW211094   0.727   0.956   2.913
 3399SOL     OW11095   4.286   5.678   5.077
 3399SOL    HW111096   4.186   5.688   5.077
 3399SOL    HW211097   4.315   5.638   5.164
 3400SOL     OW11098   5.084   2.479   0.201
 3400SOL    HW111099   5.180   2.488   0.227
 3400SOL    HW211100   5.045   2.569   0.183
 3401SOL     OW11101   6.823   4.439   6.475
 3401SOL    HW111102   6.828   4.523   6.529
 3401SOL    HW211103   6.741   4.388   6.500
 3402SOL     OW11104   5.496   5.124   2.308
 3402SOL    HW111105   5.538   5.128   2.399
 3402SOL    HW211106   5.500   5.215   2.266
 3403SOL     OW11107   3.123   1.807   5.166
 3403SOL    HW111108   3.077   1.851   5.089
 3403SOL    HW211109   3.202   1.863   5.193
 3404SOL     OW11110   4.591   0.125   1.368
 3404SOL    HW111111   4.544   0.050   1.416
 3404SOL    HW211112   4.631   0.188   1.435
 3405SOL     OW11113   6.145   3.962   0.029
 3405SOL    HW111114   6.076   3.914   0.083
 3405SOL    HW211115   6.100   4.030   6.991
 3406SOL     OW11116   0.948   4.203   1.480
 3406SOL    HW111117   0.935   4.191   1.578
 3406SOL    HW211118   0.932   4.298   1.455
 3407SOL     OW11119   1.438   5.017   2.666
 3407SOL    HW111120   1.485   4.930   2.653
 3407SOL    HW211121   1.342   5.000   2.688
 3408SOL     OW11122   5.291   3.930   2.969
 3408SOL    HW111123   5.191   3.920   2.970
 3408SOL    HW211124   5.328   3.902   3.058
 3409SOL     OW11125   2.780   1.081   5.668
 3409SOL    HW111126   2.736   0.992   5.683
 3409SOL    HW211127   2.714   1.145   5.628
 3410SOL     OW11128   0.087   1.194   0.238
 3410SOL    HW111129   0.136   1.275   0.206
 3410SOL    HW211130   0.110   1.178   0.334
 3411SOL     OW11131   4.359   2.399   2.410
 3411SOL    HW111132   4.404   2.473   2.361
 3411SOL    HW211133   4.271   2.379   2.366
 3412SOL     OW11134   4.148   5.607   6.701
 3412SOL    HW111135   4.216   5.573   6.766
 3412SOL    HW211136   4.057   5.584   6.734
 3413SOL     OW11137   4.832   1.372   2.391
 3413SOL    HW111138   4.773   1.437   2.344
 3413SOL    HW211139   4.918   1.416   2.416
 3414SOL     OW11140   3.753   0.987   5.078
 3414SOL    HW111141   3.802   0.903   5.055
 3414SOL    HW211142   3.744   0.994   5.177
 3415SOL     OW11143   1.314   5.044   4.434
 3415SOL    HW111144   1.293   4.953   4.472
 3415SOL    HW211145   1.254   5.112   4.477
 3416SOL     OW11146   2.416   4.454   6.122
 3416SOL    HW111147   2.414   4.535   6.181
 3416SOL    HW211148   2.374   4.377   6.170
 3417SOL     OW11149   5.890   1.045   1.116
 3417SOL    HW111150   5.960   0.980   1.148
 3417SOL    HW211151   5.799   1.011   1.142
 3418SOL     OW11152   3.064   2.943   6.263
 3418SOL    HW111153   3.001   3.021   6.266
 3418SOL    HW211154   3.158   2.977   6.271
 3419SOL     OW11155   4.809   3.923   6.841
 3419SOL    HW111156   4.755   3.972   6.909
 3419SOL    HW211157   4.751   3.861   6.790
 3420SOL     OW11158   4.305   1.593   3.875
 3420SOL    HW111159   4.389   1.621   3.828
 3420SOL    HW211160   4.249   1.538   3.813
 3421SOL     OW11161   0.427   6.803   2.480
 3421SOL    HW111162   0.470   6.836   2.564
 3421SOL    HW211163   0.434   6.704   2.475
 3422SOL     OW11164   3.038   2.176   2.845
 3422SOL    HW111165   3.042   2.082   2.812
 3422SOL    HW211166   3.010   2.236   2.770
 3423SOL     OW11167   2.843   0.442   1.881
 3423SOL    HW111168   2.937   0.431   1.849
 3423SOL    HW211169   2.783   0.464   1.803
 3424SOL     OW11170   4.651   1.047   1.810
 3424SOL    HW111171   4.627   0.952   1.792
 3424SOL    HW211172   4.708   1.052   1.891
 3425SOL     OW11173   4.786   4.165   1.632
 3425SOL    HW111174   4.696   4.209   1.638
 3425SOL    HW211175   4.779   4.071   1.664
 3426SOL     OW11176   4.498   3.843   0.802
 3426SOL    HW111177   4.499   3.832   0.901
 3426SOL    HW211178   4.448   3.926   0.778
 3427SOL     OW11179   1.271   1.640   0.480
 3427SOL    HW111180   1.328   1.705   0.529
 3427SOL    HW211181   1.178   1.640   0.520
 3428SOL     OW11182   4.083   4.898   3.185
 3428SOL    HW111183   4.120   4.816   3.143
 3428SOL    HW211184   4.052   4.961   3.114
 3429SOL     OW11185   6.940   2.718   0.537
 3429SOL    HW111186   0.004   2.772   0.541
 3429SOL    HW211187   6.962   2.621   0.537
 3430SOL     OW11188   1.277   5.345   6.540
 3430SOL    HW111189   1.305   5.350   6.636
 3430SOL    HW211190   1.181   5.317   6.534
 3431SOL     OW11191   1.776   6.535   6.665
 3431SOL    HW111192   1.711   6.536   6.589
 3431SOL    HW211193   1.824   6.622   6.669
 3432SOL     OW11194   2.814   1.795   0.036
 3432SOL    HW111195   2.870   1.732   0.089
 3432SOL    HW211196   2.734   1.822   0.089
 3433SOL     OW11197   5.095   1.279   4.760
 3433SOL    HW111198   5.080   1.300   4.857
 3433SOL    HW211199   5.124   1.184   4.751
 3434SOL     OW11200   4.329   1.919   3.556
 3434SOL    HW111201   4.429   1.928   3.565
 3434SOL    HW211202   4.307   1.893   3.462
 3435SOL     OW11203   0.506   0.943   0.087
 3435SOL    HW111204   0.562   0.992   0.154
 3435SOL    HW211205   0.564   0.906   0.015
 3436SOL     OW11206   4.638   6.770   3.053
 3436SOL    HW111207   4.697   6.844   3.084
 3436SOL    HW211208   4.550   6.775   3.102
 3437SOL     OW11209   4.966   0.708   6.837
 3437SOL    HW111210   4.949   0.614   6.809
 3437SOL    HW211211   4.897   0.736   6.903
 3438SOL     OW11212   1.297   4.858   6.761
 3438SOL    HW111213   1.375   4.900   6.714
 3438SOL    HW211214   1.213   4.903   6.734
 3439SOL     OW11215   2.527   0.017   3.714
 3439SOL    HW111216   2.487   0.109   3.712
 3439SOL    HW211217   2.473   6.976   3.655
 3440SOL     OW11218   2.958   2.350   0.598
 3440SOL    HW111219   3.012   2.421   0.643
 3440SOL    HW211220   2.911   2.295   0.668
 3441SOL     OW11221   4.561   0.423   4.193
 3441SOL    HW111222   4.494   0.487   4.230
 3441SOL    HW211223   4.653   0.452   4.219
 3442SOL     OW11224   0.895   4.822   3.002
 3442SOL    HW111225   0.860   4.914   2.984
 3442SOL    HW211226   0.991   4.817   2.973
 3443SOL     OW11227   5.802   6.643   4.089
 3443SOL    HW111228   5.836   6.736   4.076
 3443SOL    HW211229   5.704   6.645   4.107
 3444SOL     OW11230   4.499   4.691   0.372
 3444SOL    HW111231   4.538   4.665   0.460
 3444SOL    HW211232   4.521   4.787   0.352
 3445SOL     OW11233   5.568   5.081   4.374
 3445SOL    HW111234   5.508   5.002   4.387
 3445SOL    HW211235   5.619   5.099   4.459
 3446SOL     OW11236   2.962   6.617   2.639
 3446SOL    HW111237   3.030   6.662   2.580
 3446SOL    HW211238   2.871   6.653   2.618
 3447SOL     OW11239   6.112   4.449   5.692
 3447SOL    HW111240   6.169   4.490   5.763
 3447SOL    HW211241   6.053   4.519   5.651
 3448SOL     OW11242   3.389   2.940   0.969
 3448SOL    HW111243   3.466   2.968   0.911
 3448SOL    HW211244   3.396   2.842   0.989
 3449SOL     OW11245   6.807   6.205   2.743
 3449SOL    HW111246   6.817   6.187   2.841
 3449SOL    HW211247   6.804   6.119   2.693
 3450SOL     OW11248   0.982   1.967   1.104
 3450SOL    HW111249   0.993   1.938   1.009
 3450SOL    HW211250   1.071   1.994   1.141
 3451SOL     OW11251   1.401   4.605   4.306
 3451SOL    HW111252   1.405   4.517   4.258
 3451SOL    HW211253   1.309   4.642   4.301
 3452SOL     OW11254   6.779   1.900   0.798
 3452SOL    HW111255   6.843   1.969   0.763
 3452SOL    HW211256   6.747   1.844   0.722
 3453SOL     OW11257   6.162   6.601   5.537
 3453SOL    HW111258   6.246   6.651   5.557
 3453SOL    HW211259   6.103   6.603   5.618
 3454SOL     OW11260   1.633   1.264   0.505
 3454SOL    HW111261   1.592   1.355   0.505
 3454SOL    HW211262   1.628   1.226   0.413
 3455SOL     OW11263   2.457   2.679   3.984
 3455SOL    HW111264   2.502   2.710   3.900
 3455SOL    HW211265   2.386   2.744   4.009
 3456SOL     OW11266   6.814   0.048   0.704
 3456SOL    HW111267   6.846   0.101   0.626
 3456SOL    HW211268   6.862   6.981   0.707
 3457SOL     OW11269   1.966   6.562   3.646
 3457SOL    HW111270   1.870   6.568   3.619
 3457SOL    HW211271   2.006   6.654   3.648
 3458SOL     OW11272   5.300   4.733   0.453
 3458SOL    HW111273   5.201   4.738   0.441
 3458SOL    HW211274   5.338   4.825   0.461
 3459SOL     OW11275   6.766   6.365   3.214
 3459SOL    HW111276   6.774   6.268   3.237
 3459SOL    HW211277   6.682   6.402   3.254
 3460SOL     OW11278   3.643   3.109   6.143
 3460SOL    HW111279   3.626   3.171   6.067
 3460SOL    HW211280   3.703   3.036   6.114
 3461SOL     OW11281   2.565   5.234   3.257
 3461SOL    HW111282   2.554   5.318   3.203
 3461SOL    HW211283   2.523   5.248   3.347
 3462SOL     OW11284   5.318   2.824   2.535
 3462SOL    HW111285   5.273   2.895   2.481
 3462SOL    HW211286   5.265   2.807   2.618
 3463SOL     OW11287   1.779   2.678   1.485
 3463SOL    HW111288   1.806   2.696   1.579
 3463SOL    HW211289   1.751   2.583   1.476
 3464SOL     OW11290   5.224   2.140   6.081
 3464SOL    HW111291   5.244   2.043   6.098
 3464SOL    HW211292   5.246   2.163   5.987
 3465SOL     OW11293   1.839   4.340   1.600
 3465SOL    HW111294   1.764   4.346   1.535
 3465SOL    HW211295   1.812   4.282   1.677
 3466SOL     OW11296   6.226   4.364   3.954
 3466SOL    HW111297   6.269   4.377   4.043
 3466SOL    HW211298   6.237   4.446   3.899
 3467SOL     OW11299   3.234   2.918   1.363
 3467SOL    HW111300   3.141   2.922   1.327
 3467SOL    HW211301   3.230   2.904   1.462
 3468SOL     OW11302   3.779   1.527   0.792
 3468SOL    HW111303   3.811   1.435   0.814
 3468SOL    HW211304   3.683   1.523   0.764
 3469SOL     OW11305   3.879   5.794   5.458
 3469SOL    HW111306   3.965   5.808   5.507
 3469SOL    HW211307   3.816   5.741   5.515
 3470SOL     OW11308   0.878   2.470   2.073
 3470SOL    HW111309   0.928   2.388   2.103
 3470SOL    HW211310   0.782   2.447   2.057
 3471SOL     OW11311   4.803   3.027   4.756
 3471SOL    HW111312   4.894   3.056   4.787
 3471SOL    HW211313   4.734   3.076   4.809
 3472SOL     OW11314   4.420   1.820   3.150
 3472SOL    HW111315   4.380   1.899   3.104
 3472SOL    HW211316   4.489   1.851   3.216
 3473SOL     OW11317   5.951   4.748   2.072
 3473SOL    HW111318   5.938   4.653   2.100
 3473SOL    HW211319   6.027   4.754   2.008
 3474SOL     OW11320   4.882   4.651   3.955
 3474SOL    HW111321   4.871   4.750   3.967
 3474SOL    HW211322   4.979   4.629   3.943
 3475SOL     OW11323   0.046   4.242   3.980
 3475SOL    HW111324   0.036   4.269   3.884
 3475SOL    HW211325   7.018   4.157   3.996
 3476SOL     OW11326   1.591   1.412   3.192
 3476SOL    HW111327   1.647   1.481   3.238
 3476SOL    HW211328   1.494   1.432   3.209
 3477SOL     OW11329   0.543   4.634   2.068
 3477SOL    HW111330   0.594   4.554   2.039
 3477SOL    HW211331   0.561   4.710   2.007
 3478SOL     OW11332   2.251   0.401   1.414
 3478SOL    HW111333   2.325   0.456   1.376
 3478SOL    HW211334   2.167   0.455   1.416
 3479SOL     OW11335   1.415   4.578   4.953
 3479SOL    HW111336   1.468   4.627   5.022
 3479SOL    HW211337   1.332   4.540   4.995
 3480SOL     OW11338   1.424   4.660   6.478
 3480SOL    HW111339   1.377   4.617   6.402
 3480SOL    HW211340   1.404   4.758   6.478
 3481SOL     OW11341   6.233   0.493   4.716
 3481SOL    HW111342   6.214   0.409   4.767
 3481SOL    HW211343   6.173   0.566   4.749
 3482SOL     OW11344   5.789   3.071   6.416
 3482SOL    HW111345   5.698   3.041   6.446
 3482SOL    HW211346   5.829   3.130   6.486
 3483SOL     OW11347   5.506   2.665   5.427
 3483SOL    HW111348   5.542   2.724   5.498
 3483SOL    HW211349   5.542   2.572   5.438
 3484SOL     OW11350   1.024   3.836   5.116
 3484SOL    HW111351   0.976   3.767   5.170
 3484SOL    HW211352   0.970   3.858   5.034
 3485SOL     OW11353   6.937   2.736   6.703
 3485SOL    HW111354   6.912   2.832   6.696
 3485SOL    HW211355   6.879   2.681   6.643
 3486SOL     OW11356   1.861   6.510   5.675
 3486SOL    HW111357   1.805   6.560   5.741
 3486SOL    HW211358   1.933   6.460   5.723
 3487SOL     OW11359   4.388   1.144   0.085
 3487SOL    HW111360   4.462   1.210   0.073
 3487SOL    HW211361   4.316   1.162   0.019
 3488SOL     OW11362   5.976   0.113   4.509
 3488SOL    HW111363   5.929   0.106   4.421
 3488SOL    HW211364   5.990   0.210   4.531
 3489SOL     OW11365   3.234   6.102   1.141
 3489SOL    HW111366   3.313   6.096   1.080
 3489SOL    HW211367   3.260   6.153   1.223
 3490SOL     OW11368   3.234   6.560   0.654
 3490SOL    HW111369   3.236   6.565   0.753
 3490SOL    HW211370   3.286   6.637   0.616
 3491SOL     OW11371   3.881   4.614   6.000
 3491SOL    HW111372   3.956   4.565   6.044
 3491SOL    HW211373   3.902   4.712   5.998
 3492SOL     OW11374   6.023   4.518   3.099
 3492SOL    HW111375   5.980   4.428   3.088
 3492SOL    HW211376   6.122   4.508   3.097
 3493SOL     OW11377   6.887   2.729   5.397
 3493SOL    HW111378   6.855   2.685   5.481
 3493SOL    HW211379   6.821   2.712   5.323
 3494SOL     OW11380   4.103   1.791   2.435
 3494SOL    HW111381   4.149   1.764   2.350
 3494SOL    HW211382   4.021   1.735   2.447
 3495SOL     OW11383   1.398   3.372   3.184
 3495SOL    HW111384   1.383   3.349   3.088
 3495SOL    HW211385   1.391   3.289   3.239
 3496SOL     OW11386   6.068   4.731   1.369
 3496SOL    HW111387   6.121   4.741   1.284
 3496SOL    HW211388   5.990   4.671   1.353
 3497SOL     OW11389   3.236   7.007   2.204
 3497SOL    HW111390   3.239   0.044   2.286
 3497SOL    HW211391   3.141   6.999   2.173
 3498SOL     OW11392   1.912   2.730   1.713
 3498SOL    HW111393   1.959   2.643   1.722
 3498SOL    HW211394   1.973   2.797   1.671
 3499SOL     OW11395   6.249   6.474   4.504
 3499SOL    HW111396   6.254   6.512   4.412
 3499SOL    HW211397   6.154   6.462   4.531
 3500SOL     OW11398   2.352   2.282   4.292
 3500SOL    HW111399   2.327   2.188   4.316
 3500SOL    HW211400   2.337   2.296   4.194
 3501SOL     OW11401   1.192   0.072   5.884
 3501SOL    HW111402   1.238   0.150   5.842
 3501SOL    HW211403   1.182   0.088   5.982
 3502SOL     OW11404   4.523   2.512   2.613
 3502SOL    HW111405   4.553   2.595   2.566
 3502SOL    HW211406   4.468   2.456   2.550
 3503SOL     OW11407   6.937   5.764   6.544
 3503SOL    HW111408   6.869   5.837   6.559
 3503SOL    HW211409   6.889   5.679   6.522
 3504SOL     OW11410   1.815   0.415   0.453
 3504SOL    HW111411   1.746   0.398   0.524
 3504SOL    HW211412   1.787   0.494   0.398
 3505SOL     OW11413   4.892   3.882   6.122
 3505SOL    HW111414   4.897   3.879   6.222
 3505SOL    HW211415   4.919   3.972   6.089
 3506SOL     OW11416   4.252   5.049   4.963
 3506SOL    HW111417   4.170   5.011   5.008
 3506SOL    HW211418   4.265   5.143   4.993
 3507SOL     OW11419   3.180   1.021   0.639
 3507SOL    HW111420   3.181   1.001   0.737
 3507SOL    HW211421   3.273   1.035   0.607
 3508SOL     OW11422   3.582   1.332   5.173
 3508SOL    HW111423   3.576   1.431   5.157
 3508SOL    HW211424   3.556   1.283   5.089
 3509SOL     OW11425   3.976   5.807   6.196
 3509SOL    HW111426   3.947   5.711   6.206
 3509SOL    HW211427   3.899   5.867   6.216
 3510SOL     OW11428   2.567   1.538   1.350
 3510SOL    HW111429   2.485   1.482   1.360
 3510SOL    HW211430   2.571   1.576   1.258
 3511SOL     OW11431   2.705   4.424   1.631
 3511SOL    HW111432   2.760   4.341   1.625
 3511SOL    HW211433   2.751   4.489   1.692
 3512SOL     OW11434   0.116   5.425   5.546
 3512SOL    HW111435   0.033   5.440   5.601
 3512SOL    HW211436   0.090   5.386   5.458
 3513SOL     OW11437   6.182   1.854   0.996
 3513SOL    HW111438   6.119   1.912   1.047
 3513SOL    HW211439   6.138   1.823   0.912
 3514SOL     OW11440   3.450   1.631   1.882
 3514SOL    HW111441   3.404   1.607   1.968
 3514SOL    HW211442   3.388   1.685   1.826
 3515SOL     OW11443   0.240   5.057   4.480
 3515SOL    HW111444   0.322   5.008   4.511
 3515SOL    HW211445   0.264   5.153   4.465
 3516SOL     OW11446   4.899   0.749   1.548
 3516SOL    HW111447   4.817   0.727   1.601
 3516SOL    HW211448   4.954   0.666   1.536
 3517SOL     OW11449   5.748   0.739   1.232
 3517SOL    HW111450   5.707   0.652   1.202
 3517SOL    HW211451   5.692   0.815   1.197
 3518SOL     OW11452   5.414   0.726   5.130
 3518SOL    HW111453   5.466   0.664   5.188
 3518SOL    HW211454   5.418   0.819   5.168
 3519SOL     OW11455   3.502   0.618   1.010
 3519SOL    HW111456   3.509   0.583   1.104
 3519SOL    HW211457   3.594   0.625   0.971
 3520SOL     OW11458   3.004   5.944   4.258
 3520SOL    HW111459   2.913   5.910   4.280
 3520SOL    HW211460   3.073   5.887   4.303
 3521SOL     OW11461   2.652   2.954   6.200
 3521SOL    HW111462   2.720   2.980   6.131
 3521SOL    HW211463   2.698   2.938   6.287
 3522SOL     OW11464   0.921   6.175   6.256
 3522SOL    HW111465   0.889   6.141   6.344
 3522SOL    HW211466   0.893   6.270   6.245
 3523SOL     OW11467   2.921   6.210   0.012
 3523SOL    HW111468   2.824   6.208   7.005
 3523SOL    HW211469   2.950   6.305   0.022
 3524SOL     OW11470   4.982   1.401   3.948
 3524SOL    HW111471   5.015   1.433   3.859
 3524SOL    HW211472   5.043   1.330   3.983
 3525SOL     OW11473   0.269   3.261   3.159
 3525SOL    HW111474   0.284   3.163   3.150
 3525SOL    HW211475   0.349   3.311   3.126
 3526SOL     OW11476   0.091   6.558   2.034
 3526SOL    HW111477   7.012   6.565   2.020
 3526SOL    HW211478   0.131   6.649   2.033
 3527SOL     OW11479   0.574   2.884   6.358
 3527SOL    HW111480   0.530   2.852   6.275
 3527SOL    HW211481   0.505   2.901   6.428
 3528SOL     OW11482   2.507   5.688   4.379
 3528SOL    HW111483   2.551   5.599   4.391
 3528SOL    HW211484   2.423   5.691   4.433
 3529SOL     OW11485   4.478   4.454   0.996
 3529SOL    HW111486   4.470   4.380   0.930
 3529SOL    HW211487   4.547   4.431   1.064
 3530SOL     OW11488   6.463   6.827   0.761
 3530SOL    HW111489   6.370   6.832   0.798
 3530SOL    HW211490   6.492   6.732   0.754
 3531SOL     OW11491   4.802   2.458   0.520
 3531SOL    HW111492   4.756   2.479   0.434
 3531SOL    HW211493   4.870   2.528   0.540
 3532SOL     OW11494   1.903   0.774   1.696
 3532SOL    HW111495   1.841   0.849   1.718
 3532SOL    HW211496   1.930   0.780   1.600
 3533SOL     OW11497   1.031   1.644   3.141
 3533SOL    HW111498   1.068   1.679   3.055
 3533SOL    HW211499   1.106   1.632   3.207
 3534SOL     OW11500   0.119   1.271   1.010
 3534SOL    HW111501   0.066   1.249   0.929
 3534SOL    HW211502   0.194   1.206   1.020
 3535SOL     OW11503   3.229   5.775   4.262
 3535SOL    HW111504   3.326   5.790   4.284
 3535SOL    HW211505   3.219   5.765   4.163
 3536SOL     OW11506   3.806   1.528   3.161
 3536SOL    HW111507   3.831   1.612   3.208
 3536SOL    HW211508   3.854   1.524   3.073
 3537SOL     OW11509   1.657   0.125   3.741
 3537SOL    HW111510   1.702   0.035   3.739
 3537SOL    HW211511   1.628   0.146   3.834
 3538SOL     OW11512   2.970   5.800   2.632
 3538SOL    HW111513   2.930   5.757   2.551
 3538SOL    HW211514   3.060   5.837   2.609
 3539SOL     OW11515   3.470   3.646   3.828
 3539SOL    HW111516   3.373   3.622   3.840
 3539SOL    HW211517   3.479   3.713   3.754
 3540SOL     OW11518   1.833   1.863   3.317
 3540SOL    HW111519   1.844   1.856   3.218
 3540SOL    HW211520   1.896   1.800   3.362
 3541SOL     OW11521   3.800   3.888   4.098
 3541SOL    HW111522   3.810   3.911   4.195
 3541SOL    HW211523   3.792   3.972   4.045
 3542SOL     OW11524   6.592   5.338   1.117
 3542SOL    HW111525   6.666   5.274   1.135
 3542SOL    HW211526   6.616   5.428   1.154
 3543SOL     OW11527   5.596   2.948   5.039
 3543SOL    HW111528   5.547   3.026   5.000
 3543SOL    HW211529   5.574   2.939   5.136
 3544SOL     OW11530   2.112   6.554   6.948
 3544SOL    HW111531   2.201   6.513   6.929
 3544SOL    HW211532   2.092   6.624   6.879
 3545SOL     OW11533   3.156   4.944   0.387
 3545SOL    HW111534   3.063   4.920   0.357
 3545SOL    HW211535   3.202   4.994   0.313
 3546SOL     OW11536   0.102   5.055   2.524
 3546SOL    HW111537   0.137   5.082   2.435
 3546SOL    HW211538   0.036   4.980   2.513
 3547SOL     OW11539   5.010   4.671   4.690
 3547SOL    HW111540   5.060   4.630   4.613
 3547SOL    HW211541   4.965   4.599   4.743
 3548SOL     OW11542   4.777   3.604   5.842
 3548SOL    HW111543   4.820   3.653   5.766
 3548SOL    HW211544   4.837   3.607   5.921
 3549SOL     OW11545   5.775   3.432   2.553
 3549SOL    HW111546   5.788   3.334   2.567
 3549SOL    HW211547   5.686   3.449   2.512
 3550SOL     OW11548   5.513   1.480   3.154
 3550SOL    HW111549   5.559   1.569   3.159
 3550SOL    HW211550   5.451   1.480   3.075
 3551SOL     OW11551   1.969   6.394   3.150
 3551SOL    HW111552   2.032   6.385   3.227
 3551SOL    HW211553   2.011   6.356   3.068
 3552SOL     OW11554   7.015   4.509   3.325
 3552SOL    HW111555   6.972   4.419   3.328
 3552SOL    HW211556   6.973   4.569   3.393
 3553SOL     OW11557   5.571   2.388   3.268
 3553SOL    HW111558   5.473   2.366   3.276
 3553SOL    HW211559   5.618   2.310   3.226
 3554SOL     OW11560   3.960   5.855   7.002
 3554SOL    HW111561   3.870   5.897   6.989
 3554SOL    HW211562   4.011   5.859   6.916
 3555SOL     OW11563   0.119   2.242   3.275
 3555SOL    HW111564   0.170   2.323   3.246
 3555SOL    HW211565   0.028   2.243   3.233
 3556SOL     OW11566   4.465   1.041   6.703
 3556SOL    HW111567   4.531   1.110   6.676
 3556SOL    HW211568   4.372   1.078   6.695
 3557SOL     OW11569   0.979   0.134   4.422
 3557SOL    HW111570   1.037   0.062   4.461
 3557SOL    HW211571   0.922   0.173   4.495
 3558SOL     OW11572   6.795   6.328   2.098
 3558SOL    HW111573   6.829   6.331   2.192
 3558SOL    HW211574   6.740   6.409   2.080
 3559SOL     OW11575   1.203   0.457   5.287
 3559SOL    HW111576   1.145   0.538   5.297
 3559SOL    HW211577   1.164   0.382   5.341
 3560SOL     OW11578   6.386   6.651   1.851
 3560SOL    HW111579   6.461   6.648   1.784
 3560SOL    HW211580   6.421   6.625   1.941
 3561SOL     OW11581   5.139   4.239   3.806
 3561SOL    HW111582   5.080   4.217   3.884
 3561SOL    HW211583   5.234   4.219   3.830
 3562SOL     OW11584   4.032   2.038   3.246
 3562SOL    HW111585   4.110   2.096   3.266
 3562SOL    HW211586   3.994   2.002   3.331
 3563SOL     OW11587   4.933   0.196   1.341
 3563SOL    HW111588   5.025   0.222   1.369
 3563SOL    HW211589   4.869   0.214   1.416
 3564SOL     OW11590   6.979   4.465   2.912
 3564SOL    HW111591   6.884   4.495   2.910
 3564SOL    HW211592   0.017   4.538   2.876
 3565SOL     OW11593   1.482   0.745   5.356
 3565SOL    HW111594   1.428   0.778   5.433
 3565SOL    HW211595   1.522   0.656   5.378
 3566SOL     OW11596   0.852   4.665   6.244
 3566SOL    HW111597   0.895   4.748   6.280
 3566SOL    HW211598   0.796   4.623   6.316
 3567SOL     OW11599   0.239   2.940   1.393
 3567SOL    HW111600   0.178   2.950   1.471
 3567SOL    HW211601   0.330   2.976   1.416
 3568SOL     OW11602   4.897   4.262   3.495
 3568SOL    HW111603   4.900   4.174   3.543
 3568SOL    HW211604   4.929   4.250   3.401
 3569SOL     OW11605   4.090   3.550   3.501
 3569SOL    HW111606   4.096   3.558   3.601
 3569SOL    HW211607   4.059   3.457   3.477
 3570SOL     OW11608   0.498   1.769   5.379
 3570SOL    HW111609   0.581   1.799   5.334
 3570SOL    HW211610   0.513   1.764   5.478
 3571SOL     OW11611   2.280   6.946   4.720
 3571SOL    HW111612   2.296   6.982   4.628
 3571SOL    HW211613   2.301   7.017   4.787
 3572SOL     OW11614   5.296   3.831   1.571
 3572SOL    HW111615   5.370   3.820   1.637
 3572SOL    HW211616   5.314   3.910   1.513
 3573SOL     OW11617   0.049   4.776   3.863
 3573SOL    HW111618   7.013   4.824   3.931
 3573SOL    HW211619   7.016   4.701   3.823
 3574SOL     OW11620   1.934   2.060   5.621
 3574SOL    HW111621   1.907   1.964   5.629
 3574SOL    HW211622   2.033   2.066   5.609
 3575SOL     OW11623   5.317   0.219   6.858
 3575SOL    HW111624   5.248   0.167   6.808
 3575SOL    HW211625   5.310   0.316   6.833
 3576SOL     OW11626   1.176   2.911   0.419
 3576SOL    HW111627   1.259   2.948   0.378
 3576SOL    HW211628   1.124   2.986   0.462
 3577SOL     OW11629   1.472   2.616   4.961
 3577SOL    HW111630   1.522   2.636   4.876
 3577SOL    HW211631   1.381   2.581   4.940
 3578SOL     OW11632   3.563   2.739   6.532
 3578SOL    HW111633   3.608   2.822   6.564
 3578SOL    HW211634   3.594   2.719   6.439
 3579SOL     OW11635   0.740   3.935   1.021
 3579SOL    HW111636   0.699   4.014   1.066
 3579SOL    HW211637   0.829   3.915   1.062
 3580SOL     OW11638   6.997   4.252   1.978
 3580SOL    HW111639   0.006   4.263   2.072
 3580SOL    HW211640   6.905   4.292   1.967
 3581SOL     OW11641   1.143   0.842   2.807
 3581SOL    HW111642   1.156   0.747   2.837
 3581SOL    HW211643   1.220   0.897   2.838
 3582SOL     OW11644   4.490   5.970   6.912
 3582SOL    HW111645   4.539   6.016   6.986
 3582SOL    HW211646   4.473   5.875   6.938
 3583SOL     OW11647   1.428   5.380   1.228
 3583SOL    HW111648   1.471   5.372   1.317
 3583SOL    HW211649   1.345   5.436   1.236
 3584SOL     OW11650   5.753   4.992   4.616
 3584SOL    HW111651   5.740   4.900   4.654
 3584SOL    HW211652   5.808   5.047   4.680
 3585SOL     OW11653   3.603   2.007   3.559
 3585SOL    HW111654   3.690   2.027   3.603
 3585SOL    HW211655   3.558   1.931   3.606
 3586SOL     OW11656   6.716   1.843   5.516
 3586SOL    HW111657   6.781   1.778   5.556
 3586SOL    HW211658   6.633   1.795   5.488
 3587SOL     OW11659   3.035   0.797   5.768
 3587SOL    HW111660   2.949   0.747   5.779
 3587SOL    HW211661   3.112   0.734   5.780
 3588SOL     OW11662   5.721   4.615   4.464
 3588SOL    HW111663   5.777   4.695   4.442
 3588SOL    HW211664   5.704   4.611   4.562
 3589SOL     OW11665   0.811   6.814   6.248
 3589SOL    HW111666   0.724   6.770   6.268
 3589SOL    HW211667   0.829   6.811   6.150
 3590SOL     OW11668   6.241   5.717   5.581
 3590SOL    HW111669   6.148   5.750   5.591
 3590SOL    HW211670   6.277   5.745   5.492
 3591SOL     OW11671   4.963   2.058   0.695
 3591SOL    HW111672   4.944   2.127   0.626
 3591SOL    HW211673   4.892   1.988   0.692
 3592SOL     OW11674   1.346   6.080   1.313
 3592SOL    HW111675   1.312   6.086   1.407
 3592SOL    HW211676   1.367   6.171   1.279
 3593SOL     OW11677   3.801   3.405   5.543
 3593SOL    HW111678   3.900   3.413   5.527
 3593SOL    HW211679   3.775   3.309   5.547
 3594SOL     OW11680   4.757   5.002   5.174
 3594SOL    HW111681   4.833   5.006   5.239
 3594SOL    HW211682   4.718   5.094   5.163
 3595SOL     OW11683   5.119   6.268   4.397
 3595SOL    HW111684   5.076   6.235   4.313
 3595SOL    HW211685   5.122   6.193   4.464
 3596SOL     OW11686   4.205   1.990   3.000
 3596SOL    HW111687   4.179   2.085   3.015
 3596SOL    HW211688   4.123   1.933   2.995
 3597SOL     OW11689   3.180   4.196   5.564
 3597SOL    HW111690   3.162   4.294   5.566
 3597SOL    HW211691   3.264   4.176   5.616
 3598SOL     OW11692   6.893   5.600   5.314
 3598SOL    HW111693   6.937   5.541   5.247
 3598SOL    HW211694   6.961   5.663   5.353
 3599SOL     OW11695   2.509   1.530   4.902
 3599SOL    HW111696   2.516   1.462   4.830
 3599SOL    HW211697   2.599   1.543   4.945
 3600SOL     OW11698   2.693   3.714   6.966
 3600SOL    HW111699   2.630   3.717   0.024
 3600SOL    HW211700   2.764   3.783   6.978
 3601SOL     OW11701   4.754   0.824   5.074
 3601SOL    HW111702   4.738   0.923   5.067
 3601SOL    HW211703   4.770   0.786   4.983
 3602SOL     OW11704   1.379   2.259   1.550
 3602SOL    HW111705   1.353   2.172   1.509
 3602SOL    HW211706   1.442   2.243   1.626
 3603SOL     OW11707   2.437   0.966   5.453
 3603SOL    HW111708   2.448   0.895   5.523
 3603SOL    HW211709   2.517   0.967   5.393
 3604SOL     OW11710   6.992   1.176   3.407
 3604SOL    HW111711   6.963   1.081   3.422
 3604SOL    HW211712   7.012   1.189   3.310
 3605SOL     OW11713   1.331   0.286   5.017
 3605SOL    HW111714   1.423   0.250   5.007
 3605SOL    HW211715   1.265   0.211   5.018
 3606SOL     OW11716   2.114   6.866   2.170
 3606SOL    HW111717   2.178   6.802   2.212
 3606SOL    HW211718   2.077   6.928   2.240
 3607SOL     OW11719   6.289   1.545   3.220
 3607SOL    HW111720   6.371   1.548   3.276
 3607SOL    HW211721   6.291   1.618   3.152
 3608SOL     OW11722   3.282   1.993   5.333
 3608SOL    HW111723   3.310   2.089   5.322
 3608SOL    HW211724   3.356   1.933   5.302
 3609SOL     OW11725   3.854   0.229   5.821
 3609SOL    HW111726   3.914   0.235   5.741
 3609SOL    HW211727   3.858   0.136   5.857
 3610SOL     OW11728   2.034   1.242   5.881
 3610SOL    HW111729   1.939   1.211   5.882
 3610SOL    HW211730   2.039   1.337   5.912
 3611SOL     OW11731   5.491   4.114   2.883
 3611SOL    HW111732   5.420   4.046   2.902
 3611SOL    HW211733   5.502   4.124   2.784
 3612SOL     OW11734   4.430   1.882   0.267
 3612SOL    HW111735   4.455   1.933   0.349
 3612SOL    HW211736   4.514   1.849   0.222
 3613SOL     OW11737   3.724   6.923   2.943
 3613SOL    HW111738   3.672   7.008   2.930
 3613SOL    HW211739   3.684   6.851   2.887
 3614SOL     OW11740   3.460   5.927   6.838
 3614SOL    HW111741   3.424   5.977   6.759
 3614SOL    HW211742   3.429   5.970   6.922
 3615SOL     OW11743   4.905   3.231   5.600
 3615SOL    HW111744   4.955   3.312   5.569
 3615SOL    HW211745   4.874   3.245   5.694
 3616SOL     OW11746   1.511   2.501   0.588
 3616SOL    HW111747   1.488   2.584   0.538
 3616SOL    HW211748   1.592   2.517   0.644
 3617SOL     OW11749   4.349   5.467   5.290
 3617SOL    HW111750   4.434   5.455   5.342
 3617SOL    HW211751   4.346   5.400   5.216
 3618SOL     OW11752   1.556   5.421   4.407
 3618SOL    HW111753   1.618   5.499   4.417
 3618SOL    HW211754   1.585   5.365   4.330
 3619SOL     OW11755   6.495   2.057   2.368
 3619SOL    HW111756   6.516   2.033   2.273
 3619SOL    HW211757   6.426   2.130   2.369
 3620SOL     OW11758   5.424   5.724   5.207
 3620SOL    HW111759   5.368   5.751   5.129
 3620SOL    HW211760   5.463   5.634   5.191
 3621SOL     OW11761   3.868   2.994   3.743
 3621SOL    HW111762   3.903   3.000   3.836
 3621SOL    HW211763   3.834   2.902   3.725
 3622SOL     OW11764   2.001   5.442   6.230
 3622SOL    HW111765   2.043   5.401   6.311
 3622SOL    HW211766   2.072   5.466   6.164
 3623SOL     OW11767   1.400   5.988   6.301
 3623SOL    HW111768   1.484   5.937   6.316
 3623SOL    HW211769   1.322   5.927   6.309
 3624SOL     OW11770   2.322   1.978   2.641
 3624SOL    HW111771   2.284   2.046   2.579
 3624SOL    HW211772   2.350   1.897   2.588
 3625SOL     OW11773   6.167   2.594   1.521
 3625SOL    HW111774   6.102   2.669   1.528
 3625SOL    HW211775   6.118   2.510   1.495
 3626SOL     OW11776   1.869   2.719   5.859
 3626SOL    HW111777   1.789   2.698   5.915
 3626SOL    HW211778   1.920   2.795   5.900
 3627SOL     OW11779   3.578   1.413   2.717
 3627SOL    HW111780   3.669   1.386   2.687
 3627SOL    HW211781   3.586   1.480   2.791
 3628SOL     OW11782   6.930   1.416   1.452
 3628SOL    HW111783   6.931   1.503   1.402
 3628SOL    HW211784   6.953   1.433   1.548
 3629SOL     OW11785   1.398   0.903   4.052
 3629SOL    HW111786   1.327   0.879   4.118
 3629SOL    HW211787   1.480   0.935   4.101
 3630SOL     OW11788   6.351   2.349   3.069
 3630SOL    HW111789   6.431   2.329   3.013
 3630SOL    HW211790   6.277   2.285   3.045
 3631SOL     OW11791   2.220   5.704   2.589
 3631SOL    HW111792   2.172   5.788   2.565
 3631SOL    HW211793   2.292   5.687   2.523
 3632SOL     OW11794   5.056   3.319   2.531
 3632SOL    HW111795   5.016   3.232   2.561
 3632SOL    HW211796   5.008   3.351   2.450
 3633SOL     OW11797   3.796   4.561   6.848
 3633SOL    HW111798   3.887   4.578   6.885
 3633SOL    HW211799   3.747   4.648   6.840
 3634SOL     OW11800   2.927   5.483   6.626
 3634SOL    HW111801   2.941   5.570   6.672
 3634SOL    HW211802   2.942   5.494   6.528
 3635SOL     OW11803   1.237   6.633   2.810
 3635SOL    HW111804   1.275   6.725   2.813
 3635SOL    HW211805   1.284   6.574   2.876
 3636SOL     OW11806   0.221   5.652   5.021
 3636SOL    HW111807   0.262   5.586   5.085
 3636SOL    HW211808   0.263   5.741   5.034
 3637SOL     OW11809   5.923   2.543   6.514
 3637SOL    HW111810   5.938   2.613   6.585
 3637SOL    HW211811   5.825   2.535   6.497
 3638SOL     OW11812   0.191   3.175   3.454
 3638SOL    HW111813   0.287   3.151   3.441
 3638SOL    HW211814   0.166   3.157   3.549
 3639SOL     OW11815   4.061   3.596   4.237
 3639SOL    HW111816   4.006   3.637   4.309
 3639SOL    HW211817   4.119   3.525   4.276
 3640SOL     OW11818   4.632   1.684   2.012
 3640SOL    HW111819   4.715   1.679   1.957
 3640SOL    HW211820   4.559   1.631   1.970
 3641SOL     OW11821   6.249   3.565   2.092
 3641SOL    HW111822   6.230   3.656   2.128
 3641SOL    HW211823   6.326   3.569   2.029
 3642SOL     OW11824   5.192   4.215   6.440
 3642SOL    HW111825   5.109   4.160   6.426
 3642SOL    HW211826   5.242   4.179   6.519
 3643SOL     OW11827   4.415   5.893   4.912
 3643SOL    HW111828   4.406   5.793   4.908
 3643SOL    HW211829   4.354   5.935   4.845
 3644SOL     OW11830   2.791   0.681   1.992
 3644SOL    HW111831   2.806   0.745   1.917
 3644SOL    HW211832   2.815   0.588   1.963
 3645SOL     OW11833   2.180   4.064   3.469
 3645SOL    HW111834   2.091   4.070   3.424
 3645SOL    HW211835   2.180   3.985   3.532
 3646SOL     OW11836   2.086   5.144   5.581
 3646SOL    HW111837   2.063   5.088   5.660
 3646SOL    HW211838   2.016   5.215   5.569
 3647SOL     OW11839   3.630   0.092   0.646
 3647SOL    HW111840   3.711   0.111   0.700
 3647SOL    HW211841   3.576   0.176   0.635
 3648SOL     OW11842   5.210   4.525   3.319
 3648SOL    HW111843   5.245   4.432   3.323
 3648SOL    HW211844   5.121   4.529   3.365
 3649SOL     OW11845   5.218   2.572   0.593
 3649SOL    HW111846   5.265   2.532   0.514
 3649SOL    HW211847   5.242   2.669   0.599
 3650SOL     OW11848   5.675   5.996   6.044
 3650SOL    HW111849   5.594   6.021   6.097
 3650SOL    HW211850   5.755   6.041   6.083
 3651SOL     OW11851   1.318   2.270   6.078
 3651SOL    HW111852   1.281   2.362   6.091
 3651SOL    HW211853   1.416   2.275   6.060
 3652SOL     OW11854   5.008   2.588   2.794
 3652SOL    HW111855   4.987   2.490   2.790
 3652SOL    HW211856   5.003   2.619   2.890
 3653SOL     OW11857   2.165   1.327   0.860
 3653SOL    HW111858   2.232   1.263   0.822
 3653SOL    HW211859   2.129   1.290   0.946
 3654SOL     OW11860   4.245   6.344   1.355
 3654SOL    HW111861   4.277   6.437   1.334
 3654SOL    HW211862   4.298   6.308   1.433
 3655SOL     OW11863   0.952   0.933   3.983
 3655SOL    HW111864   0.977   0.836   3.977
 3655SOL    HW211865   1.008   0.978   4.052
 3656SOL     OW11866   0.136   0.115   0.744
 3656SOL    HW111867   0.218   0.133   0.689
 3656SOL    HW211868   0.074   0.193   0.737
 3657SOL     OW11869   5.774   4.991   6.230
 3657SOL    HW111870   5.799   5.067   6.170
 3657SOL    HW211871   5.854   4.961   6.281
 3658SOL     OW11872   1.347   4.077   5.441
 3658SOL    HW111873   1.375   4.115   5.353
 3658SOL    HW211874   1.263   4.025   5.429
 3659SOL     OW11875   1.158   2.307   6.780
 3659SOL    HW111876   1.069   2.353   6.779
 3659SOL    HW211877   1.191   2.296   6.687
 3660SOL     OW11878   3.968   5.222   5.286
 3660SOL    HW111879   3.910   5.191   5.211
 3660SOL    HW211880   4.016   5.305   5.258
 3661SOL     OW11881   0.902   1.417   4.752
 3661SOL    HW111882   0.848   1.496   4.782
 3661SOL    HW211883   0.946   1.438   4.665
 3662SOL     OW11884   3.674   1.609   5.333
 3662SOL    HW111885   3.752   1.565   5.287
 3662SOL    HW211886   3.707   1.681   5.393
 3663SOL     OW11887   1.945   2.294   6.352
 3663SOL    HW111888   1.894   2.352   6.288
 3663SOL    HW211889   2.042   2.297   6.329
 3664SOL     OW11890   2.911   1.982   1.315
 3664SOL    HW111891   2.996   1.942   1.279
 3664SOL    HW211892   2.857   2.017   1.239
 3665SOL     OW11893   6.976   5.976   5.252
 3665SOL    HW111894   6.883   5.941   5.261
 3665SOL    HW211895   0.019   5.900   5.236
 3666SOL     OW11896   2.133   3.538   4.493
 3666SOL    HW111897   2.117   3.458   4.435
 3666SOL    HW211898   2.088   3.524   4.581
 3667SOL     OW11899   2.034   6.686   1.106
 3667SOL    HW111900   2.009   6.769   1.056
 3667SOL    HW211901   2.084   6.710   1.189
 3668SOL     OW11902   5.700   1.392   0.878
 3668SOL    HW111903   5.796   1.420   0.887
 3668SOL    HW211904   5.694   1.293   0.890
 3669SOL     OW11905   6.315   1.131   1.642
 3669SOL    HW111906   6.414   1.147   1.641
 3669SOL    HW211907   6.267   1.218   1.653
 3670SOL     OW11908   1.932   6.738   2.025
 3670SOL    HW111909   2.003   6.780   2.082
 3670SOL    HW211910   1.966   6.728   1.931
 3671SOL     OW11911   0.127   0.554   5.170
 3671SOL    HW111912   0.223   0.527   5.155
 3671SOL    HW211913   0.072   0.525   5.091
 3672SOL     OW11914   4.264   0.220   3.492
 3672SOL    HW111915   4.251   0.259   3.582
 3672SOL    HW211916   4.215   0.133   3.485
 3673SOL     OW11917   3.575   1.166   1.768
 3673SOL    HW111918   3.602   1.126   1.855
 3673SOL    HW211919   3.596   1.263   1.767
 3674SOL     OW11920   0.326   4.486   5.715
 3674SOL    HW111921   0.373   4.551   5.655
 3674SOL    HW211922   0.376   4.399   5.715
 3675SOL     OW11923   6.780   0.722   4.568
 3675SOL    HW111924   6.714   0.791   4.597
 3675SOL    HW211925   6.864   0.731   4.622
 3676SOL     OW11926   2.747   0.973   5.975
 3676SOL    HW111927   2.762   0.955   5.877
 3676SOL    HW211928   2.729   1.070   5.989
 3677SOL     OW11929   1.554   0.992   4.482
 3677SOL    HW111930   1.471   0.939   4.502
 3677SOL    HW211931   1.557   1.073   4.540
 3678SOL     OW11932   2.672   1.049   3.011
 3678SOL    HW111933   2.712   1.140   3.011
 3678SOL    HW211934   2.678   1.009   2.919
 3679SOL     OW11935   3.169   1.147   2.418
 3679SOL    HW111936   3.231   1.070   2.403
 3679SOL    HW211937   3.080   1.113   2.450
 3680SOL     OW11938   3.922   2.105   4.460
 3680SOL    HW111939   3.850   2.048   4.498
 3680SOL    HW211940   3.889   2.199   4.448
 3681SOL     OW11941   0.927   6.040   3.662
 3681SOL    HW111942   1.010   6.096   3.669
 3681SOL    HW211943   0.848   6.096   3.683
 3682SOL     OW11944   5.629   1.883   1.576
 3682SOL    HW111945   5.713   1.837   1.547
 3682SOL    HW211946   5.564   1.884   1.501
 3683SOL     OW11947   6.522   1.620   0.761
 3683SOL    HW111948   6.497   1.654   0.852
 3683SOL    HW211949   6.610   1.659   0.734
 3684SOL     OW11950   2.641   6.248   5.967
 3684SOL    HW111951   2.610   6.341   5.988
 3684SOL    HW211952   2.588   6.212   5.890
 3685SOL     OW11953   2.544   6.840   3.898
 3685SOL    HW111954   2.492   6.846   3.984
 3685SOL    HW211955   2.572   6.932   3.871
 3686SOL     OW11956   0.112   4.333   0.399
 3686SOL    HW111957   0.167   4.276   0.338
 3686SOL    HW211958   0.017   4.333   0.368
 3687SOL     OW11959   6.646   4.561   4.467
 3687SOL    HW111960   6.574   4.491   4.462
 3687SOL    HW211961   6.721   4.528   4.525
 3688SOL     OW11962   6.985   3.014   1.577
 3688SOL    HW111963   6.907   3.047   1.630
 3688SOL    HW211964   6.960   3.010   1.480
 3689SOL     OW11965   1.526   1.410   5.666
 3689SOL    HW111966   1.582   1.328   5.656
 3689SOL    HW211967   1.468   1.421   5.585
 3690SOL     OW11968   6.317   4.393   1.423
 3690SOL    HW111969   6.351   4.435   1.339
 3690SOL    HW211970   6.217   4.400   1.425
 3691SOL     OW11971   1.881   2.391   1.175
 3691SOL    HW111972   1.955   2.439   1.128
 3691SOL    HW211973   1.895   2.398   1.274
 3692SOL     OW11974   1.031   2.856   5.312
 3692SOL    HW111975   0.938   2.846   5.275
 3692SOL    HW211976   1.060   2.951   5.304
 3693SOL     OW11977   6.957   1.718   2.717
 3693SOL    HW111978   6.977   1.683   2.625
 3693SOL    HW211979   6.859   1.737   2.725
 3694SOL     OW11980   6.911   6.948   1.848
 3694SOL    HW111981   6.985   6.937   1.781
 3694SOL    HW211982   6.880   6.858   1.878
 3695SOL     OW11983   6.170   3.933   3.519
 3695SOL    HW111984   6.082   3.973   3.494
 3695SOL    HW211985   6.171   3.913   3.617
 3696SOL     OW11986   4.556   6.957   4.040
 3696SOL    HW111987   4.646   6.929   4.009
 3696SOL    HW211988   4.558   0.032   4.069
 3697SOL     OW11989   6.016   5.495   3.037
 3697SOL    HW111990   6.065   5.466   2.955
 3697SOL    HW211991   6.063   5.574   3.078
 3698SOL     OW11992   1.010   6.795   4.309
 3698SOL    HW111993   1.030   6.875   4.365
 3698SOL    HW211994   1.094   6.743   4.295
 3699SOL     OW11995   3.021   1.918   2.741
 3699SOL    HW111996   3.011   1.855   2.818
 3699SOL    HW211997   3.113   1.909   2.703
 3700SOL     OW11998   1.302   5.033   4.159
 3700SOL    HW111999   1.336   5.047   4.252
 3700SOL    HW212000   1.322   5.114   4.104
 3701SOL     OW12001   6.651   0.448   1.882
 3701SOL    HW112002   6.658   0.547   1.866
 3701SOL    HW212003   6.555   0.422   1.889
 3702SOL     OW12004   6.605   4.598   3.489
 3702SOL    HW112005   6.545   4.669   3.452
 3702SOL    HW212006   6.700   4.626   3.479
 3703SOL     OW12007   1.119   2.388   2.916
 3703SOL    HW112008   1.142   2.384   3.013
 3703SOL    HW212009   1.096   2.481   2.890
 3704SOL     OW12010   6.078   7.009   0.639
 3704SOL    HW112011   6.016   6.934   0.666
 3704SOL    HW212012   6.024   0.064   0.602
 3705SOL     OW12013   6.401   4.186   3.428
 3705SOL    HW112014   6.483   4.169   3.374
 3705SOL    HW212015   6.367   4.100   3.465
 3706SOL     OW12016   0.879   5.460   6.473
 3706SOL    HW112017   0.837   5.504   6.393
 3706SOL    HW212018   0.850   5.508   6.556
 3707SOL     OW12019   0.741   4.960   3.353
 3707SOL    HW112020   0.814   5.013   3.397
 3707SOL    HW212021   0.769   4.864   3.346
 3708SOL     OW12022   1.866   6.044   0.420
 3708SOL    HW112023   1.948   6.101   0.428
 3708SOL    HW212024   1.844   6.030   0.324
 3709SOL     OW12025   0.763   1.665   2.407
 3709SOL    HW112026   0.763   1.682   2.506
 3709SOL    HW212027   0.750   1.568   2.390
 3710SOL     OW12028   2.155   3.975   5.542
 3710SOL    HW112029   2.185   4.025   5.461
 3710SOL    HW212030   2.105   3.893   5.514
 3711SOL     OW12031   2.105   5.112   5.289
 3711SOL    HW112032   2.080   5.116   5.386
 3711SOL    HW212033   2.073   5.025   5.250
 3712SOL     OW12034   3.160   5.039   4.344
 3712SOL    HW112035   3.170   5.137   4.327
 3712SOL    HW212036   3.250   4.995   4.343
 3713SOL     OW12037   6.337   0.408   5.456
 3713SOL    HW112038   6.379   0.323   5.426
 3713SOL    HW212039   6.239   0.393   5.471
 3714SOL     OW12040   0.315   5.155   6.925
 3714SOL    HW112041   0.309   5.243   6.879
 3714SOL    HW212042   0.263   5.087   6.874
 3715SOL     OW12043   6.517   4.466   3.166
 3715SOL    HW112044   6.545   4.542   3.107
 3715SOL    HW212045   6.499   4.500   3.258
 3716SOL     OW12046   5.600   5.692   5.722
 3716SOL    HW112047   5.606   5.786   5.689
 3716SOL    HW212048   5.533   5.686   5.795
 3717SOL     OW12049   4.811   0.509   1.307
 3717SOL    HW112050   4.807   0.499   1.407
 3717SOL    HW212051   4.722   0.484   1.268
 3718SOL     OW12052   5.563   6.828   6.277
 3718SOL    HW112053   5.574   6.746   6.333
 3718SOL    HW212054   5.578   6.806   6.181
 3719SOL     OW12055   2.487   4.328   0.137
 3719SOL    HW112056   2.497   4.272   0.054
 3719SOL    HW212057   2.478   4.269   0.216
 3720SOL     OW12058   0.367   2.077   1.116
 3720SOL    HW112059   0.437   2.076   1.187
 3720SOL    HW212060   0.368   2.166   1.070
 3721SOL     OW12061   6.328   6.897   6.155
 3721SOL    HW112062   6.424   6.876   6.175
 3721SOL    HW212063   6.321   6.942   6.066
 3722SOL     OW12064   5.838   6.851   1.152
 3722SOL    HW112065   5.849   6.785   1.226
 3722SOL    HW212066   5.926   6.896   1.135
 3723SOL     OW12067   4.625   4.344   6.115
 3723SOL    HW112068   4.653   4.436   6.089
 3723SOL    HW212069   4.610   4.340   6.214
 3724SOL     OW12070   6.802   4.848   4.916
 3724SOL    HW112071   6.845   4.910   4.850
 3724SOL    HW212072   6.749   4.901   4.982
 3725SOL     OW12073   0.193   6.255   0.518
 3725SOL    HW112074   0.236   6.166   0.526
 3725SOL    HW212075   0.097   6.248   0.545
 3726SOL     OW12076   5.937   3.732   5.165
 3726SOL    HW112077   5.944   3.647   5.112
 3726SOL    HW212078   5.947   3.811   5.104
 3727SOL     OW12079   6.623   1.647   4.147
 3727SOL    HW112080   6.673   1.636   4.233
 3727SOL    HW212081   6.597   1.743   4.136
 3728SOL     OW12082   1.775   4.395   0.534
 3728SOL    HW112083   1.745   4.352   0.618
 3728SOL    HW212084   1.873   4.378   0.520
 3729SOL     OW12085   0.383   0.091   6.401
 3729SOL    HW112086   0.337   0.109   6.314
 3729SOL    HW212087   0.317   0.052   6.466
 3730SOL     OW12088   5.107   4.959   4.556
 3730SOL    HW112089   5.122   4.895   4.631
 3730SOL    HW212090   5.129   4.915   4.469
 3731SOL     OW12091   0.130   1.806   1.431
 3731SOL    HW112092   0.194   1.835   1.360
 3731SOL    HW212093   0.064   1.741   1.392
 3732SOL     OW12094   3.869   3.127   0.112
 3732SOL    HW112095   3.812   3.137   0.194
 3732SOL    HW212096   3.832   3.053   0.055
 3733SOL     OW12097   1.665   0.878   3.474
 3733SOL    HW112098   1.726   0.957   3.466
 3733SOL    HW212099   1.570   0.909   3.471
 3734SOL     OW12100   3.557   0.403   1.904
 3734SOL    HW112101   3.599   0.327   1.853
 3734SOL    HW212102   3.556   0.485   1.847
 3735SOL     OW12103   4.528   1.059   2.555
 3735SOL    HW112104   4.500   1.046   2.460
 3735SOL    HW212105   4.625   1.082   2.559
 3736SOL     OW12106   1.183   1.946   0.063
 3736SOL    HW112107   1.179   1.888   0.144
 3736SOL    HW212108   1.148   2.037   0.085
 3737SOL     OW12109   5.676   2.236   4.047
 3737SOL    HW112110   5.648   2.140   4.043
 3737SOL    HW212111   5.657   2.280   3.959
 3738SOL     OW12112   0.547   0.967   1.179
 3738SOL    HW112113   0.508   0.875   1.170
 3738SOL    HW212114   0.520   1.023   1.101
 3739SOL     OW12115   3.110   4.428   0.043
 3739SOL    HW112116   3.053   4.363   7.013
 3739SOL    HW212117   3.205   4.420   0.013
 3740SOL     OW12118   5.386   6.192   6.909
 3740SOL    HW112119   5.339   6.118   6.861
 3740SOL    HW212120   5.322   6.267   6.926
 3741SOL     OW12121   5.733   4.001   0.074
 3741SOL    HW112122   5.751   4.013   6.997
 3741SOL    HW212123   5.788   3.926   0.109
 3742SOL     OW12124   5.022   5.439   1.250
 3742SOL    HW112125   4.971   5.361   1.286
 3742SOL    HW212126   5.087   5.471   1.318
 3743SOL     OW12127   2.420   4.026   0.664
 3743SOL    HW112128   2.503   4.003   0.714
 3743SOL    HW212129   2.357   4.076   0.723
 3744SOL     OW12130   6.570   6.043   2.545
 3744SOL    HW112131   6.528   6.027   2.634
 3744SOL    HW212132   6.541   5.972   2.481
 3745SOL     OW12133   5.479   2.171   2.878
 3745SOL    HW112134   5.437   2.095   2.928
 3745SOL    HW212135   5.448   2.171   2.783
 3746SOL     OW12136   4.976   6.988   5.090
 3746SOL    HW112137   4.931   0.009   5.169
 3746SOL    HW212138   4.912   6.983   5.014
 3747SOL     OW12139   2.169   5.917   5.485
 3747SOL    HW112140   2.169   5.978   5.564
 3747SOL    HW212141   2.194   5.825   5.513
 3748SOL     OW12142   4.841   2.548   3.418
 3748SOL    HW112143   4.786   2.607   3.477
 3748SOL    HW212144   4.802   2.455   3.420
 3749SOL     OW12145   6.355   0.013   1.912
 3749SOL    HW112146   6.448   7.012   1.880
 3749SOL    HW212147   6.293   0.014   1.834
 3750SOL     OW12148   5.578   4.250   1.269
 3750SOL    HW112149   5.664   4.253   1.219
 3750SOL    HW212150   5.503   4.273   1.208
 3751SOL     OW12151   1.446   4.647   0.311
 3751SOL    HW112152   1.449   4.718   0.241
 3751SOL    HW212153   1.538   4.636   0.350
 3752SOL     OW12154   1.158   6.618   6.113
 3752SOL    HW112155   1.218   6.551   6.069
 3752SOL    HW212156   1.145   6.593   6.209
 3753SOL     OW12157   0.792   0.450   5.599
 3753SOL    HW112158   0.781   0.532   5.654
 3753SOL    HW212159   0.765   0.370   5.652
 3754SOL     OW12160   6.592   5.869   1.862
 3754SOL    HW112161   6.623   5.776   1.882
 3754SOL    HW212162   6.551   5.908   1.944
 3755SOL     OW12163   4.445   2.459   3.083
 3755SOL    HW112164   4.529   2.406   3.079
 3755SOL    HW212165   4.395   2.449   2.996
 3756SOL     OW12166   3.424   6.849   0.418
 3756SOL    HW112167   3.504   6.909   0.407
 3756SOL    HW212168   3.453   6.762   0.456
 3757SOL     OW12169   3.439   4.540   6.369
 3757SOL    HW112170   3.429   4.599   6.449
 3757SOL    HW212171   3.480   4.592   6.295
 3758SOL     OW12172   6.794   0.950   2.485
 3758SOL    HW112173   6.767   1.022   2.549
 3758SOL    HW212174   6.713   0.918   2.435
 3759SOL     OW12175   4.881   4.205   0.929
 3759SOL    HW112176   4.875   4.139   1.004
 3759SOL    HW212177   4.976   4.216   0.902
 3760SOL     OW12178   1.780   1.573   5.840
 3760SOL    HW112179   1.707   1.621   5.791
 3760SOL    HW212180   1.744   1.491   5.883
 3761SOL     OW12181   6.496   6.132   4.086
 3761SOL    HW112182   6.426   6.108   4.019
 3761SOL    HW212183   6.509   6.057   4.150
 3762SOL     OW12184   0.343   2.715   0.378
 3762SOL    HW112185   0.284   2.700   0.298
 3762SOL    HW212186   0.399   2.796   0.362
 3763SOL     OW12187   0.157   3.369   4.355
 3763SOL    HW112188   0.200   3.304   4.293
 3763SOL    HW212189   0.223   3.396   4.426
 3764SOL     OW12190   2.280   0.348   4.229
 3764SOL    HW112191   2.243   0.409   4.159
 3764SOL    HW212192   2.244   0.256   4.215
 3765SOL     OW12193   6.205   1.327   3.543
 3765SOL    HW112194   6.289   1.296   3.500
 3765SOL    HW212195   6.159   1.394   3.484
 3766SOL     OW12196   1.790   1.109   4.981
 3766SOL    HW112197   1.737   1.060   5.050
 3766SOL    HW212198   1.731   1.178   4.938
 3767SOL     OW12199   0.388   4.378   0.098
 3767SOL    HW112200   0.309   4.440   0.096
 3767SOL    HW212201   0.376   4.307   0.028
 3768SOL     OW12202   4.515   6.151   1.262
 3768SOL    HW112203   4.530   6.095   1.181
 3768SOL    HW212204   4.549   6.244   1.245
 3769SOL     OW12205   4.218   6.795   4.815
 3769SOL    HW112206   4.314   6.822   4.817
 3769SOL    HW212207   4.207   6.713   4.760
 3770SOL     OW12208   1.931   2.946   0.320
 3770SOL    HW112209   1.992   2.913   0.392
 3770SOL    HW212210   1.978   2.942   0.232
 3771SOL     OW12211   4.204   1.368   5.715
 3771SOL    HW112212   4.150   1.387   5.632
 3771SOL    HW212213   4.266   1.444   5.732
 3772SOL     OW12214   4.818   0.556   2.777
 3772SOL    HW112215   4.731   0.536   2.731
 3772SOL    HW212216   4.813   0.646   2.820
 3773SOL     OW12217   6.230   2.757   1.042
 3773SOL    HW112218   6.248   2.669   0.998
 3773SOL    HW212219   6.172   2.812   0.982
 3774SOL     OW12220   1.003   1.567   1.882
 3774SOL    HW112221   1.004   1.609   1.791
 3774SOL    HW212222   1.036   1.634   1.949
 3775SOL     OW12223   5.171   3.026   3.505
 3775SOL    HW112224   5.268   3.043   3.523
 3775SOL    HW212225   5.119   3.109   3.525
 3776SOL     OW12226   2.766   1.913   6.809
 3776SOL    HW112227   2.707   1.992   6.829
 3776SOL    HW212228   2.777   1.858   6.891
 3777SOL     OW12229   1.134   4.311   2.919
 3777SOL    HW112230   1.073   4.389   2.935
 3777SOL    HW212231   1.080   4.233   2.886
 3778SOL     OW12232   2.183   0.252   2.110
 3778SOL    HW112233   2.086   0.234   2.094
 3778SOL    HW212234   2.198   0.271   2.207
 3779SOL     OW12235   2.021   4.831   6.904
 3779SOL    HW112236   2.058   4.916   6.940
 3779SOL    HW212237   1.931   4.814   6.944
 3780SOL     OW12238   2.292   0.362   4.538
 3780SOL    HW112239   2.207   0.411   4.554
 3780SOL    HW212240   2.290   0.321   4.446
 3781SOL     OW12241   2.816   5.533   4.718
 3781SOL    HW112242   2.860   5.443   4.719
 3781SOL    HW212243   2.754   5.541   4.796
 3782SOL     OW12244   2.540   0.885   2.342
 3782SOL    HW112245   2.443   0.862   2.347
 3782SOL    HW212246   2.571   0.878   2.248
 3783SOL     OW12247   4.863   5.336   4.389
 3783SOL    HW112248   4.928   5.259   4.395
 3783SOL    HW212249   4.833   5.347   4.294
 3784SOL     OW12250   5.353   2.053   4.339
 3784SOL    HW112251   5.306   1.995   4.406
 3784SOL    HW212252   5.289   2.122   4.305
 3785SOL     OW12253   1.087   0.644   1.996
 3785SOL    HW112254   1.123   0.551   2.002
 3785SOL    HW212255   1.072   0.668   1.900
 3786SOL     OW12256   3.035   6.425   2.272
 3786SOL    HW112257   2.979   6.435   2.190
 3786SOL    HW212258   3.087   6.510   2.287
 3787SOL     OW12259   4.837   1.142   4.233
 3787SOL    HW112260   4.863   1.104   4.144
 3787SOL    HW212261   4.751   1.100   4.263
 3788SOL     OW12262   6.682   3.961   2.732
 3788SOL    HW112263   6.675   4.023   2.653
 3788SOL    HW212264   6.774   3.966   2.770
 3789SOL     OW12265   1.180   5.164   2.016
 3789SOL    HW112266   1.249   5.234   1.999
 3789SOL    HW212267   1.204   5.081   1.966
 3790SOL     OW12268   2.160   3.222   3.360
 3790SOL    HW112269   2.067   3.187   3.345
 3790SOL    HW212270   2.187   3.277   3.281
 3791SOL     OW12271   6.289   0.646   2.821
 3791SOL    HW112272   6.341   0.626   2.737
 3791SOL    HW212273   6.226   0.721   2.803
 3792SOL     OW12274   0.738   6.098   6.477
 3792SOL    HW112275   0.679   6.029   6.436
 3792SOL    HW212276   0.687   6.150   6.545
 3793SOL     OW12277   0.603   5.730   2.482
 3793SOL    HW112278   0.653   5.744   2.397
 3793SOL    HW212279   0.505   5.745   2.466
 3794SOL     OW12280   4.607   0.287   3.945
 3794SOL    HW112281   4.551   0.306   4.026
 3794SOL    HW212282   4.555   0.230   3.881
 3795SOL     OW12283   5.218   0.474   0.282
 3795SOL    HW112284   5.250   0.435   0.369
 3795SOL    HW212285   5.200   0.572   0.295
 3796SOL     OW12286   0.038   2.742   0.944
 3796SOL    HW112287   0.103   2.797   0.891
 3796SOL    HW212288   0.061   2.747   1.041
 3797SOL     OW12289   7.013   5.661   2.652
 3797SOL    HW112290   0.008   5.566   2.626
 3797SOL    HW212291   6.951   5.665   2.731
 3798SOL     OW12292   0.997   4.439   1.122
 3798SOL    HW112293   0.962   4.442   1.216
 3798SOL    HW212294   0.921   4.440   1.058
 3799SOL     OW12295   1.623   0.520   5.450
 3799SOL    HW112296   1.642   0.450   5.520
 3799SOL    HW212297   1.583   0.476   5.370
 3800SOL     OW12298   5.460   2.591   5.162
 3800SOL    HW112299   5.362   2.597   5.141
 3800SOL    HW212300   5.482   2.655   5.236
 3801SOL     OW12301   6.803   0.119   6.168
 3801SOL    HW112302   6.741   0.074   6.232
 3801SOL    HW212303   6.805   0.068   6.082
 3802SOL     OW12304   1.654   2.513   5.145
 3802SOL    HW112305   1.594   2.546   5.072
 3802SOL    HW212306   1.738   2.567   5.146
 3803SOL     OW12307   4.027   1.388   1.368
 3803SOL    HW112308   4.056   1.406   1.462
 3803SOL    HW212309   3.941   1.337   1.369
 3804SOL     OW12310   5.014   3.514   5.218
 3804SOL    HW112311   5.013   3.517   5.318
 3804SOL    HW212312   4.940   3.570   5.182
 3805SOL     OW12313   1.923   3.571   1.527
 3805SOL    HW112314   1.951   3.666   1.507
 3805SOL    HW212315   2.003   3.511   1.518
 3806SOL     OW12316   3.840   0.807   0.012
 3806SOL    HW112317   3.880   0.873   0.075
 3806SOL    HW212318   3.857   0.836   6.938
 3807SOL     OW12319   1.155   0.083   2.741
 3807SOL    HW112320   1.057   0.068   2.733
 3807SOL    HW212321   1.184   0.067   2.835
 3808SOL     OW12322   3.620   0.725   0.510
 3808SOL    HW112323   3.671   0.810   0.522
 3808SOL    HW212324   3.632   0.668   0.592
 3809SOL     OW12325   4.295   0.437   0.425
 3809SOL    HW112326   4.260   0.429   0.518
 3809SOL    HW212327   4.367   0.369   0.411
 3810SOL     OW12328   1.765   3.514   6.480
 3810SOL    HW112329   1.798   3.509   6.575
 3810SOL    HW212330   1.667   3.492   6.478
 3811SOL     OW12331   0.470   0.616   6.732
 3811SOL    HW112332   0.371   0.631   6.729
 3811SOL    HW212333   0.494   0.570   6.818
 3812SOL     OW12334   4.823   0.891   5.373
 3812SOL    HW112335   4.814   0.937   5.461
 3812SOL    HW212336   4.748   0.918   5.313
 3813SOL     OW12337   3.755   4.908   2.135
 3813SOL    HW112338   3.679   4.848   2.111
 3813SOL    HW212339   3.764   4.979   2.064
 3814SOL     OW12340   2.282   0.801   1.454
 3814SOL    HW112341   2.374   0.790   1.416
 3814SOL    HW212342   2.269   0.736   1.529
 3815SOL     OW12343   5.505   2.008   2.152
 3815SOL    HW112344   5.596   2.025   2.190
 3815SOL    HW212345   5.489   1.909   2.148
 3816SOL     OW12346   6.950   6.488   0.443
 3816SOL    HW112347   6.939   6.398   0.486
 3816SOL    HW212348   0.019   6.526   0.467
 3817SOL     OW12349   5.195   1.818   5.174
 3817SOL    HW112350   5.115   1.832   5.233
 3817SOL    HW212351   5.173   1.846   5.081
 3818SOL     OW12352   3.765   5.498   2.863
 3818SOL    HW112353   3.847   5.451   2.895
 3818SOL    HW212354   3.741   5.464   2.771
 3819SOL     OW12355   6.108   4.146   6.170
 3819SOL    HW112356   6.126   4.213   6.098
 3819SOL    HW212357   6.013   4.153   6.200
 3820SOL     OW12358   4.902   6.310   3.296
 3820SOL    HW112359   4.843   6.380   3.255
 3820SOL    HW212360   4.994   6.346   3.307
 3821SOL     OW12361   0.153   4.648   1.216
 3821SOL    HW112362   0.057   4.644   1.188
 3821SOL    HW212363   0.189   4.740   1.199
 3822SOL     OW12364   0.730   4.662   1.417
 3822SOL    HW112365   0.732   4.669   1.516
 3822SOL    HW212366   0.645   4.617   1.388
 3823SOL     OW12367   2.772   3.734   5.684
 3823SOL    HW112368   2.739   3.799   5.753
 3823SOL    HW212369   2.871   3.722   5.694
 3824SOL     OW12370   0.383   2.016   5.805
 3824SOL    HW112371   0.333   1.958   5.741
 3824SOL    HW212372   0.324   2.039   5.883
 3825SOL     OW12373   0.200   6.368   6.229
 3825SOL    HW112374   0.230   6.286   6.277
 3825SOL    HW212375   0.277   6.429   6.215
 3826SOL     OW12376   6.720   1.707   1.388
 3826SOL    HW112377   6.684   1.693   1.481
 3826SOL    HW212378   6.728   1.805   1.370
 3827SOL     OW12379   5.611   1.520   2.382
 3827SOL    HW112380   5.644   1.508   2.288
 3827SOL    HW212381   5.519   1.559   2.380
 3828SOL     OW12382   4.397   1.146   1.599
 3828SOL    HW112383   4.457   1.086   1.652
 3828SOL    HW212384   4.370   1.224   1.655
 3829SOL     OW12385   0.759   5.250   3.243
 3829SOL    HW112386   0.709   5.165   3.259
 3829SOL    HW212387   0.802   5.279   3.328
 3830SOL     OW12388   3.361   0.568   5.265
 3830SOL    HW112389   3.314   0.654   5.247
 3830SOL    HW212390   3.294   0.500   5.295
 3831SOL     OW12391   4.858   1.812   2.277
 3831SOL    HW112392   4.903   1.743   2.334
 3831SOL    HW212393   4.897   1.809   2.184
 3832SOL     OW12394   5.766   6.560   2.468
 3832SOL    HW112395   5.811   6.617   2.399
 3832SOL    HW212396   5.766   6.465   2.437
 3833SOL     OW12397   1.382   6.191   2.429
 3833SOL    HW112398   1.326   6.150   2.357
 3833SOL    HW212399   1.408   6.120   2.495
 3834SOL     OW12400   2.379   2.668   0.639
 3834SOL    HW112401   2.466   2.636   0.676
 3834SOL    HW212402   2.380   2.659   0.539
 3835SOL     OW12403   3.475   5.313   3.058
 3835SOL    HW112404   3.485   5.246   2.984
 3835SOL    HW212405   3.560   5.319   3.110
 3836SOL     OW12406   1.400   3.088   5.499
 3836SOL    HW112407   1.355   3.012   5.452
 3836SOL    HW212408   1.475   3.054   5.554
 3837SOL     OW12409   2.864   4.012   0.341
 3837SOL    HW112410   2.935   3.948   0.372
 3837SOL    HW212411   2.885   4.104   0.373
 3838SOL     OW12412   5.738   3.793   4.871
 3838SOL    HW112413   5.829   3.835   4.872
 3838SOL    HW212414   5.737   3.714   4.932
 3839SOL     OW12415   0.613   6.261   6.272
 3839SOL    HW112416   0.666   6.234   6.191
 3839SOL    HW212417   0.645   6.209   6.351
 3840SOL     OW12418   2.633   1.796   3.236
 3840SOL    HW112419   2.683   1.764   3.317
 3840SOL    HW212420   2.699   1.821   3.164
 3841SOL     OW12421   0.536   3.537   3.958
 3841SOL    HW112422   0.479   3.549   4.039
 3841SOL    HW212423   0.629   3.514   3.985
 3842SOL     OW12424   1.971   5.350   0.234
 3842SOL    HW112425   1.941   5.432   0.185
 3842SOL    HW212426   1.899   5.280   0.229
 3843SOL     OW12427   6.029   4.151   6.846
 3843SOL    HW112428   5.963   4.224   6.862
 3843SOL    HW212429   6.117   4.191   6.819
 3844SOL     OW12430   2.315   4.555   5.642
 3844SOL    HW112431   2.333   4.585   5.549
 3844SOL    HW212432   2.223   4.515   5.647
 3845SOL     OW12433   3.376   3.808   4.418
 3845SOL    HW112434   3.382   3.906   4.432
 3845SOL    HW212435   3.374   3.761   4.507
 3846SOL     OW12436   0.082   4.670   4.450
 3846SOL    HW112437   0.176   4.642   4.469
 3846SOL    HW212438   0.075   4.705   4.357
 3847SOL     OW12439   1.185   7.015   1.111
 3847SOL    HW112440   1.230   0.084   1.113
 3847SOL    HW212441   1.095   0.002   1.155
 3848SOL     OW12442   3.250   6.355   1.807
 3848SOL    HW112443   3.231   6.259   1.789
 3848SOL    HW212444   3.264   6.403   1.720
 3849SOL     OW12445   2.652   1.273   5.497
 3849SOL    HW112446   2.606   1.341   5.439
 3849SOL    HW212447   2.716   1.319   5.558
 3850SOL     OW12448   1.925   3.746   1.223
 3850SOL    HW112449   1.870   3.829   1.226
 3850SOL    HW212450   1.997   3.750   1.292
 3851SOL     OW12451   2.388   2.772   1.397
 3851SOL    HW112452   2.430   2.692   1.352
 3851SOL    HW212453   2.399   2.852   1.338
 3852SOL     OW12454   4.603   1.242   5.276
 3852SOL    HW112455   4.682   1.285   5.321
 3852SOL    HW212456   4.563   1.173   5.337
 3853SOL     OW12457   0.616   4.154   1.781
 3853SOL    HW112458   0.579   4.132   1.691
 3853SOL    HW212459   0.650   4.070   1.824
 3854SOL     OW12460   1.812   3.374   4.300
 3854SOL    HW112461   1.790   3.468   4.271
 3854SOL    HW212462   1.739   3.313   4.272
 3855SOL     OW12463   6.913   1.209   5.348
 3855SOL    HW112464   6.845   1.145   5.313
 3855SOL    HW212465   6.956   1.258   5.273
 3856SOL     OW12466   1.613   6.100   6.135
 3856SOL    HW112467   1.713   6.107   6.137
 3856SOL    HW212468   1.578   6.101   6.228
 3857SOL     OW12469   0.741   0.010   6.738
 3857SOL    HW112470   0.839   0.015   6.718
 3857SOL    HW212471   0.695   6.982   6.664
 3858SOL     OW12472   3.354   4.422   6.939
 3858SOL    HW112473   3.405   4.486   6.997
 3858SOL    HW212474   3.410   4.397   6.861
 3859SOL     OW12475   5.918   2.437   2.406
 3859SOL    HW112476   5.884   2.531   2.401
 3859SOL    HW212477   5.842   2.374   2.424
 3860SOL     OW12478   2.558   5.912   4.525
 3860SOL    HW112479   2.632   5.897   4.591
 3860SOL    HW212480   2.545   5.829   4.471
 3861SOL     OW12481   3.536   4.282   6.749
 3861SOL    HW112482   3.498   4.189   6.757
 3861SOL    HW212483   3.636   4.277   6.748
 3862SOL     OW12484   0.808   5.553   6.021
 3862SOL    HW112485   0.885   5.544   6.084
 3862SOL    HW212486   0.748   5.626   6.052
 3863SOL     OW12487   2.610   3.285   0.128
 3863SOL    HW112488   2.694   3.241   0.097
 3863SOL    HW212489   2.530   3.234   0.095
 3864SOL     OW12490   3.219   2.150   1.029
 3864SOL    HW112491   3.316   2.175   1.030
 3864SOL    HW212492   3.210   2.051   1.040
 3865SOL     OW12493   4.289   0.718   2.379
 3865SOL    HW112494   4.282   0.618   2.373
 3865SOL    HW212495   4.199   0.757   2.401
 3866SOL     OW12496   3.589   6.410   6.823
 3866SOL    HW112497   3.650   6.478   6.865
 3866SOL    HW212498   3.642   6.332   6.791
 3867SOL     OW12499   1.987   4.998   3.422
 3867SOL    HW112500   1.900   5.009   3.374
 3867SOL    HW212501   2.045   5.078   3.405
 3868SOL     OW12502   2.135   5.291   2.860
 3868SOL    HW112503   2.133   5.390   2.848
 3868SOL    HW212504   2.184   5.269   2.944
 3869SOL     OW12505   0.533   1.883   4.039
 3869SOL    HW112506   0.441   1.885   4.076
 3869SOL    HW212507   0.570   1.790   4.047
 3870SOL     OW12508   3.629   3.574   0.594
 3870SOL    HW112509   3.588   3.490   0.560
 3870SOL    HW212510   3.729   3.569   0.584
 3871SOL     OW12511   3.013   1.236   4.737
 3871SOL    HW112512   3.018   1.328   4.774
 3871SOL    HW212513   3.102   1.191   4.746
 3872SOL     OW12514   4.473   4.084   1.132
 3872SOL    HW112515   4.494   3.998   1.085
 3872SOL    HW212516   4.378   4.083   1.163
 3873SOL     OW12517   5.746   4.461   1.960
 3873SOL    HW112518   5.733   4.560   1.958
 3873SOL    HW212519   5.816   4.438   2.028
 3874SOL     OW12520   5.053   6.168   5.972
 3874SOL    HW112521   5.093   6.078   5.990
 3874SOL    HW212522   4.992   6.162   5.893
 3875SOL     OW12523   2.462   3.574   0.506
 3875SOL    HW112524   2.534   3.635   0.538
 3875SOL    HW212525   2.385   3.627   0.470
 3876SOL     OW12526   6.040   4.202   2.361
 3876SOL    HW112527   6.011   4.110   2.385
 3876SOL    HW212528   6.049   4.210   2.261
 3877SOL     OW12529   4.291   1.919   2.571
 3877SOL    HW112530   4.217   1.885   2.513
 3877SOL    HW212531   4.352   1.976   2.516
 3878SOL     OW12532   5.109   6.064   4.594
 3878SOL    HW112533   5.142   5.970   4.601
 3878SOL    HW212534   5.034   6.079   4.658
 3879SOL     OW12535   3.010   6.198   0.272
 3879SOL    HW112536   2.954   6.171   0.194
 3879SOL    HW212537   3.084   6.132   0.284
 3880SOL     OW12538   6.231   1.683   4.159
 3880SOL    HW112539   6.268   1.685   4.067
 3880SOL    HW212540   6.254   1.768   4.206
 3881SOL     OW12541   0.317   5.705   6.211
 3881SOL    HW112542   0.360   5.615   6.218
 3881SOL    HW212543   0.283   5.718   6.118
 3882SOL     OW12544   7.000   6.456   6.584
 3882SOL    HW112545   7.011   6.358   6.568
 3882SOL    HW212546   0.067   6.496   6.610
 3883SOL     OW12547   3.759   1.792   6.946
 3883SOL    HW112548   3.692   1.836   7.005
 3883SOL    HW212549   3.728   1.700   6.922
 3884SOL     OW12550   2.535   5.092   5.774
 3884SOL    HW112551   2.465   5.039   5.727
 3884SOL    HW212552   2.609   5.112   5.709
 3885SOL     OW12553   6.840   0.730   4.289
 3885SOL    HW112554   6.807   0.738   4.383
 3885SOL    HW212555   6.827   0.817   4.241
 3886SOL     OW12556   0.161   6.083   5.026
 3886SOL    HW112557   0.065   6.064   5.006
 3886SOL    HW212558   0.192   6.160   4.971
 3887SOL     OW12559   5.763   2.958   4.835
 3887SOL    HW112560   5.823   2.882   4.809
 3887SOL    HW212561   5.722   2.939   4.924
 3888SOL     OW12562   5.705   0.893   2.970
 3888SOL    HW112563   5.681   0.859   3.060
 3888SOL    HW212564   5.627   0.941   2.930
 3889SOL     OW12565   6.464   5.499   6.461
 3889SOL    HW112566   6.487   5.525   6.555
 3889SOL    HW212567   6.488   5.402   6.447
 3890SOL     OW12568   6.128   3.217   3.402
 3890SOL    HW112569   6.136   3.117   3.408
 3890SOL    HW212570   6.078   3.242   3.320
 3891SOL     OW12571   4.242   4.469   5.783
 3891SOL    HW112572   4.196   4.542   5.734
 3891SOL    HW212573   4.185   4.386   5.782
 3892SOL     OW12574   5.506   5.886   3.725
 3892SOL    HW112575   5.489   5.977   3.688
 3892SOL    HW212576   5.483   5.817   3.657
 3893SOL     OW12577   2.891   6.190   4.706
 3893SOL    HW112578   2.889   6.092   4.726
 3893SOL    HW212579   2.815   6.213   4.644
 3894SOL     OW12580   5.824   5.416   6.553
 3894SOL    HW112581   5.780   5.388   6.468
 3894SOL    HW212582   5.917   5.381   6.556
 3895SOL     OW12583   1.949   1.991   6.300
 3895SOL    HW112584   1.973   2.085   6.326
 3895SOL    HW212585   1.870   1.961   6.353
 3896SOL     OW12586   6.546   2.550   0.848
 3896SOL    HW112587   6.596   2.483   0.793
 3896SOL    HW212588   6.605   2.630   0.864
 3897SOL     OW12589   2.973   6.929   3.404
 3897SOL    HW112590   3.020   7.015   3.423
 3897SOL    HW212591   3.008   6.890   3.319
 3898SOL     OW12592   3.156   4.002   3.694
 3898SOL    HW112593   3.110   3.994   3.605
 3898SOL    HW212594   3.245   4.046   3.681
 3899SOL     OW12595   4.858   2.051   0.012
 3899SOL    HW112596   4.769   2.020   0.046
 3899SOL    HW212597   4.873   2.146   0.041
 3900SOL     OW12598   0.726   2.638   3.335
 3900SOL    HW112599   0.757   2.656   3.428
 3900SOL    HW212600   0.649   2.698   3.313
 3901SOL     OW12601   3.815   6.316   5.180
 3901SOL    HW112602   3.718   6.334   5.196
 3901SOL    HW212603   3.869   6.360   5.251
 3902SOL     OW12604   3.447   5.667   3.172
 3902SOL    HW112605   3.502   5.635   3.250
 3902SOL    HW212606   3.368   5.718   3.206
 3903SOL     OW12607   3.616   3.831   6.436
 3903SOL    HW112608   3.688   3.779   6.391
 3903SOL    HW212609   3.530   3.780   6.430
 3904SOL     OW12610   2.384   6.439   6.896
 3904SOL    HW112611   2.367   6.340   6.894
 3904SOL    HW212612   2.463   6.458   6.954
 3905SOL     OW12613   4.485   0.701   5.394
 3905SOL    HW112614   4.471   0.713   5.295
 3905SOL    HW212615   4.469   0.605   5.418
 3906SOL     OW12616   6.304   5.791   4.148
 3906SOL    HW112617   6.404   5.801   4.157
 3906SOL    HW212618   6.263   5.882   4.140
 3907SOL     OW12619   0.623   1.757   4.424
 3907SOL    HW112620   0.575   1.831   4.375
 3907SOL    HW212621   0.712   1.791   4.456
 3908SOL     OW12622   2.112   1.420   4.743
 3908SOL    HW112623   2.097   1.328   4.709
 3908SOL    HW212624   2.142   1.416   4.838
 3909SOL     OW12625   5.853   3.267   2.133
 3909SOL    HW112626   5.829   3.344   2.191
 3909SOL    HW212627   5.922   3.295   2.066
 3910SOL     OW12628   2.154   2.561   1.330
 3910SOL    HW112629   2.141   2.658   1.312
 3910SOL    HW212630   2.066   2.519   1.353
 3911SOL     OW12631   6.296   1.212   1.005
 3911SOL    HW112632   6.372   1.260   1.048
 3911SOL    HW212633   6.292   1.119   1.040
 3912SOL     OW12634   5.014   4.152   0.445
 3912SOL    HW112635   5.001   4.241   0.488
 3912SOL    HW212636   4.958   4.146   0.362
 3913SOL     OW12637   3.891   4.484   1.376
 3913SOL    HW112638   3.868   4.581   1.370
 3913SOL    HW212639   3.907   4.460   1.472
 3914SOL     OW12640   0.409   0.981   0.842
 3914SOL    HW112641   0.426   1.047   0.769
 3914SOL    HW212642   0.496   0.939   0.869
 3915SOL     OW12643   5.617   0.459   5.003
 3915SOL    HW112644   5.538   0.406   5.035
 3915SOL    HW212645   5.585   0.540   4.954
 3916SOL     OW12646   1.826   2.140   2.109
 3916SOL    HW112647   1.757   2.096   2.167
 3916SOL    HW212648   1.911   2.149   2.160
 3917SOL     OW12649   4.529   5.755   2.442
 3917SOL    HW112650   4.488   5.672   2.404
 3917SOL    HW212651   4.601   5.731   2.507
 3918SOL     OW12652   3.881   6.903   1.017
 3918SOL    HW112653   3.921   6.843   1.086
 3918SOL    HW212654   3.866   6.993   1.056
 3919SOL     OW12655   5.138   5.322   3.042
 3919SOL    HW112656   5.158   5.288   3.134
 3919SOL    HW212657   5.068   5.393   3.047
 3920SOL     OW12658   4.387   1.201   6.070
 3920SOL    HW112659   4.368   1.286   6.120
 3920SOL    HW212660   4.410   1.223   5.975
 3921SOL     OW12661   1.086   3.080   6.157
 3921SOL    HW112662   1.164   3.079   6.094
 3921SOL    HW212663   1.018   3.013   6.126
 3922SOL     OW12664   5.593   2.570   3.991
 3922SOL    HW112665   5.503   2.602   3.960
 3922SOL    HW212666   5.630   2.506   3.924
 3923SOL     OW12667   5.450   1.035   0.970
 3923SOL    HW112668   5.428   0.955   0.914
 3923SOL    HW212669   5.502   1.100   0.914
 3924SOL     OW12670   5.300   5.007   3.675
 3924SOL    HW112671   5.248   5.064   3.738
 3924SOL    HW212672   5.385   4.977   3.719
 3925SOL     OW12673   3.521   4.443   1.670
 3925SOL    HW112674   3.555   4.525   1.716
 3925SOL    HW212675   3.563   4.436   1.579
 3926SOL     OW12676   1.327   5.762   5.391
 3926SOL    HW112677   1.244   5.783   5.340
 3926SOL    HW212678   1.375   5.685   5.349
 3927SOL     OW12679   6.193   6.929   5.477
 3927SOL    HW112680   6.216   6.981   5.395
 3927SOL    HW212681   6.203   6.988   5.557
 3928SOL     OW12682   4.561   5.560   2.821
 3928SOL    HW112683   4.558   5.476   2.875
 3928SOL    HW212684   4.480   5.615   2.841
 3929SOL     OW12685   1.364   1.376   5.451
 3929SOL    HW112686   1.422   1.320   5.392
 3929SOL    HW212687   1.296   1.319   5.496
 3930SOL     OW12688   2.335   5.330   3.910
 3930SOL    HW112689   2.420   5.356   3.864
 3930SOL    HW212690   2.257   5.352   3.851
 3931SOL     OW12691   0.499   2.374   0.343
 3931SOL    HW112692   0.466   2.449   0.401
 3931SOL    HW212693   0.493   2.402   0.247
 3932SOL     OW12694   2.184   4.054   2.794
 3932SOL    HW112695   2.091   4.085   2.776
 3932SOL    HW212696   2.228   4.027   2.709
 3933SOL     OW12697   1.426   6.497   1.614
 3933SOL    HW112698   1.347   6.526   1.560
 3933SOL    HW212699   1.398   6.424   1.676
 3934SOL     OW12700   1.841   6.404   2.164
 3934SOL    HW112701   1.781   6.476   2.130
 3934SOL    HW212702   1.918   6.445   2.214
 3935SOL     OW12703   0.576   0.935   5.197
 3935SOL    HW112704   0.489   0.962   5.239
 3935SOL    HW212705   0.583   0.973   5.105
 3936SOL     OW12706   6.518   4.381   3.627
 3936SOL    HW112707   6.494   4.305   3.568
 3936SOL    HW212708   6.554   4.456   3.572
 3937SOL     OW12709   1.228   6.275   0.034
 3937SOL    HW112710   1.237   6.246   6.959
 3937SOL    HW212711   1.261   6.369   0.044
 3938SOL     OW12712   0.534   3.986   6.519
 3938SOL    HW112713   0.508   3.894   6.489
 3938SOL    HW212714   0.558   3.984   6.616
 3939SOL     OW12715   2.568   6.610   4.017
 3939SOL    HW112716   2.576   6.651   4.108
 3939SOL    HW212717   2.575   6.681   3.947
 3940SOL     OW12718   2.606   6.324   6.730
 3940SOL    HW112719   2.633   6.300   6.637
 3940SOL    HW212720   2.511   6.295   6.746
 3941SOL     OW12721   5.717   5.304   2.317
 3941SOL    HW112722   5.760   5.234   2.261
 3941SOL    HW212723   5.707   5.271   2.411
 3942SOL     OW12724   7.019   6.050   6.933
 3942SOL    HW112725   7.007   5.958   6.970
 3942SOL    HW212726   6.954   6.064   6.858
 3943SOL     OW12727   0.939   4.652   0.292
 3943SOL    HW112728   1.003   4.605   0.231
 3943SOL    HW212729   0.861   4.685   0.238
 3944SOL     OW12730   4.629   3.109   0.447
 3944SOL    HW112731   4.600   3.204   0.435
 3944SOL    HW212732   4.713   3.107   0.502
 3945SOL     OW12733   0.250   0.742   3.088
 3945SOL    HW112734   0.227   0.838   3.102
 3945SOL    HW212735   0.177   0.696   3.038
 3946SOL     OW12736   6.116   1.516   1.409
 3946SOL    HW112737   6.075   1.462   1.336
 3946SOL    HW212738   6.116   1.462   1.494
 3947SOL     OW12739   5.644   7.008   1.859
 3947SOL    HW112740   5.649   6.938   1.789
 3947SOL    HW212741   5.552   0.026   1.863
 3948SOL     OW12742   1.928   1.373   4.456
 3948SOL    HW112743   1.969   1.459   4.488
 3948SOL    HW212744   1.838   1.361   4.498
 3949SOL     OW12745   6.388   0.349   2.416
 3949SOL    HW112746   6.443   0.383   2.492
 3949SOL    HW212747   6.304   0.403   2.409
 3950SOL     OW12748   2.555   4.829   1.563
 3950SOL    HW112749   2.543   4.923   1.596
 3950SOL    HW212750   2.619   4.780   1.622
 3951SOL     OW12751   6.911   2.413   3.820
 3951SOL    HW112752   6.836   2.479   3.833
 3951SOL    HW212753   6.885   2.347   3.749
 3952SOL     OW12754   5.897   5.065   6.766
 3952SOL    HW112755   5.924   5.139   6.827
 3952SOL    HW212756   5.798   5.066   6.754
 3953SOL     OW12757   4.079   3.403   5.496
 3953SOL    HW112758   4.128   3.391   5.409
 3953SOL    HW212759   4.090   3.497   5.527
 3954SOL     OW12760   0.887   4.148   5.686
 3954SOL    HW112761   0.949   4.224   5.665
 3954SOL    HW212762   0.932   4.061   5.665
 3955SOL     OW12763   5.811   3.544   0.092
 3955SOL    HW112764   5.737   3.478   0.103
 3955SOL    HW212765   5.899   3.498   0.099
 3956SOL     OW12766   6.692   2.609   5.244
 3956SOL    HW112767   6.654   2.549   5.173
 3956SOL    HW212768   6.645   2.591   5.331
 3957SOL     OW12769   1.750   2.799   1.958
 3957SOL    HW112770   1.807   2.759   1.886
 3957SOL    HW212771   1.699   2.876   1.920
 3958SOL     OW12772   5.884   5.108   1.150
 3958SOL    HW112773   5.891   5.017   1.107
 3958SOL    HW212774   5.964   5.123   1.208
 3959SOL     OW12775   3.010   5.078   1.378
 3959SOL    HW112776   3.070   4.999   1.391
 3959SOL    HW212777   2.933   5.052   1.319
 3960SOL     OW12778   6.064   2.837   0.845
 3960SOL    HW112779   6.063   2.820   0.746
 3960SOL    HW212780   5.971   2.831   0.881
 3961SOL     OW12781   6.833   1.213   1.049
 3961SOL    HW112782   6.875   1.221   0.958
 3961SOL    HW212783   6.905   1.197   1.117
 3962SOL     OW12784   0.060   6.820   6.743
 3962SOL    HW112785   0.064   6.756   6.820
 3962SOL    HW212786   7.011   6.890   6.762
 3963SOL     OW12787   5.396   3.829   4.609
 3963SOL    HW112788   5.422   3.911   4.661
 3963SOL    HW212789   5.434   3.748   4.653
 3964SOL     OW12790   5.761   4.315   6.851
 3964SOL    HW112791   5.676   4.263   6.864
 3964SOL    HW212792   5.809   4.281   6.771
 3965SOL     OW12793   2.262   4.215   1.117
 3965SOL    HW112794   2.215   4.296   1.153
 3965SOL    HW212795   2.296   4.234   1.025
 3966SOL     OW12796   0.394   3.124   5.079
 3966SOL    HW112797   0.301   3.162   5.082
 3966SOL    HW212798   0.396   3.039   5.132
 3967SOL     OW12799   2.291   0.225   0.400
 3967SOL    HW112800   2.273   0.129   0.378
 3967SOL    HW212801   2.388   0.238   0.421
 3968SOL     OW12802   4.251   2.866   0.720
 3968SOL    HW112803   4.315   2.798   0.683
 3968SOL    HW212804   4.224   2.838   0.812
 3969SOL     OW12805   6.026   6.374   0.656
 3969SOL    HW112806   6.109   6.332   0.620
 3969SOL    HW212807   6.039   6.394   0.754
 3970SOL     OW12808   5.933   4.601   3.903
 3970SOL    HW112809   5.942   4.696   3.873
 3970SOL    HW212810   5.874   4.552   3.839
 3971SOL     OW12811   0.442   5.920   4.186
 3971SOL    HW112812   0.345   5.933   4.165
 3971SOL    HW212813   0.497   5.941   4.105
 3972SOL     OW12814   0.903   0.471   6.662
 3972SOL    HW112815   0.821   0.514   6.626
 3972SOL    HW212816   0.976   0.539   6.670
 3973SOL     OW12817   4.143   3.230   1.878
 3973SOL    HW112818   4.078   3.155   1.892
 3973SOL    HW212819   4.228   3.193   1.839
 3974SOL     OW12820   5.261   1.131   6.920
 3974SOL    HW112821   5.280   1.221   6.881
 3974SOL    HW212822   5.290   1.060   6.856
 3975SOL     OW12823   0.120   6.381   4.579
 3975SOL    HW112824   0.157   6.309   4.521
 3975SOL    HW212825   0.078   6.452   4.523
 3976SOL     OW12826   1.329   2.832   5.374
 3976SOL    HW112827   1.378   2.857   5.291
 3976SOL    HW212828   1.231   2.841   5.358
 3977SOL     OW12829   2.742   4.793   5.814
 3977SOL    HW112830   2.683   4.715   5.835
 3977SOL    HW212831   2.790   4.822   5.897
 3978SOL     OW12832   4.943   2.630   5.965
 3978SOL    HW112833   5.037   2.631   5.999
 3978SOL    HW212834   4.885   2.577   6.027
 3979SOL     OW12835   1.404   5.434   2.984
 3979SOL    HW112836   1.376   5.449   3.079
 3979SOL    HW212837   1.323   5.428   2.926
 3980SOL     OW12838   5.000   4.235   4.374
 3980SOL    HW112839   4.953   4.147   4.368
 3980SOL    HW212840   5.033   4.261   4.283
 3981SOL     OW12841   0.237   1.074   6.358
 3981SOL    HW112842   0.197   1.154   6.402
 3981SOL    HW212843   0.329   1.096   6.327
 3982SOL     OW12844   1.761   3.030   4.357
 3982SOL    HW112845   1.713   2.958   4.407
 3982SOL    HW212846   1.697   3.106   4.340
 3983SOL     OW12847   3.165   0.331   4.198
 3983SOL    HW112848   3.169   0.314   4.100
 3983SOL    HW212849   3.205   0.254   4.247
 3984SOL     OW12850   1.457   5.833   2.280
 3984SOL    HW112851   1.498   5.813   2.369
 3984SOL    HW212852   1.357   5.837   2.290
 3985SOL     OW12853   1.622   2.993   1.782
 3985SOL    HW112854   1.696   3.059   1.773
 3985SOL    HW212855   1.535   3.037   1.762
 3986SOL     OW12856   6.916   2.151   3.111
 3986SOL    HW112857   6.820   2.153   3.082
 3986SOL    HW212858   6.974   2.186   3.036
 3987SOL     OW12859   0.507   4.214   5.314
 3987SOL    HW112860   0.487   4.121   5.343
 3987SOL    HW212861   0.564   4.259   5.382
 3988SOL     OW12862   5.177   6.938   1.778
 3988SOL    HW112863   5.244   6.989   1.832
 3988SOL    HW212864   5.158   6.851   1.822
 3989SOL     OW12865   4.407   0.574   5.859
 3989SOL    HW112866   4.409   0.673   5.849
 3989SOL    HW212867   4.490   0.535   5.819
 3990SOL     OW12868   6.036   0.638   4.370
 3990SOL    HW112869   5.969   0.566   4.391
 3990SOL    HW212870   6.115   0.597   4.325
 3991SOL     OW12871   6.250   2.095   3.698
 3991SOL    HW112872   6.236   2.139   3.609
 3991SOL    HW212873   6.328   2.137   3.744
 3992SOL     OW12874   5.985   3.672   6.057
 3992SOL    HW112875   5.996   3.717   5.969
 3992SOL    HW212876   6.013   3.733   6.131
 3993SOL     OW12877   1.709   0.670   4.158
 3993SOL    HW112878   1.805   0.653   4.179
 3993SOL    HW212879   1.693   0.768   4.152
 3994SOL     OW12880   2.885   2.257   3.838
 3994SOL    HW112881   2.883   2.162   3.807
 3994SOL    HW212882   2.818   2.311   3.786
 3995SOL     OW12883   1.338   3.621   1.944
 3995SOL    HW112884   1.341   3.544   2.009
 3995SOL    HW212885   1.431   3.641   1.913
 3996SOL     OW12886   0.080   6.411   5.113
 3996SOL    HW112887   0.113   6.423   5.019
 3996SOL    HW212888   0.086   6.498   5.162
 3997SOL     OW12889   5.823   4.032   4.511
 3997SOL    HW112890   5.895   3.962   4.513
 3997SOL    HW212891   5.843   4.102   4.579
 3998SOL     OW12892   4.558   1.969   3.732
 3998SOL    HW112893   4.511   2.055   3.714
 3998SOL    HW212894   4.611   1.976   3.816
 3999SOL     OW12895   5.095   2.762   0.997
 3999SOL    HW112896   5.096   2.822   1.077
 3999SOL    HW212897   5.187   2.752   0.961
 4000SOL     OW12898   1.876   4.751   3.091
 4000SOL    HW112899   1.941   4.683   3.123
 4000SOL    HW212900   1.924   4.837   3.074
 4001SOL     OW12901   0.596   6.077   4.503
 4001SOL    HW112902   0.684   6.038   4.477
 4001SOL    HW212903   0.523   6.012   4.482
 4002SOL     OW12904   3.958   3.757   4.429
 4002SOL    HW112905   3.996   3.700   4.501
 4002SOL    HW212906   3.859   3.751   4.431
 4003SOL     OW12907   2.911   0.738   4.705
 4003SOL    HW112908   2.888   0.795   4.626
 4003SOL    HW212909   2.830   0.686   4.732
 4004SOL     OW12910   1.821   3.565   5.004
 4004SOL    HW112911   1.859   3.475   4.985
 4004SOL    HW212912   1.760   3.592   4.930
 4005SOL     OW12913   5.781   2.974   0.721
 4005SOL    HW112914   5.795   3.071   0.740
 4005SOL    HW212915   5.777   2.923   0.807
 4006SOL     OW12916   6.954   5.996   2.031
 4006SOL    HW112917   6.896   6.074   2.055
 4006SOL    HW212918   6.918   5.914   2.075
 4007SOL     OW12919   0.399   1.035   1.545
 4007SOL    HW112920   0.309   1.049   1.587
 4007SOL    HW212921   0.387   0.995   1.454
 4008SOL     OW12922   4.139   0.934   1.672
 4008SOL    HW112923   4.134   0.986   1.586
 4008SOL    HW212924   4.053   0.884   1.685
 4009SOL     OW12925   3.424   2.374   1.295
 4009SOL    HW112926   3.519   2.388   1.322
 4009SOL    HW212927   3.363   2.417   1.361
 4010SOL     OW12928   1.637   4.258   1.001
 4010SOL    HW112929   1.668   4.168   1.031
 4010SOL    HW212930   1.539   4.267   1.022
 4011SOL     OW12931   6.148   6.688   6.207
 4011SOL    HW112932   6.188   6.774   6.176
 4011SOL    HW212933   6.106   6.701   6.297
 4012SOL     OW12934   5.571   5.397   1.576
 4012SOL    HW112935   5.550   5.358   1.486
 4012SOL    HW212936   5.510   5.358   1.645
 4013SOL     OW12937   0.136   1.675   0.322
 4013SOL    HW112938   0.148   1.602   0.255
 4013SOL    HW212939   0.192   1.753   0.296
 4014SOL     OW12940   3.174   5.946   2.534
 4014SOL    HW112941   3.085   5.964   2.491
 4014SOL    HW212942   3.194   6.019   2.600
 4015SOL     OW12943   3.991   6.312   4.974
 4015SOL    HW112944   3.989   6.221   4.933
 4015SOL    HW212945   3.914   6.322   5.038
 4016SOL     OW12946   4.686   5.426   4.577
 4016SOL    HW112947   4.716   5.521   4.588
 4016SOL    HW212948   4.738   5.383   4.503
 4017SOL     OW12949   1.830   5.688   6.247
 4017SOL    HW112950   1.910   5.631   6.233
 4017SOL    HW212951   1.803   5.730   6.160
 4018SOL     OW12952   4.796   5.032   1.204
 4018SOL    HW112953   4.713   5.075   1.169
 4018SOL    HW212954   4.847   5.097   1.261
 4019SOL     OW12955   0.269   2.372   2.968
 4019SOL    HW112956   0.249   2.382   3.065
 4019SOL    HW212957   0.368   2.377   2.953
 4020SOL     OW12958   6.653   5.695   4.467
 4020SOL    HW112959   6.728   5.757   4.487
 4020SOL    HW212960   6.595   5.686   4.548
 4021SOL     OW12961   4.364   5.180   5.979
 4021SOL    HW112962   4.276   5.190   5.932
 4021SOL    HW212963   4.399   5.087   5.966
 4022SOL     OW12964   3.242   6.770   1.402
 4022SOL    HW112965   3.169   6.739   1.463
 4022SOL    HW212966   3.286   6.692   1.359
 4023SOL     OW12967   0.762   2.017   4.126
 4023SOL    HW112968   0.675   1.971   4.114
 4023SOL    HW212969   0.774   2.085   4.054
 4024SOL     OW12970   0.334   6.172   6.375
 4024SOL    HW112971   0.276   6.091   6.375
 4024SOL    HW212972   0.408   6.160   6.309
 4025SOL     OW12973   0.106   4.776   4.206
 4025SOL    HW112974   0.063   4.866   4.206
 4025SOL    HW212975   0.140   4.755   4.114
 4026SOL     OW12976   0.572   6.655   4.109
 4026SOL    HW112977   0.671   6.645   4.110
 4026SOL    HW212978   0.548   6.750   4.128
 4027SOL     OW12979   2.735   5.331   5.173
 4027SOL    HW112980   2.779   5.354   5.260
 4027SOL    HW212981   2.642   5.300   5.189
 4028SOL     OW12982   5.081   1.710   4.469
 4028SOL    HW112983   5.027   1.662   4.538
 4028SOL    HW212984   5.137   1.780   4.513
 4029SOL     OW12985   1.453   6.796   0.717
 4029SOL    HW112986   1.408   6.833   0.799
 4029SOL    HW212987   1.385   6.760   0.654
 4030SOL     OW12988   0.725   1.233   1.745
 4030SOL    HW112989   0.811   1.236   1.692
 4030SOL    HW212990   0.648   1.244   1.683
 4031SOL     OW12991   5.352   5.720   0.535
 4031SOL    HW112992   5.353   5.782   0.457
 4031SOL    HW212993   5.424   5.747   0.599
 4032SOL     OW12994   4.967   2.031   2.395
 4032SOL    HW112995   5.061   2.044   2.363
 4032SOL    HW212996   4.933   1.943   2.362
 4033SOL     OW12997   1.810   2.968   3.056
 4033SOL    HW112998   1.871   3.045   3.037
 4033SOL    HW212999   1.748   2.992   3.131
 4034SOL     OW13000   1.760   2.391   4.329
 4034SOL    HW113001   1.858   2.384   4.351
 4034SOL    HW213002   1.744   2.356   4.237
 4035SOL     OW13003   3.973   2.490   1.615
 4035SOL    HW113004   3.964   2.529   1.523
 4035SOL    HW213005   3.882   2.481   1.656
 4036SOL     OW13006   3.816   6.075   3.847
 4036SOL    HW113007   3.819   6.158   3.792
 4036SOL    HW213008   3.830   5.996   3.788
 4037SOL     OW13009   2.148   1.860   6.454
 4037SOL    HW113010   2.234   1.821   6.420
 4037SOL    HW213011   2.111   1.923   6.386
 4038SOL     OW13012   3.495   4.624   6.031
 4038SOL    HW113013   3.428   4.550   6.024
 4038SOL    HW213014   3.566   4.598   6.097
 4039SOL     OW13015   6.041   4.369   1.539
 4039SOL    HW113016   6.081   4.277   1.545
 4039SOL    HW213017   5.959   4.373   1.595
 4040SOL     OW13018   2.982   0.364   5.261
 4040SOL    HW113019   3.049   0.291   5.263
 4040SOL    HW213020   2.985   0.411   5.172
 4041SOL     OW13021   1.433   6.086   1.775
 4041SOL    HW113022   1.519   6.129   1.803
 4041SOL    HW213023   1.439   5.987   1.790
 4042SOL     OW13024   0.336   1.734   3.262
 4042SOL    HW113025   0.360   1.667   3.333
 4042SOL    HW213026   0.241   1.762   3.273
 4043SOL     OW13027   4.254   1.841   5.919
 4043SOL    HW113028   4.319   1.821   5.845
 4043SOL    HW213029   4.296   1.904   5.983
 4044SOL     OW13030   4.394   4.650   3.307
 4044SOL    HW113031   4.457   4.717   3.347
 4044SOL    HW213032   4.306   4.655   3.355
 4045SOL     OW13033   4.389   1.575   4.903
 4045SOL    HW113034   4.402   1.515   4.982
 4045SOL    HW213035   4.414   1.668   4.926
 4046SOL     OW13036   4.941   1.651   4.044
 4046SOL    HW113037   4.935   1.552   4.031
 4046SOL    HW213038   5.036   1.676   4.064
 4047SOL     OW13039   2.868   2.212   6.459
 4047SOL    HW113040   2.783   2.249   6.421
 4047SOL    HW213041   2.943   2.228   6.394
 4048SOL     OW13042   4.885   2.098   3.642
 4048SOL    HW113043   4.869   2.019   3.583
 4048SOL    HW213044   4.828   2.091   3.724
 4049SOL     OW13045   4.307   3.822   1.288
 4049SOL    HW113046   4.255   3.744   1.322
 4049SOL    HW213047   4.376   3.849   1.355
 4050SOL     OW13048   6.631   5.120   2.637
 4050SOL    HW113049   6.699   5.046   2.640
 4050SOL    HW213050   6.679   5.207   2.629
 4051SOL     OW13051   5.571   1.308   4.343
 4051SOL    HW113052   5.662   1.341   4.366
 4051SOL    HW213053   5.574   1.255   4.258
 4052SOL     OW13054   4.890   1.919   4.324
 4052SOL    HW113055   4.930   1.846   4.379
 4052SOL    HW213056   4.930   1.920   4.233
 4053SOL     OW13057   0.968   4.987   3.873
 4053SOL    HW113058   0.945   5.075   3.913
 4053SOL    HW213059   1.043   4.999   3.808
 4054SOL     OW13060   4.743   3.698   1.215
 4054SOL    HW113061   4.816   3.684   1.149
 4054SOL    HW213062   4.752   3.632   1.290
 4055SOL     OW13063   6.886   4.331   6.800
 4055SOL    HW113064   6.891   4.388   6.882
 4055SOL    HW213065   6.798   4.346   6.755
 4056SOL     OW13066   5.099   3.366   0.173
 4056SOL    HW113067   5.017   3.310   0.187
 4056SOL    HW213068   5.113   3.425   0.253
 4057SOL     OW13069   6.857   4.023   6.248
 4057SOL    HW113070   6.778   3.982   6.294
 4057SOL    HW213071   6.846   4.122   6.245
 4058SOL     OW13072   3.619   0.429   4.635
 4058SOL    HW113073   3.559   0.370   4.579
 4058SOL    HW213074   3.604   0.524   4.610
 4059SOL     OW13075   0.803   1.207   3.894
 4059SOL    HW113076   0.866   1.184   3.820
 4059SOL    HW213077   0.854   1.215   3.980
 4060SOL     OW13078   0.204   6.440   4.871
 4060SOL    HW113079   0.190   6.421   4.773
 4060SOL    HW213080   0.197   6.538   4.887
 4061SOL     OW13081   0.603   4.823   1.917
 4061SOL    HW113082   0.667   4.777   1.854
 4061SOL    HW213083   0.520   4.847   1.868
 4062SOL     OW13084   2.012   3.998   0.149
 4062SOL    HW113085   2.038   4.093   0.166
 4062SOL    HW213086   1.956   3.965   0.225
 4063SOL     OW13087   3.885   0.673   0.885
 4063SOL    HW113088   3.950   0.745   0.910
 4063SOL    HW213089   3.873   0.672   0.786
 4064SOL     OW13090   2.695   0.834   5.686
 4064SOL    HW113091   2.736   0.749   5.654
 4064SOL    HW213092   2.598   0.820   5.705
 4065SOL     OW13093   2.589   1.432   1.604
 4065SOL    HW113094   2.517   1.412   1.670
 4065SOL    HW213095   2.555   1.495   1.535
 4066SOL     OW13096   0.324   4.510   4.503
 4066SOL    HW113097   0.422   4.491   4.507
 4066SOL    HW213098   0.288   4.483   4.414
 4067SOL     OW13099   6.829   4.692   0.616
 4067SOL    HW113100   6.896   4.634   0.571
 4067SOL    HW213101   6.738   4.672   0.579
 4068SOL     OW13102   2.469   2.546   5.595
 4068SOL    HW113103   2.470   2.446   5.601
 4068SOL    HW213104   2.520   2.574   5.513
 4069SOL     OW13105   4.767   6.795   5.528
 4069SOL    HW113106   4.816   6.775   5.613
 4069SOL    HW213107   4.815   6.752   5.452
 4070SOL     OW13108   1.494   2.879   3.837
 4070SOL    HW113109   1.448   2.794   3.814
 4070SOL    HW213110   1.477   2.901   3.933
 4071SOL     OW13111   1.920   0.405   4.939
 4071SOL    HW113112   1.967   0.318   4.955
 4071SOL    HW213113   1.987   0.475   4.916
 4072SOL     OW13114   3.232   6.663   2.505
 4072SOL    HW113115   3.300   6.593   2.485
 4072SOL    HW213116   3.185   6.689   2.421
 4073SOL     OW13117   4.030   5.319   0.036
 4073SOL    HW113118   3.932   5.335   0.023
 4073SOL    HW213119   4.048   5.221   0.024
 4074SOL     OW13120   1.200   5.769   2.366
 4074SOL    HW113121   1.117   5.826   2.360
 4074SOL    HW213122   1.174   5.674   2.382
 4075SOL     OW13123   6.189   1.343   0.063
 4075SOL    HW113124   6.260   1.319   0.130
 4075SOL    HW213125   6.107   1.372   0.111
 4076SOL     OW13126   2.152   5.641   4.192
 4076SOL    HW113127   2.113   5.611   4.106
 4076SOL    HW213128   2.239   5.688   4.175
 4077SOL     OW13129   2.977   1.669   1.765
 4077SOL    HW113130   3.047   1.615   1.720
 4077SOL    HW213131   2.967   1.757   1.719
 4078SOL     OW13132   4.012   4.782   2.422
 4078SOL    HW113133   4.027   4.817   2.514
 4078SOL    HW213134   3.915   4.785   2.400
 4079SOL     OW13135   0.487   2.204   3.978
 4079SOL    HW113136   0.425   2.172   3.906
 4079SOL    HW213137   0.437   2.263   4.041
 4080SOL     OW13138   6.564   1.836   4.678
 4080SOL    HW113139   6.478   1.786   4.687
 4080SOL    HW213140   6.545   1.934   4.688
 4081SOL     OW13141   0.722   3.957   3.144
 4081SOL    HW113142   0.727   3.999   3.234
 4081SOL    HW213143   0.703   3.859   3.154
 4082SOL     OW13144   0.474   3.252   0.034
 4082SOL    HW113145   0.536   3.178   0.008
 4082SOL    HW213146   0.514   3.304   0.110
 4083SOL     OW13147   6.545   3.019   5.016
 4083SOL    HW113148   6.624   2.970   5.052
 4083SOL    HW213149   6.536   3.002   4.918
 4084SOL     OW13150   5.864   1.208   4.948
 4084SOL    HW113151   5.878   1.111   4.968
 4084SOL    HW213152   5.793   1.244   5.008
 4085SOL     OW13153   2.755   5.430   0.008
 4085SOL    HW113154   2.682   5.469   0.063
 4085SOL    HW213155   2.757   5.475   6.939
 4086SOL     OW13156   1.439   3.902   1.267
 4086SOL    HW113157   1.472   3.937   1.179
 4086SOL    HW213158   1.342   3.923   1.277
 4087SOL     OW13159   2.373   1.277   2.815
 4087SOL    HW113160   2.340   1.362   2.774
 4087SOL    HW213161   2.332   1.199   2.767
 4088SOL     OW13162   6.942   1.529   0.087
 4088SOL    HW113163   6.920   1.526   0.185
 4088SOL    HW213164   6.937   1.624   0.055
 4089SOL     OW13165   0.574   0.908   5.517
 4089SOL    HW113166   0.528   0.820   5.509
 4089SOL    HW213167   0.585   0.949   5.427
 4090SOL     OW13168   2.999   4.994   6.526
 4090SOL    HW113169   2.947   5.067   6.571
 4090SOL    HW213170   3.007   4.916   6.588
 4091SOL     OW13171   4.596   6.920   1.143
 4091SOL    HW113172   4.589   7.019   1.143
 4091SOL    HW213173   4.689   6.893   1.117
 4092SOL     OW13174   6.766   1.650   3.895
 4092SOL    HW113175   6.741   1.641   3.991
 4092SOL    HW213176   6.687   1.679   3.842
 4093SOL     OW13177   5.449   0.259   4.160
 4093SOL    HW113178   5.359   0.293   4.189
 4093SOL    HW213179   5.443   0.221   4.068
 4094SOL     OW13180   3.042   4.158   5.970
 4094SOL    HW113181   2.956   4.133   5.926
 4094SOL    HW213182   3.065   4.252   5.947
 4095SOL     OW13183   1.847   3.526   6.003
 4095SOL    HW113184   1.921   3.560   5.945
 4095SOL    HW213185   1.865   3.431   6.028
 4096SOL     OW13186   4.360   4.750   1.819
 4096SOL    HW113187   4.445   4.782   1.778
 4096SOL    HW213188   4.372   4.739   1.918
 4097SOL     OW13189   3.734   3.610   3.387
 4097SOL    HW113190   3.742   3.541   3.460
 4097SOL    HW213191   3.660   3.674   3.410
 4098SOL     OW13192   0.748   3.314   2.046
 4098SOL    HW113193   0.668   3.367   2.019
 4098SOL    HW213194   0.775   3.339   2.139
 4099SOL     OW13195   2.592   6.109   2.249
 4099SOL    HW113196   2.627   6.089   2.340
 4099SOL    HW213197   2.494   6.088   2.246
 4100SOL     OW13198   3.578   6.984   3.213
 4100SOL    HW113199   3.554   0.057   3.184
 4100SOL    HW213200   3.665   6.958   3.171
 4101SOL     OW13201   4.568   2.118   6.761
 4101SOL    HW113202   4.659   2.137   6.725
 4101SOL    HW213203   4.562   2.150   6.855
 4102SOL     OW13204   4.630   1.840   0.455
 4102SOL    HW113205   4.616   1.938   0.452
 4102SOL    HW213206   4.702   1.815   0.390
 4103SOL     OW13207   0.462   0.051   2.258
 4103SOL    HW113208   0.529   0.051   2.333
 4103SOL    HW213209   0.485   6.999   2.193
 4104SOL     OW13210   2.278   4.736   2.590
 4104SOL    HW113211   2.236   4.710   2.677
 4104SOL    HW213212   2.377   4.734   2.600
 4105SOL     OW13213   6.272   4.966   6.844
 4105SOL    HW113214   6.216   4.957   6.762
 4105SOL    HW213215   6.220   4.935   6.923
 4106SOL     OW13216   6.834   3.610   4.813
 4106SOL    HW113217   6.793   3.679   4.754
 4106SOL    HW213218   6.787   3.523   4.800
 4107SOL     OW13219   0.180   0.570   0.788
 4107SOL    HW113220   0.123   0.495   0.752
 4107SOL    HW213221   0.257   0.586   0.727
 4108SOL     OW13222   6.286   2.728   5.359
 4108SOL    HW113223   6.203   2.759   5.313
 4108SOL    HW213224   6.356   2.800   5.353
 4109SOL     OW13225   2.761   6.094   4.072
 4109SOL    HW113226   2.727   6.018   4.017
 4109SOL    HW213227   2.715   6.095   4.161
 4110SOL     OW13228   4.669   3.199   5.419
 4110SOL    HW113229   4.715   3.253   5.348
 4110SOL    HW213230   4.735   3.178   5.491
 4111SOL     OW13231   3.650   3.331   0.065
 4111SOL    HW113232   3.697   3.379   7.012
 4111SOL    HW213233   3.564   3.293   0.031
 4112SOL     OW13234   4.128   0.444   5.490
 4112SOL    HW113235   4.122   0.510   5.566
 4112SOL    HW213236   4.104   0.353   5.524
 4113SOL     OW13237   3.606   4.907   5.157
 4113SOL    HW113238   3.533   4.947   5.102
 4113SOL    HW213239   3.569   4.874   5.244
 4114SOL     OW13240   3.679   2.101   2.763
 4114SOL    HW113241   3.682   2.008   2.727
 4114SOL    HW213242   3.592   2.144   2.739
 4115SOL     OW13243   5.473   4.348   2.233
 4115SOL    HW113244   5.506   4.431   2.190
 4115SOL    HW213245   5.431   4.371   2.322
 4116SOL     OW13246   3.289   0.936   2.735
 4116SOL    HW113247   3.337   1.014   2.694
 4116SOL    HW213248   3.249   0.880   2.663
 4117SOL     OW13249   0.755   5.716   1.357
 4117SOL    HW113250   0.665   5.745   1.389
 4117SOL    HW213251   0.757   5.720   1.257
 4118SOL     OW13252   2.365   6.993   0.031
 4118SOL    HW113253   2.387   0.069   0.018
 4118SOL    HW213254   2.416   6.957   0.110
 4119SOL     OW13255   4.703   1.121   3.317
 4119SOL    HW113256   4.692   1.209   3.363
 4119SOL    HW213257   4.744   1.136   3.227
 4120SOL     OW13258   4.916   0.911   2.482
 4120SOL    HW113259   4.960   0.863   2.558
 4120SOL    HW213260   4.970   0.898   2.399
 4121SOL     OW13261   6.449   2.166   4.390
 4121SOL    HW113262   6.461   2.264   4.373
 4121SOL    HW213263   6.428   2.120   4.304
 4122SOL     OW13264   1.943   5.639   0.146
 4122SOL    HW113265   2.036   5.640   0.109
 4122SOL    HW213266   1.943   5.671   0.241
 4123SOL     OW13267   4.400   3.702   5.738
 4123SOL    HW113268   4.432   3.678   5.830
 4123SOL    HW213269   4.404   3.801   5.726
 4124SOL     OW13270   4.092   6.172   3.727
 4124SOL    HW113271   4.148   6.254   3.721
 4124SOL    HW213272   4.081   6.147   3.824
 4125SOL     OW13273   4.872   0.960   1.390
 4125SOL    HW113274   4.876   0.884   1.454
 4125SOL    HW213275   4.803   1.026   1.420
 4126SOL     OW13276   1.990   4.413   4.455
 4126SOL    HW113277   2.041   4.495   4.427
 4126SOL    HW213278   1.973   4.417   4.554
 4127SOL     OW13279   6.278   4.647   4.597
 4127SOL    HW113280   6.268   4.746   4.585
 4127SOL    HW213281   6.328   4.628   4.681
 4128SOL     OW13282   0.929   1.942   2.015
 4128SOL    HW113283   0.929   2.010   1.942
 4128SOL    HW213284   0.843   1.890   2.013
 4129SOL     OW13285   6.645   2.617   5.957
 4129SOL    HW113286   6.735   2.641   5.923
 4129SOL    HW213287   6.596   2.700   5.985
 4130SOL     OW13288   6.615   3.000   1.002
 4130SOL    HW113289   6.673   2.940   0.946
 4130SOL    HW213290   6.522   3.000   0.965
 4131SOL     OW13291   0.021   4.025   3.028
 4131SOL    HW113292   6.981   4.085   2.976
 4131SOL    HW213293   6.987   3.966   3.087
 4132SOL     OW13294   4.931   2.189   4.884
 4132SOL    HW113295   5.010   2.131   4.907
 4132SOL    HW213296   4.877   2.206   4.966
 4133SOL     OW13297   2.425   2.521   1.276
 4133SOL    HW113298   2.327   2.536   1.286
 4133SOL    HW213299   2.442   2.425   1.254
 4134SOL     OW13300   1.897   1.295   0.544
 4134SOL    HW113301   1.798   1.279   0.540
 4134SOL    HW213302   1.933   1.300   0.451
 4135SOL     OW13303   1.955   0.515   1.170
 4135SOL    HW113304   1.940   0.553   1.261
 4135SOL    HW213305   1.906   0.428   1.162
 4136SOL     OW13306   0.636   1.664   3.421
 4136SOL    HW113307   0.558   1.610   3.452
 4136SOL    HW213308   0.621   1.694   3.327
 4137SOL     OW13309   3.909   3.159   5.842
 4137SOL    HW113310   4.002   3.133   5.818
 4137SOL    HW213311   3.911   3.216   5.925
 4138SOL     OW13312   4.338   5.645   2.090
 4138SOL    HW113313   4.255   5.665   2.038
 4138SOL    HW213314   4.358   5.547   2.085
 4139SOL     OW13315   2.755   1.180   0.669
 4139SOL    HW113316   2.814   1.181   0.750
 4139SOL    HW213317   2.663   1.211   0.694
 4140SOL     OW13318   4.369   1.855   5.277
 4140SOL    HW113319   4.304   1.884   5.347
 4140SOL    HW213320   4.462   1.875   5.307
 4141SOL     OW13321   5.134   5.510   0.128
 4141SOL    HW113322   5.059   5.572   0.103
 4141SOL    HW213323   5.099   5.435   0.184
 4142SOL     OW13324   6.163   3.357   1.275
 4142SOL    HW113325   6.252   3.316   1.257
 4142SOL    HW213326   6.115   3.305   1.345
 4143SOL     OW13327   0.766   2.797   2.268
 4143SOL    HW113328   0.689   2.749   2.225
 4143SOL    HW213329   0.775   2.888   2.227
 4144SOL     OW13330   4.203   0.778   2.031
 4144SOL    HW113331   4.139   0.780   2.108
 4144SOL    HW213332   4.260   0.859   2.032
 4145SOL     OW13333   2.955   6.926   2.840
 4145SOL    HW113334   2.982   6.840   2.795
 4145SOL    HW213335   2.866   6.912   2.885
 4146SOL     OW13336   4.990   4.905   0.234
 4146SOL    HW113337   5.045   4.968   0.181
 4146SOL    HW213338   4.906   4.882   0.183
 4147SOL     OW13339   2.762   2.033   5.787
 4147SOL    HW113340   2.800   2.119   5.822
 4147SOL    HW213341   2.663   2.035   5.795
 4148SOL     OW13342   6.949   7.001   2.667
 4148SOL    HW113343   6.926   0.015   2.758
 4148SOL    HW213344   6.901   6.915   2.651
 4149SOL     OW13345   4.755   4.118   2.231
 4149SOL    HW113346   4.681   4.170   2.187
 4149SOL    HW213347   4.788   4.047   2.169
 4150SOL     OW13348   4.677   0.305   5.490
 4150SOL    HW113349   4.583   0.340   5.485
 4150SOL    HW213350   4.741   0.382   5.489
 4151SOL     OW13351   0.457   5.758   0.355
 4151SOL    HW113352   0.373   5.745   0.302
 4151SOL    HW213353   0.537   5.748   0.295
 4152SOL     OW13354   3.236   3.805   1.557
 4152SOL    HW113355   3.302   3.859   1.609
 4152SOL    HW213356   3.164   3.864   1.522
 4153SOL     OW13357   6.284   5.630   6.046
 4153SOL    HW113358   6.266   5.568   5.969
 4153SOL    HW213359   6.301   5.722   6.011
 4154SOL     OW13360   4.556   2.517   5.488
 4154SOL    HW113361   4.529   2.612   5.504
 4154SOL    HW213362   4.656   2.509   5.491
 4155SOL     OW13363   1.701   3.019   0.494
 4155SOL    HW113364   1.798   3.008   0.473
 4155SOL    HW213365   1.690   3.032   0.593
 4156SOL     OW13366   5.718   0.319   5.245
 4156SOL    HW113367   5.714   0.327   5.146
 4156SOL    HW213368   5.696   0.225   5.271
 4157SOL     OW13369   3.180   0.823   3.513
 4157SOL    HW113370   3.190   0.922   3.512
 4157SOL    HW213371   3.140   0.792   3.427
 4158SOL     OW13372   0.773   0.584   3.754
 4158SOL    HW113373   0.773   0.684   3.743
 4158SOL    HW213374   0.866   0.550   3.743
 4159SOL     OW13375   0.423   3.957   5.517
 4159SOL    HW113376   0.498   3.905   5.558
 4159SOL    HW213377   0.338   3.938   5.565
 4160SOL     OW13378   0.532   0.391   1.266
 4160SOL    HW113379   0.563   0.300   1.294
 4160SOL    HW213380   0.577   0.460   1.322
 4161SOL     OW13381   6.429   1.678   1.029
 4161SOL    HW113382   6.359   1.749   1.035
 4161SOL    HW213383   6.445   1.639   1.119
 4162SOL     OW13384   0.674   6.701   5.385
 4162SOL    HW113385   0.757   6.673   5.432
 4162SOL    HW213386   0.679   6.673   5.289
 4163SOL     OW13387   6.427   1.543   5.446
 4163SOL    HW113388   6.454   1.502   5.359
 4163SOL    HW213389   6.358   1.486   5.490
 4164SOL     OW13390   2.888   6.548   5.875
 4164SOL    HW113391   2.878   6.640   5.914
 4164SOL    HW213392   2.870   6.480   5.946
 4165SOL     OW13393   2.671   5.985   2.495
 4165SOL    HW113394   2.650   6.056   2.562
 4165SOL    HW213395   2.769   5.970   2.492
 4166SOL     OW13396   6.382   1.775   1.735
 4166SOL    HW113397   6.288   1.802   1.712
 4166SOL    HW213398   6.386   1.746   1.830
 4167SOL     OW13399   1.854   2.876   1.125
 4167SOL    HW113400   1.828   2.860   1.030
 4167SOL    HW213401   1.809   2.958   1.159
 4168SOL     OW13402   1.770   5.460   1.331
 4168SOL    HW113403   1.744   5.480   1.426
 4168SOL    HW213404   1.703   5.399   1.290
 4169SOL     OW13405   6.354   3.428   6.322
 4169SOL    HW113406   6.342   3.336   6.360
 4169SOL    HW213407   6.433   3.429   6.261
 4170SOL     OW13408   3.577   1.323   4.862
 4170SOL    HW113409   3.608   1.309   4.768
 4170SOL    HW213410   3.575   1.421   4.882
 4171SOL     OW13411   6.220   3.601   1.165
 4171SOL    HW113412   6.212   3.682   1.223
 4171SOL    HW213413   6.198   3.519   1.218
 4172SOL     OW13414   2.801   0.805   0.637
 4172SOL    HW113415   2.804   0.829   0.734
 4172SOL    HW213416   2.894   0.805   0.600
 4173SOL     OW13417   5.025   3.659   5.681
 4173SOL    HW113418   4.967   3.740   5.692
 4173SOL    HW213419   5.085   3.651   5.761
 4174SOL     OW13420   5.530   0.529   3.987
 4174SOL    HW113421   5.564   0.622   3.971
 4174SOL    HW213422   5.433   0.533   4.009
 4175SOL     OW13423   2.610   1.384   2.734
 4175SOL    HW113424   2.517   1.353   2.756
 4175SOL    HW213425   2.606   1.460   2.670
 4176SOL     OW13426   5.727   4.522   2.909
 4176SOL    HW113427   5.783   4.454   2.955
 4176SOL    HW213428   5.695   4.590   2.975
 4177SOL     OW13429   6.412   5.483   3.258
 4177SOL    HW113430   6.342   5.507   3.326
 4177SOL    HW213431   6.386   5.397   3.213
 4178SOL     OW13432   4.264   2.461   5.590
 4178SOL    HW113433   4.203   2.537   5.611
 4178SOL    HW213434   4.349   2.497   5.552
 4179SOL     OW13435   6.777   2.326   6.979
 4179SOL    HW113436   6.831   2.328   6.894
 4179SOL    HW213437   6.729   2.413   6.990
 4180SOL     OW13438   4.917   3.371   1.751
 4180SOL    HW113439   4.941   3.341   1.844
 4180SOL    HW213440   4.887   3.292   1.698
 4181SOL     OW13441   6.717   0.500   0.642
 4181SOL    HW113442   6.756   0.590   0.662
 4181SOL    HW213443   6.752   0.467   0.554
 4182SOL     OW13444   5.606   0.798   3.958
 4182SOL    HW113445   5.638   0.839   4.043
 4182SOL    HW213446   5.533   0.854   3.919
 4183SOL     OW13447   1.735   0.973   1.719
 4183SOL    HW113448   1.689   0.993   1.806
 4183SOL    HW213449   1.677   1.004   1.643
 4184SOL     OW13450   4.463   4.985   6.881
 4184SOL    HW113451   4.443   4.959   6.787
 4184SOL    HW213452   4.422   4.918   6.944
 4185SOL     OW13453   6.877   0.107   3.797
 4185SOL    HW113454   6.965   0.066   3.774
 4185SOL    HW213455   6.813   0.035   3.825
 4186SOL     OW13456   3.725   4.254   1.743
 4186SOL    HW113457   3.655   4.320   1.770
 4186SOL    HW213458   3.756   4.203   1.824
 4187SOL     OW13459   3.978   5.161   6.761
 4187SOL    HW113460   3.907   5.204   6.816
 4187SOL    HW213461   4.004   5.222   6.687
 4188SOL     OW13462   4.812   6.308   3.693
 4188SOL    HW113463   4.877   6.362   3.746
 4188SOL    HW213464   4.837   6.211   3.699
 4189SOL     OW13465   1.595   3.743   3.348
 4189SOL    HW113466   1.664   3.761   3.277
 4189SOL    HW213467   1.511   3.710   3.304
 4190SOL     OW13468   2.442   0.171   1.271
 4190SOL    HW113469   2.407   0.242   1.210
 4190SOL    HW213470   2.462   0.210   1.361
 4191SOL     OW13471   0.555   2.061   2.882
 4191SOL    HW113472   0.597   2.083   2.970
 4191SOL    HW213473   0.625   2.030   2.818
 4192SOL     OW13474   5.917   0.513   3.469
 4192SOL    HW113475   5.890   0.428   3.514
 4192SOL    HW213476   5.967   0.491   3.385
 4193SOL     OW13477   1.728   6.321   3.651
 4193SOL    HW113478   1.642   6.368   3.671
 4193SOL    HW213479   1.784   6.317   3.734
 4194SOL     OW13480   5.905   0.301   3.289
 4194SOL    HW113481   6.003   0.307   3.309
 4194SOL    HW213482   5.885   0.348   3.204
 4195SOL     OW13483   5.154   0.975   3.510
 4195SOL    HW113484   5.132   1.017   3.423
 4195SOL    HW213485   5.152   1.044   3.582
 4196SOL     OW13486   4.849   2.787   3.569
 4196SOL    HW113487   4.938   2.776   3.526
 4196SOL    HW213488   4.855   2.857   3.640
 4197SOL     OW13489   5.248   4.109   4.605
 4197SOL    HW113490   5.210   4.017   4.593
 4197SOL    HW213491   5.202   4.173   4.544
 4198SOL     OW13492   6.681   3.555   6.294
 4198SOL    HW113493   6.762   3.603   6.260
 4198SOL    HW213494   6.626   3.619   6.348
 4199SOL     OW13495   3.159   4.096   6.312
 4199SOL    HW113496   3.141   4.057   6.222
 4199SOL    HW213497   3.141   4.194   6.311
 4200SOL     OW13498   2.827   0.545   6.936
 4200SOL    HW113499   2.752   0.491   6.899
 4200SOL    HW213500   2.828   0.635   6.890
 4201SOL     OW13501   6.029   6.968   4.698
 4201SOL    HW113502   6.020   0.010   4.620
 4201SOL    HW213503   6.038   6.875   4.664
 4202SOL     OW13504   5.324   3.910   5.565
 4202SOL    HW113505   5.328   3.822   5.614
 4202SOL    HW213506   5.293   3.981   5.628
 4203SOL     OW13507   4.225   5.770   4.376
 4203SOL    HW113508   4.191   5.681   4.346
 4203SOL    HW213509   4.279   5.759   4.460
 4204SOL     OW13510   1.387   3.712   0.352
 4204SOL    HW113511   1.362   3.778   0.423
 4204SOL    HW213512   1.350   3.742   0.264
 4205SOL     OW13513   2.566   5.879   3.035
 4205SOL    HW113514   2.642   5.882   2.970
 4205SOL    HW213515   2.530   5.972   3.047
 4206SOL     OW13516   5.115   6.614   4.131
 4206SOL    HW113517   5.108   6.671   4.213
 4206SOL    HW213518   5.098   6.669   4.050
 4207SOL     OW13519   1.025   6.702   0.126
 4207SOL    HW113520   1.033   6.649   0.211
 4207SOL    HW213521   0.984   6.791   0.146
 4208SOL     OW13522   0.522   2.904   1.476
 4208SOL    HW113523   0.621   2.920   1.486
 4208SOL    HW213524   0.498   2.913   1.379
 4209SOL     OW13525   3.217   0.212   5.309
 4209SOL    HW113526   3.279   0.209   5.231
 4209SOL    HW213527   3.269   0.225   5.393
 4210SOL     OW13528   3.858   2.851   0.268
 4210SOL    HW113529   3.954   2.821   0.264
 4210SOL    HW213530   3.823   2.862   0.175
 4211SOL     OW13531   5.231   3.855   4.370
 4211SOL    HW113532   5.238   3.932   4.306
 4211SOL    HW213533   5.309   3.858   4.433
 4212SOL     OW13534   6.154   0.164   2.360
 4212SOL    HW113535   6.239   0.210   2.335
 4212SOL    HW213536   6.146   0.079   2.308
 4213SOL     OW13537   0.326   6.947   1.149
 4213SOL    HW113538   0.309   7.019   1.216
 4213SOL    HW213539   0.422   6.919   1.154
 4214SOL     OW13540   2.839   5.556   4.436
 4214SOL    HW113541   2.810   5.478   4.381
 4214SOL    HW213542   2.821   5.538   4.533
 4215SOL     OW13543   1.462   6.096   6.807
 4215SOL    HW113544   1.407   6.107   6.724
 4215SOL    HW213545   1.522   6.175   6.818
 4216SOL     OW13546   2.780   3.158   5.276
 4216SOL    HW113547   2.699   3.122   5.231
 4216SOL    HW213548   2.814   3.090   5.341
 4217SOL     OW13549   6.655   1.091   4.447
 4217SOL    HW113550   6.561   1.124   4.445
 4217SOL    HW213551   6.663   1.018   4.514
 4218SOL     OW13552   3.080   5.632   2.270
 4218SOL    HW113553   3.097   5.588   2.358
 4218SOL    HW213554   3.131   5.584   2.198
 4219SOL     OW13555   5.779   0.274   2.979
 4219SOL    HW113556   5.680   0.289   2.989
 4219SOL    HW213557   5.823   0.362   2.959
 4220SOL     OW13558   0.446   4.322   3.134
 4220SOL    HW113559   0.535   4.319   3.087
 4220SOL    HW213560   0.374   4.298   3.070
 4221SOL     OW13561   5.466   6.309   5.740
 4221SOL    HW113562   5.451   6.211   5.754
 4221SOL    HW213563   5.562   6.331   5.756
 4222SOL     OW13564   2.623   3.152   0.396
 4222SOL    HW113565   2.597   3.216   0.324
 4222SOL    HW213566   2.570   3.068   0.386
 4223SOL     OW13567   3.452   4.047   2.659
 4223SOL    HW113568   3.358   4.058   2.693
 4223SOL    HW213569   3.517   4.078   2.728
 4224SOL     OW13570   3.461   1.920   5.740
 4224SOL    HW113571   3.391   1.855   5.710
 4224SOL    HW213572   3.513   1.880   5.816
 4225SOL     OW13573   4.973   0.016   4.565
 4225SOL    HW113574   5.028   0.098   4.552
 4225SOL    HW213575   5.033   6.957   4.574
 4226SOL     OW13576   1.897   1.741   2.249
 4226SOL    HW113577   1.849   1.711   2.166
 4226SOL    HW213578   1.842   1.810   2.296
 4227SOL     OW13579   5.343   3.921   6.534
 4227SOL    HW113580   5.261   3.866   6.548
 4227SOL    HW213581   5.352   3.945   6.437
 4228SOL     OW13582   4.737   4.862   2.897
 4228SOL    HW113583   4.789   4.809   2.831
 4228SOL    HW213584   4.737   4.815   2.985
 4229SOL     OW13585   4.203   4.978   5.375
 4229SOL    HW113586   4.238   4.908   5.314
 4229SOL    HW213587   4.109   5.001   5.349
 4230SOL     OW13588   2.656   1.519   6.271
 4230SOL    HW113589   2.679   1.594   6.209
 4230SOL    HW213590   2.670   1.548   6.365
 4231SOL     OW13591   3.726   6.183   6.130
 4231SOL    HW113592   3.823   6.184   6.104
 4231SOL    HW213593   3.714   6.228   6.218
 4232SOL     OW13594   1.916   4.091   1.206
 4232SOL    HW113595   1.845   4.056   1.267
 4232SOL    HW213596   1.997   4.117   1.260
 4233SOL     OW13597   5.676   5.347   1.068
 4233SOL    HW113598   5.741   5.271   1.076
 4233SOL    HW213599   5.677   5.381   0.974
 4234SOL     OW13600   3.584   3.464   5.716
 4234SOL    HW113601   3.503   3.510   5.680
 4234SOL    HW213602   3.651   3.452   5.643
 4235SOL     OW13603   0.247   4.167   4.763
 4235SOL    HW113604   0.159   4.214   4.776
 4235SOL    HW213605   0.315   4.233   4.732
 4236SOL     OW13606   0.771   3.563   4.929
 4236SOL    HW113607   0.853   3.543   4.984
 4236SOL    HW213608   0.693   3.513   4.967
 4237SOL     OW13609   6.543   3.914   5.296
 4237SOL    HW113610   6.465   3.868   5.337
 4237SOL    HW213611   6.531   4.013   5.303
 4238SOL     OW13612   4.961   5.149   4.795
 4238SOL    HW113613   4.958   5.104   4.706
 4238SOL    HW213614   5.042   5.118   4.846
 4239SOL     OW13615   5.066   5.856   5.368
 4239SOL    HW113616   5.155   5.822   5.399
 4239SOL    HW213617   5.058   5.846   5.269
 4240SOL     OW13618   2.730   4.736   6.594
 4240SOL    HW113619   2.786   4.774   6.521
 4240SOL    HW213620   2.785   4.672   6.648
 4241SOL     OW13621   3.274   2.085   1.388
 4241SOL    HW113622   3.342   2.093   1.460
 4241SOL    HW213623   3.318   2.099   1.299
 4242SOL     OW13624   2.314   0.541   2.526
 4242SOL    HW113625   2.317   0.583   2.435
 4242SOL    HW213626   2.222   0.506   2.543
 4243SOL     OW13627   1.610   2.882   2.860
 4243SOL    HW113628   1.571   2.799   2.899
 4243SOL    HW213629   1.676   2.922   2.924
 4244SOL     OW13630   3.185   0.591   0.952
 4244SOL    HW113631   3.172   0.555   0.860
 4244SOL    HW213632   3.272   0.559   0.989
 4245SOL     OW13633   6.877   1.574   1.047
 4245SOL    HW113634   6.828   1.492   1.076
 4245SOL    HW213635   6.811   1.646   1.026
 4246SOL     OW13636   4.664   2.738   4.103
 4246SOL    HW113637   4.661   2.776   4.196
 4246SOL    HW213638   4.688   2.810   4.038
 4247SOL     OW13639   2.410   5.746   0.023
 4247SOL    HW113640   2.488   5.794   7.002
 4247SOL    HW213641   2.329   5.804   0.017
 4248SOL     OW13642   2.384   0.139   3.322
 4248SOL    HW113643   2.299   0.124   3.272
 4248SOL    HW213644   2.385   0.231   3.361
 4249SOL     OW13645   5.854   1.163   5.766
 4249SOL    HW113646   5.761   1.127   5.773
 4249SOL    HW213647   5.891   1.177   5.858
 4250SOL     OW13648   0.535   5.418   4.641
 4250SOL    HW113649   0.546   5.512   4.675
 4250SOL    HW213650   0.621   5.388   4.601
 4251SOL     OW13651   4.691   2.218   5.452
 4251SOL    HW113652   4.674   2.309   5.414
 4251SOL    HW213653   4.610   2.186   5.500
 4252SOL     OW13654   0.520   0.235   6.612
 4252SOL    HW113655   0.459   0.191   6.546
 4252SOL    HW213656   0.598   0.174   6.630
 4253SOL     OW13657   4.144   0.203   3.006
 4253SOL    HW113658   4.153   0.113   3.048
 4253SOL    HW213659   4.047   0.226   2.997
 4254SOL     OW13660   1.190   2.082   5.465
 4254SOL    HW113661   1.162   2.124   5.379
 4254SOL    HW213662   1.136   2.121   5.540
 4255SOL     OW13663   1.078   2.966   3.644
 4255SOL    HW113664   1.167   2.979   3.602
 4255SOL    HW213665   1.077   3.007   3.735
 4256SOL     OW13666   6.122   5.874   0.623
 4256SOL    HW113667   6.221   5.889   0.615
 4256SOL    HW213668   6.106   5.789   0.673
 4257SOL     OW13669   6.946   0.890   2.881
 4257SOL    HW113670   0.013   0.933   2.860
 4257SOL    HW213671   6.921   0.828   2.807
 4258SOL     OW13672   2.878   5.971   0.968
 4258SOL    HW113673   2.920   5.942   0.882
 4258SOL    HW213674   2.779   5.978   0.957
 4259SOL     OW13675   0.685   6.821   7.011
 4259SOL    HW113676   0.704   6.839   6.914
 4259SOL    HW213677   0.761   6.852   0.046
 4260SOL     OW13678   6.916   6.835   5.260
 4260SOL    HW113679   6.941   6.902   5.329
 4260SOL    HW213680   6.945   6.867   5.170
 4261SOL     OW13681   2.587   6.514   3.474
 4261SOL    HW113682   2.489   6.533   3.466
 4261SOL    HW213683   2.621   6.481   3.386
 4262SOL     OW13684   1.305   4.180   5.181
 4262SOL    HW113685   1.220   4.128   5.172
 4262SOL    HW213686   1.292   4.272   5.144
 4263SOL     OW13687   3.180   1.241   2.685
 4263SOL    HW113688   3.205   1.203   2.596
 4263SOL    HW213689   3.258   1.237   2.746
 4264SOL     OW13690   4.838   2.144   6.783
 4264SOL    HW113691   4.929   2.145   6.743
 4264SOL    HW213692   4.842   2.103   6.875
 4265SOL     OW13693   3.343   6.440   6.934
 4265SOL    HW113694   3.333   6.539   6.926
 4265SOL    HW213695   3.434   6.413   6.904
 4266SOL     OW13696   1.190   4.889   1.523
 4266SOL    HW113697   1.136   4.938   1.454
 4266SOL    HW213698   1.271   4.944   1.546
 4267SOL     OW13699   1.086   3.504   4.229
 4267SOL    HW113700   1.153   3.513   4.155
 4267SOL    HW213701   1.002   3.552   4.204
 4268SOL     OW13702   1.402   4.347   6.114
 4268SOL    HW113703   1.481   4.375   6.060
 4268SOL    HW213704   1.400   4.247   6.121
 4269SOL     OW13705   2.699   1.687   3.909
 4269SOL    HW113706   2.702   1.641   3.997
 4269SOL    HW213707   2.781   1.665   3.857
 4270SOL     OW13708   4.198   4.052   1.169
 4270SOL    HW113709   4.133   4.029   1.096
 4270SOL    HW213710   4.224   3.969   1.217
 4271SOL     OW13711   6.134   0.747   0.296
 4271SOL    HW113712   6.224   0.725   0.335
 4271SOL    HW213713   6.146   0.772   0.199
 4272SOL     OW13714   6.455   1.786   5.538
 4272SOL    HW113715   6.410   1.702   5.509
 4272SOL    HW213716   6.392   1.863   5.530
 4273SOL     OW13717   3.436   5.527   3.768
 4273SOL    HW113718   3.519   5.577   3.794
 4273SOL    HW213719   3.396   5.485   3.849
 4274SOL     OW13720   6.840   0.747   1.084
 4274SOL    HW113721   6.767   0.686   1.054
 4274SOL    HW213722   6.801   0.824   1.135
 4275SOL     OW13723   6.702   2.070   3.912
 4275SOL    HW113724   6.736   2.112   3.995
 4275SOL    HW213725   6.776   2.021   3.865
 4276SOL     OW13726   1.342   6.859   2.791
 4276SOL    HW113727   1.287   6.930   2.747
 4276SOL    HW213728   1.396   6.900   2.866
 4277SOL     OW13729   6.160   5.796   2.769
 4277SOL    HW113730   6.086   5.738   2.736
 4277SOL    HW213731   6.239   5.787   2.709
 4278SOL     OW13732   0.154   6.933   0.946
 4278SOL    HW113733   0.222   6.948   1.017
 4278SOL    HW213734   0.139   7.018   0.895
 4279SOL     OW13735   0.740   3.357   3.168
 4279SOL    HW113736   0.780   3.311   3.089
 4279SOL    HW213737   0.757   3.303   3.251
 4280SOL     OW13738   3.023   6.718   6.604
 4280SOL    HW113739   2.967   6.763   6.534
 4280SOL    HW213740   3.001   6.620   6.605
 4281SOL     OW13741   0.248   6.281   2.618
 4281SOL    HW113742   0.308   6.233   2.554
 4281SOL    HW213743   0.184   6.217   2.658
 4282SOL     OW13744   5.042   4.731   1.740
 4282SOL    HW113745   5.079   4.821   1.721
 4282SOL    HW213746   4.952   4.721   1.698
 4283SOL     OW13747   5.943   0.933   4.926
 4283SOL    HW113748   5.989   0.935   4.838
 4283SOL    HW213749   5.959   0.845   4.970
 4284SOL     OW13750   4.789   6.229   6.895
 4284SOL    HW113751   4.724   6.180   6.954
 4284SOL    HW213752   4.880   6.225   6.936
 4285SOL     OW13753   3.031   1.629   6.258
 4285SOL    HW113754   2.936   1.657   6.275
 4285SOL    HW213755   3.043   1.534   6.287
 4286SOL     OW13756   5.085   6.167   7.014
 4286SOL    HW113757   5.136   6.194   0.075
 4286SOL    HW213758   5.126   6.210   6.933
 4287SOL     OW13759   3.821   0.926   1.317
 4287SOL    HW113760   3.771   1.002   1.360
 4287SOL    HW213761   3.919   0.943   1.324
 4288SOL     OW13762   0.237   6.383   2.190
 4288SOL    HW113763   0.169   6.351   2.256
 4288SOL    HW213764   0.191   6.434   2.118
 4289SOL     OW13765   0.172   4.402   5.458
 4289SOL    HW113766   0.158   4.318   5.406
 4289SOL    HW213767   0.210   4.380   5.548
 4290SOL     OW13768   6.771   1.599   3.433
 4290SOL    HW113769   6.816   1.624   3.347
 4290SOL    HW213770   6.824   1.527   3.478
 4291SOL     OW13771   4.178   4.949   6.703
 4291SOL    HW113772   4.241   5.008   6.653
 4291SOL    HW213773   4.229   4.877   6.749
 4292SOL     OW13774   6.818   0.340   0.850
 4292SOL    HW113775   6.785   0.247   0.835
 4292SOL    HW213776   6.793   0.397   0.771
 4293SOL     OW13777   3.965   3.271   6.491
 4293SOL    HW113778   3.887   3.211   6.474
 4293SOL    HW213779   3.933   3.364   6.505
 4294SOL     OW13780   2.942   2.019   0.388
 4294SOL    HW113781   2.964   2.015   0.290
 4294SOL    HW213782   2.922   2.114   0.413
 4295SOL     OW13783   4.379   6.622   2.673
 4295SOL    HW113784   4.449   6.553   2.692
 4295SOL    HW213785   4.366   6.680   2.754
 4296SOL     OW13786   2.118   5.401   2.396
 4296SOL    HW113787   2.114   5.494   2.433
 4296SOL    HW213788   2.105   5.335   2.470
 4297SOL     OW13789   5.046   4.846   6.946
 4297SOL    HW113790   5.085   4.878   6.859
 4297SOL    HW213791   5.088   4.759   6.972
 4298SOL     OW13792   1.927   0.156   0.643
 4298SOL    HW113793   1.886   0.067   0.626
 4298SOL    HW213794   1.858   0.217   0.682
 4299SOL     OW13795   0.234   3.218   5.929
 4299SOL    HW113796   0.259   3.286   5.861
 4299SOL    HW213797   0.301   3.220   6.004
 4300SOL     OW13798   3.261   0.660   1.829
 4300SOL    HW113799   3.355   0.689   1.845
 4300SOL    HW213800   3.210   0.661   1.915
 4301SOL     OW13801   2.051   6.292   4.608
 4301SOL    HW113802   1.983   6.242   4.554
 4301SOL    HW213803   2.014   6.381   4.635
 4302SOL     OW13804   3.948   4.944   0.268
 4302SOL    HW113805   3.924   4.850   0.242
 4302SOL    HW213806   4.045   4.959   0.251
 4303SOL     OW13807   4.112   5.391   3.388
 4303SOL    HW113808   4.040   5.383   3.319
 4303SOL    HW213809   4.090   5.334   3.467
 4304SOL     OW13810   2.969   4.355   1.690
 4304SOL    HW113811   2.919   4.422   1.745
 4304SOL    HW213812   3.054   4.395   1.656
 4305SOL     OW13813   0.704   6.494   6.042
 4305SOL    HW113814   0.753   6.547   5.973
 4305SOL    HW213815   0.758   6.491   6.127
 4306SOL     OW13816   5.763   3.604   5.377
 4306SOL    HW113817   5.830   3.678   5.385
 4306SOL    HW213818   5.671   3.642   5.375
 4307SOL     OW13819   6.911   1.656   5.553
 4307SOL    HW113820   6.876   1.562   5.555
 4307SOL    HW213821   6.981   1.663   5.482
 4308SOL     OW13822   4.317   5.889   5.739
 4308SOL    HW113823   4.224   5.919   5.716
 4308SOL    HW213824   4.313   5.825   5.816
 4309SOL     OW13825   3.006   1.867   1.073
 4309SOL    HW113826   3.091   1.818   1.054
 4309SOL    HW213827   2.938   1.842   1.004
 4310SOL     OW13828   6.954   2.056   3.799
 4310SOL    HW113829   6.926   2.131   3.740
 4310SOL    HW213830   0.031   2.065   3.821
 4311SOL     OW13831   0.343   6.616   1.143
 4311SOL    HW113832   0.340   6.630   1.242
 4311SOL    HW213833   0.424   6.563   1.119
 4312SOL     OW13834   6.958   3.986   2.497
 4312SOL    HW113835   0.004   3.993   2.421
 4312SOL    HW213836   6.970   3.898   2.543
 4313SOL     OW13837   0.476   3.443   0.687
 4313SOL    HW113838   0.380   3.470   0.691
 4313SOL    HW213839   0.534   3.521   0.711
 4314SOL     OW13840   1.931   1.803   5.769
 4314SOL    HW113841   1.934   1.858   5.852
 4314SOL    HW213842   1.880   1.719   5.786
 4315SOL     OW13843   2.742   2.346   5.189
 4315SOL    HW113844   2.701   2.346   5.098
 4315SOL    HW213845   2.693   2.280   5.247
 4316SOL     OW13846   4.609   4.850   1.741
 4316SOL    HW113847   4.681   4.780   1.746
 4316SOL    HW213848   4.597   4.878   1.646
 4317SOL     OW13849   5.322   0.526   4.501
 4317SOL    HW113850   5.399   0.590   4.500
 4317SOL    HW213851   5.244   0.568   4.546
 4318SOL     OW13852   1.634   5.792   3.800
 4318SOL    HW113853   1.703   5.720   3.806
 4318SOL    HW213854   1.543   5.751   3.797
 4319SOL     OW13855   1.823   4.672   1.789
 4319SOL    HW113856   1.730   4.653   1.758
 4319SOL    HW213857   1.888   4.637   1.723
 4320SOL     OW13858   3.666   0.862   1.655
 4320SOL    HW113859   3.616   0.840   1.571
 4320SOL    HW213860   3.735   0.932   1.636
 4321SOL     OW13861   6.503   5.594   3.002
 4321SOL    HW113862   6.430   5.662   2.993
 4321SOL    HW213863   6.525   5.582   3.099
 4322SOL     OW13864   2.837   2.111   4.403
 4322SOL    HW113865   2.870   2.046   4.335
 4322SOL    HW213866   2.783   2.183   4.359
 4323SOL     OW13867   5.348   4.104   1.466
 4323SOL    HW113868   5.353   4.175   1.535
 4323SOL    HW213869   5.365   4.143   1.376
 4324SOL     OW13870   6.669   3.984   5.526
 4324SOL    HW113871   6.691   3.905   5.584
 4324SOL    HW213872   6.630   3.951   5.440
 4325SOL     OW13873   1.460   0.647   1.251
 4325SOL    HW113874   1.514   0.713   1.304
 4325SOL    HW213875   1.379   0.692   1.214
 4326SOL     OW13876   4.708   2.805   3.196
 4326SOL    HW113877   4.781   2.738   3.180
 4326SOL    HW213878   4.743   2.897   3.177
 4327SOL     OW13879   3.254   6.573   4.041
 4327SOL    HW113880   3.313   6.578   3.961
 4327SOL    HW213881   3.206   6.485   4.042
 4328SOL     OW13882   6.645   6.997   2.600
 4328SOL    HW113883   6.702   0.055   2.576
 4328SOL    HW213884   6.702   6.917   2.613
 4329SOL     OW13885   5.925   4.149   0.238
 4329SOL    HW113886   5.835   4.121   0.204
 4329SOL    HW213887   5.969   4.209   0.172
 4330SOL     OW13888   2.432   5.570   5.304
 4330SOL    HW113889   2.514   5.619   5.272
 4330SOL    HW213890   2.459   5.501   5.371
 4331SOL     OW13891   5.958   1.940   2.835
 4331SOL    HW113892   5.892   2.014   2.849
 4331SOL    HW213893   5.932   1.862   2.893
 4332SOL     OW13894   6.807   5.782   1.338
 4332SOL    HW113895   6.771   5.785   1.431
 4332SOL    HW213896   6.832   5.874   1.308
 4333SOL     OW13897   3.352   2.705   6.155
 4333SOL    HW113898   3.256   2.679   6.167
 4333SOL    HW213899   3.376   2.774   6.222
 4334SOL     OW13900   0.583   2.413   3.696
 4334SOL    HW113901   0.662   2.401   3.636
 4334SOL    HW213902   0.522   2.335   3.686
 4335SOL     OW13903   2.152   3.803   1.699
 4335SOL    HW113904   2.131   3.712   1.733
 4335SOL    HW213905   2.243   3.830   1.732
 4336SOL     OW13906   2.345   4.967   5.607
 4336SOL    HW113907   2.389   4.948   5.519
 4336SOL    HW213908   2.255   5.009   5.590
 4337SOL     OW13909   6.963   4.381   4.201
 4337SOL    HW113910   6.920   4.471   4.201
 4337SOL    HW213911   6.977   4.351   4.107
 4338SOL     OW13912   3.224   3.058   5.408
 4338SOL    HW113913   3.181   2.999   5.476
 4338SOL    HW213914   3.265   3.137   5.453
 4339SOL     OW13915   4.464   4.228   5.622
 4339SOL    HW113916   4.511   4.306   5.663
 4339SOL    HW213917   4.375   4.257   5.588
 4340SOL     OW13918   0.128   3.963   0.178
 4340SOL    HW113919   0.109   4.008   0.091
 4340SOL    HW213920   0.083   3.874   0.180
 4341SOL     OW13921   6.231   5.664   0.811
 4341SOL    HW113922   6.271   5.713   0.888
 4341SOL    HW213923   6.293   5.593   0.780
 4342SOL     OW13924   5.544   3.527   2.389
 4342SOL    HW113925   5.556   3.623   2.417
 4342SOL    HW213926   5.447   3.503   2.397
 4343SOL     OW13927   4.541   0.491   6.437
 4343SOL    HW113928   4.447   0.468   6.464
 4343SOL    HW213929   4.538   0.563   6.367
 4344SOL     OW13930   1.331   4.158   1.921
 4344SOL    HW113931   1.342   4.256   1.935
 4344SOL    HW213932   1.299   4.115   2.006
 4345SOL     OW13933   3.884   3.179   2.674
 4345SOL    HW113934   3.809   3.234   2.711
 4345SOL    HW213935   3.857   3.083   2.671
 4346SOL     OW13936   0.956   3.771   2.522
 4346SOL    HW113937   0.882   3.824   2.481
 4346SOL    HW213938   1.018   3.832   2.571
 4347SOL     OW13939   6.117   5.326   0.410
 4347SOL    HW113940   6.174   5.300   0.488
 4347SOL    HW213941   6.029   5.360   0.442
 4348SOL     OW13942   6.294   3.946   5.904
 4348SOL    HW113943   6.389   3.975   5.896
 4348SOL    HW213944   6.274   3.923   5.999
 4349SOL     OW13945   1.156   4.062   4.083
 4349SOL    HW113946   1.065   4.026   4.105
 4349SOL    HW213947   1.183   4.128   4.154
 4350SOL     OW13948   5.060   0.319   3.894
 4350SOL    HW113949   4.982   0.374   3.867
 4350SOL    HW213950   5.123   0.309   3.817
 4351SOL     OW13951   0.310   5.815   0.844
 4351SOL    HW113952   0.340   5.727   0.879
 4351SOL    HW213953   0.388   5.865   0.806
 4352SOL     OW13954   3.330   4.253   1.656
 4352SOL    HW113955   3.361   4.160   1.678
 4352SOL    HW213956   3.400   4.319   1.683
 4353SOL     OW13957   2.385   3.966   0.121
 4353SOL    HW113958   2.379   4.041   0.186
 4353SOL    HW213959   2.442   3.993   0.043
 4354SOL     OW13960   5.137   5.231   2.182
 4354SOL    HW113961   5.178   5.273   2.262
 4354SOL    HW213962   5.120   5.134   2.200
 4355SOL     OW13963   1.708   4.994   3.336
 4355SOL    HW113964   1.653   4.910   3.343
 4355SOL    HW213965   1.689   5.039   3.249
 4356SOL     OW13966   5.950   2.138   5.563
 4356SOL    HW113967   6.028   2.134   5.501
 4356SOL    HW213968   5.979   2.172   5.652
 4357SOL     OW13969   5.165   5.740   2.907
 4357SOL    HW113970   5.202   5.654   2.872
 4357SOL    HW213971   5.239   5.796   2.944
 4358SOL     OW13972   2.829   0.632   1.224
 4358SOL    HW113973   2.792   0.599   1.137
 4358SOL    HW213974   2.792   0.578   1.299
 4359SOL     OW13975   2.579   2.269   1.211
 4359SOL    HW113976   2.668   2.249   1.171
 4359SOL    HW213977   2.569   2.217   1.296
 4360SOL     OW13978   3.015   5.972   3.924
 4360SOL    HW113979   3.096   6.000   3.874
 4360SOL    HW213980   2.980   6.049   3.978
 4361SOL     OW13981   1.751   1.363   6.870
 4361SOL    HW113982   1.799   1.396   6.789
 4361SOL    HW213983   1.678   1.300   6.843
 4362SOL     OW13984   0.222   5.803   2.686
 4362SOL    HW113985   0.226   5.887   2.632
 4362SOL    HW213986   0.146   5.746   2.655
 4363SOL     OW13987   3.680   0.746   2.278
 4363SOL    HW113988   3.679   0.661   2.331
 4363SOL    HW213989   3.749   0.740   2.206
 4364SOL     OW13990   3.181   3.643   3.102
 4364SOL    HW113991   3.275   3.626   3.070
 4364SOL    HW213992   3.173   3.739   3.129
 4365SOL     OW13993   2.536   1.370   0.693
 4365SOL    HW113994   2.491   1.454   0.723
 4365SOL    HW213995   2.563   1.379   0.597
 4366SOL     OW13996   5.376   5.748   4.927
 4366SOL    HW113997   5.431   5.788   4.854
 4366SOL    HW213998   5.279   5.762   4.907
 4367SOL     OW13999   2.411   6.825   1.998
 4367SOL    HW114000   2.407   6.743   1.940
 4367SOL    HW214001   2.389   6.799   2.092
 4368SOL     OW14002   4.679   4.209   4.374
 4368SOL    HW114003   4.681   4.304   4.403
 4368SOL    HW214004   4.597   4.164   4.409
 4369SOL     OW14005   6.116   4.243   3.542
 4369SOL    HW114006   6.161   4.257   3.455
 4369SOL    HW214007   6.019   4.225   3.527
 4370SOL     OW14008   4.664   4.717   0.675
 4370SOL    HW114009   4.748   4.739   0.723
 4370SOL    HW214010   4.588   4.710   0.740
 4371SOL     OW14011   3.655   1.291   3.186
 4371SOL    HW114012   3.706   1.377   3.193
 4371SOL    HW214013   3.581   1.291   3.254
 4372SOL     OW14014   1.735   4.293   4.852
 4372SOL    HW114015   1.724   4.207   4.803
 4372SOL    HW214016   1.663   4.357   4.823
 4373SOL     OW14017   4.527   0.304   0.648
 4373SOL    HW114018   4.504   0.384   0.703
 4373SOL    HW214019   4.523   0.328   0.551
 4374SOL     OW14020   2.394   6.310   0.475
 4374SOL    HW114021   2.354   6.398   0.499
 4374SOL    HW214022   2.463   6.285   0.543
 4375SOL     OW14023   4.447   1.261   5.837
 4375SOL    HW114024   4.499   1.343   5.859
 4375SOL    HW214025   4.362   1.287   5.792
 4376SOL     OW14026   2.998   5.317   0.081
 4376SOL    HW114027   2.913   5.370   0.080
 4376SOL    HW214028   2.979   5.225   0.115
 4377SOL     OW14029   5.236   5.647   6.394
 4377SOL    HW114030   5.165   5.714   6.418
 4377SOL    HW214031   5.209   5.557   6.427
 4378SOL     OW14032   3.482   5.137   1.597
 4378SOL    HW114033   3.449   5.200   1.667
 4378SOL    HW214034   3.545   5.071   1.639
 4379SOL     OW14035   6.664   6.248   0.611
 4379SOL    HW114036   6.584   6.281   0.661
 4379SOL    HW214037   6.637   6.175   0.548
 4380SOL     OW14038   1.814   5.451   4.617
 4380SOL    HW114039   1.801   5.536   4.565
 4380SOL    HW214040   1.831   5.473   4.713
 4381SOL     OW14041   3.692   5.842   4.817
 4381SOL    HW114042   3.605   5.892   4.810
 4381SOL    HW214043   3.768   5.907   4.821
 4382SOL     OW14044   5.332   4.391   2.466
 4382SOL    HW114045   5.394   4.469   2.480
 4382SOL    HW214046   5.241   4.425   2.444
 4383SOL     OW14047   1.407   0.633   0.782
 4383SOL    HW114048   1.385   0.728   0.760
 4383SOL    HW214049   1.333   0.573   0.751
 4384SOL     OW14050   3.877   0.398   2.051
 4384SOL    HW114051   3.841   0.375   1.960
 4384SOL    HW214052   3.823   0.353   2.121
 4385SOL     OW14053   6.628   2.712   3.756
 4385SOL    HW114054   6.587   2.801   3.737
 4385SOL    HW214055   6.559   2.652   3.797
 4386SOL     OW14056   1.499   4.651   6.854
 4386SOL    HW114057   1.423   4.711   6.828
 4386SOL    HW214058   1.520   4.590   6.777
 4387SOL     OW14059   6.263   1.834   1.403
 4387SOL    HW114060   6.353   1.819   1.446
 4387SOL    HW214061   6.231   1.748   1.362
 4388SOL     OW14062   3.882   1.123   5.939
 4388SOL    HW114063   3.900   1.050   6.005
 4388SOL    HW214064   3.918   1.209   5.973
 4389SOL     OW14065   6.814   2.481   2.970
 4389SOL    HW114066   6.895   2.529   3.003
 4389SOL    HW214067   6.740   2.548   2.955
 4390SOL     OW14068   4.030   3.494   0.842
 4390SOL    HW114069   4.087   3.451   0.912
 4390SOL    HW214070   4.068   3.475   0.751
 4391SOL     OW14071   1.071   6.076   0.380
 4391SOL    HW114072   1.050   5.978   0.374
 4391SOL    HW214073   1.105   6.097   0.471
 4392SOL     OW14074   5.541   5.095   5.125
 4392SOL    HW114075   5.498   5.175   5.168
 4392SOL    HW214076   5.604   5.053   5.190
 4393SOL     OW14077   5.436   6.683   2.827
 4393SOL    HW114078   5.517   6.699   2.771
 4393SOL    HW214079   5.400   6.771   2.859
 4394SOL     OW14080   4.576   0.017   1.972
 4394SOL    HW114081   4.501   0.015   1.906
 4394SOL    HW214082   4.548   6.989   2.055
 4395SOL     OW14083   4.617   2.312   0.991
 4395SOL    HW114084   4.663   2.395   1.021
 4395SOL    HW214085   4.663   2.232   1.030
 4396SOL     OW14086   1.291   1.345   3.050
 4396SOL    HW114087   1.240   1.264   3.080
 4396SOL    HW214088   1.288   1.414   3.122
 4397SOL     OW14089   4.674   0.534   6.695
 4397SOL    HW114090   4.646   0.499   6.606
 4397SOL    HW214091   4.676   0.634   6.693
 4398SOL     OW14092   0.287   5.338   4.536
 4398SOL    HW114093   0.241   5.425   4.524
 4398SOL    HW214094   0.377   5.353   4.578
 4399SOL     OW14095   3.160   0.586   2.357
 4399SOL    HW114096   3.084   0.645   2.328
 4399SOL    HW214097   3.147   0.495   2.318
 4400SOL     OW14098   3.518   5.014   2.932
 4400SOL    HW114099   3.592   4.981   2.991
 4400SOL    HW214100   3.455   4.938   2.912
 4401SOL     OW14101   5.637   6.329   4.432
 4401SOL    HW114102   5.599   6.337   4.525
 4401SOL    HW214103   5.703   6.255   4.429
 4402SOL     OW14104   6.418   6.367   1.388
 4402SOL    HW114105   6.394   6.275   1.356
 4402SOL    HW214106   6.389   6.378   1.483
 4403SOL     OW14107   6.506   1.418   2.341
 4403SOL    HW114108   6.492   1.324   2.311
 4403SOL    HW214109   6.449   1.435   2.422
 4404SOL     OW14110   2.243   4.055   2.489
 4404SOL    HW114111   2.161   4.083   2.441
 4404SOL    HW214112   2.264   3.959   2.468
 4405SOL     OW14113   2.678   3.742   6.057
 4405SOL    HW114114   2.589   3.765   6.017
 4405SOL    HW214115   2.735   3.824   6.059
 4406SOL     OW14116   6.133   2.852   2.157
 4406SOL    HW114117   6.166   2.758   2.160
 4406SOL    HW214118   6.205   2.912   2.121
 4407SOL     OW14119   1.210   0.958   0.076
 4407SOL    HW114120   1.241   1.028   0.012
 4407SOL    HW214121   1.223   0.867   0.037
 4408SOL     OW14122   3.901   6.396   1.245
 4408SOL    HW114123   3.920   6.373   1.340
 4408SOL    HW214124   3.860   6.318   1.199
 4409SOL     OW14125   3.403   2.090   2.699
 4409SOL    HW114126   3.362   2.026   2.764
 4409SOL    HW214127   3.347   2.094   2.616
 4410SOL     OW14128   1.846   5.638   1.558
 4410SOL    HW114129   1.922   5.582   1.526
 4410SOL    HW214130   1.816   5.699   1.484
 4411SOL     OW14131   4.037   3.159   2.348
 4411SOL    HW114132   3.986   3.245   2.344
 4411SOL    HW214133   4.078   3.149   2.439
 4412SOL     OW14134   4.031   1.350   6.029
 4412SOL    HW114135   4.072   1.439   6.008
 4412SOL    HW214136   4.046   1.328   6.125
 4413SOL     OW14137   4.339   5.420   3.952
 4413SOL    HW114138   4.379   5.332   3.980
 4413SOL    HW214139   4.361   5.489   4.020
 4414SOL     OW14140   3.368   4.853   2.158
 4414SOL    HW114141   3.395   4.934   2.104
 4414SOL    HW214142   3.438   4.782   2.148
 4415SOL     OW14143   4.699   1.730   1.653
 4415SOL    HW114144   4.635   1.790   1.700
 4415SOL    HW214145   4.649   1.660   1.602
 4416SOL     OW14146   2.677   1.885   4.240
 4416SOL    HW114147   2.585   1.915   4.265
 4416SOL    HW214148   2.718   1.951   4.178
 4417SOL     OW14149   6.184   6.714   1.152
 4417SOL    HW114150   6.284   6.715   1.152
 4417SOL    HW214151   6.150   6.807   1.144
 4418SOL     OW14152   5.046   0.711   3.241
 4418SOL    HW114153   5.009   0.618   3.244
 4418SOL    HW214154   4.996   0.768   3.307
 4419SOL     OW14155   6.053   5.541   6.195
 4419SOL    HW114156   5.988   5.502   6.130
 4419SOL    HW214157   6.129   5.583   6.145
 4420SOL     OW14158   4.988   1.060   0.896
 4420SOL    HW114159   5.073   1.110   0.912
 4420SOL    HW214160   4.971   1.052   0.798
 4421SOL     OW14161   0.421   1.508   3.428
 4421SOL    HW114162   0.332   1.465   3.440
 4421SOL    HW214163   0.490   1.438   3.412
 4422SOL     OW14164   1.697   3.932   5.860
 4422SOL    HW114165   1.658   4.022   5.838
 4422SOL    HW214166   1.713   3.881   5.776
 4423SOL     OW14167   6.970   1.902   5.980
 4423SOL    HW114168   6.877   1.939   5.984
 4423SOL    HW214169   0.001   1.932   6.061
 4424SOL     OW14170   1.836   5.424   3.713
 4424SOL    HW114171   1.889   5.423   3.798
 4424SOL    HW214172   1.770   5.349   3.714
 4425SOL     OW14173   4.868   3.668   1.651
 4425SOL    HW114174   4.939   3.697   1.588
 4425SOL    HW214175   4.892   3.578   1.689
 4426SOL     OW14176   0.481   0.357   7.008
 4426SOL    HW114177   0.560   0.418   7.005
 4426SOL    HW214178   0.504   0.270   6.965
 4427SOL     OW14179   0.949   5.677   3.964
 4427SOL    HW114180   0.991   5.594   3.928
 4427SOL    HW214181   0.869   5.654   4.018
 4428SOL     OW14182   1.103   6.334   3.019
 4428SOL    HW114183   1.072   6.243   3.048
 4428SOL    HW214184   1.181   6.325   2.958
 4429SOL     OW14185   2.687   0.757   3.164
 4429SOL    HW114186   2.653   0.811   3.241
 4429SOL    HW214187   2.700   0.817   3.085
 4430SOL     OW14188   2.050   0.928   1.904
 4430SOL    HW114189   1.987   0.951   1.978
 4430SOL    HW214190   2.001   0.879   1.832
 4431SOL     OW14191   2.277   2.287   3.441
 4431SOL    HW114192   2.356   2.227   3.457
 4431SOL    HW214193   2.193   2.236   3.459
 4432SOL     OW14194   2.960   3.255   4.179
 4432SOL    HW114195   2.996   3.179   4.124
 4432SOL    HW214196   3.024   3.331   4.178
 4433SOL     OW14197   6.556   0.659   2.624
 4433SOL    HW114198   6.643   0.674   2.670
 4433SOL    HW214199   6.518   0.747   2.595
 4434SOL     OW14200   5.661   2.039   5.128
 4434SOL    HW114201   5.754   2.008   5.106
 4434SOL    HW214202   5.652   2.136   5.108
 4435SOL     OW14203   3.631   3.215   2.018
 4435SOL    HW114204   3.632   3.183   2.113
 4435SOL    HW214205   3.573   3.297   2.011
 4436SOL     OW14206   5.696   0.311   0.305
 4436SOL    HW114207   5.642   0.363   0.371
 4436SOL    HW214208   5.666   0.334   0.212
 4437SOL     OW14209   3.322   0.082   5.885
 4437SOL    HW114210   3.390   0.152   5.867
 4437SOL    HW214211   3.246   0.121   5.936
 4438SOL     OW14212   4.014   2.807   6.879
 4438SOL    HW114213   4.111   2.815   6.905
 4438SOL    HW214214   3.991   2.881   6.815
 4439SOL     OW14215   1.618   4.269   2.750
 4439SOL    HW114216   1.709   4.228   2.755
 4439SOL    HW214217   1.606   4.333   2.826
 4440SOL     OW14218   6.599   1.289   0.573
 4440SOL    HW114219   6.540   1.251   0.645
 4440SOL    HW214220   6.572   1.251   0.485
 4441SOL     OW14221   6.784   0.195   3.546
 4441SOL    HW114222   6.794   0.161   3.640
 4441SOL    HW214223   6.867   0.245   3.520
 4442SOL     OW14224   1.741   5.788   2.181
 4442SOL    HW114225   1.657   5.824   2.139
 4442SOL    HW214226   1.717   5.724   2.254
 4443SOL     OW14227   2.488   1.256   0.968
 4443SOL    HW114228   2.504   1.315   0.889
 4443SOL    HW214229   2.575   1.215   0.998
 4444SOL     OW14230   4.904   1.488   3.057
 4444SOL    HW114231   4.945   1.554   2.995
 4444SOL    HW214232   4.806   1.481   3.037
 4445SOL     OW14233   0.917   1.002   6.172
 4445SOL    HW114234   1.005   1.008   6.126
 4445SOL    HW214235   0.922   1.044   6.262
 4446SOL     OW14236   6.024   4.836   3.781
 4446SOL    HW114237   6.018   4.929   3.816
 4446SOL    HW214238   6.108   4.825   3.729
 4447SOL     OW14239   4.796   3.835   5.267
 4447SOL    HW114240   4.762   3.776   5.194
 4447SOL    HW214241   4.877   3.794   5.308
 4448SOL     OW14242   2.655   3.511   6.767
 4448SOL    HW114243   2.642   3.553   6.677
 4448SOL    HW214244   2.704   3.574   6.826
 4449SOL     OW14245   0.447   1.022   5.736
 4449SOL    HW114246   0.439   1.121   5.740
 4449SOL    HW214247   0.502   0.997   5.655
 4450SOL     OW14248   3.714   3.649   2.940
 4450SOL    HW114249   3.785   3.640   3.010
 4450SOL    HW214250   3.700   3.562   2.894
 4451SOL     OW14251   0.370   4.580   0.844
 4451SOL    HW114252   0.431   4.652   0.812
 4451SOL    HW214253   0.372   4.503   0.780
 4452SOL     OW14254   6.907   2.841   6.261
 4452SOL    HW114255   6.864   2.930   6.249
 4452SOL    HW214256   6.953   2.813   6.177
 4453SOL     OW14257   5.247   0.927   0.546
 4453SOL    HW114258   5.217   1.020   0.565
 4453SOL    HW214259   5.193   0.863   0.601
 4454SOL     OW14260   5.386   2.751   1.530
 4454SOL    HW114261   5.378   2.687   1.453
 4454SOL    HW214262   5.437   2.832   1.500
 4455SOL     OW14263   4.329   2.367   2.844
 4455SOL    HW114264   4.294   2.283   2.802
 4455SOL    HW214265   4.347   2.434   2.773
 4456SOL     OW14266   0.366   5.789   2.362
 4456SOL    HW114267   0.294   5.858   2.353
 4456SOL    HW214268   0.428   5.795   2.284
 4457SOL     OW14269   4.363   2.484   6.941
 4457SOL    HW114270   4.299   2.448   6.873
 4457SOL    HW214271   4.447   2.513   6.895
 4458SOL     OW14272   4.275   1.721   1.323
 4458SOL    HW114273   4.313   1.777   1.397
 4458SOL    HW214274   4.349   1.692   1.263
 4459SOL     OW14275   5.940   6.149   5.429
 4459SOL    HW114276   5.975   6.122   5.519
 4459SOL    HW214277   5.968   6.243   5.409
 4460SOL     OW14278   1.331   1.483   0.008
 4460SOL    HW114279   1.339   1.383   0.011
 4460SOL    HW214280   1.344   1.520   0.099
 4461SOL     OW14281   1.861   6.602   3.007
 4461SOL    HW114282   1.933   6.546   3.048
 4461SOL    HW214283   1.900   6.657   2.933
 4462SOL     OW14284   6.867   3.954   0.471
 4462SOL    HW114285   6.821   3.991   0.390
 4462SOL    HW214286   6.938   4.017   0.501
 4463SOL     OW14287   1.026   4.367   6.672
 4463SOL    HW114288   1.027   4.462   6.704
 4463SOL    HW214289   1.081   4.360   6.588
 4464SOL     OW14290   6.393   2.718   6.757
 4464SOL    HW114291   6.336   2.772   6.819
 4464SOL    HW214292   6.348   2.630   6.740
 4465SOL     OW14293   6.534   4.926   0.899
 4465SOL    HW114294   6.463   4.979   0.854
 4465SOL    HW214295   6.528   4.939   0.998
 4466SOL     OW14296   0.160   2.976   3.257
 4466SOL    HW114297   0.075   2.998   3.208
 4466SOL    HW214298   0.169   3.036   3.336
 4467SOL     OW14299   1.083   0.646   3.992
 4467SOL    HW114300   1.183   0.646   3.996
 4467SOL    HW214301   1.051   0.571   3.933
 4468SOL     OW14302   1.518   2.067   0.681
 4468SOL    HW114303   1.436   2.030   0.638
 4468SOL    HW214304   1.594   2.003   0.671
 4469SOL     OW14305   4.916   6.860   0.805
 4469SOL    HW114306   4.922   6.783   0.869
 4469SOL    HW214307   4.985   6.928   0.829
 4470SOL     OW14308   4.816   4.681   1.578
 4470SOL    HW114309   4.871   4.729   1.509
 4470SOL    HW214310   4.805   4.586   1.552
 4471SOL     OW14311   6.027   2.809   1.682
 4471SOL    HW114312   6.019   2.881   1.751
 4471SOL    HW214313   6.059   2.725   1.726
 4472SOL     OW14314   2.463   5.256   1.395
 4472SOL    HW114315   2.523   5.176   1.400
 4472SOL    HW214316   2.462   5.303   1.483
 4473SOL     OW14317   6.624   0.629   6.913
 4473SOL    HW114318   6.678   0.713   6.919
 4473SOL    HW214319   6.654   0.575   6.835
 4474SOL     OW14320   6.235   0.816   4.461
 4474SOL    HW114321   6.145   0.786   4.430
 4474SOL    HW214322   6.250   0.782   4.554
 4475SOL     OW14323   1.345   3.190   0.590
 4475SOL    HW114324   1.369   3.200   0.686
 4475SOL    HW214325   1.251   3.156   0.582
 4476SOL     OW14326   4.336   6.519   3.109
 4476SOL    HW114327   4.337   6.535   3.208
 4476SOL    HW214328   4.297   6.429   3.090
 4477SOL     OW14329   1.684   2.558   1.059
 4477SOL    HW114330   1.758   2.594   1.002
 4477SOL    HW214331   1.720   2.485   1.117
 4478SOL     OW14332   1.325   4.902   0.945
 4478SOL    HW114333   1.288   4.810   0.929
 4478SOL    HW214334   1.332   4.918   1.044
 4479SOL     OW14335   1.356   0.509   6.066
 4479SOL    HW114336   1.271   0.517   6.014
 4479SOL    HW214337   1.337   0.468   6.155
 4480SOL     OW14338   0.109   4.187   3.296
 4480SOL    HW114339   0.125   4.094   3.330
 4480SOL    HW214340   0.029   4.186   3.235
 4481SOL     OW14341   0.546   0.698   4.279
 4481SOL    HW114342   0.633   0.724   4.320
 4481SOL    HW214343   0.527   0.758   4.201
 4482SOL     OW14344   1.363   3.913   2.769
 4482SOL    HW114345   1.424   3.971   2.822
 4482SOL    HW214346   1.350   3.826   2.817
 4483SOL     OW14347   5.538   3.538   0.510
 4483SOL    HW114348   5.521   3.585   0.423
 4483SOL    HW214349   5.636   3.521   0.520
 4484SOL     OW14350   3.457   3.317   6.515
 4484SOL    HW114351   3.478   3.413   6.533
 4484SOL    HW214352   3.412   3.277   6.594
 4485SOL     OW14353   5.104   0.021   6.254
 4485SOL    HW114354   5.017   6.992   6.251
 4485SOL    HW214355   5.089   0.116   6.228
 4486SOL     OW14356   6.340   3.643   3.834
 4486SOL    HW114357   6.313   3.717   3.896
 4486SOL    HW214358   6.258   3.600   3.796
 4487SOL     OW14359   2.778   3.108   5.733
 4487SOL    HW114360   2.685   3.086   5.705
 4487SOL    HW214361   2.801   3.201   5.704
 4488SOL     OW14362   6.895   2.037   6.418
 4488SOL    HW114363   6.887   1.992   6.508
 4488SOL    HW214364   6.807   2.035   6.372
 4489SOL     OW14365   1.042   0.952   2.380
 4489SOL    HW114366   1.066   0.905   2.465
 4489SOL    HW214367   1.110   0.931   2.310
 4490SOL     OW14368   6.795   2.218   4.124
 4490SOL    HW114369   6.886   2.259   4.115
 4490SOL    HW214370   6.800   2.141   4.188
 4491SOL     OW14371   2.047   4.233   2.370
 4491SOL    HW114372   1.972   4.271   2.424
 4491SOL    HW214373   2.046   4.275   2.279
 4492SOL     OW14374   4.938   4.217   6.346
 4492SOL    HW114375   4.891   4.214   6.258
 4492SOL    HW214376   4.877   4.257   6.415
 4493SOL     OW14377   6.205   4.284   3.271
 4493SOL    HW114378   6.221   4.333   3.185
 4493SOL    HW214379   6.291   4.247   3.304
 4494SOL     OW14380   5.877   1.974   2.560
 4494SOL    HW114381   5.904   1.924   2.642
 4494SOL    HW214382   5.923   2.062   2.557
 4495SOL     OW14383   4.953   6.002   1.764
 4495SOL    HW114384   5.018   6.029   1.835
 4495SOL    HW214385   4.933   6.081   1.706
 4496SOL     OW14386   6.258   3.550   5.901
 4496SOL    HW114387   6.163   3.577   5.918
 4496SOL    HW214388   6.318   3.629   5.914
 4497SOL     OW14389   6.712   5.774   0.903
 4497SOL    HW114390   6.693   5.863   0.943
 4497SOL    HW214391   6.683   5.772   0.807
 4498SOL     OW14392   0.687   4.469   6.446
 4498SOL    HW114393   0.733   4.381   6.459
 4498SOL    HW214394   0.590   4.453   6.431
 4499SOL     OW14395   5.068   3.481   6.945
 4499SOL    HW114396   5.065   3.450   0.019
 4499SOL    HW214397   5.095   3.577   6.942
 4500SOL     OW14398   3.849   3.779   2.569
 4500SOL    HW114399   3.804   3.698   2.529
 4500SOL    HW214400   3.946   3.760   2.581
 4501SOL     OW14401   1.228   4.800   4.941
 4501SOL    HW114402   1.174   4.750   5.009
 4501SOL    HW214403   1.320   4.759   4.936
 4502SOL     OW14404   5.543   2.624   0.277
 4502SOL    HW114405   5.520   2.699   0.339
 4502SOL    HW214406   5.578   2.547   0.329
 4503SOL     OW14407   1.210   3.424   2.660
 4503SOL    HW114408   1.281   3.469   2.607
 4503SOL    HW214409   1.196   3.331   2.626
 4504SOL     OW14410   4.655   2.517   4.324
 4504SOL    HW114411   4.630   2.515   4.227
 4504SOL    HW214412   4.611   2.440   4.371
 4505SOL     OW14413   1.967   5.276   0.819
 4505SOL    HW114414   2.040   5.342   0.836
 4505SOL    HW214415   1.933   5.240   0.906
 4506SOL     OW14416   3.777   0.380   6.112
 4506SOL    HW114417   3.860   0.390   6.058
 4506SOL    HW214418   3.697   0.397   6.054
 4507SOL     OW14419   6.451   3.587   2.568
 4507SOL    HW114420   6.538   3.609   2.523
 4507SOL    HW214421   6.378   3.583   2.499
 4508SOL     OW14422   1.643   3.783   0.311
 4508SOL    HW114423   1.631   3.880   0.290
 4508SOL    HW214424   1.554   3.740   0.321
 4509SOL     OW14425   0.814   2.357   3.014
 4509SOL    HW114426   0.882   2.345   3.086
 4509SOL    HW214427   0.854   2.328   2.926
 4510SOL     OW14428   2.964   6.290   6.153
 4510SOL    HW114429   2.973   6.248   6.063
 4510SOL    HW214430   3.055   6.309   6.190
 4511SOL     OW14431   0.113   1.860   0.004
 4511SOL    HW114432   0.079   1.949   6.994
 4511SOL    HW214433   0.057   1.828   0.081
 4512SOL     OW14434   2.309   4.024   6.832
 4512SOL    HW114435   2.367   4.078   6.893
 4512SOL    HW214436   2.352   3.935   6.815
 4513SOL     OW14437   6.033   1.361   2.676
 4513SOL    HW114438   5.955   1.348   2.615
 4513SOL    HW214439   6.001   1.398   2.764
 4514SOL     OW14440   2.827   0.610   5.817
 4514SOL    HW114441   2.845   0.512   5.809
 4514SOL    HW214442   2.799   0.632   5.910
 4515SOL     OW14443   6.933   5.101   6.962
 4515SOL    HW114444   6.850   5.082   7.015
 4515SOL    HW214445   6.995   5.022   6.969
 4516SOL     OW14446   0.643   0.299   3.646
 4516SOL    HW114447   0.693   0.383   3.668
 4516SOL    HW214448   0.654   0.233   3.721
 4517SOL     OW14449   2.865   0.727   0.322
 4517SOL    HW114450   2.918   0.792   0.376
 4517SOL    HW214451   2.923   0.690   0.249
 4518SOL     OW14452   1.585   6.879   4.009
 4518SOL    HW114453   1.641   6.947   4.058
 4518SOL    HW214454   1.591   6.791   4.056
 4519SOL     OW14455   6.279   2.392   5.165
 4519SOL    HW114456   6.203   2.433   5.214
 4519SOL    HW214457   6.246   2.314   5.112
 4520SOL     OW14458   6.856   3.734   2.877
 4520SOL    HW114459   6.876   3.784   2.961
 4520SOL    HW214460   6.799   3.655   2.899
 4521SOL     OW14461   5.216   1.341   6.483
 4521SOL    HW114462   5.293   1.280   6.502
 4521SOL    HW214463   5.247   1.417   6.426
 4522SOL     OW14464   5.861   6.659   3.197
 4522SOL    HW114465   5.809   6.733   3.239
 4522SOL    HW214466   5.814   6.572   3.211
 4523SOL     OW14467   4.876   2.489   5.467
 4523SOL    HW114468   4.901   2.477   5.563
 4523SOL    HW214469   4.928   2.565   5.429
 4524SOL     OW14470   6.277   0.294   5.130
 4524SOL    HW114471   6.373   0.319   5.117
 4524SOL    HW214472   6.225   0.316   5.048
 4525SOL     OW14473   6.453   1.155   4.197
 4525SOL    HW114474   6.504   1.232   4.158
 4525SOL    HW214475   6.428   1.176   4.291
 4526SOL     OW14476   3.181   1.455   1.681
 4526SOL    HW114477   3.180   1.423   1.776
 4526SOL    HW214478   3.273   1.443   1.643
 4527SOL     OW14479   4.280   6.524   4.250
 4527SOL    HW114480   4.320   6.605   4.207
 4527SOL    HW214481   4.290   6.446   4.188
 4528SOL     OW14482   4.882   0.245   6.249
 4528SOL    HW114483   4.793   0.292   6.245
 4528SOL    HW214484   4.930   0.272   6.333
 4529SOL     OW14485   3.526   0.130   4.089
 4529SOL    HW114486   3.590   0.204   4.068
 4529SOL    HW214487   3.564   0.074   4.163
 4530SOL     OW14488   0.094   2.537   4.562
 4530SOL    HW114489   0.183   2.495   4.580
 4530SOL    HW214490   0.085   2.620   4.617
 4531SOL     OW14491   0.724   3.901   3.999
 4531SOL    HW114492   0.718   3.946   3.909
 4531SOL    HW214493   0.655   3.940   4.060
 4532SOL     OW14494   0.563   2.131   0.728
 4532SOL    HW114495   0.493   2.106   0.662
 4532SOL    HW214496   0.594   2.224   0.709
 4533SOL     OW14497   3.483   6.124   2.267
 4533SOL    HW114498   3.412   6.189   2.239
 4533SOL    HW214499   3.528   6.087   2.185
 4534SOL     OW14500   6.982   4.320   5.892
 4534SOL    HW114501   6.939   4.333   5.802
 4534SOL    HW214502   0.057   4.293   5.880
 4535SOL     OW14503   5.001   2.611   3.170
 4535SOL    HW114504   5.016   2.518   3.136
 4535SOL    HW214505   4.929   2.609   3.240
 4536SOL     OW14506   6.967   0.394   3.779
 4536SOL    HW114507   6.885   0.435   3.819
 4536SOL    HW214508   6.948   0.300   3.752
 4537SOL     OW14509   4.551   3.606   6.533
 4537SOL    HW114510   4.589   3.634   6.445
 4537SOL    HW214511   4.537   3.507   6.533
 4538SOL     OW14512   3.693   2.366   1.420
 4538SOL    HW114513   3.704   2.399   1.513
 4538SOL    HW214514   3.778   2.322   1.390
 4539SOL     OW14515   2.334   2.411   2.090
 4539SOL    HW114516   2.309   2.495   2.042
 4539SOL    HW214517   2.387   2.434   2.172
 4540SOL     OW14518   3.839   2.916   5.078
 4540SOL    HW114519   3.751   2.949   5.113
 4540SOL    HW214520   3.902   2.904   5.155
 4541SOL     OW14521   5.985   0.997   1.798
 4541SOL    HW114522   5.972   0.974   1.701
 4541SOL    HW214523   6.044   1.077   1.805
 4542SOL     OW14524   5.044   6.685   3.175
 4542SOL    HW114525   5.105   6.610   3.150
 4542SOL    HW214526   5.061   6.764   3.116
 4543SOL     OW14527   5.917   2.870   2.327
 4543SOL    HW114528   5.860   2.953   2.334
 4543SOL    HW214529   5.989   2.886   2.260
 4544SOL     OW14530   5.253   5.169   6.211
 4544SOL    HW114531   5.333   5.156   6.152
 4544SOL    HW214532   5.276   5.140   6.304
 4545SOL     OW14533   3.853   4.055   6.194
 4545SOL    HW114534   3.776   4.117   6.209
 4545SOL    HW214535   3.863   4.039   6.096
 4546SOL     OW14536   0.431   6.079   6.952
 4546SOL    HW114537   0.436   6.179   6.945
 4546SOL    HW214538   0.364   6.044   6.888
 4547SOL     OW14539   4.668   1.559   2.281
 4547SOL    HW114540   4.577   1.526   2.306
 4547SOL    HW214541   4.659   1.649   2.236
 4548SOL     OW14542   0.758   3.640   4.135
 4548SOL    HW114543   0.691   3.714   4.131
 4548SOL    HW214544   0.818   3.644   4.056
 4549SOL     OW14545   5.675   1.672   2.634
 4549SOL    HW114546   5.600   1.734   2.659
 4549SOL    HW214547   5.656   1.632   2.544
 4550SOL     OW14548   2.339   5.599   4.791
 4550SOL    HW114549   2.264   5.642   4.741
 4550SOL    HW214550   2.314   5.593   4.888
 4551SOL     OW14551   6.608   3.340   0.817
 4551SOL    HW114552   6.699   3.314   0.783
 4551SOL    HW214553   6.591   3.437   0.797
 4552SOL     OW14554   6.985   3.008   4.484
 4552SOL    HW114555   7.005   2.999   4.387
 4552SOL    HW214556   6.948   2.922   4.519
 4553SOL     OW14557   5.088   4.785   6.426
 4553SOL    HW114558   5.058   4.716   6.360
 4553SOL    HW214559   5.174   4.826   6.396
 4554SOL     OW14560   6.643   6.955   3.856
 4554SOL    HW114561   6.592   6.953   3.770
 4554SOL    HW214562   6.598   6.897   3.923
 4555SOL     OW14563   3.918   3.394   6.964
 4555SOL    HW114564   3.892   3.318   0.003
 4555SOL    HW214565   4.018   3.396   6.955
 4556SOL     OW14566   4.586   0.203   5.229
 4556SOL    HW114567   4.655   0.214   5.157
 4556SOL    HW214568   4.605   0.267   5.303
 4557SOL     OW14569   5.433   1.077   4.592
 4557SOL    HW114570   5.438   1.100   4.495
 4557SOL    HW214571   5.516   1.110   4.638
 4558SOL     OW14572   6.545   2.888   5.970
 4558SOL    HW114573   6.517   2.974   6.011
 4558SOL    HW214574   6.467   2.846   5.924
 4559SOL     OW14575   1.022   6.251   1.657
 4559SOL    HW114576   1.013   6.287   1.750
 4559SOL    HW214577   0.974   6.163   1.651
 4560SOL     OW14578   5.707   2.794   2.701
 4560SOL    HW114579   5.787   2.851   2.717
 4560SOL    HW214580   5.717   2.707   2.749
 4561SOL     OW14581   3.676   6.859   6.563
 4561SOL    HW114582   3.611   6.831   6.634
 4561SOL    HW214583   3.627   6.907   6.491
 4562SOL     OW14584   2.587   4.475   5.675
 4562SOL    HW114585   2.493   4.471   5.641
 4562SOL    HW214586   2.647   4.423   5.615
 4563SOL     OW14587   6.003   2.120   6.520
 4563SOL    HW114588   6.008   2.197   6.457
 4563SOL    HW214589   5.913   2.078   6.514
 4564SOL     OW14590   0.938   4.898   0.052
 4564SOL    HW114591   0.918   4.988   0.014
 4564SOL    HW214592   0.994   4.908   0.134
 4565SOL     OW14593   2.587   1.185   3.889
 4565SOL    HW114594   2.669   1.155   3.938
 4565SOL    HW214595   2.546   1.262   3.938
 4566SOL     OW14596   1.512   0.876   1.005
 4566SOL    HW114597   1.541   0.846   1.096
 4566SOL    HW214598   1.589   0.867   0.941
 4567SOL     OW14599   5.465   1.698   0.730
 4567SOL    HW114600   5.515   1.772   0.776
 4567SOL    HW214601   5.472   1.615   0.785
 4568SOL     OW14602   4.268   4.764   3.693
 4568SOL    HW114603   4.214   4.778   3.610
 4568SOL    HW214604   4.352   4.714   3.671
 4569SOL     OW14605   0.790   1.808   2.984
 4569SOL    HW114606   0.784   1.714   2.951
 4569SOL    HW214607   0.714   1.827   3.046
 4570SOL     OW14608   5.549   5.842   4.479
 4570SOL    HW114609   5.642   5.808   4.468
 4570SOL    HW214610   5.531   5.913   4.410
 4571SOL     OW14611   3.850   2.981   4.021
 4571SOL    HW114612   3.776   2.946   4.077
 4571SOL    HW214613   3.929   3.001   4.079
 4572SOL     OW14614   2.036   5.460   1.469
 4572SOL    HW114615   2.104   5.515   1.419
 4572SOL    HW214616   1.987   5.402   1.405
 4573SOL     OW14617   5.531   0.424   1.119
 4573SOL    HW114618   5.502   0.398   1.026
 4573SOL    HW214619   5.455   0.470   1.165
 4574SOL     OW14620   7.006   4.362   1.520
 4574SOL    HW114621   6.951   4.300   1.576
 4574SOL    HW214622   6.956   4.383   1.436
 4575SOL     OW14623   6.275   6.395   2.316
 4575SOL    HW114624   6.256   6.297   2.310
 4575SOL    HW214625   6.191   6.444   2.336
 4576SOL     OW14626   3.081   6.340   3.991
 4576SOL    HW114627   3.089   6.255   4.043
 4576SOL    HW214628   3.006   6.395   4.029
 4577SOL     OW14629   1.881   2.916   3.961
 4577SOL    HW114630   1.781   2.916   3.967
 4577SOL    HW214631   1.909   2.904   3.866
 4578SOL     OW14632   6.758   5.808   4.010
 4578SOL    HW114633   6.770   5.898   3.968
 4578SOL    HW214634   6.822   5.743   3.968
 4579SOL     OW14635   5.282   2.338   3.821
 4579SOL    HW114636   5.204   2.334   3.759
 4579SOL    HW214637   5.309   2.434   3.834
 4580SOL     OW14638   0.582   5.435   7.006
 4580SOL    HW114639   0.517   5.378   0.036
 4580SOL    HW214640   0.538   5.520   6.979
 4581SOL     OW14641   3.156   6.240   4.808
 4581SOL    HW114642   3.220   6.168   4.835
 4581SOL    HW214643   3.065   6.200   4.797
 4582SOL     OW14644   4.813   6.970   3.162
 4582SOL    HW114645   4.850   6.953   3.254
 4582SOL    HW214646   4.880   6.941   3.093
 4583SOL     OW14647   3.833   0.736   5.371
 4583SOL    HW114648   3.928   0.708   5.387
 4583SOL    HW214649   3.774   0.692   5.438
 4584SOL     OW14650   0.615   4.657   5.839
 4584SOL    HW114651   0.585   4.657   5.744
 4584SOL    HW214652   0.640   4.749   5.867
 4585SOL     OW14653   3.307   6.305   2.201
 4585SOL    HW114654   3.208   6.319   2.200
 4585SOL    HW214655   3.345   6.336   2.114
 4586SOL     OW14656   2.951   6.136   1.573
 4586SOL    HW114657   2.950   6.037   1.562
 4586SOL    HW214658   2.965   6.180   1.485
 4587SOL     OW14659   3.320   4.986   0.797
 4587SOL    HW114660   3.404   4.957   0.751
 4587SOL    HW214661   3.253   5.016   0.728
 4588SOL     OW14662   3.434   3.824   5.016
 4588SOL    HW114663   3.405   3.825   4.920
 4588SOL    HW214664   3.386   3.896   5.066
 4589SOL     OW14665   1.352   1.776   3.164
 4589SOL    HW114666   1.305   1.834   3.098
 4589SOL    HW214667   1.450   1.775   3.143
 4590SOL     OW14668   3.961   6.405   3.281
 4590SOL    HW114669   3.882   6.398   3.342
 4590SOL    HW214670   4.044   6.383   3.332
 4591SOL     OW14671   5.717   6.506   4.968
 4591SOL    HW114672   5.646   6.443   5.002
 4591SOL    HW214673   5.807   6.468   4.987
 4592SOL     OW14674   3.548   1.424   5.613
 4592SOL    HW114675   3.507   1.470   5.691
 4592SOL    HW214676   3.477   1.403   5.545
 4593SOL     OW14677   5.138   6.662   1.888
 4593SOL    HW114678   5.049   6.634   1.850
 4593SOL    HW214679   5.157   6.610   1.971
 4594SOL     OW14680   3.857   1.958   2.286
 4594SOL    HW114681   3.880   1.976   2.382
 4594SOL    HW214682   3.801   1.876   2.281
 4595SOL     OW14683   4.475   3.053   5.724
 4595SOL    HW114684   4.548   3.120   5.713
 4595SOL    HW214685   4.388   3.095   5.700
 4596SOL     OW14686   4.991   0.104   2.565
 4596SOL    HW114687   5.014   0.086   2.661
 4596SOL    HW214688   4.959   0.019   2.523
 4597SOL     OW14689   6.488   4.146   5.675
 4597SOL    HW114690   6.513   4.153   5.772
 4597SOL    HW214691   6.559   4.096   5.625
 4598SOL     OW14692   2.739   4.067   0.073
 4598SOL    HW114693   2.792   4.025   0.147
 4598SOL    HW214694   2.770   4.031   7.005
 4599SOL     OW14695   3.138   5.533   0.196
 4599SOL    HW114696   3.202   5.495   0.263
 4599SOL    HW214697   3.092   5.458   0.148
 4600SOL     OW14698   3.058   3.922   1.046
 4600SOL    HW114699   3.123   3.856   1.008
 4600SOL    HW214700   3.107   3.986   1.105
 4601SOL     OW14701   1.757   5.359   4.024
 4601SOL    HW114702   1.709   5.310   3.951
 4601SOL    HW214703   1.855   5.356   4.008
 4602SOL     OW14704   1.676   0.216   1.352
 4602SOL    HW114705   1.658   0.139   1.413
 4602SOL    HW214706   1.621   0.295   1.379
 4603SOL     OW14707   2.963   1.281   2.022
 4603SOL    HW114708   2.927   1.344   1.954
 4603SOL    HW214709   2.904   1.281   2.103
 4604SOL     OW14710   1.283   0.598   2.898
 4604SOL    HW114711   1.246   0.514   2.859
 4604SOL    HW214712   1.264   0.600   2.997
 4605SOL     OW14713   5.160   5.901   5.671
 4605SOL    HW114714   5.076   5.852   5.694
 4605SOL    HW214715   5.217   5.845   5.612
 4606SOL     OW14716   6.518   6.379   4.524
 4606SOL    HW114717   6.538   6.296   4.472
 4606SOL    HW214718   6.425   6.410   4.503
 4607SOL     OW14719   2.476   2.954   0.992
 4607SOL    HW114720   2.549   2.952   0.923
 4607SOL    HW214721   2.516   2.946   1.083
 4608SOL     OW14722   1.257   3.364   5.509
 4608SOL    HW114723   1.327   3.293   5.518
 4608SOL    HW214724   1.301   3.454   5.507
 4609SOL     OW14725   2.970   0.391   1.009
 4609SOL    HW114726   2.963   0.336   0.926
 4609SOL    HW214727   3.044   0.457   0.999
 4610SOL     OW14728   6.709   3.226   6.517
 4610SOL    HW114729   6.633   3.215   6.453
 4610SOL    HW214730   6.782   3.162   6.493
 4611SOL     OW14731   1.538   4.290   6.984
 4611SOL    HW114732   1.440   4.282   6.964
 4611SOL    HW214733   1.560   4.385   7.006
 4612SOL     OW14734   2.086   0.351   6.177
 4612SOL    HW114735   2.090   0.441   6.219
 4612SOL    HW214736   2.171   0.302   6.193
 4613SOL     OW14737   3.363   4.739   1.710
 4613SOL    HW114738   3.442   4.699   1.758
 4613SOL    HW214739   3.387   4.756   1.615
 4614SOL     OW14740   2.361   5.025   6.785
 4614SOL    HW114741   2.401   5.115   6.801
 4614SOL    HW214742   2.401   4.984   6.702
 4615SOL     OW14743   6.361   3.153   6.401
 4615SOL    HW114744   6.427   3.080   6.383
 4615SOL    HW214745   6.271   3.112   6.417
 4616SOL     OW14746   5.672   0.790   0.044
 4616SOL    HW114747   5.725   0.708   0.023
 4616SOL    HW214748   5.601   0.803   6.995
 4617SOL     OW14749   6.674   3.639   1.729
 4617SOL    HW114750   6.669   3.544   1.762
 4617SOL    HW214751   6.631   3.645   1.639
 4618SOL     OW14752   0.477   2.960   6.814
 4618SOL    HW114753   0.486   3.057   6.794
 4618SOL    HW214754   0.568   2.918   6.821
 4619SOL     OW14755   3.981   0.116   3.693
 4619SOL    HW114756   3.896   0.165   3.707
 4619SOL    HW214757   3.970   0.021   3.722
 4620SOL     OW14758   2.536   6.109   0.201
 4620SOL    HW114759   2.546   6.013   0.175
 4620SOL    HW214760   2.570   6.167   0.127
 4621SOL     OW14761   0.077   0.543   6.040
 4621SOL    HW114762   0.059   0.575   5.947
 4621SOL    HW214763   0.174   0.558   6.063
 4622SOL     OW14764   1.809   3.874   0.776
 4622SOL    HW114765   1.862   3.888   0.692
 4622SOL    HW214766   1.844   3.794   0.825
 4623SOL     OW14767   5.698   4.151   2.411
 4623SOL    HW114768   5.662   4.136   2.319
 4623SOL    HW214769   5.766   4.080   2.432
 4624SOL     OW14770   4.733   0.030   6.083
 4624SOL    HW114771   4.759   0.003   5.990
 4624SOL    HW214772   4.679   0.115   6.079
 4625SOL     OW14773   1.380   4.084   6.115
 4625SOL    HW114774   1.451   4.093   6.184
 4625SOL    HW214775   1.397   4.001   6.061
 4626SOL     OW14776   5.559   5.039   1.640
 4626SOL    HW114777   5.462   5.042   1.665
 4626SOL    HW214778   5.577   4.959   1.583
 4627SOL     OW14779   1.466   6.970   5.538
 4627SOL    HW114780   1.557   6.990   5.574
 4627SOL    HW214781   1.439   0.020   5.473
 4628SOL     OW14782   6.336   2.680   1.704
 4628SOL    HW114783   6.417   2.714   1.657
 4628SOL    HW214784   6.276   2.633   1.639
 4629SOL     OW14785   4.419   5.143   4.274
 4629SOL    HW114786   4.441   5.194   4.191
 4629SOL    HW214787   4.427   5.045   4.255
 4630SOL     OW14788   2.124   6.242   2.629
 4630SOL    HW114789   2.070   6.184   2.568
 4630SOL    HW214790   2.221   6.234   2.604
 4631SOL     OW14791   1.662   0.203   3.114
 4631SOL    HW114792   1.633   0.156   3.197
 4631SOL    HW214793   1.716   0.284   3.138
 4632SOL     OW14794   5.782   5.859   3.769
 4632SOL    HW114795   5.691   5.836   3.734
 4632SOL    HW214796   5.780   5.857   3.869
 4633SOL     OW14797   5.478   2.294   5.708
 4633SOL    HW114798   5.468   2.213   5.766
 4633SOL    HW214799   5.398   2.304   5.650
 4634SOL     OW14800   2.741   4.423   0.181
 4634SOL    HW114801   2.650   4.392   0.209
 4634SOL    HW214802   2.799   4.343   0.163
 4635SOL     OW14803   5.129   3.216   1.466
 4635SOL    HW114804   5.121   3.219   1.566
 4635SOL    HW214805   5.102   3.125   1.433
 4636SOL     OW14806   0.685   5.963   1.669
 4636SOL    HW114807   0.714   5.983   1.576
 4636SOL    HW214808   0.760   5.981   1.732
 4637SOL     OW14809   1.344   0.838   4.593
 4637SOL    HW114810   1.354   0.790   4.506
 4637SOL    HW214811   1.273   0.793   4.648
 4638SOL     OW14812   4.320   4.701   5.512
 4638SOL    HW114813   4.337   4.737   5.420
 4638SOL    HW214814   4.382   4.746   5.577
 4639SOL     OW14815   6.750   1.926   5.127
 4639SOL    HW114816   6.810   1.975   5.064
 4639SOL    HW214817   6.711   1.990   5.193
 4640SOL     OW14818   6.092   5.143   2.881
 4640SOL    HW114819   6.111   5.086   2.801
 4640SOL    HW214820   6.159   5.123   2.952
 4641SOL     OW14821   2.775   3.374   5.435
 4641SOL    HW114822   2.677   3.395   5.434
 4641SOL    HW214823   2.793   3.298   5.373
 4642SOL     OW14824   6.045   5.853   3.833
 4642SOL    HW114825   5.948   5.857   3.809
 4642SOL    HW214826   6.100   5.873   3.752
 4643SOL     OW14827   4.321   3.225   1.335
 4643SOL    HW114828   4.238   3.224   1.280
 4643SOL    HW214829   4.321   3.147   1.397
 4644SOL     OW14830   3.662   4.358   5.598
 4644SOL    HW114831   3.628   4.391   5.510
 4644SOL    HW214832   3.590   4.365   5.667
 4645SOL     OW14833   1.775   6.034   5.019
 4645SOL    HW114834   1.806   6.085   4.939
 4645SOL    HW214835   1.785   5.936   5.002
 4646SOL     OW14836   3.302   0.246   1.219
 4646SOL    HW114837   3.212   0.290   1.226
 4646SOL    HW214838   3.295   0.152   1.252
 4647SOL     OW14839   6.771   0.736   5.378
 4647SOL    HW114840   6.700   0.802   5.403
 4647SOL    HW214841   6.760   0.652   5.432
 4648SOL     OW14842   2.210   5.852   3.508
 4648SOL    HW114843   2.262   5.932   3.477
 4648SOL    HW214844   2.136   5.882   3.569
 4649SOL     OW14845   5.940   6.604   5.849
 4649SOL    HW114846   5.984   6.688   5.819
 4649SOL    HW214847   5.842   6.608   5.830
 4650SOL     OW14848   6.748   4.311   1.096
 4650SOL    HW114849   6.808   4.235   1.074
 4650SOL    HW214850   6.715   4.354   1.012
 4651SOL     OW14851   6.024   2.059   1.719
 4651SOL    HW114852   5.976   2.051   1.806
 4651SOL    HW214853   6.068   2.149   1.714
 4652SOL     OW14854   0.332   6.544   5.735
 4652SOL    HW114855   0.423   6.503   5.730
 4652SOL    HW214856   0.334   6.635   5.694
 4653SOL     OW14857   0.230   4.987   6.684
 4653SOL    HW114858   0.201   5.064   6.627
 4653SOL    HW214859   0.207   4.901   6.639
 4654SOL     OW14860   1.313   1.883   6.421
 4654SOL    HW114861   1.266   1.961   6.461
 4654SOL    HW214862   1.345   1.907   6.329
 4655SOL     OW14863   0.007   5.349   3.410
 4655SOL    HW114864   6.965   5.280   3.446
 4655SOL    HW214865   0.077   5.305   3.354
 4656SOL     OW14866   2.334   6.514   3.363
 4656SOL    HW114867   2.291   6.604   3.363
 4656SOL    HW214868   2.268   6.446   3.395
 4657SOL     OW14869   5.886   0.937   6.194
 4657SOL    HW114870   5.930   0.989   6.120
 4657SOL    HW214871   5.808   0.886   6.156
 4658SOL     OW14872   4.807   0.938   3.997
 4658SOL    HW114873   4.876   0.873   4.029
 4658SOL    HW214874   4.717   0.896   4.003
 4659SOL     OW14875   1.547   2.525   4.189
 4659SOL    HW114876   1.532   2.475   4.274
 4659SOL    HW214877   1.606   2.605   4.207
 4660SOL     OW14878   6.405   1.474   5.135
 4660SOL    HW114879   6.352   1.491   5.052
 4660SOL    HW214880   6.488   1.530   5.133
 4661SOL     OW14881   3.727   2.969   2.979
 4661SOL    HW114882   3.816   3.007   2.954
 4661SOL    HW214883   3.668   3.041   3.014
 4662SOL     OW14884   5.928   6.985   3.792
 4662SOL    HW114885   6.018   6.951   3.764
 4662SOL    HW214886   5.936   0.058   3.825
 4663SOL     OW14887   0.470   2.943   2.112
 4663SOL    HW114888   0.547   2.986   2.065
 4663SOL    HW214889   0.495   2.850   2.139
 4664SOL     OW14890   3.188   4.057   0.495
 4664SOL    HW114891   3.169   3.964   0.464
 4664SOL    HW214892   3.221   4.111   0.418
 4665SOL     OW14893   5.656   0.710   6.112
 4665SOL    HW114894   5.580   0.647   6.092
 4665SOL    HW214895   5.739   0.678   6.067
 4666SOL     OW14896   1.714   1.826   0.626
 4666SOL    HW114897   1.795   1.797   0.677
 4666SOL    HW214898   1.740   1.846   0.531
 4667SOL     OW14899   0.733   5.439   4.244
 4667SOL    HW114900   0.752   5.500   4.321
 4667SOL    HW214901   0.637   5.411   4.246
 4668SOL     OW14902   5.298   0.389   5.528
 4668SOL    HW114903   5.322   0.473   5.481
 4668SOL    HW214904   5.199   0.378   5.528
 4669SOL     OW14905   2.149   1.654   2.345
 4669SOL    HW114906   2.057   1.682   2.321
 4669SOL    HW214907   2.150   1.558   2.371
 4670SOL     OW14908   2.481   1.377   4.030
 4670SOL    HW114909   2.506   1.450   4.093
 4670SOL    HW214910   2.385   1.386   4.005
 4671SOL     OW14911   6.011   2.075   2.223
 4671SOL    HW114912   6.048   2.121   2.303
 4671SOL    HW214913   5.911   2.077   2.227
 4672SOL     OW14914   2.644   2.830   5.367
 4672SOL    HW114915   2.594   2.884   5.300
 4672SOL    HW214916   2.736   2.868   5.378
 4673SOL     OW14917   4.618   0.517   2.358
 4673SOL    HW114918   4.600   0.489   2.263
 4673SOL    HW214919   4.628   0.617   2.361
 4674SOL     OW14920   4.784   6.598   5.053
 4674SOL    HW114921   4.811   6.507   5.020
 4674SOL    HW214922   4.811   6.608   5.149
 4675SOL     OW14923   1.275   4.762   0.032
 4675SOL    HW114924   1.214   4.841   0.022
 4675SOL    HW214925   1.361   4.791   0.075
 4676SOL     OW14926   0.871   4.451   3.743
 4676SOL    HW114927   0.950   4.415   3.694
 4676SOL    HW214928   0.894   4.539   3.784
 4677SOL     OW14929   1.532   3.270   0.349
 4677SOL    HW114930   1.485   3.204   0.407
 4677SOL    HW214931   1.553   3.227   0.261
 4678SOL     OW14932   0.858   3.929   1.545
 4678SOL    HW114933   0.848   4.019   1.503
 4678SOL    HW214934   0.777   3.908   1.599
 4679SOL     OW14935   4.159   0.076   2.213
 4679SOL    HW114936   4.207   0.076   2.300
 4679SOL    HW214937   4.133   7.002   2.190
 4680SOL     OW14938   1.874   0.561   6.575
 4680SOL    HW114939   1.953   0.613   6.607
 4680SOL    HW214940   1.905   0.482   6.522
 4681SOL     OW14941   5.239   5.733   2.409
 4681SOL    HW114942   5.279   5.661   2.353
 4681SOL    HW214943   5.152   5.701   2.447
 4682SOL     OW14944   3.376   3.910   6.129
 4682SOL    HW114945   3.437   3.852   6.075
 4682SOL    HW214946   3.430   3.966   6.191
 4683SOL     OW14947   6.515   4.902   3.679
 4683SOL    HW114948   6.589   4.969   3.672
 4683SOL    HW214949   6.546   4.824   3.734
 4684SOL     OW14950   5.390   6.913   5.936
 4684SOL    HW114951   5.453   6.836   5.947
 4684SOL    HW214952   5.438   6.999   5.955
 4685SOL     OW14953   2.945   3.289   4.472
 4685SOL    HW114954   2.971   3.378   4.508
 4685SOL    HW214955   2.909   3.299   4.379
 4686SOL     OW14956   1.702   0.077   0.049
 4686SOL    HW114957   1.758   0.081   0.132
 4686SOL    HW214958   1.605   0.072   0.075
 4687SOL     OW14959   1.685   0.792   2.713
 4687SOL    HW114960   1.594   0.760   2.688
 4687SOL    HW214961   1.724   0.731   2.783
 4688SOL     OW14962   4.999   2.722   5.394
 4688SOL    HW114963   5.044   2.741   5.307
 4688SOL    HW214964   4.989   2.807   5.445
 4689SOL     OW14965   6.978   1.204   0.818
 4689SOL    HW114966   0.013   1.132   0.777
 4689SOL    HW214967   6.930   1.255   0.747
 4690SOL     OW14968   2.901   2.902   0.948
 4690SOL    HW114969   2.812   2.933   0.915
 4690SOL    HW214970   2.949   2.853   0.875
 4691SOL     OW14971   6.364   3.318   1.664
 4691SOL    HW114972   6.324   3.246   1.605
 4691SOL    HW214973   6.331   3.407   1.633
 4692SOL     OW14974   4.984   2.866   2.377
 4692SOL    HW114975   4.908   2.851   2.315
 4692SOL    HW214976   5.007   2.780   2.423
 4693SOL     OW14977   0.705   0.109   2.449
 4693SOL    HW114978   0.710   0.197   2.400
 4693SOL    HW214979   0.752   0.039   2.395
 4694SOL     OW14980   1.983   6.932   6.191
 4694SOL    HW114981   1.989   7.005   6.259
 4694SOL    HW214982   1.895   6.937   6.143
 4695SOL     OW14983   2.074   4.417   2.151
 4695SOL    HW114984   2.002   4.459   2.096
 4695SOL    HW214985   2.104   4.480   2.222
 4696SOL     OW14986   1.615   6.399   6.272
 4696SOL    HW114987   1.570   6.344   6.342
 4696SOL    HW214988   1.708   6.365   6.258
 4697SOL     OW14989   4.479   5.292   1.701
 4697SOL    HW114990   4.566   5.251   1.728
 4697SOL    HW214991   4.460   5.269   1.606
 4698SOL     OW14992   5.683   0.966   4.801
 4698SOL    HW114993   5.757   0.936   4.862
 4698SOL    HW214994   5.625   1.032   4.848
 4699SOL     OW14995   0.750   0.780   2.342
 4699SOL    HW114996   0.790   0.800   2.253
 4699SOL    HW214997   0.789   0.841   2.411
 4700SOL     OW14998   6.292   1.714   2.984
 4700SOL    HW114999   6.323   1.805   2.956
 4700SOL    HW215000   6.296   1.651   2.906
 4701SOL     OW15001   3.020   2.576   1.725
 4701SOL    HW115002   2.945   2.520   1.760
 4701SOL    HW215003   2.993   2.618   1.639
 4702SOL     OW15004   6.018   5.068   0.423
 4702SOL    HW115005   6.040   5.147   0.367
 4702SOL    HW215006   6.015   5.095   0.520
 4703SOL     OW15007   0.456   5.392   4.269
 4703SOL    HW115008   0.365   5.361   4.242
 4703SOL    HW215009   0.449   5.480   4.316
 4704SOL     OW15010   1.862   4.661   4.362
 4704SOL    HW115011   1.819   4.598   4.297
 4704SOL    HW215012   1.961   4.652   4.357
 4705SOL     OW15013   3.503   2.013   1.869
 4705SOL    HW115014   3.556   2.096   1.890
 4705SOL    HW215015   3.491   2.004   1.771
 4706SOL     OW15016   2.310   1.045   0.917
 4706SOL    HW115017   2.364   1.125   0.945
 4706SOL    HW215018   2.261   1.010   0.997
 4707SOL     OW15019   1.332   5.512   1.924
 4707SOL    HW115020   1.418   5.493   1.972
 4707SOL    HW215021   1.347   5.587   1.859
 4708SOL     OW15022   2.087   3.184   6.015
 4708SOL    HW115023   2.112   3.194   5.918
 4708SOL    HW215024   2.133   3.256   6.068
 4709SOL     OW15025   5.566   4.211   5.480
 4709SOL    HW115026   5.498   4.157   5.430
 4709SOL    HW215027   5.531   4.235   5.570
 4710SOL     OW15028   6.171   5.716   5.024
 4710SOL    HW115029   6.135   5.657   4.951
 4710SOL    HW215030   6.265   5.689   5.044
 4711SOL     OW15031   5.336   4.096   2.321
 4711SOL    HW115032   5.326   4.053   2.232
 4711SOL    HW215033   5.378   4.186   2.311
 4712SOL     OW15034   3.836   4.053   5.912
 4712SOL    HW115035   3.826   4.147   5.881
 4712SOL    HW215036   3.795   3.991   5.845
 4713SOL     OW15037   5.803   4.339   0.727
 4713SOL    HW115038   5.850   4.335   0.815
 4713SOL    HW215039   5.704   4.340   0.741
 4714SOL     OW15040   4.170   2.334   6.801
 4714SOL    HW115041   4.157   2.249   6.750
 4714SOL    HW215042   4.081   2.369   6.830
 4715SOL     OW15043   6.576   1.669   2.265
 4715SOL    HW115044   6.515   1.666   2.186
 4715SOL    HW215045   6.582   1.577   2.305
 4716SOL     OW15046   3.135   4.456   5.584
 4716SOL    HW115047   3.203   4.476   5.514
 4716SOL    HW215048   3.057   4.517   5.573
 4717SOL     OW15049   2.031   4.967   5.787
 4717SOL    HW115050   2.031   4.868   5.796
 4717SOL    HW215051   2.082   5.007   5.863
 4718SOL     OW15052   4.876   4.009   1.895
 4718SOL    HW115053   4.856   4.107   1.895
 4718SOL    HW215054   4.798   3.959   1.858
 4719SOL     OW15055   6.231   4.505   3.589
 4719SOL    HW115056   6.162   4.444   3.627
 4719SOL    HW215057   6.320   4.460   3.590
 4720SOL     OW15058   2.229   2.493   6.434
 4720SOL    HW115059   2.142   2.533   6.461
 4720SOL    HW215060   2.217   2.440   6.350
 4721SOL     OW15061   0.589   2.697   2.860
 4721SOL    HW115062   0.558   2.602   2.863
 4721SOL    HW215063   0.675   2.702   2.808
 4722SOL     OW15064   1.010   5.228   6.537
 4722SOL    HW115065   0.950   5.148   6.543
 4722SOL    HW215066   0.959   5.307   6.504
 4723SOL     OW15067   3.009   4.837   6.753
 4723SOL    HW115068   2.963   4.880   6.830
 4723SOL    HW215069   2.982   4.741   6.747
 4724SOL     OW15070   0.417   6.903   4.092
 4724SOL    HW115071   0.339   6.954   4.129
 4724SOL    HW215072   0.411   6.903   3.992
 4725SOL     OW15073   6.436   4.513   1.210
 4725SOL    HW115074   6.504   4.548   1.146
 4725SOL    HW215075   6.350   4.498   1.162
 4726SOL     OW15076   2.023   2.883   5.675
 4726SOL    HW115077   2.121   2.901   5.673
 4726SOL    HW215078   2.007   2.785   5.682
 4727SOL     OW15079   6.618   4.640   1.060
 4727SOL    HW115080   6.605   4.732   1.023
 4727SOL    HW215081   6.715   4.623   1.074
 4728SOL     OW15082   5.296   1.331   3.347
 4728SOL    HW115083   5.362   1.405   3.339
 4728SOL    HW215084   5.204   1.366   3.328
 4729SOL     OW15085   6.074   1.171   2.208
 4729SOL    HW115086   6.130   1.090   2.227
 4729SOL    HW215087   5.980   1.156   2.239
 4730SOL     OW15088   3.696   0.676   3.219
 4730SOL    HW115089   3.735   0.626   3.297
 4730SOL    HW215090   3.602   0.701   3.239
 4731SOL     OW15091   3.267   0.001   1.564
 4731SOL    HW115092   3.236   6.943   1.509
 4731SOL    HW215093   3.197   0.021   1.633
 4732SOL     OW15094   0.268   5.298   4.875
 4732SOL    HW115095   0.323   5.371   4.915
 4732SOL    HW215096   0.230   5.328   4.787
 4733SOL     OW15097   1.316   4.180   2.390
 4733SOL    HW115098   1.296   4.273   2.423
 4733SOL    HW215099   1.401   4.181   2.339
 4734SOL     OW15100   4.894   4.013   6.594
 4734SOL    HW115101   4.868   4.101   6.555
 4734SOL    HW215102   4.854   4.004   6.685
 4735SOL     OW15103   0.215   0.693   4.849
 4735SOL    HW115104   0.230   0.700   4.751
 4735SOL    HW215105   0.139   0.754   4.875
 4736SOL     OW15106   6.343   0.799   3.703
 4736SOL    HW115107   6.243   0.800   3.707
 4736SOL    HW215108   6.380   0.853   3.778
 4737SOL     OW15109   2.162   5.357   0.452
 4737SOL    HW115110   2.083   5.392   0.401
 4737SOL    HW215111   2.160   5.257   0.451
 4738SOL     OW15112   0.775   5.731   4.312
 4738SOL    HW115113   0.771   5.818   4.360
 4738SOL    HW215114   0.861   5.685   4.333
 4739SOL     OW15115   5.853   3.734   3.100
 4739SOL    HW115116   5.836   3.658   3.037
 4739SOL    HW215117   5.807   3.816   3.066
 4740SOL     OW15118   1.810   6.941   0.646
 4740SOL    HW115119   1.821   6.917   0.742
 4740SOL    HW215120   1.713   6.959   0.627
 4741SOL     OW15121   5.780   4.534   0.934
 4741SOL    HW115122   5.712   4.550   1.005
 4741SOL    HW215123   5.751   4.579   0.849
 4742SOL     OW15124   2.272   5.600   2.162
 4742SOL    HW115125   2.309   5.609   2.254
 4742SOL    HW215126   2.189   5.654   2.154
 4743SOL     OW15127   2.666   3.681   0.668
 4743SOL    HW115128   2.689   3.776   0.650
 4743SOL    HW215129   2.750   3.628   0.680
 4744SOL     OW15130   2.603   2.076   5.070
 4744SOL    HW115131   2.606   2.111   5.164
 4744SOL    HW215132   2.570   1.981   5.071
 4745SOL     OW15133   4.367   5.427   4.672
 4745SOL    HW115134   4.439   5.365   4.640
 4745SOL    HW215135   4.286   5.374   4.695
 4746SOL     OW15136   5.522   1.499   1.654
 4746SOL    HW115137   5.606   1.528   1.698
 4746SOL    HW215138   5.543   1.444   1.573
 4747SOL     OW15139   0.823   3.094   2.412
 4747SOL    HW115140   0.825   2.994   2.414
 4747SOL    HW215141   0.886   3.127   2.342
 4748SOL     OW15142   2.414   0.079   0.728
 4748SOL    HW115143   2.327   0.053   0.686
 4748SOL    HW215144   2.408   0.172   0.763
 4749SOL     OW15145   3.660   0.535   0.317
 4749SOL    HW115146   3.673   0.631   0.340
 4749SOL    HW215147   3.733   0.481   0.359
 4750SOL     OW15148   0.788   1.656   4.778
 4750SOL    HW115149   0.711   1.627   4.835
 4750SOL    HW215150   0.753   1.706   4.699
 4751SOL     OW15151   1.115   3.620   6.460
 4751SOL    HW115152   1.165   3.672   6.392
 4751SOL    HW215153   1.036   3.576   6.416
 4752SOL     OW15154   2.662   6.055   1.384
 4752SOL    HW115155   2.635   6.056   1.481
 4752SOL    HW215156   2.760   6.076   1.377
 4753SOL     OW15157   0.633   0.182   6.311
 4753SOL    HW115158   0.678   0.095   6.290
 4753SOL    HW215159   0.556   0.167   6.373
 4754SOL     OW15160   1.185   0.890   6.052
 4754SOL    HW115161   1.122   0.849   5.985
 4754SOL    HW215162   1.275   0.847   6.044
 4755SOL     OW15163   2.546   0.025   2.585
 4755SOL    HW115164   2.596   7.001   2.510
 4755SOL    HW215165   2.486   0.096   2.547
 4756SOL     OW15166   5.569   1.605   1.306
 4756SOL    HW115167   5.502   1.675   1.330
 4756SOL    HW215168   5.659   1.633   1.339
 4757SOL     OW15169   2.423   1.944   0.951
 4757SOL    HW115170   2.349   1.897   0.903
 4757SOL    HW215171   2.417   1.923   1.049
 4758SOL     OW15172   6.002   3.336   6.004
 4758SOL    HW115173   6.058   3.258   5.977
 4758SOL    HW215174   6.051   3.392   6.070
 4759SOL     OW15175   6.163   4.165   6.427
 4759SOL    HW115176   6.158   4.141   6.330
 4759SOL    HW215177   6.100   4.106   6.478
 4760SOL     OW15178   2.008   2.914   0.057
 4760SOL    HW115179   2.055   2.829   0.033
 4760SOL    HW215180   2.059   2.991   0.019
 4761SOL     OW15181   2.082   5.984   6.297
 4761SOL    HW115182   2.021   5.977   6.375
 4761SOL    HW215183   2.139   5.902   6.292
 4762SOL     OW15184   3.666   0.094   2.382
 4762SOL    HW115185   3.708   0.156   2.316
 4762SOL    HW215186   3.632   0.013   2.334
 4763SOL     OW15187   5.659   5.814   5.317
 4763SOL    HW115188   5.656   5.878   5.394
 4763SOL    HW215189   5.566   5.790   5.289
 4764SOL     OW15190   3.875   3.462   4.086
 4764SOL    HW115191   3.958   3.506   4.122
 4764SOL    HW215192   3.845   3.511   4.004
 4765SOL     OW15193   6.122   4.983   6.602
 4765SOL    HW115194   6.032   5.011   6.635
 4765SOL    HW215195   6.137   5.020   6.510
 4766SOL     OW15196   3.161   0.654   3.266
 4766SOL    HW115197   3.162   0.698   3.176
 4766SOL    HW215198   3.066   0.648   3.298
 4767SOL     OW15199   4.341   0.221   0.110
 4767SOL    HW115200   4.419   0.166   0.080
 4767SOL    HW215201   4.323   0.293   0.043
 4768SOL     OW15202   1.681   0.896   5.162
 4768SOL    HW115203   1.612   0.850   5.218
 4768SOL    HW215204   1.772   0.863   5.188
 4769SOL     OW15205   5.047   1.186   1.899
 4769SOL    HW115206   5.144   1.196   1.875
 4769SOL    HW215207   5.018   1.092   1.882
 4770SOL     OW15208   1.948   0.708   4.288
 4770SOL    HW115209   2.026   0.765   4.261
 4770SOL    HW215210   1.901   0.752   4.365
 4771SOL     OW15211   4.221   3.969   5.484
 4771SOL    HW115212   4.210   3.924   5.395
 4771SOL    HW215213   4.246   4.065   5.470
 4772SOL     OW15214   2.788   2.476   6.910
 4772SOL    HW115215   2.716   2.451   6.974
 4772SOL    HW215216   2.809   2.397   6.852
 4773SOL     OW15217   0.299   4.998   4.799
 4773SOL    HW115218   0.261   5.090   4.790
 4773SOL    HW215219   0.397   5.004   4.814
 4774SOL     OW15220   1.324   4.204   6.820
 4774SOL    HW115221   1.236   4.214   6.866
 4774SOL    HW215222   1.339   4.283   6.760
 4775SOL     OW15223   1.982   2.116   2.334
 4775SOL    HW115224   2.075   2.078   2.342
 4775SOL    HW215225   1.928   2.088   2.414
 4776SOL     OW15226   4.354   4.865   2.353
 4776SOL    HW115227   4.373   4.959   2.382
 4776SOL    HW215228   4.422   4.804   2.394
 4777SOL     OW15229   2.534   3.810   1.453
 4777SOL    HW115230   2.483   3.737   1.498
 4777SOL    HW215231   2.508   3.814   1.357
 4778SOL     OW15232   4.969   3.253   2.853
 4778SOL    HW115233   4.946   3.339   2.807
 4778SOL    HW215234   5.065   3.231   2.836
 4779SOL     OW15235   4.771   1.452   2.711
 4779SOL    HW115236   4.769   1.386   2.787
 4779SOL    HW215237   4.678   1.473   2.683
 4780SOL     OW15238   1.853   1.285   5.227
 4780SOL    HW115239   1.873   1.312   5.321
 4780SOL    HW215240   1.910   1.207   5.201
 4781SOL     OW15241   1.873   5.482   2.625
 4781SOL    HW115242   1.928   5.507   2.705
 4781SOL    HW215243   1.864   5.383   2.621
 4782SOL     OW15244   5.979   5.881   0.003
 4782SOL    HW115245   5.893   5.830   0.007
 4782SOL    HW215246   6.030   5.867   0.088
 4783SOL     OW15247   6.110   4.325   2.635
 4783SOL    HW115248   6.127   4.296   2.541
 4783SOL    HW215249   6.013   4.347   2.646
 4784SOL     OW15250   4.962   4.938   5.360
 4784SOL    HW115251   4.985   4.842   5.374
 4784SOL    HW215252   5.027   4.979   5.296
 4785SOL     OW15253   5.712   6.854   0.557
 4785SOL    HW115254   5.795   6.829   0.608
 4785SOL    HW215255   5.686   6.779   0.496
 4786SOL     OW15256   1.333   3.435   2.112
 4786SOL    HW115257   1.375   3.346   2.129
 4786SOL    HW215258   1.257   3.448   2.176
 4787SOL     OW15259   4.449   2.302   3.489
 4787SOL    HW115260   4.448   2.389   3.440
 4787SOL    HW215261   4.543   2.281   3.517
 4788SOL     OW15262   2.328   0.087   5.122
 4788SOL    HW115263   2.316   0.091   5.023
 4788SOL    HW215264   2.254   0.033   5.162
 4789SOL     OW15265   5.477   6.329   0.157
 4789SOL    HW115266   5.556   6.286   0.114
 4789SOL    HW215267   5.505   6.369   0.245
 4790SOL     OW15268   5.151   0.069   6.710
 4790SOL    HW115269   5.181   0.052   6.616
 4790SOL    HW215270   5.177   7.011   6.768
 4791SOL     OW15271   4.763   1.852   3.606
 4791SOL    HW115272   4.685   1.900   3.646
 4791SOL    HW215273   4.798   1.785   3.672
 4792SOL     OW15274   2.838   2.569   1.106
 4792SOL    HW115275   2.868   2.525   1.190
 4792SOL    HW215276   2.881   2.659   1.097
 4793SOL     OW15277   0.744   0.154   0.143
 4793SOL    HW115278   0.757   0.180   0.047
 4793SOL    HW215279   0.648   0.164   0.168
 4794SOL     OW15280   5.304   1.031   1.992
 4794SOL    HW115281   5.267   0.943   1.961
 4794SOL    HW215282   5.319   1.090   1.912
 4795SOL     OW15283   6.276   2.983   4.291
 4795SOL    HW115284   6.371   2.952   4.301
 4795SOL    HW215285   6.255   2.993   4.194
 4796SOL     OW15286   5.799   3.504   0.485
 4796SOL    HW115287   5.810   3.416   0.438
 4796SOL    HW215288   5.884   3.556   0.480
 4797SOL     OW15289   1.106   5.216   4.502
 4797SOL    HW115290   1.044   5.140   4.480
 4797SOL    HW215291   1.144   5.203   4.593
 4798SOL     OW15292   6.744   4.977   5.877
 4798SOL    HW115293   6.670   5.038   5.905
 4798SOL    HW215294   6.829   5.005   5.922
 4799SOL     OW15295   4.856   1.347   4.434
 4799SOL    HW115296   4.770   1.387   4.468
 4799SOL    HW215297   4.838   1.295   4.351
 4800SOL     OW15298   1.990   3.084   4.148
 4800SOL    HW115299   1.948   3.041   4.068
 4800SOL    HW215300   1.942   3.054   4.230
 4801SOL     OW15301   0.104   2.477   0.510
 4801SOL    HW115302   0.117   2.503   0.605
 4801SOL    HW215303   0.163   2.532   0.451
 4802SOL     OW15304   1.968   0.074   1.834
 4802SOL    HW115305   1.939   0.096   1.927
 4802SOL    HW215306   2.068   0.073   1.830
 4803SOL     OW15307   1.444   0.450   1.068
 4803SOL    HW115308   1.448   0.524   1.136
 4803SOL    HW215309   1.422   0.489   0.978
 4804SOL     OW15310   4.218   6.126   7.015
 4804SOL    HW115311   4.266   6.213   7.018
 4804SOL    HW215312   4.268   6.062   6.955
 4805SOL     OW15313   0.202   0.435   1.494
 4805SOL    HW115314   0.188   0.428   1.395
 4805SOL    HW215315   0.286   0.487   1.512
 4806SOL     OW15316   0.155   2.434   3.702
 4806SOL    HW115317   0.155   2.344   3.659
 4806SOL    HW215318   0.064   2.454   3.738
 4807SOL     OW15319   0.892   6.838   2.435
 4807SOL    HW115320   0.844   6.783   2.367
 4807SOL    HW215321   0.872   6.804   2.527
 4808SOL     OW15322   5.491   2.773   0.472
 4808SOL    HW115323   5.434   2.854   0.484
 4808SOL    HW215324   5.521   2.738   0.561
 4809SOL     OW15325   4.656   6.972   0.374
 4809SOL    HW115326   4.673   7.017   0.461
 4809SOL    HW215327   4.731   6.993   0.310
 4810SOL     OW15328   1.901   6.468   1.055
 4810SOL    HW115329   1.943   6.557   1.075
 4810SOL    HW215330   1.858   6.432   1.137
 4811SOL     OW15331   5.244   3.961   3.692
 4811SOL    HW115332   5.323   4.011   3.727
 4811SOL    HW215333   5.201   3.908   3.766
 4812SOL     OW15334   6.113   5.248   3.869
 4812SOL    HW115335   6.174   5.173   3.893
 4812SOL    HW215336   6.163   5.313   3.811
 4813SOL     OW15337   5.707   2.994   3.269
 4813SOL    HW115338   5.692   3.092   3.262
 4813SOL    HW215339   5.801   2.972   3.241
 4814SOL     OW15340   6.369   3.008   0.874
 4814SOL    HW115341   6.319   2.922   0.882
 4814SOL    HW215342   6.398   3.021   0.779
 4815SOL     OW15343   4.736   0.674   3.158
 4815SOL    HW115344   4.752   0.723   3.072
 4815SOL    HW215345   4.681   0.730   3.219
 4816SOL     OW15346   5.007   5.218   3.485
 4816SOL    HW115347   4.967   5.280   3.417
 4816SOL    HW215348   5.101   5.195   3.458
 4817SOL     OW15349   6.237   1.386   6.826
 4817SOL    HW115350   6.178   1.463   6.800
 4817SOL    HW215351   6.222   1.364   6.923
 4818SOL     OW15352   0.197   5.758   3.548
 4818SOL    HW115353   0.249   5.693   3.603
 4818SOL    HW215354   0.252   5.840   3.532
 4819SOL     OW15355   2.204   3.388   0.825
 4819SOL    HW115356   2.170   3.461   0.766
 4819SOL    HW215357   2.262   3.327   0.771
 4820SOL     OW15358   7.008   3.286   2.334
 4820SOL    HW115359   0.001   3.242   2.245
 4820SOL    HW215360   0.018   3.223   2.406
 4821SOL     OW15361   0.338   5.575   3.745
 4821SOL    HW115362   0.265   5.515   3.710
 4821SOL    HW215363   0.407   5.519   3.791
 4822SOL     OW15364   2.320   4.863   4.062
 4822SOL    HW115365   2.269   4.783   4.094
 4822SOL    HW215366   2.368   4.905   4.139
 4823SOL     OW15367   1.795   2.712   0.437
 4823SOL    HW115368   1.705   2.688   0.401
 4823SOL    HW215369   1.852   2.748   0.363
 4824SOL     OW15370   6.172   1.644   0.292
 4824SOL    HW115371   6.122   1.724   0.326
 4824SOL    HW215372   6.107   1.572   0.268
 4825SOL     OW15373   1.146   6.491   3.667
 4825SOL    HW115374   1.200   6.539   3.598
 4825SOL    HW215375   1.049   6.493   3.640
 4826SOL     OW15376   4.315   6.244   1.016
 4826SOL    HW115377   4.268   6.325   0.981
 4826SOL    HW215378   4.253   6.191   1.074
 4827SOL     OW15379   6.008   1.207   0.647
 4827SOL    HW115380   6.092   1.167   0.612
 4827SOL    HW215381   5.960   1.140   0.704
 4828SOL     OW15382   5.031   0.909   5.789
 4828SOL    HW115383   5.095   0.835   5.804
 4828SOL    HW215384   4.986   0.933   5.875
 4829SOL     OW15385   4.298   6.210   5.504
 4829SOL    HW115386   4.345   6.264   5.435
 4829SOL    HW215387   4.356   6.133   5.532
 4830SOL     OW15388   1.448   6.426   3.978
 4830SOL    HW115389   1.366   6.480   3.995
 4830SOL    HW215390   1.432   6.366   3.899
 4831SOL     OW15391   3.777   4.359   5.923
 4831SOL    HW115392   3.798   4.448   5.965
 4831SOL    HW215393   3.678   4.347   5.918
 4832SOL     OW15394   4.149   3.679   4.997
 4832SOL    HW115395   4.175   3.668   4.901
 4832SOL    HW215396   4.129   3.589   5.036
 4833SOL     OW15397   6.046   2.459   5.300
 4833SOL    HW115398   6.021   2.379   5.246
 4833SOL    HW215399   5.996   2.459   5.386
 4834SOL     OW15400   0.478   5.831   1.414
 4834SOL    HW115401   0.424   5.757   1.374
 4834SOL    HW215402   0.451   5.844   1.509
 4835SOL     OW15403   6.989   3.155   5.880
 4835SOL    HW115404   6.961   3.075   5.934
 4835SOL    HW215405   0.066   3.172   5.895
 4836SOL     OW15406   4.842   1.705   5.616
 4836SOL    HW115407   4.833   1.628   5.553
 4836SOL    HW215408   4.767   1.769   5.601
 4837SOL     OW15409   1.393   3.540   4.587
 4837SOL    HW115410   1.477   3.487   4.595
 4837SOL    HW215411   1.315   3.477   4.584
 4838SOL     OW15412   1.762   3.907   6.226
 4838SOL    HW115413   1.829   3.951   6.167
 4838SOL    HW215414   1.732   3.821   6.185
 4839SOL     OW15415   2.773   1.361   2.217
 4839SOL    HW115416   2.802   1.417   2.294
 4839SOL    HW215417   2.721   1.282   2.251
 4840SOL     OW15418   5.226   3.141   4.742
 4840SOL    HW115419   5.185   3.192   4.818
 4840SOL    HW215420   5.302   3.193   4.704
 4841SOL     OW15421   2.991   5.857   3.363
 4841SOL    HW115422   2.915   5.920   3.378
 4841SOL    HW215423   2.994   5.832   3.266
 4842SOL     OW15424   4.202   5.831   3.721
 4842SOL    HW115425   4.219   5.904   3.654
 4842SOL    HW215426   4.149   5.758   3.679
 4843SOL     OW15427   5.666   1.132   0.849
 4843SOL    HW115428   5.721   1.087   0.919
 4843SOL    HW215429   5.668   1.077   0.765
 4844SOL     OW15430   1.396   5.144   6.738
 4844SOL    HW115431   1.448   5.225   6.710
 4844SOL    HW215432   1.379   5.086   6.658
 4845SOL     OW15433   4.896   4.141   4.864
 4845SOL    HW115434   4.900   4.041   4.857
 4845SOL    HW215435   4.818   4.168   4.921
 4846SOL     OW15436   6.674   4.153   5.038
 4846SOL    HW115437   6.729   4.104   5.105
 4846SOL    HW215438   6.597   4.096   5.009
 4847SOL     OW15439   3.314   0.082   0.422
 4847SOL    HW115440   3.351   0.150   0.484
 4847SOL    HW215441   3.342   7.011   0.451
 4848SOL     OW15442   4.676   1.802   4.065
 4848SOL    HW115443   4.682   1.898   4.037
 4848SOL    HW215444   4.767   1.760   4.059
 4849SOL     OW15445   1.338   5.967   2.044
 4849SOL    HW115446   1.395   6.047   2.063
 4849SOL    HW215447   1.375   5.887   2.092
 4850SOL     OW15448   3.470   6.359   1.975
 4850SOL    HW115449   3.397   6.346   1.908
 4850SOL    HW215450   3.543   6.415   1.934
 4851SOL     OW15451   4.338   4.726   6.979
 4851SOL    HW115452   4.367   4.639   7.018
 4851SOL    HW215453   4.354   4.725   6.880
 4852SOL     OW15454   4.752   4.736   5.788
 4852SOL    HW115455   4.763   4.819   5.734
 4852SOL    HW215456   4.656   4.709   5.788
 4853SOL     OW15457   4.170   0.444   2.731
 4853SOL    HW115458   4.116   0.412   2.809
 4853SOL    HW215459   4.115   0.436   2.647
 4854SOL     OW15460   4.155   6.621   2.476
 4854SOL    HW115461   4.239   6.614   2.531
 4854SOL    HW215462   4.169   6.577   2.388
 4855SOL     OW15463   4.099   4.665   5.651
 4855SOL    HW115464   4.008   4.637   5.619
 4855SOL    HW215465   4.160   4.673   5.572
 4856SOL     OW15466   0.604   2.392   2.648
 4856SOL    HW115467   0.690   2.441   2.661
 4856SOL    HW215468   0.616   2.321   2.578
 4857SOL     OW15469   1.707   2.139   5.969
 4857SOL    HW115470   1.654   2.105   5.891
 4857SOL    HW215471   1.768   2.067   6.001
 4858SOL     OW15472   1.401   5.334   4.602
 4858SOL    HW115473   1.471   5.339   4.531
 4858SOL    HW215474   1.407   5.246   4.648
 4859SOL     OW15475   6.556   5.089   3.400
 4859SOL    HW115476   6.597   4.998   3.405
 4859SOL    HW215477   6.466   5.083   3.357
 4860SOL     OW15478   4.338   5.310   1.457
 4860SOL    HW115479   4.300   5.232   1.406
 4860SOL    HW215480   4.294   5.394   1.426
 4861SOL     OW15481   6.263   5.328   5.290
 4861SOL    HW115482   6.246   5.299   5.196
 4861SOL    HW215483   6.244   5.426   5.297
 4862SOL     OW15484   2.178   5.789   4.694
 4862SOL    HW115485   2.100   5.850   4.698
 4862SOL    HW215486   2.195   5.762   4.599
 4863SOL     OW15487   5.469   1.257   2.532
 4863SOL    HW115488   5.489   1.344   2.487
 4863SOL    HW215489   5.552   1.222   2.574
 4864SOL     OW15490   2.032   3.130   1.660
 4864SOL    HW115491   2.117   3.178   1.681
 4864SOL    HW215492   2.053   3.039   1.623
 4865SOL     OW15493   3.984   6.779   5.027
 4865SOL    HW115494   3.914   6.824   4.971
 4865SOL    HW215495   4.072   6.824   5.013
 4866SOL     OW15496   6.986   5.447   1.435
 4866SOL    HW115497   0.049   5.475   1.483
 4866SOL    HW215498   7.002   5.449   1.337
 4867SOL     OW15499   5.573   4.961   5.513
 4867SOL    HW115500   5.668   4.990   5.524
 4867SOL    HW215501   5.569   4.885   5.448
 4868SOL     OW15502   1.689   6.198   1.837
 4868SOL    HW115503   1.745   6.151   1.905
 4868SOL    HW215504   1.653   6.283   1.877
 4869SOL     OW15505   0.038   1.436   1.966
 4869SOL    HW115506   7.007   1.521   1.982
 4869SOL    HW215507   7.004   1.358   1.997
 4870SOL     OW15508   6.273   0.598   0.884
 4870SOL    HW115509   6.292   0.550   0.798
 4870SOL    HW215510   6.285   0.697   0.870
 4871SOL     OW15511   1.699   3.005   4.847
 4871SOL    HW115512   1.714   3.034   4.752
 4871SOL    HW215513   1.602   3.008   4.868
 4872SOL     OW15514   1.369   1.772   2.742
 4872SOL    HW115515   1.358   1.679   2.775
 4872SOL    HW215516   1.394   1.832   2.819
 4873SOL     OW15517   1.162   6.828   5.199
 4873SOL    HW115518   1.241   6.890   5.200
 4873SOL    HW215519   1.194   6.734   5.209
 4874SOL     OW15520   6.474   2.509   3.828
 4874SOL    HW115521   6.517   2.453   3.900
 4874SOL    HW215522   6.376   2.517   3.847
 4875SOL     OW15523   0.385   2.898   6.549
 4875SOL    HW115524   0.400   2.952   6.631
 4875SOL    HW215525   0.329   2.818   6.571
 4876SOL     OW15526   6.617   1.242   6.736
 4876SOL    HW115527   6.597   1.147   6.762
 4876SOL    HW215528   6.672   1.286   6.806
 4877SOL     OW15529   4.582   2.031   1.461
 4877SOL    HW115530   4.595   1.984   1.549
 4877SOL    HW215531   4.569   2.128   1.477
 4878SOL     OW15532   1.205   2.936   1.882
 4878SOL    HW115533   1.200   2.847   1.837
 4878SOL    HW215534   1.292   2.944   1.931
 4879SOL     OW15535   4.065   6.142   3.990
 4879SOL    HW115536   3.983   6.170   4.039
 4879SOL    HW215537   4.082   6.045   4.006
 4880SOL     OW15538   6.200   1.666   5.700
 4880SOL    HW115539   6.233   1.577   5.667
 4880SOL    HW215540   6.109   1.654   5.741
 4881SOL     OW15541   2.685   5.818   6.070
 4881SOL    HW115542   2.711   5.914   6.078
 4881SOL    HW215543   2.643   5.802   5.981
 4882SOL     OW15544   5.342   5.578   6.864
 4882SOL    HW115545   5.343   5.517   6.785
 4882SOL    HW215546   5.383   5.531   6.942
 4883SOL     OW15547   6.113   5.465   0.077
 4883SOL    HW115548   6.047   5.538   0.093
 4883SOL    HW215549   6.202   5.504   0.054
 4884SOL     OW15550   3.894   6.541   2.023
 4884SOL    HW115551   3.827   6.478   2.062
 4884SOL    HW215552   3.986   6.505   2.039
 4885SOL     OW15553   1.591   0.594   2.078
 4885SOL    HW115554   1.569   0.527   2.149
 4885SOL    HW215555   1.617   0.546   1.994
 4886SOL     OW15556   6.218   0.714   5.624
 4886SOL    HW115557   6.183   0.780   5.557
 4886SOL    HW215558   6.141   0.667   5.667
 4887SOL     OW15559   0.670   1.474   5.118
 4887SOL    HW115560   0.662   1.573   5.130
 4887SOL    HW215561   0.616   1.428   5.189
 4888SOL     OW15562   4.016   5.732   1.730
 4888SOL    HW115563   4.064   5.646   1.742
 4888SOL    HW215564   4.004   5.750   1.632
 4889SOL     OW15565   1.630   3.121   6.727
 4889SOL    HW115566   1.658   3.175   6.648
 4889SOL    HW215567   1.689   3.144   6.805
 4890SOL     OW15568   0.335   0.438   4.486
 4890SOL    HW115569   0.432   0.441   4.459
 4890SOL    HW215570   0.306   0.530   4.512
 4891SOL     OW15571   1.131   4.629   0.547
 4891SOL    HW115572   1.092   4.601   0.460
 4891SOL    HW215573   1.217   4.678   0.531
 4892SOL     OW15574   1.997   5.673   2.154
 4892SOL    HW115575   1.996   5.590   2.099
 4892SOL    HW215576   1.909   5.719   2.148
 4893SOL     OW15577   0.310   3.786   6.045
 4893SOL    HW115578   0.354   3.699   6.022
 4893SOL    HW215579   0.334   3.812   6.138
 4894SOL     OW15580   0.523   6.819   3.390
 4894SOL    HW115581   0.464   6.844   3.313
 4894SOL    HW215582   0.577   6.739   3.365
 4895SOL     OW15583   6.348   3.652   6.655
 4895SOL    HW115584   6.342   3.669   6.754
 4895SOL    HW215585   6.341   3.554   6.638
 4896SOL     OW15586   4.328   0.103   4.419
 4896SOL    HW115587   4.267   0.026   4.402
 4896SOL    HW215588   4.274   0.184   4.442
 4897SOL     OW15589   2.728   5.843   6.364
 4897SOL    HW115590   2.791   5.785   6.314
 4897SOL    HW215591   2.716   5.930   6.316
 4898SOL     OW15592   5.523   2.605   4.889
 4898SOL    HW115593   5.482   2.683   4.843
 4898SOL    HW215594   5.511   2.614   4.988
 4899SOL     OW15595   6.045   4.553   4.152
 4899SOL    HW115596   6.015   4.543   4.057
 4899SOL    HW215597   6.138   4.590   4.153
 4900SOL     OW15598   0.970   6.722   5.008
 4900SOL    HW115599   0.959   6.783   4.929
 4900SOL    HW215600   1.036   6.762   5.071
 4901SOL     OW15601   6.338   6.357   3.133
 4901SOL    HW115602   6.288   6.435   3.094
 4901SOL    HW215603   6.282   6.275   3.127
 4902SOL     OW15604   3.693   5.024   0.997
 4902SOL    HW115605   3.659   5.070   0.914
 4902SOL    HW215606   3.703   4.926   0.979
 4903SOL     OW15607   6.131   5.200   5.890
 4903SOL    HW115608   6.128   5.143   5.809
 4903SOL    HW215609   6.141   5.143   5.972
 4904SOL     OW15610   2.777   0.775   3.506
 4904SOL    HW115611   2.679   0.760   3.493
 4904SOL    HW215612   2.795   0.804   3.599
 4905SOL     OW15613   6.426   3.612   2.997
 4905SOL    HW115614   6.506   3.552   2.999
 4905SOL    HW215615   6.442   3.686   2.932
 4906SOL     OW15616   4.994   0.492   1.514
 4906SOL    HW115617   5.021   0.433   1.438
 4906SOL    HW215618   5.011   0.444   1.600
 4907SOL     OW15619   2.378   2.023   1.685
 4907SOL    HW115620   2.283   2.016   1.716
 4907SOL    HW215621   2.427   2.090   1.741
 4908SOL     OW15622   4.797   5.656   6.500
 4908SOL    HW115623   4.816   5.626   6.407
 4908SOL    HW215624   4.698   5.662   6.514
 4909SOL     OW15625   6.418   6.693   5.538
 4909SOL    HW115626   6.462   6.723   5.453
 4909SOL    HW215627   6.396   6.772   5.594
 4910SOL     OW15628   4.793   6.365   5.644
 4910SOL    HW115629   4.779   6.464   5.650
 4910SOL    HW215630   4.834   6.343   5.556
 4911SOL     OW15631   0.323   3.663   6.741
 4911SOL    HW115632   0.403   3.702   6.695
 4911SOL    HW215633   0.271   3.735   6.785
 4912SOL     OW15634   2.053   2.895   1.558
 4912SOL    HW115635   2.110   2.837   1.502
 4912SOL    HW215636   1.986   2.942   1.500
 4913SOL     OW15637   2.530   2.898   1.686
 4913SOL    HW115638   2.501   2.934   1.598
 4913SOL    HW215639   2.455   2.844   1.726
 4914SOL     OW15640   1.443   6.484   2.938
 4914SOL    HW115641   1.542   6.470   2.925
 4914SOL    HW215642   1.393   6.413   2.887
 4915SOL     OW15643   3.381   6.601   3.768
 4915SOL    HW115644   3.351   6.506   3.770
 4915SOL    HW215645   3.410   6.625   3.676
 4916SOL     OW15646   0.954   1.665   1.635
 4916SOL    HW115647   0.979   1.752   1.592
 4916SOL    HW215648   0.940   1.595   1.565
 4917SOL     OW15649   1.530   3.894   6.836
 4917SOL    HW115650   1.496   3.923   6.925
 4917SOL    HW215651   1.483   3.944   6.763
 4918SOL     OW15652   2.440   0.232   3.970
 4918SOL    HW115653   2.394   0.246   3.883
 4918SOL    HW215654   2.382   0.265   4.045
 4919SOL     OW15655   2.442   3.115   1.490
 4919SOL    HW115656   2.494   3.195   1.458
 4919SOL    HW215657   2.373   3.090   1.422
 4920SOL     OW15658   3.594   1.049   0.344
 4920SOL    HW115659   3.571   0.985   0.270
 4920SOL    HW215660   3.665   1.008   0.402
 4921SOL     OW15661   6.400   5.211   2.005
 4921SOL    HW115662   6.483   5.187   1.955
 4921SOL    HW215663   6.323   5.158   1.969
 4922SOL     OW15664   1.057   2.705   5.918
 4922SOL    HW115665   0.993   2.762   5.969
 4922SOL    HW215666   1.107   2.646   5.981
 4923SOL     OW15667   2.863   1.952   6.542
 4923SOL    HW115668   2.807   1.943   6.625
 4923SOL    HW215669   2.894   2.046   6.533
 4924SOL     OW15670   0.504   3.031   4.127
 4924SOL    HW115671   0.592   3.061   4.162
 4924SOL    HW215672   0.505   3.032   4.027
 4925SOL     OW15673   4.518   5.211   5.312
 4925SOL    HW115674   4.577   5.244   5.237
 4925SOL    HW215675   4.450   5.147   5.275
 4926SOL     OW15676   4.184   3.344   0.635
 4926SOL    HW115677   4.269   3.295   0.648
 4926SOL    HW215678   4.111   3.280   0.612
 4927SOL     OW15679   3.533   3.949   1.971
 4927SOL    HW115680   3.571   4.039   1.994
 4927SOL    HW215681   3.452   3.932   2.028
 4928SOL     OW15682   0.187   0.878   6.850
 4928SOL    HW115683   0.102   0.898   6.899
 4928SOL    HW215684   0.263   0.873   6.915
 4929SOL     OW15685   0.883   4.635   4.135
 4929SOL    HW115686   0.886   4.684   4.222
 4929SOL    HW215687   0.797   4.584   4.129
 4930SOL     OW15688   0.121   3.221   0.701
 4930SOL    HW115689   0.143   3.317   0.683
 4930SOL    HW215690   0.125   3.169   0.615
 4931SOL     OW15691   5.568   6.867   1.184
 4931SOL    HW115692   5.547   6.956   1.144
 4931SOL    HW215693   5.666   6.849   1.176
 4932SOL     OW15694   3.553   1.253   1.270
 4932SOL    HW115695   3.546   1.177   1.335
 4932SOL    HW215696   3.492   1.236   1.192
 4933SOL     OW15697   2.947   0.084   4.844
 4933SOL    HW115698   2.863   0.049   4.886
 4933SOL    HW215699   3.025   0.027   4.873
 4934SOL     OW15700   1.763   5.740   5.218
 4934SOL    HW115701   1.783   5.648   5.251
 4934SOL    HW215702   1.805   5.807   5.278
 4935SOL     OW15703   2.061   2.530   1.044
 4935SOL    HW115704   2.061   2.608   0.981
 4935SOL    HW215705   2.131   2.544   1.114
 4936SOL     OW15706   6.427   4.054   1.477
 4936SOL    HW115707   6.482   4.030   1.397
 4936SOL    HW215708   6.474   4.124   1.531
 4937SOL     OW15709   0.694   3.278   4.777
 4937SOL    HW115710   0.711   3.285   4.875
 4937SOL    HW215711   0.600   3.306   4.758
 4938SOL     OW15712   3.423   4.229   1.340
 4938SOL    HW115713   3.483   4.306   1.317
 4938SOL    HW215714   3.377   4.247   1.427
 4939SOL     OW15715   1.416   1.207   1.253
 4939SOL    HW115716   1.405   1.301   1.222
 4939SOL    HW215717   1.326   1.164   1.263
 4940SOL     OW15718   1.292   1.967   5.720
 4940SOL    HW115719   1.239   1.967   5.805
 4940SOL    HW215720   1.235   2.004   5.646
 4941SOL     OW15721   3.971   2.192   5.791
 4941SOL    HW115722   3.929   2.198   5.700
 4941SOL    HW215723   4.004   2.099   5.807
 4942SOL     OW15724   6.796   1.129   2.753
 4942SOL    HW115725   6.880   1.125   2.806
 4942SOL    HW215726   6.802   1.205   2.688
 4943SOL     OW15727   4.685   2.361   6.425
 4943SOL    HW115728   4.765   2.420   6.424
 4943SOL    HW215729   4.627   2.384   6.503
 4944SOL     OW15730   1.133   4.926   0.262
 4944SOL    HW115731   1.151   4.830   0.282
 4944SOL    HW215732   1.146   4.980   0.345
 4945SOL     OW15733   2.464   0.342   5.367
 4945SOL    HW115734   2.384   0.344   5.306
 4945SOL    HW215735   2.462   0.421   5.427
 4946SOL     OW15736   2.742   5.929   0.622
 4946SOL    HW115737   2.832   5.935   0.666
 4946SOL    HW215738   2.735   6.000   0.552
 4947SOL     OW15739   0.846   0.215   1.341
 4947SOL    HW115740   0.884   0.306   1.358
 4947SOL    HW215741   0.748   0.215   1.362
 4948SOL     OW15742   1.199   2.580   2.018
 4948SOL    HW115743   1.235   2.639   1.945
 4948SOL    HW215744   1.127   2.628   2.068
 4949SOL     OW15745   6.234   4.656   5.869
 4949SOL    HW115746   6.330   4.678   5.853
 4949SOL    HW215747   6.227   4.584   5.938
 4950SOL     OW15748   4.185   4.255   5.488
 4950SOL    HW115749   4.195   4.353   5.469
 4950SOL    HW215750   4.103   4.220   5.442
 4951SOL     OW15751   4.628   5.124   3.160
 4951SOL    HW115752   4.689   5.104   3.237
 4951SOL    HW215753   4.534   5.133   3.194
 4952SOL     OW15754   1.072   0.989   6.691
 4952SOL    HW115755   1.093   1.004   6.594
 4952SOL    HW215756   1.154   1.008   6.745
 4953SOL     OW15757   1.555   2.032   5.755
 4953SOL    HW115758   1.619   1.988   5.692
 4953SOL    HW215759   1.463   1.993   5.742
 4954SOL     OW15760   3.288   3.434   5.331
 4954SOL    HW115761   3.331   3.363   5.277
 4954SOL    HW215762   3.228   3.489   5.273
 4955SOL     OW15763   4.256   5.993   0.261
 4955SOL    HW115764   4.230   6.056   0.335
 4955SOL    HW215765   4.220   6.027   0.174
 4956SOL     OW15766   2.465   0.548   4.926
 4956SOL    HW115767   2.427   0.468   4.971
 4956SOL    HW215768   2.414   0.567   4.842
 4957SOL     OW15769   5.577   5.224   0.253
 4957SOL    HW115770   5.650   5.284   0.286
 4957SOL    HW215771   5.610   5.172   0.174
 4958SOL     OW15772   3.590   5.664   6.774
 4958SOL    HW115773   3.610   5.641   6.679
 4958SOL    HW215774   3.548   5.755   6.778
 4959SOL     OW15775   6.625   2.269   2.988
 4959SOL    HW115776   6.691   2.340   3.012
 4959SOL    HW215777   6.636   2.245   2.892
 4960SOL     OW15778   5.169   4.632   3.906
 4960SOL    HW115779   5.185   4.727   3.931
 4960SOL    HW215780   5.238   4.573   3.949
 4961SOL     OW15781   3.652   2.840   2.206
 4961SOL    HW115782   3.726   2.907   2.205
 4961SOL    HW215783   3.690   2.748   2.199
 4962SOL     OW15784   1.834   2.719   0.131
 4962SOL    HW115785   1.871   2.811   0.127
 4962SOL    HW215786   1.752   2.718   0.188
 4963SOL     OW15787   0.364   4.191   6.539
 4963SOL    HW115788   0.271   4.166   6.564
 4963SOL    HW215789   0.415   4.109   6.513
 4964SOL     OW15790   1.735   4.442   4.231
 4964SOL    HW115791   1.679   4.386   4.292
 4964SOL    HW215792   1.706   4.427   4.136
 4965SOL     OW15793   1.951   0.122   3.396
 4965SOL    HW115794   1.942   0.215   3.432
 4965SOL    HW215795   2.034   0.117   3.340
 4966SOL     OW15796   4.398   0.027   5.217
 4966SOL    HW115797   4.404   6.984   5.294
 4966SOL    HW215798   4.465   0.100   5.230
 4967SOL     OW15799   4.719   4.246   3.939
 4967SOL    HW115800   4.754   4.300   3.862
 4967SOL    HW215801   4.778   4.166   3.953
 4968SOL     OW15802   6.571   3.294   4.409
 4968SOL    HW115803   6.560   3.285   4.310
 4968SOL    HW215804   6.608   3.385   4.430
 4969SOL     OW15805   0.361   5.942   4.434
 4969SOL    HW115806   0.263   5.919   4.433
 4969SOL    HW215807   0.396   5.943   4.341
 4970SOL     OW15808   2.389   1.652   1.664
 4970SOL    HW115809   2.304   1.599   1.656
 4970SOL    HW215810   2.402   1.681   1.758
 4971SOL     OW15811   0.091   5.737   1.568
 4971SOL    HW115812   0.086   5.769   1.663
 4971SOL    HW215813   0.166   5.671   1.559
 4972SOL     OW15814   0.034   4.066   6.959
 4972SOL    HW115815   0.078   4.126   6.892
 4972SOL    HW215816   6.955   4.080   6.956
 4973SOL     OW15817   5.419   2.043   6.606
 4973SOL    HW115818   5.323   2.039   6.634
 4973SOL    HW215819   5.440   1.965   6.548
 4974SOL     OW15820   3.763   7.016   5.945
 4974SOL    HW115821   3.682   6.967   5.914
 4974SOL    HW215822   3.741   0.047   6.028
 4975SOL     OW15823   5.732   4.099   1.423
 4975SOL    HW115824   5.662   4.154   1.379
 4975SOL    HW215825   5.731   4.116   1.522
 4976SOL     OW15826   0.566   0.103   3.866
 4976SOL    HW115827   0.632   0.059   3.927
 4976SOL    HW215828   0.530   0.185   3.910
 4977SOL     OW15829   1.296   3.970   5.719
 4977SOL    HW115830   1.226   3.927   5.662
 4977SOL    HW215831   1.385   3.963   5.674
 4978SOL     OW15832   6.327   5.203   4.497
 4978SOL    HW115833   6.356   5.116   4.457
 4978SOL    HW215834   6.321   5.194   4.596
 4979SOL     OW15835   2.887   6.972   6.204
 4979SOL    HW115836   2.971   7.020   6.178
 4979SOL    HW215837   2.911   6.882   6.241
 4980SOL     OW15838   5.896   3.005   3.762
 4980SOL    HW115839   5.813   2.950   3.758
 4980SOL    HW215840   5.871   3.102   3.771
 4981SOL     OW15841   3.567   6.259   3.621
 4981SOL    HW115842   3.469   6.255   3.603
 4981SOL    HW215843   3.599   6.168   3.648
 4982SOL     OW15844   4.224   1.998   4.972
 4982SOL    HW115845   4.161   1.921   4.962
 4982SOL    HW215846   4.172   2.083   4.982
 4983SOL     OW15847   5.982   3.362   2.934
 4983SOL    HW115848   5.978   3.413   2.848
 4983SOL    HW215849   5.890   3.354   2.972
 4984SOL     OW15850   4.892   3.844   4.882
 4984SOL    HW115851   4.895   3.772   4.812
 4984SOL    HW215852   4.899   3.803   4.973
 4985SOL     OW15853   5.229   0.268   2.197
 4985SOL    HW115854   5.207   0.199   2.265
 4985SOL    HW215855   5.221   0.359   2.238
 4986SOL     OW15856   1.651   5.213   1.126
 4986SOL    HW115857   1.640   5.197   1.027
 4986SOL    HW215858   1.570   5.259   1.162
 4987SOL     OW15859   2.187   3.269   2.823
 4987SOL    HW115860   2.191   3.195   2.756
 4987SOL    HW215861   2.144   3.349   2.782
 4988SOL     OW15862   6.206   5.395   4.084
 4988SOL    HW115863   6.156   5.327   4.031
 4988SOL    HW215864   6.188   5.487   4.047
 4989SOL     OW15865   6.988   6.811   3.255
 4989SOL    HW115866   6.888   6.812   3.246
 4989SOL    HW215867   0.009   6.866   3.183
 4990SOL     OW15868   5.121   1.895   6.571
 4990SOL    HW115869   5.058   1.881   6.648
 4990SOL    HW215870   5.088   1.971   6.515
 4991SOL     OW15871   1.990   5.763   5.916
 4991SOL    HW115872   1.954   5.768   6.009
 4991SOL    HW215873   1.918   5.731   5.854
 4992SOL     OW15874   1.583   3.322   4.627
 4992SOL    HW115875   1.631   3.235   4.637
 4992SOL    HW215876   1.648   3.392   4.597
 4993SOL     OW15877   2.360   5.976   3.774
 4993SOL    HW115878   2.393   6.000   3.865
 4993SOL    HW215879   2.401   5.889   3.746
 4994SOL     OW15880   3.007   5.332   5.441
 4994SOL    HW115881   2.955   5.417   5.447
 4994SOL    HW215882   2.976   5.269   5.512
 4995SOL     OW15883   0.414   1.008   6.099
 4995SOL    HW115884   0.339   1.055   6.052
 4995SOL    HW215885   0.418   0.913   6.070
 4996SOL     OW15886   0.277   0.653   4.262
 4996SOL    HW115887   0.253   0.741   4.222
 4996SOL    HW215888   0.373   0.652   4.287
 4997SOL     OW15889   4.326   1.599   0.663
 4997SOL    HW115890   4.352   1.541   0.740
 4997SOL    HW215891   4.389   1.584   0.587
 4998SOL     OW15892   0.612   3.902   3.518
 4998SOL    HW115893   0.635   3.986   3.569
 4998SOL    HW215894   0.513   3.890   3.518
 4999SOL     OW15895   0.524   3.157   3.860
 4999SOL    HW115896   0.621   3.131   3.859
 4999SOL    HW215897   0.508   3.229   3.793
 5000SOL     OW15898   2.858   6.444   3.118
 5000SOL    HW115899   2.856   6.399   3.207
 5000SOL    HW215900   2.953   6.462   3.092
 5001SOL     OW15901   0.264   5.630   3.308
 5001SOL    HW115902   0.245   5.686   3.389
 5001SOL    HW215903   0.178   5.608   3.261
 5002SOL     OW15904   1.292   5.072   3.404
 5002SOL    HW115905   1.341   5.000   3.356
 5002SOL    HW215906   1.270   5.146   3.341
 5003SOL     OW15907   3.478   0.784   1.872
 5003SOL    HW115908   3.489   0.828   1.961
 5003SOL    HW215909   3.550   0.816   1.810
 5004SOL     OW15910   4.350   6.331   0.442
 5004SOL    HW115911   4.307   6.378   0.365
 5004SOL    HW215912   4.308   6.241   0.454
 5005SOL     OW15913   3.583   2.998   0.791
 5005SOL    HW115914   3.676   2.974   0.822
 5005SOL    HW215915   3.550   2.929   0.728
 5006SOL     OW15916   5.374   0.591   2.425
 5006SOL    HW115917   5.378   0.591   2.525
 5006SOL    HW215918   5.288   0.551   2.395
 5007SOL     OW15919   6.141   5.302   2.411
 5007SOL    HW115920   6.229   5.279   2.452
 5007SOL    HW215921   6.079   5.336   2.482
 5008SOL     OW15922   4.971   6.987   3.417
 5008SOL    HW115923   4.901   0.031   3.447
 5008SOL    HW215924   5.058   7.010   3.460
 5009SOL     OW15925   0.499   1.583   7.000
 5009SOL    HW115926   0.574   1.638   6.964
 5009SOL    HW215927   0.513   1.487   6.976
 5010SOL     OW15928   4.966   3.793   1.005
 5010SOL    HW115929   4.896   3.816   0.937
 5010SOL    HW215930   4.976   3.694   1.010
 5011SOL     OW15931   1.849   2.535   6.218
 5011SOL    HW115932   1.890   2.605   6.276
 5011SOL    HW215933   1.776   2.576   6.163
 5012SOL     OW15934   6.399   1.906   6.178
 5012SOL    HW115935   6.362   1.997   6.197
 5012SOL    HW215936   6.399   1.890   6.079
 5013SOL     OW15937   5.284   6.989   5.449
 5013SOL    HW115938   5.236   0.050   5.481
 5013SOL    HW215939   5.291   6.923   5.524
 5014SOL     OW15940   6.243   3.490   0.933
 5014SOL    HW115941   6.255   3.537   1.020
 5014SOL    HW215942   6.260   3.392   0.945
 5015SOL     OW15943   5.794   5.457   4.520
 5015SOL    HW115944   5.823   5.423   4.431
 5015SOL    HW215945   5.694   5.462   4.523
 5016SOL     OW15946   1.713   2.711   6.723
 5016SOL    HW115947   1.776   2.768   6.671
 5016SOL    HW215948   1.624   2.709   6.676
 5017SOL     OW15949   0.565   2.128   2.130
 5017SOL    HW115950   0.537   2.034   2.108
 5017SOL    HW215951   0.577   2.137   2.228
 5018SOL     OW15952   1.187   0.628   0.007
 5018SOL    HW115953   1.277   0.666   0.029
 5018SOL    HW215954   1.186   0.595   6.933
 5019SOL     OW15955   1.445   4.312   4.236
 5019SOL    HW115956   1.370   4.276   4.293
 5019SOL    HW215957   1.456   4.253   4.156
 5020SOL     OW15958   1.787   7.017   4.142
 5020SOL    HW115959   1.861   6.962   4.102
 5020SOL    HW215960   1.763   6.978   4.231
 5021SOL     OW15961   2.474   0.289   1.560
 5021SOL    HW115962   2.552   0.303   1.621
 5021SOL    HW215963   2.391   0.327   1.602
 5022SOL     OW15964   6.762   2.752   0.926
 5022SOL    HW115965   6.823   2.710   0.994
 5022SOL    HW215966   6.813   2.819   0.873
 5023SOL     OW15967   0.081   3.319   2.949
 5023SOL    HW115968   7.020   3.262   2.952
 5023SOL    HW215969   0.138   3.300   3.030
 5024SOL     OW15970   4.860   4.405   0.044
 5024SOL    HW115971   4.816   4.345   6.998
 5024SOL    HW215972   4.792   4.468   0.082
 5025SOL     OW15973   5.130   2.189   4.656
 5025SOL    HW115974   5.048   2.212   4.709
 5025SOL    HW215975   5.201   2.257   4.674
 5026SOL     OW15976   5.371   6.083   5.000
 5026SOL    HW115977   5.279   6.086   5.039
 5026SOL    HW215978   5.369   6.034   4.913
 5027SOL     OW15979   5.138   6.620   0.920
 5027SOL    HW115980   5.064   6.553   0.923
 5027SOL    HW215981   5.206   6.592   0.852
 5028SOL     OW15982   6.328   1.819   2.489
 5028SOL    HW115983   6.251   1.775   2.443
 5028SOL    HW215984   6.387   1.863   2.422
 5029SOL     OW15985   5.181   2.395   2.320
 5029SOL    HW115986   5.160   2.457   2.244
 5029SOL    HW215987   5.119   2.414   2.397
 5030SOL     OW15988   0.194   3.474   0.611
 5030SOL    HW115989   0.237   3.560   0.586
 5030SOL    HW215990   0.166   3.478   0.707
 5031SOL     OW15991   6.257   0.045   5.902
 5031SOL    HW115992   6.283   0.008   5.813
 5031SOL    HW215993   6.298   0.135   5.913
 5032SOL     OW15994   2.639   4.137   6.010
 5032SOL    HW115995   2.711   4.179   6.065
 5032SOL    HW215996   2.551   4.181   6.032
 5033SOL     OW15997   2.337   6.810   6.008
 5033SOL    HW115998   2.407   6.812   6.079
 5033SOL    HW215999   2.380   6.819   5.918
 5034SOL     OW16000   4.335   6.149   4.257
 5034SOL    HW116001   4.243   6.133   4.295
 5034SOL    HW216002   4.331   6.220   4.188
 5035SOL     OW16003   1.811   3.933   3.545
 5035SOL    HW116004   1.846   3.920   3.638
 5035SOL    HW216005   1.730   3.877   3.531
 5036SOL     OW16006   1.134   3.084   4.823
 5036SOL    HW116007   1.036   3.080   4.802
 5036SOL    HW216008   1.186   3.049   4.745
 5037SOL     OW16009   5.168   4.544   1.041
 5037SOL    HW116010   5.113   4.490   1.104
 5037SOL    HW216011   5.122   4.631   1.023
 5038SOL     OW16012   3.014   3.837   3.875
 5038SOL    HW116013   2.954   3.787   3.813
 5038SOL    HW216014   3.076   3.896   3.823
 5039SOL     OW16015   0.503   3.807   0.100
 5039SOL    HW116016   0.573   3.822   0.170
 5039SOL    HW216017   0.539   3.833   0.011
 5040SOL     OW16018   0.556   1.245   5.340
 5040SOL    HW116019   0.485   1.174   5.334
 5040SOL    HW216020   0.644   1.201   5.359
 5041SOL     OW16021   6.929   1.914   1.530
 5041SOL    HW116022   7.011   1.860   1.511
 5041SOL    HW216023   6.886   1.942   1.444
 5042SOL     OW16024   1.075   2.213   5.670
 5042SOL    HW116025   1.091   2.187   5.765
 5042SOL    HW216026   1.057   2.311   5.666
 5043SOL     OW16027   3.136   6.705   2.251
 5043SOL    HW116028   3.187   6.747   2.176
 5043SOL    HW216029   3.049   6.752   2.263
 5044SOL     OW16030   0.002   5.536   0.077
 5044SOL    HW116031   0.012   5.502   7.004
 5044SOL    HW216032   6.990   5.462   0.136
 5045SOL     OW16033   5.944   2.482   1.043
 5045SOL    HW116034   5.888   2.538   1.104
 5045SOL    HW216035   6.040   2.511   1.050
 5046SOL     OW16036   3.887   3.021   2.175
 5046SOL    HW116037   3.918   3.049   2.084
 5046SOL    HW216038   3.952   3.053   2.244
 5047SOL     OW16039   1.926   4.042   3.336
 5047SOL    HW116040   1.883   3.989   3.409
 5047SOL    HW216041   1.937   3.984   3.255
 5048SOL     OW16042   2.882   0.766   6.112
 5048SOL    HW116043   2.968   0.731   6.075
 5048SOL    HW216044   2.857   0.850   6.063
 5049SOL     OW16045   4.062   1.873   6.369
 5049SOL    HW116046   4.065   1.922   6.282
 5049SOL    HW216047   3.994   1.915   6.429
 5050SOL     OW16048   1.767   0.802   0.898
 5050SOL    HW116049   1.817   0.816   0.983
 5050SOL    HW216050   1.823   0.833   0.821
 5051SOL     OW16051   4.486   4.710   0.873
 5051SOL    HW116052   4.513   4.784   0.935
 5051SOL    HW216053   4.488   4.623   0.923
 5052SOL     OW16054   2.085   2.759   4.573
 5052SOL    HW116055   2.019   2.757   4.497
 5052SOL    HW216056   2.065   2.838   4.631
 5053SOL     OW16057   6.681   0.761   0.775
 5053SOL    HW116058   6.635   0.846   0.801
 5053SOL    HW216059   6.635   0.683   0.818
 5054SOL     OW16060   3.976   5.234   3.559
 5054SOL    HW116061   3.907   5.265   3.624
 5054SOL    HW216062   3.937   5.165   3.499
 5055SOL     OW16063   0.105   3.404   5.369
 5055SOL    HW116064   0.146   3.494   5.377
 5055SOL    HW216065   0.103   3.376   5.273
 5056SOL     OW16066   6.485   4.105   3.780
 5056SOL    HW116067   6.544   4.177   3.816
 5056SOL    HW216068   6.390   4.127   3.800
 5057SOL     OW16069   6.786   5.794   2.114
 5057SOL    HW116070   6.754   5.734   2.040
 5057SOL    HW216071   6.726   5.784   2.193
 5058SOL     OW16072   2.511   5.466   6.125
 5058SOL    HW116073   2.472   5.395   6.066
 5058SOL    HW216074   2.516   5.552   6.074
 5059SOL     OW16075   6.989   0.526   2.560
 5059SOL    HW116076   6.986   0.516   2.460
 5059SOL    HW216077   7.015   0.439   2.601
 5060SOL     OW16078   0.005   2.245   6.295
 5060SOL    HW116079   6.990   2.171   6.352
 5060SOL    HW216080   0.103   2.256   6.312
 5061SOL     OW16081   5.415   3.691   0.678
 5061SOL    HW116082   5.461   3.634   0.609
 5061SOL    HW216083   5.443   3.786   0.667
 5062SOL     OW16084   6.456   0.109   0.260
 5062SOL    HW116085   6.443   0.154   0.348
 5062SOL    HW216086   6.552   0.119   0.231
 5063SOL     OW16087   1.310   6.275   2.841
 5063SOL    HW116088   1.380   6.206   2.822
 5063SOL    HW216089   1.242   6.274   2.767
 5064SOL     OW16090   5.043   3.821   6.943
 5064SOL    HW116091   5.045   3.862   0.014
 5064SOL    HW216092   4.950   3.825   6.907
 5065SOL     OW16093   3.048   6.722   6.269
 5065SOL    HW116094   3.011   6.683   6.354
 5065SOL    HW216095   3.008   6.675   6.191
 5066SOL     OW16096   4.594   4.918   1.011
 5066SOL    HW116097   4.563   4.971   0.932
 5066SOL    HW216098   4.689   4.942   1.032
 5067SOL     OW16099   4.940   1.186   6.797
 5067SOL    HW116100   5.018   1.243   6.823
 5067SOL    HW216101   4.972   1.107   6.745
 5068SOL     OW16102   3.750   4.760   0.925
 5068SOL    HW116103   3.768   4.713   1.011
 5068SOL    HW216104   3.669   4.720   0.882
 5069SOL     OW16105   6.875   5.413   3.092
 5069SOL    HW116106   6.795   5.443   3.144
 5069SOL    HW216107   6.959   5.443   3.137
 5070SOL     OW16108   4.899   3.247   3.935
 5070SOL    HW116109   4.998   3.257   3.945
 5070SOL    HW216110   4.856   3.244   4.026
 5071SOL     OW16111   4.418   0.898   0.497
 5071SOL    HW116112   4.399   0.892   0.595
 5071SOL    HW216113   4.388   0.814   0.451
 5072SOL     OW16114   0.611   4.133   1.175
 5072SOL    HW116115   0.601   4.176   1.265
 5072SOL    HW216116   0.521   4.105   1.141
 5073SOL     OW16117   3.823   2.122   3.675
 5073SOL    HW116118   3.788   2.207   3.714
 5073SOL    HW216119   3.923   2.128   3.669
 5074SOL     OW16120   4.318   4.737   5.202
 5074SOL    HW116121   4.297   4.781   5.115
 5074SOL    HW216122   4.323   4.638   5.190
 5075SOL     OW16123   6.811   6.419   3.846
 5075SOL    HW116124   6.840   6.497   3.792
 5075SOL    HW216125   6.724   6.384   3.811
 5076SOL     OW16126   4.589   0.372   0.963
 5076SOL    HW116127   4.587   0.275   0.941
 5076SOL    HW216128   4.674   0.413   0.929
 5077SOL     OW16129   6.778   2.842   2.264
 5077SOL    HW116130   6.775   2.853   2.165
 5077SOL    HW216131   6.865   2.801   2.291
 5078SOL     OW16132   0.084   0.978   4.421
 5078SOL    HW116133   0.041   1.068   4.424
 5078SOL    HW216134   0.079   0.943   4.327
 5079SOL     OW16135   4.467   4.878   4.938
 5079SOL    HW116136   4.384   4.932   4.946
 5079SOL    HW216137   4.455   4.809   4.866
 5080SOL     OW16138   5.914   0.623   6.014
 5080SOL    HW116139   5.934   0.674   5.931
 5080SOL    HW216140   5.957   0.533   6.010
 5081SOL     OW16141   3.197   2.967   3.049
 5081SOL    HW116142   3.229   2.928   2.963
 5081SOL    HW216143   3.125   3.035   3.030
 5082SOL     OW16144   0.724   0.903   5.982
 5082SOL    HW116145   0.669   0.940   5.907
 5082SOL    HW216146   0.778   0.976   6.024
 5083SOL     OW16147   0.963   4.350   2.359
 5083SOL    HW116148   0.914   4.400   2.288
 5083SOL    HW216149   1.052   4.393   2.376
 5084SOL     OW16150   0.858   5.720   2.285
 5084SOL    HW116151   0.894   5.781   2.356
 5084SOL    HW216152   0.862   5.767   2.197
 5085SOL     OW16153   6.471   3.151   6.684
 5085SOL    HW116154   6.553   3.156   6.627
 5085SOL    HW216155   6.446   3.056   6.698
 5086SOL     OW16156   6.271   5.445   4.740
 5086SOL    HW116157   6.317   5.532   4.754
 5086SOL    HW216158   6.248   5.434   4.643
 5087SOL     OW16159   5.975   5.448   5.102
 5087SOL    HW116160   5.986   5.514   5.028
 5087SOL    HW216161   5.967   5.496   5.189
 5088SOL     OW16162   6.204   0.783   0.030
 5088SOL    HW116163   6.266   0.705   0.034
 5088SOL    HW216164   6.238   0.850   6.984
 5089SOL     OW16165   5.584   2.546   4.241
 5089SOL    HW116166   5.500   2.511   4.282
 5089SOL    HW216167   5.573   2.552   4.142
 5090SOL     OW16168   1.333   5.387   0.304
 5090SOL    HW116169   1.299   5.384   0.210
 5090SOL    HW216170   1.258   5.364   0.367
 5091SOL     OW16171   0.808   6.398   3.296
 5091SOL    HW116172   0.836   6.319   3.241
 5091SOL    HW216173   0.889   6.439   3.338
 5092SOL     OW16174   3.475   2.996   1.244
 5092SOL    HW116175   3.395   3.003   1.304
 5092SOL    HW216176   3.444   2.974   1.151
 5093SOL     OW16177   1.247   2.078   1.199
 5093SOL    HW116178   1.316   2.118   1.139
 5093SOL    HW216179   1.288   2.053   1.287
 5094SOL     OW16180   0.285   0.139   6.748
 5094SOL    HW116181   0.220   0.183   6.811
 5094SOL    HW216182   0.377   0.146   6.785
 5095SOL     OW16183   3.030   6.887   5.308
 5095SOL    HW116184   3.033   6.909   5.405
 5095SOL    HW216185   2.953   6.934   5.265
 5096SOL     OW16186   3.763   6.056   3.295
 5096SOL    HW116187   3.777   6.011   3.207
 5096SOL    HW216188   3.832   6.024   3.360
 5097SOL     OW16189   0.854   1.711   6.416
 5097SOL    HW116190   0.854   1.739   6.512
 5097SOL    HW216191   0.768   1.739   6.374
 5098SOL     OW16192   6.887   2.399   3.309
 5098SOL    HW116193   6.924   2.445   3.228
 5098SOL    HW216194   6.788   2.389   3.299
 5099SOL     OW16195   0.787   1.330   4.399
 5099SOL    HW116196   0.712   1.315   4.463
 5099SOL    HW216197   0.872   1.345   4.450
 5100SOL     OW16198   4.441   4.940   5.893
 5100SOL    HW116199   4.453   4.925   5.795
 5100SOL    HW216200   4.525   4.915   5.941
 5101SOL     OW16201   5.106   5.849   0.720
 5101SOL    HW116202   5.123   5.751   0.704
 5101SOL    HW216203   5.156   5.902   0.652
 5102SOL     OW16204   3.703   5.173   4.399
 5102SOL    HW116205   3.757   5.254   4.421
 5102SOL    HW216206   3.649   5.190   4.316
 5103SOL     OW16207   1.186   1.593   3.795
 5103SOL    HW116208   1.205   1.648   3.877
 5103SOL    HW216209   1.089   1.573   3.790
 5104SOL     OW16210   0.664   0.798   0.858
 5104SOL    HW116211   0.634   0.766   0.769
 5104SOL    HW216212   0.642   0.730   0.928
 5105SOL     OW16213   1.474   2.781   6.557
 5105SOL    HW116214   1.415   2.832   6.621
 5105SOL    HW216215   1.534   2.845   6.510
 5106SOL     OW16216   2.347   6.696   2.233
 5106SOL    HW116217   2.331   6.684   2.331
 5106SOL    HW216218   2.388   6.613   2.195
 5107SOL     OW16219   2.142   6.993   6.648
 5107SOL    HW116220   2.106   6.900   6.645
 5107SOL    HW216221   2.078   0.031   6.698
 5108SOL     OW16222   3.371   4.112   4.498
 5108SOL    HW116223   3.397   4.091   4.592
 5108SOL    HW216224   3.273   4.132   4.494
 5109SOL     OW16225   6.643   2.287   2.714
 5109SOL    HW116226   6.716   2.355   2.720
 5109SOL    HW216227   6.566   2.325   2.662
 5110SOL     OW16228   2.245   5.983   5.231
 5110SOL    HW116229   2.222   5.940   5.318
 5110SOL    HW216230   2.249   6.082   5.242
 5111SOL     OW16231   1.833   0.493   6.837
 5111SOL    HW116232   1.853   0.510   6.741
 5111SOL    HW216233   1.910   0.522   6.893
 5112SOL     OW16234   0.202   6.803   2.843
 5112SOL    HW116235   0.214   6.881   2.781
 5112SOL    HW216236   0.292   6.771   2.874
 5113SOL     OW16237   0.543   0.462   6.332
 5113SOL    HW116238   0.590   0.374   6.331
 5113SOL    HW216239   0.444   0.446   6.339
 5114SOL     OW16240   4.196   6.051   6.564
 5114SOL    HW116241   4.291   6.034   6.589
 5114SOL    HW216242   4.165   5.983   6.498
 5115SOL     OW16243   2.407   3.808   5.345
 5115SOL    HW116244   2.353   3.726   5.323
 5115SOL    HW216245   2.400   3.874   5.270
 5116SOL     OW16246   6.636   3.649   1.174
 5116SOL    HW116247   6.647   3.671   1.077
 5116SOL    HW216248   6.721   3.668   1.222
 5117SOL     OW16249   2.470   5.101   2.540
 5117SOL    HW116250   2.422   5.064   2.619
 5117SOL    HW216251   2.465   5.201   2.542
 5118SOL     OW16252   4.186   7.019   1.432
 5118SOL    HW116253   4.142   0.078   1.474
 5118SOL    HW216254   4.131   6.937   1.451
 5119SOL     OW16255   6.184   0.520   2.362
 5119SOL    HW116256   6.134   0.512   2.277
 5119SOL    HW216257   6.121   0.513   2.439
 5120SOL     OW16258   3.188   1.423   1.948
 5120SOL    HW116259   3.133   1.365   2.008
 5120SOL    HW216260   3.163   1.519   1.962
 5121SOL     OW16261   0.543   3.764   4.393
 5121SOL    HW116262   0.627   3.779   4.445
 5121SOL    HW216263   0.517   3.849   4.347
 5122SOL     OW16264   1.927   5.366   3.272
 5122SOL    HW116265   2.004   5.311   3.302
 5122SOL    HW216266   1.946   5.463   3.290
 5123SOL     OW16267   6.132   3.061   2.649
 5123SOL    HW116268   6.169   2.987   2.593
 5123SOL    HW216269   6.100   3.135   2.590
 5124SOL     OW16270   3.249   6.257   0.657
 5124SOL    HW116271   3.205   6.206   0.731
 5124SOL    HW216272   3.253   6.354   0.682
 5125SOL     OW16273   0.657   2.038   5.858
 5125SOL    HW116274   0.707   1.982   5.791
 5125SOL    HW216275   0.561   2.043   5.831
 5126SOL     OW16276   3.887   1.800   0.232
 5126SOL    HW116277   3.956   1.871   0.248
 5126SOL    HW216278   3.862   1.799   0.135
 5127SOL     OW16279   5.052   3.040   6.753
 5127SOL    HW116280   5.029   2.952   6.794
 5127SOL    HW216281   5.035   3.037   6.655
 5128SOL     OW16282   0.020   0.369   6.372
 5128SOL    HW116283   0.037   0.290   6.313
 5128SOL    HW216284   0.101   0.385   6.429
 5129SOL     OW16285   4.874   3.046   3.726
 5129SOL    HW116286   4.879   3.090   3.636
 5129SOL    HW216287   4.893   3.114   3.797
 5130SOL     OW16288   2.326   6.394   5.019
 5130SOL    HW116289   2.283   6.374   5.107
 5130SOL    HW216290   2.359   6.309   4.978
 5131SOL     OW16291   3.757   4.896   3.043
 5131SOL    HW116292   3.772   4.841   2.962
 5131SOL    HW216293   3.836   4.955   3.059
 5132SOL     OW16294   3.585   2.093   6.401
 5132SOL    HW116295   3.498   2.087   6.353
 5132SOL    HW216296   3.605   2.189   6.422
 5133SOL     OW16297   4.094   4.668   6.377
 5133SOL    HW116298   4.097   4.585   6.322
 5133SOL    HW216299   4.086   4.748   6.317
 5134SOL     OW16300   5.882   5.621   0.163
 5134SOL    HW116301   5.815   5.696   0.169
 5134SOL    HW216302   5.863   5.555   0.235
 5135SOL     OW16303   7.020   3.134   2.130
 5135SOL    HW116304   0.025   3.130   2.034
 5135SOL    HW216305   0.015   3.045   2.172
 5136SOL     OW16306   0.581   0.442   4.343
 5136SOL    HW116307   0.580   0.537   4.311
 5136SOL    HW216308   0.545   0.382   4.272
 5137SOL     OW16309   5.895   0.521   3.030
 5137SOL    HW116310   5.904   0.590   3.102
 5137SOL    HW216311   5.986   0.495   2.997
 5138SOL     OW16312   3.072   3.991   2.259
 5138SOL    HW116313   3.119   4.028   2.340
 5138SOL    HW216314   2.981   4.031   2.252
 5139SOL     OW16315   4.816   0.058   4.816
 5139SOL    HW116316   4.881   0.034   4.744
 5139SOL    HW216317   4.746   0.119   4.778
 5140SOL     OW16318   3.279   3.729   6.367
 5140SOL    HW116319   3.312   3.686   6.283
 5140SOL    HW216320   3.179   3.729   6.367
 5141SOL     OW16321   1.191   3.307   1.451
 5141SOL    HW116322   1.211   3.397   1.489
 5141SOL    HW216323   1.242   3.295   1.365
 5142SOL     OW16324   0.439   6.761   2.965
 5142SOL    HW116325   0.421   6.804   3.054
 5142SOL    HW216326   0.524   6.710   2.970
 5143SOL     OW16327   6.872   6.334   2.368
 5143SOL    HW116328   6.849   6.414   2.423
 5143SOL    HW216329   6.873   6.253   2.427
 5144SOL     OW16330   1.937   2.874   5.334
 5144SOL    HW116331   1.969   2.815   5.407
 5144SOL    HW216332   1.865   2.828   5.282
 5145SOL     OW16333   1.854   5.615   5.697
 5145SOL    HW116334   1.773   5.639   5.643
 5145SOL    HW216335   1.926   5.583   5.636
 5146SOL     OW16336   5.963   5.730   6.403
 5146SOL    HW116337   6.013   5.678   6.334
 5146SOL    HW216338   5.992   5.701   6.494
 5147SOL     OW16339   5.573   1.959   3.986
 5147SOL    HW116340   5.644   1.890   3.972
 5147SOL    HW216341   5.500   1.946   3.918
 5148SOL     OW16342   5.994   1.729   0.780
 5148SOL    HW116343   5.948   1.770   0.701
 5148SOL    HW216344   6.018   1.635   0.759
 5149SOL     OW16345   3.714   5.938   4.253
 5149SOL    HW116346   3.702   6.005   4.327
 5149SOL    HW216347   3.632   5.882   4.245
 5150SOL     OW16348   0.021   0.849   3.329
 5150SOL    HW116349   0.119   0.833   3.336
 5150SOL    HW216350   6.998   0.831   3.417
 5151SOL     OW16351   5.264   5.027   1.773
 5151SOL    HW116352   5.236   5.103   1.831
 5151SOL    HW216353   5.213   5.030   1.687
 5152SOL     OW16354   2.320   2.135   0.530
 5152SOL    HW116355   2.294   2.143   0.626
 5152SOL    HW216356   2.245   2.168   0.472
 5153SOL     OW16357   2.125   2.722   0.604
 5153SOL    HW116358   2.215   2.685   0.626
 5153SOL    HW216359   2.073   2.738   0.688
 5154SOL     OW16360   0.641   2.381   0.682
 5154SOL    HW116361   0.716   2.445   0.699
 5154SOL    HW216362   0.557   2.432   0.662
 5155SOL     OW16363   1.593   0.884   0.245
 5155SOL    HW116364   1.494   0.884   0.255
 5155SOL    HW216365   1.629   0.793   0.265
 5156SOL     OW16366   5.019   5.308   5.980
 5156SOL    HW116367   5.055   5.336   6.069
 5156SOL    HW216368   4.920   5.322   5.979
 5157SOL     OW16369   3.523   0.879   2.124
 5157SOL    HW116370   3.526   0.978   2.136
 5157SOL    HW216371   3.581   0.836   2.193
 5158SOL     OW16372   1.309   2.437   2.223
 5158SOL    HW116373   1.301   2.493   2.141
 5158SOL    HW216374   1.277   2.344   2.203
 5159SOL     OW16375   6.560   2.905   5.387
 5159SOL    HW116376   6.538   3.003   5.388
 5159SOL    HW216377   6.592   2.879   5.296
 5160SOL     OW16378   6.898   6.775   2.929
 5160SOL    HW116379   6.830   6.705   2.910
 5160SOL    HW216380   6.968   6.775   2.856
 5161SOL     OW16381   1.033   1.950   6.080
 5161SOL    HW116382   1.042   1.986   6.173
 5161SOL    HW216383   1.094   1.871   6.069
 5162SOL     OW16384   0.282   6.785   5.612
 5162SOL    HW116385   0.268   6.718   5.539
 5162SOL    HW216386   0.193   6.819   5.642
 5163SOL     OW16387   3.110   0.424   1.784
 5163SOL    HW116388   3.171   0.503   1.793
 5163SOL    HW216389   3.150   0.358   1.720
 5164SOL     OW16390   2.626   3.496   0.284
 5164SOL    HW116391   2.545   3.512   0.340
 5164SOL    HW216392   2.613   3.414   0.229
 5165SOL     OW16393   1.442   5.059   5.730
 5165SOL    HW116394   1.533   5.073   5.768
 5165SOL    HW216395   1.417   4.963   5.736
 5166SOL     OW16396   6.924   5.967   5.611
 5166SOL    HW116397   6.862   5.972   5.689
 5166SOL    HW216398   6.889   6.023   5.536
 5167SOL     OW16399   6.040   3.831   5.812
 5167SOL    HW116400   6.121   3.883   5.840
 5167SOL    HW216401   5.978   3.891   5.762
 5168SOL     OW16402   4.678   1.754   3.288
 5168SOL    HW116403   4.773   1.734   3.311
 5168SOL    HW216404   4.670   1.770   3.190
 5169SOL     OW16405   5.051   5.880   4.287
 5169SOL    HW116406   5.085   5.903   4.378
 5169SOL    HW216407   5.040   5.781   4.280
 5170SOL     OW16408   1.929   3.977   6.016
 5170SOL    HW116409   1.868   3.966   5.938
 5170SOL    HW216410   1.991   4.054   6.000
 5171SOL     OW16411   2.850   6.531   6.223
 5171SOL    HW116412   2.809   6.528   6.314
 5171SOL    HW216413   2.886   6.441   6.200
 5172SOL     OW16414   5.653   5.588   6.095
 5172SOL    HW116415   5.585   5.630   6.155
 5172SOL    HW216416   5.718   5.658   6.066
 5173SOL     OW16417   3.924   5.805   4.400
 5173SOL    HW116418   3.876   5.855   4.328
 5173SOL    HW216419   4.023   5.812   4.385
 5174SOL     OW16420   0.856   6.241   2.747
 5174SOL    HW116421   0.905   6.161   2.782
 5174SOL    HW216422   0.784   6.266   2.811
 5175SOL     OW16423   2.392   1.701   6.576
 5175SOL    HW116424   2.459   1.722   6.647
 5175SOL    HW216425   2.321   1.641   6.614
 5176SOL     OW16426   6.245   6.443   6.174
 5176SOL    HW116427   6.208   6.535   6.157
 5176SOL    HW216428   6.343   6.450   6.194
 5177SOL     OW16429   5.303   5.245   0.618
 5177SOL    HW116430   5.322   5.275   0.524
 5177SOL    HW216431   5.219   5.290   0.650
 5178SOL     OW16432   0.372   3.784   1.216
 5178SOL    HW116433   0.282   3.745   1.237
 5178SOL    HW216434   0.363   3.882   1.201
 5179SOL     OW16435   4.821   5.115   2.966
 5179SOL    HW116436   4.782   5.150   3.051
 5179SOL    HW216437   4.792   5.021   2.952
 5180SOL     OW16438   1.852   4.503   1.998
 5180SOL    HW116439   1.819   4.542   2.084
 5180SOL    HW216440   1.870   4.577   1.933
 5181SOL     OW16441   6.825   1.390   5.555
 5181SOL    HW116442   6.732   1.388   5.591
 5181SOL    HW216443   6.850   1.299   5.521
 5182SOL     OW16444   2.142   6.394   1.963
 5182SOL    HW116445   2.119   6.318   1.902
 5182SOL    HW216446   2.100   6.378   2.052
 5183SOL     OW16447   4.860   2.037   3.369
 5183SOL    HW116448   4.840   2.135   3.381
 5183SOL    HW216449   4.785   1.993   3.320
 5184SOL     OW16450   2.691   2.133   2.725
 5184SOL    HW116451   2.759   2.083   2.671
 5184SOL    HW216452   2.631   2.184   2.664
 5185SOL     OW16453   6.327   0.285   2.073
 5185SOL    HW116454   6.375   0.209   2.116
 5185SOL    HW216455   6.352   0.370   2.119
 5186SOL     OW16456   6.217   2.539   6.501
 5186SOL    HW116457   6.194   2.531   6.598
 5186SOL    HW216458   6.132   2.540   6.448
 5187SOL     OW16459   1.531   4.448   5.242
 5187SOL    HW116460   1.501   4.543   5.233
 5187SOL    HW216461   1.535   4.406   5.151
 5188SOL     OW16462   6.779   0.481   1.211
 5188SOL    HW116463   6.823   0.426   1.140
 5188SOL    HW216464   6.835   0.561   1.231
 5189SOL     OW16465   5.245   5.972   6.777
 5189SOL    HW116466   5.286   5.896   6.727
 5189SOL    HW216467   5.150   5.984   6.747
 5190SOL     OW16468   1.680   4.646   0.412
 5190SOL    HW116469   1.678   4.706   0.493
 5190SOL    HW216470   1.726   4.560   0.436
 5191SOL     OW16471   2.603   4.048   1.532
 5191SOL    HW116472   2.694   4.071   1.568
 5191SOL    HW216473   2.602   3.952   1.504
 5192SOL     OW16474   0.596   4.613   3.083
 5192SOL    HW116475   0.501   4.641   3.097
 5192SOL    HW216476   0.646   4.621   3.169
 5193SOL     OW16477   4.125   0.762   4.814
 5193SOL    HW116478   4.143   0.717   4.726
 5193SOL    HW216479   4.154   0.857   4.809
 5194SOL     OW16480   4.439   1.828   5.028
 5194SOL    HW116481   4.403   1.815   5.120
 5194SOL    HW216482   4.386   1.900   4.982
 5195SOL     OW16483   1.516   1.082   5.884
 5195SOL    HW116484   1.470   1.149   5.942
 5195SOL    HW216485   1.480   0.991   5.904
 5196SOL     OW16486   5.699   6.445   3.204
 5196SOL    HW116487   5.683   6.352   3.236
 5196SOL    HW216488   5.627   6.471   3.140
 5197SOL     OW16489   1.626   3.578   4.791
 5197SOL    HW116490   1.552   3.645   4.786
 5197SOL    HW216491   1.671   3.571   4.702
 5198SOL     OW16492   6.166   5.510   3.666
 5198SOL    HW116493   6.083   5.499   3.720
 5198SOL    HW216494   6.199   5.421   3.637
 5199SOL     OW16495   0.378   4.856   1.207
 5199SOL    HW116496   0.462   4.890   1.163
 5199SOL    HW216497   0.347   4.923   1.275
 5200SOL     OW16498   6.266   3.961   5.175
 5200SOL    HW116499   6.209   3.940   5.096
 5200SOL    HW216500   6.295   3.876   5.219
 5201SOL     OW16501   1.232   6.216   4.656
 5201SOL    HW116502   1.260   6.158   4.579
 5201SOL    HW216503   1.135   6.241   4.645
 5202SOL     OW16504   6.870   4.464   1.310
 5202SOL    HW116505   6.892   4.549   1.263
 5202SOL    HW216506   6.835   4.397   1.244
 5203SOL     OW16507   6.274   2.960   6.945
 5203SOL    HW116508   6.226   3.006   6.870
 5203SOL    HW216509   6.372   2.964   6.930
 5204SOL     OW16510   5.061   5.400   6.244
 5204SOL    HW116511   5.034   5.449   6.327
 5204SOL    HW216512   5.137   5.339   6.264
 5205SOL     OW16513   2.737   6.494   0.082
 5205SOL    HW116514   2.807   6.490   0.153
 5205SOL    HW216515   2.651   6.527   0.122
 5206SOL     OW16516   0.150   4.455   4.722
 5206SOL    HW116517   0.158   4.546   4.763
 5206SOL    HW216518   0.194   4.455   4.632
 5207SOL     OW16519   1.125   4.809   2.630
 5207SOL    HW116520   1.130   4.909   2.623
 5207SOL    HW216521   1.090   4.771   2.544
 5208SOL     OW16522   4.994   1.626   0.389
 5208SOL    HW116523   5.067   1.670   0.337
 5208SOL    HW216524   5.004   1.648   0.486
 5209SOL     OW16525   5.673   4.989   2.885
 5209SOL    HW116526   5.727   4.907   2.867
 5209SOL    HW216527   5.727   5.053   2.940
 5210SOL     OW16528   5.028   3.907   3.017
 5210SOL    HW116529   4.963   3.947   2.954
 5210SOL    HW216530   4.983   3.885   3.103
 5211SOL     OW16531   3.092   3.924   1.977
 5211SOL    HW116532   3.116   3.828   1.968
 5211SOL    HW216533   3.080   3.947   2.074
 5212SOL     OW16534   0.795   6.647   6.729
 5212SOL    HW116535   0.873   6.671   6.787
 5212SOL    HW216536   0.797   6.703   6.646
 5213SOL     OW16537   4.325   2.370   6.176
 5213SOL    HW116538   4.367   2.279   6.178
 5213SOL    HW216539   4.322   2.408   6.268
 5214SOL     OW16540   4.175   2.088   0.008
 5214SOL    HW116541   4.095   2.133   6.989
 5214SOL    HW216542   4.258   2.127   6.989
 5215SOL     OW16543   5.464   5.232   3.581
 5215SOL    HW116544   5.398   5.163   3.609
 5215SOL    HW216545   5.417   5.320   3.569
 5216SOL     OW16546   4.463   5.625   1.590
 5216SOL    HW116547   4.548   5.574   1.578
 5216SOL    HW216548   4.385   5.564   1.575
 5217SOL     OW16549   2.772   4.856   3.555
 5217SOL    HW116550   2.739   4.938   3.602
 5217SOL    HW216551   2.793   4.785   3.623
 5218SOL     OW16552   1.882   0.245   4.084
 5218SOL    HW116553   1.946   0.223   4.010
 5218SOL    HW216554   1.837   0.162   4.115
 5219SOL     OW16555   3.069   0.375   1.267
 5219SOL    HW116556   3.024   0.304   1.322
 5219SOL    HW216557   3.009   0.403   1.192
 5220SOL     OW16558   1.404   6.810   2.175
 5220SOL    HW116559   1.306   6.821   2.195
 5220SOL    HW216560   1.426   6.859   2.091
 5221SOL     OW16561   4.532   0.964   6.944
 5221SOL    HW116562   4.493   1.015   7.020
 5221SOL    HW216563   4.513   1.013   6.858
 5222SOL     OW16564   0.866   6.505   2.508
 5222SOL    HW116565   0.839   6.554   2.426
 5222SOL    HW216566   0.802   6.429   2.524
 5223SOL     OW16567   4.308   6.594   1.079
 5223SOL    HW116568   4.230   6.541   1.045
 5223SOL    HW216569   4.276   6.683   1.112
 5224SOL     OW16570   5.585   1.107   3.657
 5224SOL    HW116571   5.557   1.027   3.710
 5224SOL    HW216572   5.599   1.081   3.561
 5225SOL     OW16573   0.322   6.934   5.245
 5225SOL    HW116574   0.406   6.900   5.288
 5225SOL    HW216575   0.320   0.014   5.250
 5226SOL     OW16576   2.636   0.180   4.131
 5226SOL    HW116577   2.576   0.194   4.053
 5226SOL    HW216578   2.599   0.106   4.188
 5227SOL     OW16579   4.902   3.721   4.137
 5227SOL    HW116580   4.853   3.808   4.129
 5227SOL    HW216581   4.871   3.660   4.064
 5228SOL     OW16582   5.149   1.096   1.597
 5228SOL    HW116583   5.071   1.144   1.557
 5228SOL    HW216584   5.117   1.037   1.671
 5229SOL     OW16585   1.434   4.450   3.587
 5229SOL    HW116586   1.436   4.351   3.594
 5229SOL    HW216587   1.339   4.482   3.585
 5230SOL     OW16588   1.327   1.122   6.125
 5230SOL    HW116589   1.262   1.193   6.155
 5230SOL    HW216590   1.277   1.036   6.110
 5231SOL     OW16591   2.945   3.383   3.431
 5231SOL    HW116592   2.934   3.464   3.374
 5231SOL    HW216593   3.024   3.331   3.399
 5232SOL     OW16594   5.503   3.037   4.782
 5232SOL    HW116595   5.602   3.021   4.790
 5232SOL    HW216596   5.458   2.953   4.753
 5233SOL     OW16597   0.951   6.842   3.432
 5233SOL    HW116598   0.948   6.892   3.346
 5233SOL    HW216599   0.868   6.860   3.485
 5234SOL     OW16600   4.033   5.066   1.478
 5234SOL    HW116601   3.977   5.017   1.410
 5234SOL    HW216602   4.078   5.000   1.537
 5235SOL     OW16603   1.018   3.096   1.740
 5235SOL    HW116604   0.937   3.047   1.707
 5235SOL    HW216605   1.079   3.032   1.788
 5236SOL     OW16606   6.446   3.390   0.340
 5236SOL    HW116607   6.502   3.471   0.322
 5236SOL    HW216608   6.456   3.364   0.436
 5237SOL     OW16609   1.984   1.526   3.133
 5237SOL    HW116610   1.962   1.428   3.135
 5237SOL    HW216611   1.980   1.563   3.226
 5238SOL     OW16612   2.137   3.465   1.093
 5238SOL    HW116613   2.188   3.442   1.010
 5238SOL    HW216614   2.108   3.560   1.089
 5239SOL     OW16615   3.010   3.163   4.700
 5239SOL    HW116616   2.994   3.065   4.691
 5239SOL    HW216617   2.965   3.212   4.625
 5240SOL     OW16618   3.584   2.083   4.831
 5240SOL    HW116619   3.623   2.159   4.882
 5240SOL    HW216620   3.498   2.111   4.789
 5241SOL     OW16621   2.903   5.567   5.498
 5241SOL    HW116622   2.897   5.655   5.451
 5241SOL    HW216623   2.811   5.531   5.515
 5242SOL     OW16624   4.410   0.221   5.607
 5242SOL    HW116625   4.407   0.135   5.556
 5242SOL    HW216626   4.488   0.221   5.669
 5243SOL     OW16627   0.726   4.280   0.474
 5243SOL    HW116628   0.719   4.376   0.501
 5243SOL    HW216629   0.802   4.237   0.524
 5244SOL     OW16630   5.632   3.461   6.776
 5244SOL    HW116631   5.578   3.407   6.841
 5244SOL    HW216632   5.588   3.460   6.686
 5245SOL     OW16633   4.768   4.806   6.308
 5245SOL    HW116634   4.853   4.776   6.263
 5245SOL    HW216635   4.791   4.861   6.388
 5246SOL     OW16636   1.394   4.015   3.236
 5246SOL    HW116637   1.346   3.940   3.191
 5246SOL    HW216638   1.411   3.991   3.332
 5247SOL     OW16639   0.183   4.555   0.163
 5247SOL    HW116640   0.107   4.586   0.107
 5247SOL    HW216641   0.148   4.497   0.237
 5248SOL     OW16642   5.133   1.396   0.374
 5248SOL    HW116643   5.113   1.337   0.296
 5248SOL    HW216644   5.077   1.479   0.368
 5249SOL     OW16645   1.530   5.699   0.039
 5249SOL    HW116646   1.629   5.701   0.023
 5249SOL    HW216647   1.492   5.790   0.026
 5250SOL     OW16648   1.083   1.561   5.869
 5250SOL    HW116649   0.983   1.559   5.864
 5250SOL    HW216650   1.119   1.597   5.782
 5251SOL     OW16651   0.249   2.891   0.829
 5251SOL    HW116652   0.236   2.869   0.732
 5251SOL    HW216653   0.334   2.849   0.862
 5252SOL     OW16654   4.847   6.810   1.094
 5252SOL    HW116655   4.919   6.859   1.143
 5252SOL    HW216656   4.839   6.717   1.130
 5253SOL     OW16657   5.695   2.826   3.740
 5253SOL    HW116658   5.708   2.730   3.765
 5253SOL    HW216659   5.597   2.848   3.740
 5254SOL     OW16660   5.584   0.722   4.540
 5254SOL    HW116661   5.614   0.734   4.635
 5254SOL    HW216662   5.663   0.734   4.479
 5255SOL     OW16663   2.679   5.508   4.059
 5255SOL    HW116664   2.687   5.463   4.147
 5255SOL    HW216665   2.742   5.586   4.055
 5256SOL     OW16666   4.875   6.559   1.837
 5256SOL    HW116667   4.835   6.608   1.915
 5256SOL    HW216668   4.855   6.461   1.845
 5257SOL     OW16669   3.171   1.511   3.479
 5257SOL    HW116670   3.148   1.488   3.385
 5257SOL    HW216671   3.115   1.588   3.509
 5258SOL     OW16672   5.836   1.949   1.928
 5258SOL    HW116673   5.802   2.043   1.938
 5258SOL    HW216674   5.832   1.903   2.017
 5259SOL     OW16675   5.593   4.376   1.520
 5259SOL    HW116676   5.574   4.350   1.425
 5259SOL    HW216677   5.515   4.351   1.578
 5260SOL     OW16678   4.718   2.790   1.542
 5260SOL    HW116679   4.790   2.721   1.554
 5260SOL    HW216680   4.711   2.846   1.624
 5261SOL     OW16681   2.583   2.468   5.002
 5261SOL    HW116682   2.485   2.475   5.018
 5261SOL    HW216683   2.599   2.414   4.919
 5262SOL     OW16684   1.625   0.445   1.833
 5262SOL    HW116685   1.540   0.405   1.798
 5262SOL    HW216686   1.703   0.406   1.784
 5263SOL     OW16687   1.220   6.859   6.591
 5263SOL    HW116688   1.220   6.759   6.591
 5263SOL    HW216689   1.236   6.892   6.498
 5264SOL     OW16690   1.141   1.569   1.081
 5264SOL    HW116691   1.207   1.516   1.135
 5264SOL    HW216692   1.069   1.604   1.141
 5265SOL     OW16693   5.199   4.598   3.637
 5265SOL    HW116694   5.291   4.602   3.677
 5265SOL    HW216695   5.133   4.573   3.709
 5266SOL     OW16696   1.958   6.963   1.282
 5266SOL    HW116697   2.018   0.018   1.307
 5266SOL    HW216698   1.956   6.952   1.183
 5267SOL     OW16699   4.417   3.746   5.349
 5267SOL    HW116700   4.481   3.694   5.292
 5267SOL    HW216701   4.327   3.748   5.305
 5268SOL     OW16702   5.524   5.075   5.779
 5268SOL    HW116703   5.522   5.016   5.698
 5268SOL    HW216704   5.463   5.153   5.766
 5269SOL     OW16705   1.863   4.657   6.011
 5269SOL    HW116706   1.904   4.636   6.099
 5269SOL    HW216707   1.850   4.573   5.958
 5270SOL     OW16708   6.873   2.311   3.566
 5270SOL    HW116709   6.801   2.275   3.506
 5270SOL    HW216710   6.931   2.374   3.515
 5271SOL     OW16711   5.451   3.688   5.673
 5271SOL    HW116712   5.495   3.604   5.707
 5271SOL    HW216713   5.457   3.759   5.743
 5272SOL     OW16714   2.093   1.412   3.595
 5272SOL    HW116715   2.188   1.421   3.568
 5272SOL    HW216716   2.088   1.362   3.682
 5273SOL     OW16717   6.866   0.246   5.271
 5273SOL    HW116718   6.937   0.289   5.327
 5273SOL    HW216719   6.780   0.297   5.282
 5274SOL     OW16720   0.620   5.641   4.767
 5274SOL    HW116721   0.600   5.633   4.865
 5274SOL    HW216722   0.568   5.718   4.729
 5275SOL     OW16723   2.051   6.707   6.729
 5275SOL    HW116724   1.982   6.759   6.780
 5275SOL    HW216725   2.046   6.731   6.632
 5276SOL     OW16726   0.399   6.939   0.493
 5276SOL    HW116727   0.436   6.899   0.576
 5276SOL    HW216728   0.386   0.017   0.506
 5277SOL     OW16729   0.423   0.852   2.157
 5277SOL    HW116730   0.334   0.843   2.111
 5277SOL    HW216731   0.408   0.876   2.253
 5278SOL     OW16732   0.716   4.051   6.191
 5278SOL    HW116733   0.618   4.071   6.186
 5278SOL    HW216734   0.763   4.094   6.115
 5279SOL     OW16735   2.990   6.767   6.856
 5279SOL    HW116736   3.002   6.769   6.757
 5279SOL    HW216737   2.895   6.788   6.879
 5280SOL     OW16738   4.492   6.751   5.175
 5280SOL    HW116739   4.512   6.810   5.253
 5280SOL    HW216740   4.561   6.765   5.104
 5281SOL     OW16741   2.857   6.796   4.932
 5281SOL    HW116742   2.852   6.855   5.013
 5281SOL    HW216743   2.864   6.701   4.961
 5282SOL     OW16744   0.180   6.594   0.478
 5282SOL    HW116745   0.267   6.556   0.446
 5282SOL    HW216746   0.166   6.684   0.436
 5283SOL     OW16747   1.191   1.174   3.923
 5283SOL    HW116748   1.218   1.270   3.913
 5283SOL    HW216749   1.271   1.119   3.946
 5284SOL     OW16750   4.977   3.078   1.955
 5284SOL    HW116751   5.044   3.025   2.008
 5284SOL    HW216752   4.890   3.029   1.955
 5285SOL     OW16753   1.735   1.981   4.107
 5285SOL    HW116754   1.754   1.933   4.021
 5285SOL    HW216755   1.664   1.931   4.158
 5286SOL     OW16756   6.602   2.972   1.279
 5286SOL    HW116757   6.631   3.018   1.195
 5286SOL    HW216758   6.524   2.913   1.260
 5287SOL     OW16759   0.925   5.496   2.069
 5287SOL    HW116760   0.944   5.414   2.122
 5287SOL    HW216761   0.849   5.479   2.006
 5288SOL     OW16762   4.388   0.817   1.758
 5288SOL    HW116763   4.323   0.891   1.744
 5288SOL    HW216764   4.344   0.730   1.741
 5289SOL     OW16765   2.585   4.568   5.934
 5289SOL    HW116766   2.513   4.539   5.998
 5289SOL    HW216767   2.573   4.520   5.847
 5290SOL     OW16768   1.866   2.634   4.799
 5290SOL    HW116769   1.926   2.687   4.740
 5290SOL    HW216770   1.785   2.606   4.748
 5291SOL     OW16771   2.964   4.869   4.567
 5291SOL    HW116772   2.882   4.826   4.605
 5291SOL    HW216773   3.030   4.887   4.640
 5292SOL     OW16774   0.376   3.971   4.611
 5292SOL    HW116775   0.311   3.996   4.683
 5292SOL    HW216776   0.339   3.893   4.560
 5293SOL     OW16777   2.554   0.471   4.193
 5293SOL    HW116778   2.468   0.425   4.212
 5293SOL    HW216779   2.627   0.403   4.188
 5294SOL     OW16780   5.132   6.827   4.636
 5294SOL    HW116781   5.224   6.796   4.657
 5294SOL    HW216782   5.066   6.777   4.693
 5295SOL     OW16783   2.191   0.630   1.677
 5295SOL    HW116784   2.116   0.643   1.741
 5295SOL    HW216785   2.259   0.568   1.716
 5296SOL     OW16786   4.494   4.694   2.052
 5296SOL    HW116787   4.548   4.638   1.990
 5296SOL    HW216788   4.552   4.767   2.089
 5297SOL     OW16789   3.144   5.355   6.017
 5297SOL    HW116790   3.224   5.359   5.958
 5297SOL    HW216791   3.172   5.366   6.113
 5298SOL     OW16792   2.615   2.364   0.417
 5298SOL    HW116793   2.571   2.274   0.414
 5298SOL    HW216794   2.711   2.355   0.391
 5299SOL     OW16795   2.578   0.782   1.474
 5299SOL    HW116796   2.602   0.701   1.527
 5299SOL    HW216797   2.634   0.859   1.504
 5300SOL     OW16798   3.250   5.019   6.826
 5300SOL    HW116799   3.173   5.081   6.840
 5300SOL    HW216800   3.220   4.941   6.770
 5301SOL     OW16801   5.725   0.071   5.917
 5301SOL    HW116802   5.671   0.020   5.850
 5301SOL    HW216803   5.671   0.084   6.000
 5302SOL     OW16804   4.944   5.857   2.799
 5302SOL    HW116805   5.020   5.809   2.843
 5302SOL    HW216806   4.864   5.857   2.860
 5303SOL     OW16807   1.002   5.794   5.477
 5303SOL    HW116808   1.035   5.803   5.383
 5303SOL    HW216809   1.050   5.718   5.522
 5304SOL     OW16810   0.717   0.700   3.190
 5304SOL    HW116811   0.699   0.634   3.117
 5304SOL    HW216812   0.811   0.733   3.183
 5305SOL     OW16813   0.051   5.546   4.658
 5305SOL    HW116814   0.134   5.598   4.674
 5305SOL    HW216815   6.991   5.603   4.678
 5306SOL     OW16816   1.162   2.140   5.910
 5306SOL    HW116817   1.225   2.191   5.969
 5306SOL    HW216818   1.107   2.078   5.965
 5307SOL     OW16819   0.182   1.463   1.225
 5307SOL    HW116820   0.153   1.385   1.170
 5307SOL    HW216821   0.101   1.511   1.260
 5308SOL     OW16822   1.234   4.495   2.395
 5308SOL    HW116823   1.309   4.542   2.441
 5308SOL    HW216824   1.200   4.552   2.320
 5309SOL     OW16825   5.665   5.524   3.349
 5309SOL    HW116826   5.696   5.536   3.443
 5309SOL    HW216827   5.614   5.604   3.320
 5310SOL     OW16828   6.438   2.612   3.547
 5310SOL    HW116829   6.511   2.623   3.479
 5310SOL    HW216830   6.479   2.609   3.638
 5311SOL     OW16831   6.070   0.457   0.061
 5311SOL    HW116832   6.160   0.454   0.104
 5311SOL    HW216833   6.002   0.485   0.129
 5312SOL     OW16834   6.133   6.394   0.345
 5312SOL    HW116835   6.115   6.442   0.259
 5312SOL    HW216836   6.049   6.352   0.378
 5313SOL     OW16837   0.908   6.879   5.959
 5313SOL    HW116838   0.956   6.815   5.898
 5313SOL    HW216839   0.964   6.960   5.972
 5314SOL     OW16840   6.126   1.624   2.073
 5314SOL    HW116841   6.125   1.688   2.150
 5314SOL    HW216842   6.061   1.654   2.003
 5315SOL     OW16843   4.091   2.181   3.624
 5315SOL    HW116844   4.138   2.098   3.654
 5315SOL    HW216845   4.134   2.260   3.668
 5316SOL     OW16846   0.522   2.517   4.628
 5316SOL    HW116847   0.561   2.489   4.540
 5316SOL    HW216848   0.454   2.450   4.657
 5317SOL     OW16849   5.522   2.717   6.596
 5317SOL    HW116850   5.572   2.637   6.562
 5317SOL    HW216851   5.522   2.716   6.696
 5318SOL     OW16852   0.115   4.032   6.214
 5318SOL    HW116853   0.149   4.084   6.135
 5318SOL    HW216854   0.016   4.043   6.220
 5319SOL     OW16855   3.445   6.007   2.512
 5319SOL    HW116856   3.465   6.046   2.422
 5319SOL    HW216857   3.358   5.957   2.507
 5320SOL     OW16858   4.383   5.829   0.912
 5320SOL    HW116859   4.459   5.766   0.896
 5320SOL    HW216860   4.331   5.798   0.991
 5321SOL     OW16861   1.592   4.365   5.534
 5321SOL    HW116862   1.657   4.441   5.532
 5321SOL    HW216863   1.563   4.344   5.440
 5322SOL     OW16864   4.052   6.862   2.368
 5322SOL    HW116865   4.080   6.776   2.411
 5322SOL    HW216866   3.982   6.906   2.424
 5323SOL     OW16867   4.257   0.356   6.201
 5323SOL    HW116868   4.204   0.348   6.117
 5323SOL    HW216869   4.246   0.448   6.239
 5324SOL     OW16870   1.690   2.384   1.500
 5324SOL    HW116871   1.622   2.332   1.448
 5324SOL    HW216872   1.684   2.359   1.597
 5325SOL     OW16873   1.894   2.661   5.121
 5325SOL    HW116874   1.901   2.666   5.022
 5325SOL    HW216875   1.983   2.679   5.162
 5326SOL     OW16876   6.285   6.982   1.328
 5326SOL    HW116877   6.221   0.017   1.274
 5326SOL    HW216878   6.233   6.922   1.389
 5327SOL     OW16879   0.408   2.298   5.540
 5327SOL    HW116880   0.317   2.310   5.580
 5327SOL    HW216881   0.470   2.367   5.578
 5328SOL     OW16882   4.956   5.324   0.253
 5328SOL    HW116883   4.958   5.304   0.156
 5328SOL    HW216884   4.868   5.297   0.292
 5329SOL     OW16885   2.213   6.807   6.315
 5329SOL    HW116886   2.305   6.835   6.290
 5329SOL    HW216887   2.146   6.865   6.268
 5330SOL     OW16888   2.243   4.842   1.405
 5330SOL    HW116889   2.292   4.757   1.389
 5330SOL    HW216890   2.298   4.919   1.374
 5331SOL     OW16891   6.230   1.017   6.456
 5331SOL    HW116892   6.324   0.996   6.427
 5331SOL    HW216893   6.233   1.081   6.533
 5332SOL     OW16894   6.995   5.215   1.583
 5332SOL    HW116895   0.011   5.289   1.527
 5332SOL    HW216896   0.032   5.134   1.572
 5333SOL     OW16897   0.995   5.898   4.877
 5333SOL    HW116898   1.086   5.930   4.903
 5333SOL    HW216899   0.968   5.823   4.938
 5334SOL     OW16900   3.889   0.192   4.914
 5334SOL    HW116901   3.979   0.231   4.896
 5334SOL    HW216902   3.820   0.265   4.909
 5335SOL     OW16903   0.244   5.685   0.222
 5335SOL    HW116904   0.261   5.747   0.144
 5335SOL    HW216905   0.239   5.591   0.189
 5336SOL     OW16906   1.187   4.562   1.397
 5336SOL    HW116907   1.186   4.662   1.385
 5336SOL    HW216908   1.278   4.528   1.375
 5337SOL     OW16909   5.225   3.927   1.268
 5337SOL    HW116910   5.224   4.020   1.230
 5337SOL    HW216911   5.174   3.926   1.354
 5338SOL     OW16912   6.018   1.957   0.238
 5338SOL    HW116913   6.009   2.037   0.179
 5338SOL    HW216914   5.988   1.876   0.189
 5339SOL     OW16915   6.389   0.376   1.840
 5339SOL    HW116916   6.358   0.342   1.929
 5339SOL    HW216917   6.414   0.298   1.782
 5340SOL     OW16918   5.650   2.151   6.041
 5340SOL    HW116919   5.634   2.175   6.137
 5340SOL    HW216920   5.707   2.221   5.999
 5341SOL     OW16921   4.356   0.712   0.696
 5341SOL    HW116922   4.269   0.679   0.660
 5341SOL    HW216923   4.349   0.727   0.794
 5342SOL     OW16924   2.271   0.897   6.266
 5342SOL    HW116925   2.369   0.885   6.282
 5342SOL    HW216926   2.256   0.985   6.221
 5343SOL     OW16927   3.978   3.883   1.973
 5343SOL    HW116928   3.926   3.940   2.037
 5343SOL    HW216929   3.986   3.790   2.010
 5344SOL     OW16930   2.465   2.466   2.895
 5344SOL    HW116931   2.460   2.521   2.978
 5344SOL    HW216932   2.560   2.442   2.876
 5345SOL     OW16933   5.202   0.261   2.849
 5345SOL    HW116934   5.241   0.344   2.809
 5345SOL    HW216935   5.113   0.281   2.888
 5346SOL     OW16936   2.894   6.663   3.487
 5346SOL    HW116937   2.949   6.725   3.431
 5346SOL    HW216938   2.815   6.712   3.523
 5347SOL     OW16939   6.787   1.524   1.827
 5347SOL    HW116940   6.811   1.428   1.814
 5347SOL    HW216941   6.730   1.554   1.751
 5348SOL     OW16942   0.131   1.016   0.685
 5348SOL    HW116943   0.050   0.958   0.674
 5348SOL    HW216944   0.208   0.959   0.715
 5349SOL     OW16945   6.127   0.185   1.190
 5349SOL    HW116946   6.044   0.207   1.241
 5349SOL    HW216947   6.164   0.268   1.148
 5350SOL     OW16948   2.692   0.466   0.311
 5350SOL    HW116949   2.599   0.487   0.279
 5350SOL    HW216950   2.736   0.550   0.342
 5351SOL     OW16951   4.188   0.626   1.786
 5351SOL    HW116952   4.097   0.649   1.754
 5351SOL    HW216953   4.212   0.685   1.863
 5352SOL     OW16954   3.308   6.294   3.561
 5352SOL    HW116955   3.260   6.266   3.478
 5352SOL    HW216956   3.242   6.317   3.632
 5353SOL     OW16957   5.721   0.319   5.619
 5353SOL    HW116958   5.757   0.291   5.708
 5353SOL    HW216959   5.647   0.257   5.592
 5354SOL     OW16960   1.367   3.562   1.198
 5354SOL    HW116961   1.462   3.534   1.210
 5354SOL    HW216962   1.307   3.491   1.234
 5355SOL     OW16963   4.216   1.888   5.510
 5355SOL    HW116964   4.210   1.982   5.544
 5355SOL    HW216965   4.126   1.844   5.519
 5356SOL     OW16966   5.876   3.200   0.400
 5356SOL    HW116967   5.868   3.100   0.403
 5356SOL    HW216968   5.968   3.225   0.370
 5357SOL     OW16969   3.935   6.119   0.606
 5357SOL    HW116970   3.891   6.068   0.681
 5357SOL    HW216971   3.884   6.104   0.521
 5358SOL     OW16972   5.044   3.780   1.460
 5358SOL    HW116973   4.984   3.859   1.450
 5358SOL    HW216974   5.132   3.808   1.497
 5359SOL     OW16975   2.989   0.147   6.947
 5359SOL    HW116976   3.066   0.087   6.969
 5359SOL    HW216977   3.023   0.227   6.898
 5360SOL     OW16978   4.320   0.479   7.014
 5360SOL    HW116979   4.304   0.514   6.921
 5360SOL    HW216980   4.236   0.491   0.047
 5361SOL     OW16981   1.628   0.785   6.358
 5361SOL    HW116982   1.562   0.860   6.353
 5361SOL    HW216983   1.593   0.715   6.421
 5362SOL     OW16984   3.874   5.500   3.772
 5362SOL    HW116985   3.799   5.440   3.744
 5362SOL    HW216986   3.921   5.460   3.850
 5363SOL     OW16987   0.612   5.216   5.038
 5363SOL    HW116988   0.602   5.118   5.055
 5363SOL    HW216989   0.678   5.255   5.102
 5364SOL     OW16990   0.972   6.350   6.537
 5364SOL    HW116991   0.892   6.396   6.497
 5364SOL    HW216992   0.987   6.263   6.490
 5365SOL     OW16993   3.595   1.801   5.928
 5365SOL    HW116994   3.568   1.710   5.961
 5365SOL    HW216995   3.618   1.859   6.006
 5366SOL     OW16996   3.538   4.276   6.427
 5366SOL    HW116997   3.624   4.317   6.458
 5366SOL    HW216998   3.480   4.346   6.386
 5367SOL     OW16999   0.560   4.792   0.733
 5367SOL    HW117000   0.544   4.774   0.636
 5367SOL    HW217001   0.654   4.769   0.755
 5368SOL     OW17002   6.981   0.714   3.962
 5368SOL    HW117003   6.952   0.659   4.041
 5368SOL    HW217004   6.922   0.695   3.884
 5369SOL     OW17005   2.004   3.375   2.400
 5369SOL    HW117006   2.053   3.295   2.365
 5369SOL    HW217007   2.040   3.399   2.490
 5370SOL     OW17008   3.965   2.989   1.335
 5370SOL    HW117009   4.060   2.968   1.312
 5370SOL    HW217010   3.926   2.912   1.385
 5371SOL     OW17011   1.660   4.069   5.113
 5371SOL    HW117012   1.742   4.013   5.102
 5371SOL    HW217013   1.630   4.102   5.024
 5372SOL     OW17014   2.766   6.330   2.884
 5372SOL    HW117015   2.771   6.356   2.980
 5372SOL    HW217016   2.834   6.381   2.832
 5373SOL     OW17017   1.982   4.964   4.246
 5373SOL    HW117018   1.888   4.960   4.213
 5373SOL    HW217019   1.995   4.897   4.318
 5374SOL     OW17020   2.923   2.745   0.695
 5374SOL    HW117021   2.853   2.728   0.764
 5374SOL    HW217022   2.994   2.675   0.702
 5375SOL     OW17023   1.219   3.914   4.893
 5375SOL    HW117024   1.213   4.009   4.862
 5375SOL    HW217025   1.176   3.906   4.983
 5376SOL     OW17026   2.973   4.261   6.879
 5376SOL    HW117027   2.965   4.289   6.783
 5376SOL    HW217028   2.945   4.165   6.888
 5377SOL     OW17029   0.704   1.546   1.546
 5377SOL    HW117030   0.621   1.499   1.514
 5377SOL    HW217031   0.699   1.559   1.645
 5378SOL     OW17032   5.029   6.847   0.285
 5378SOL    HW117033   5.047   6.937   0.245
 5378SOL    HW217034   5.003   6.857   0.381
 5379SOL     OW17035   6.850   6.640   0.859
 5379SOL    HW117036   6.892   6.694   0.786
 5379SOL    HW217037   6.913   6.634   0.937
 5380SOL     OW17038   2.213   1.125   4.142
 5380SOL    HW117039   2.292   1.124   4.203
 5380SOL    HW217040   2.189   1.219   4.120
 5381SOL     OW17041   5.754   3.683   1.586
 5381SOL    HW117042   5.782   3.674   1.681
 5381SOL    HW217043   5.749   3.592   1.544
 5382SOL     OW17044   1.647   7.018   1.510
 5382SOL    HW117045   1.695   6.996   1.594
 5382SOL    HW217046   1.677   6.957   1.437
 5383SOL     OW17047   2.110   2.149   4.605
 5383SOL    HW117048   2.088   2.052   4.598
 5383SOL    HW217049   2.033   2.199   4.645
 5384SOL     OW17050   5.360   6.687   4.361
 5384SOL    HW117051   5.427   6.622   4.398
 5384SOL    HW217052   5.287   6.701   4.427
 5385SOL     OW17053   3.184   4.003   2.755
 5385SOL    HW117054   3.242   3.967   2.828
 5385SOL    HW217055   3.093   3.962   2.762
 5386SOL     OW17056   5.628   6.905   5.702
 5386SOL    HW117057   5.651   6.808   5.691
 5386SOL    HW217058   5.691   6.960   5.647
 5387SOL     OW17059   3.460   4.954   1.146
 5387SOL    HW117060   3.435   5.029   1.207
 5387SOL    HW217061   3.535   4.983   1.086
 5388SOL     OW17062   6.076   6.023   2.897
 5388SOL    HW117063   6.092   5.932   2.859
 5388SOL    HW217064   5.982   6.050   2.880
 5389SOL     OW17065   5.687   2.371   1.263
 5389SOL    HW117066   5.677   2.286   1.212
 5389SOL    HW217067   5.732   2.353   1.351
 5390SOL     OW17068   5.986   4.827   5.948
 5390SOL    HW117069   6.074   4.792   5.917
 5390SOL    HW217070   5.913   4.771   5.908
 5391SOL     OW17071   3.370   3.147   7.017
 5391SOL    HW117072   3.321   3.062   6.997
 5391SOL    HW217073   3.332   3.189   0.079
 5392SOL     OW17074   6.589   2.671   3.030
 5392SOL    HW117075   6.515   2.613   2.997
 5392SOL    HW217076   6.591   2.756   2.977
 5393SOL     OW17077   6.508   6.450   6.245
 5393SOL    HW117078   6.546   6.540   6.268
 5393SOL    HW217079   6.477   6.405   6.329
 5394SOL     OW17080   2.014   3.740   5.411
 5394SOL    HW117081   2.050   3.652   5.440
 5394SOL    HW217082   1.938   3.727   5.347
 5395SOL     OW17083   4.472   0.605   1.090
 5395SOL    HW117084   4.543   0.672   1.115
 5395SOL    HW217085   4.512   0.534   1.032
 5396SOL     OW17086   4.569   2.504   2.015
 5396SOL    HW117087   4.608   2.583   1.969
 5396SOL    HW217088   4.570   2.519   2.114
 5397SOL     OW17089   0.926   2.800   1.695
 5397SOL    HW117090   1.017   2.807   1.653
 5397SOL    HW217091   0.918   2.714   1.744
 5398SOL     OW17092   3.221   2.931   2.217
 5398SOL    HW117093   3.275   2.905   2.136
 5398SOL    HW217094   3.133   2.969   2.188
 5399SOL     OW17095   0.703   5.374   6.770
 5399SOL    HW117096   0.791   5.329   6.789
 5399SOL    HW217097   0.659   5.399   6.856
 5400SOL     OW17098   2.240   3.490   6.893
 5400SOL    HW117099   2.148   3.461   6.868
 5400SOL    HW217100   2.306   3.423   6.861
 5401SOL     OW17101   6.294   2.124   0.923
 5401SOL    HW117102   6.311   2.180   1.004
 5401SOL    HW217103   6.279   2.029   0.952
 5402SOL     OW17104   1.136   6.034   2.674
 5402SOL    HW117105   1.127   6.133   2.676
 5402SOL    HW217106   1.228   6.010   2.642
 5403SOL     OW17107   6.098   3.106   6.784
 5403SOL    HW117108   6.007   3.074   6.812
 5403SOL    HW217109   6.106   3.102   6.685
 5404SOL     OW17110   1.173   2.917   3.153
 5404SOL    HW117111   1.217   2.831   3.178
 5404SOL    HW217112   1.215   2.952   3.069
 5405SOL     OW17113   0.047   3.934   5.416
 5405SOL    HW117114   7.014   3.919   5.499
 5405SOL    HW217115   0.111   3.858   5.403
 5406SOL     OW17116   1.318   0.452   4.198
 5406SOL    HW117117   1.387   0.394   4.242
 5406SOL    HW217118   1.302   0.419   4.105
 5407SOL     OW17119   4.178   3.504   6.525
 5407SOL    HW117120   4.085   3.507   6.562
 5407SOL    HW217121   4.215   3.411   6.536
 5408SOL     OW17122   3.541   0.849   0.069
 5408SOL    HW117123   3.620   0.793   0.046
 5408SOL    HW217124   3.537   0.928   0.008
 5409SOL     OW17125   4.605   0.450   2.623
 5409SOL    HW117126   4.616   0.471   2.525
 5409SOL    HW217127   4.522   0.492   2.657
 5410SOL     OW17128   1.667   2.082   3.467
 5410SOL    HW117129   1.585   2.031   3.491
 5410SOL    HW217130   1.723   2.028   3.404
 5411SOL     OW17131   1.905   4.683   4.885
 5411SOL    HW117132   1.906   4.729   4.797
 5411SOL    HW217133   1.994   4.693   4.930
 5412SOL     OW17134   6.435   2.346   2.290
 5412SOL    HW117135   6.352   2.349   2.234
 5412SOL    HW217136   6.492   2.425   2.269
 5413SOL     OW17137   1.995   6.886   2.444
 5413SOL    HW117138   1.907   6.855   2.479
 5413SOL    HW217139   2.068   6.828   2.480
 5414SOL     OW17140   4.381   0.814   5.135
 5414SOL    HW117141   4.298   0.836   5.185
 5414SOL    HW217142   4.361   0.742   5.068
 5415SOL     OW17143   6.312   4.153   2.389
 5415SOL    HW117144   6.217   4.160   2.359
 5415SOL    HW217145   6.339   4.057   2.395
 5416SOL     OW17146   4.176   5.465   4.384
 5416SOL    HW117147   4.099   5.470   4.320
 5416SOL    HW217148   4.163   5.389   4.447
 5417SOL     OW17149   2.897   6.846   5.940
 5417SOL    HW117150   2.871   6.908   6.014
 5417SOL    HW217151   2.836   6.859   5.862
 5418SOL     OW17152   3.660   0.947   3.617
 5418SOL    HW117153   3.596   0.916   3.687
 5418SOL    HW217154   3.714   0.870   3.584
 5419SOL     OW17155   3.482   3.961   0.235
 5419SOL    HW117156   3.548   4.001   0.298
 5419SOL    HW217157   3.414   4.030   0.210
 5420SOL     OW17158   0.833   2.606   2.728
 5420SOL    HW117159   0.806   2.657   2.646
 5420SOL    HW217160   0.932   2.618   2.742
 5421SOL     OW17161   1.760   2.811   0.869
 5421SOL    HW117162   1.702   2.875   0.820
 5421SOL    HW217163   1.752   2.720   0.828
 5422SOL     OW17164   0.847   3.658   0.180
 5422SOL    HW117165   0.820   3.699   0.267
 5422SOL    HW217166   0.945   3.638   0.182
 5423SOL     OW17167   5.255   3.239   5.669
 5423SOL    HW117168   5.321   3.190   5.612
 5423SOL    HW217169   5.190   3.288   5.611
 5424SOL     OW17170   5.516   3.724   5.415
 5424SOL    HW117171   5.488   3.704   5.509
 5424SOL    HW217172   5.471   3.808   5.384
 5425SOL     OW17173   5.286   0.673   4.785
 5425SOL    HW117174   5.293   0.768   4.815
 5425SOL    HW217175   5.217   0.667   4.712
 5426SOL     OW17176   0.209   6.683   5.191
 5426SOL    HW117177   0.252   6.773   5.203
 5426SOL    HW217178   0.278   6.618   5.160
 5427SOL     OW17179   4.182   6.680   6.883
 5427SOL    HW117180   4.147   6.774   6.874
 5427SOL    HW217181   4.113   6.616   6.849
 5428SOL     OW17182   2.233   0.735   0.018
 5428SOL    HW117183   2.274   0.736   6.947
 5428SOL    HW217184   2.166   0.809   0.025
 5429SOL     OW17185   1.240   2.469   5.845
 5429SOL    HW117186   1.168   2.466   5.914
 5429SOL    HW217187   1.294   2.553   5.857
 5430SOL     OW17188   2.285   2.304   5.351
 5430SOL    HW117189   2.303   2.208   5.326
 5430SOL    HW217190   2.294   2.314   5.450
 5431SOL     OW17191   3.476   5.836   4.480
 5431SOL    HW117192   3.468   5.747   4.436
 5431SOL    HW217193   3.516   5.826   4.570
 5432SOL     OW17194   5.659   5.598   1.184
 5432SOL    HW117195   5.579   5.651   1.156
 5432SOL    HW217196   5.659   5.510   1.137
 5433SOL     OW17197   0.257   1.936   4.054
 5433SOL    HW117198   0.248   1.986   3.969
 5433SOL    HW217199   0.243   1.998   4.131
 5434SOL     OW17200   2.488   6.907   5.280
 5434SOL    HW117201   2.456   6.958   5.199
 5434SOL    HW217202   2.507   6.812   5.254
 5435SOL     OW17203   5.324   1.460   1.960
 5435SOL    HW117204   5.303   1.510   1.875
 5435SOL    HW217205   5.293   1.365   1.950
 5436SOL     OW17206   5.135   4.027   2.519
 5436SOL    HW117207   5.199   4.067   2.453
 5436SOL    HW217208   5.042   4.040   2.486
 5437SOL     OW17209   3.515   4.561   6.695
 5437SOL    HW117210   3.572   4.618   6.755
 5437SOL    HW217211   3.531   4.465   6.715
 5438SOL     OW17212   6.642   1.080   1.200
 5438SOL    HW117213   6.705   1.149   1.165
 5438SOL    HW217214   6.693   1.014   1.256
 5439SOL     OW17215   1.093   2.959   1.296
 5439SOL    HW117216   1.084   3.058   1.282
 5439SOL    HW217217   1.162   2.923   1.234
 5440SOL     OW17218   1.602   1.295   1.453
 5440SOL    HW117219   1.537   1.325   1.384
 5440SOL    HW217220   1.689   1.270   1.409
 5441SOL     OW17221   3.678   2.152   4.106
 5441SOL    HW117222   3.605   2.118   4.047
 5441SOL    HW217223   3.648   2.149   4.202
 5442SOL     OW17224   3.386   0.607   2.158
 5442SOL    HW117225   3.450   0.682   2.178
 5442SOL    HW217226   3.295   0.645   2.140
 5443SOL     OW17227   2.677   0.044   5.925
 5443SOL    HW117228   2.706   0.125   5.976
 5443SOL    HW217229   2.702   0.055   5.828
 5444SOL     OW17230   0.310   0.688   3.620
 5444SOL    HW117231   0.257   0.613   3.659
 5444SOL    HW217232   0.301   0.686   3.520
 5445SOL     OW17233   5.996   3.381   1.943
 5445SOL    HW117234   6.051   3.460   1.967
 5445SOL    HW217235   6.054   3.310   1.904
 5446SOL     OW17236   6.845   5.551   5.900
 5446SOL    HW117237   6.773   5.572   5.966
 5446SOL    HW217238   6.934   5.562   5.943
 5447SOL     OW17239   2.861   2.316   0.877
 5447SOL    HW117240   2.929   2.301   0.949
 5447SOL    HW217241   2.812   2.401   0.895
 5448SOL     OW17242   5.522   1.769   6.170
 5448SOL    HW117243   5.536   1.681   6.126
 5448SOL    HW217244   5.589   1.835   6.135
 5449SOL     OW17245   0.365   2.360   6.583
 5449SOL    HW117246   0.463   2.375   6.572
 5449SOL    HW217247   0.324   2.438   6.631
 5450SOL     OW17248   2.244   5.975   0.940
 5450SOL    HW117249   2.273   5.971   1.035
 5450SOL    HW217250   2.325   5.970   0.881
 5451SOL     OW17251   2.151   0.177   3.145
 5451SOL    HW117252   2.149   0.105   3.076
 5451SOL    HW217253   2.110   0.260   3.108
 5452SOL     OW17254   2.563   3.649   5.548
 5452SOL    HW117255   2.651   3.661   5.594
 5452SOL    HW217256   2.543   3.729   5.492
 5453SOL     OW17257   0.656   5.002   6.096
 5453SOL    HW117258   0.693   5.095   6.096
 5453SOL    HW217259   0.730   4.937   6.080
 5454SOL     OW17260   0.272   4.040   5.073
 5454SOL    HW117261   0.207   3.980   5.026
 5454SOL    HW217262   0.365   4.005   5.060
 5455SOL     OW17263   6.611   2.751   0.584
 5455SOL    HW117264   6.601   2.752   0.485
 5455SOL    HW217265   6.695   2.702   0.609
 5456SOL     OW17266   3.350   6.743   1.721
 5456SOL    HW117267   3.375   6.817   1.659
 5456SOL    HW217268   3.365   6.655   1.676
 5457SOL     OW17269   6.531   3.877   0.301
 5457SOL    HW117270   6.576   3.788   0.303
 5457SOL    HW217271   6.433   3.865   0.318
 5458SOL     OW17272   1.926   4.291   6.105
 5458SOL    HW117273   1.957   4.248   6.189
 5458SOL    HW217274   2.005   4.313   6.048
 5459SOL     OW17275   2.202   4.328   5.979
 5459SOL    HW117276   2.274   4.394   5.999
 5459SOL    HW217277   2.178   4.333   5.882
 5460SOL     OW17278   3.942   0.133   3.241
 5460SOL    HW117279   3.872   0.150   3.310
 5460SOL    HW217280   3.933   0.201   3.168
 5461SOL     OW17281   4.460   6.393   4.765
 5461SOL    HW117282   4.493   6.317   4.821
 5461SOL    HW217283   4.378   6.364   4.715
 5462SOL     OW17284   0.652   0.577   1.482
 5462SOL    HW117285   0.687   0.556   1.574
 5462SOL    HW217286   0.559   0.612   1.489
 5463SOL     OW17287   6.887   3.680   0.946
 5463SOL    HW117288   6.810   3.630   0.907
 5463SOL    HW217289   6.935   3.623   1.012
 5464SOL     OW17290   2.080   6.435   4.214
 5464SOL    HW117291   2.153   6.482   4.164
 5464SOL    HW217292   1.992   6.469   4.182
 5465SOL     OW17293   2.469   5.638   6.596
 5465SOL    HW117294   2.460   5.565   6.528
 5465SOL    HW217295   2.461   5.726   6.551
 5466SOL     OW17296   5.210   5.084   4.919
 5466SOL    HW117297   5.284   5.096   4.985
 5466SOL    HW217298   5.226   5.000   4.867
 5467SOL     OW17299   5.777   1.542   2.131
 5467SOL    HW117300   5.848   1.471   2.128
 5467SOL    HW217301   5.699   1.512   2.075
 5468SOL     OW17302   4.409   1.541   5.795
 5468SOL    HW117303   4.420   1.631   5.753
 5468SOL    HW217304   4.349   1.549   5.875
 5469SOL     OW17305   4.827   4.417   1.540
 5469SOL    HW117306   4.744   4.369   1.509
 5469SOL    HW217307   4.880   4.356   1.598
 5470SOL     OW17308   0.170   5.188   3.250
 5470SOL    HW117309   0.243   5.133   3.292
 5470SOL    HW217310   0.187   5.195   3.152
 5471SOL     OW17311   6.119   4.682   2.342
 5471SOL    HW117312   6.131   4.766   2.289
 5471SOL    HW217313   6.073   4.703   2.428
 5472SOL     OW17314   3.770   5.473   5.291
 5472SOL    HW117315   3.865   5.447   5.307
 5472SOL    HW217316   3.730   5.506   5.376
 5473SOL     OW17317   1.655   4.158   3.446
 5473SOL    HW117318   1.571   4.163   3.500
 5473SOL    HW217319   1.727   4.116   3.501
 5474SOL     OW17320   1.098   6.256   3.442
 5474SOL    HW117321   1.103   6.354   3.422
 5474SOL    HW217322   1.078   6.244   3.539
 5475SOL     OW17323   3.092   2.839   1.599
 5475SOL    HW117324   3.141   2.834   1.686
 5475SOL    HW217325   3.005   2.886   1.612
 5476SOL     OW17326   1.787   3.161   6.968
 5476SOL    HW117327   1.827   3.249   6.993
 5476SOL    HW217328   1.857   3.090   6.974
 5477SOL     OW17329   2.084   2.379   2.338
 5477SOL    HW117330   2.064   2.439   2.261
 5477SOL    HW217331   2.005   2.319   2.356
 5478SOL     OW17332   0.048   5.614   6.085
 5478SOL    HW117333   7.012   5.675   6.141
 5478SOL    HW217334   0.088   5.543   6.143
 5479SOL     OW17335   4.838   7.008   5.357
 5479SOL    HW117336   4.812   6.950   5.434
 5479SOL    HW217337   4.763   0.051   5.336
 5480SOL     OW17338   0.828   2.634   5.441
 5480SOL    HW117339   0.835   2.644   5.541
 5480SOL    HW217340   0.897   2.570   5.409
 5481SOL     OW17341   4.504   6.617   3.549
 5481SOL    HW117342   4.582   6.676   3.567
 5481SOL    HW217343   4.421   6.658   3.588
 5482SOL     OW17344   1.999   5.455   1.984
 5482SOL    HW117345   2.002   5.375   2.044
 5482SOL    HW217346   1.968   5.429   1.893
 5483SOL     OW17347   0.632   2.207   6.082
 5483SOL    HW117348   0.571   2.277   6.044
 5483SOL    HW217349   0.653   2.139   6.012
 5484SOL     OW17350   5.229   0.074   4.737
 5484SOL    HW117351   5.313   0.110   4.694
 5484SOL    HW217352   5.203   7.009   4.693
 5485SOL     OW17353   3.881   0.775   4.963
 5485SOL    HW117354   3.968   0.795   4.918
 5485SOL    HW217355   3.810   0.762   4.895
 5486SOL     OW17356   3.039   5.056   3.760
 5486SOL    HW117357   2.974   4.987   3.793
 5486SOL    HW217358   3.103   5.078   3.833
 5487SOL     OW17359   3.174   5.656   5.548
 5487SOL    HW117360   3.247   5.614   5.603
 5487SOL    HW217361   3.087   5.611   5.569
 5488SOL     OW17362   4.730   1.806   6.872
 5488SOL    HW117363   4.664   1.843   6.807
 5488SOL    HW217364   4.822   1.835   6.847
 5489SOL     OW17365   0.239   3.334   3.925
 5489SOL    HW117366   0.193   3.307   3.841
 5489SOL    HW217367   0.313   3.398   3.903
 5490SOL     OW17368   0.842   5.259   2.671
 5490SOL    HW117369   0.812   5.164   2.669
 5490SOL    HW217370   0.799   5.309   2.596
 5491SOL     OW17371   6.270   3.836   0.334
 5491SOL    HW117372   6.184   3.882   0.359
 5491SOL    HW217373   6.250   3.743   0.303
 5492SOL     OW17374   0.099   1.966   6.211
 5492SOL    HW117375   0.049   2.015   6.282
 5492SOL    HW217376   0.144   1.886   6.251
 5493SOL     OW17377   4.183   4.199   0.070
 5493SOL    HW117378   4.191   4.252   7.006
 5493SOL    HW217379   4.177   4.101   0.048
 5494SOL     OW17380   6.032   2.764   5.542
 5494SOL    HW117381   6.063   2.715   5.461
 5494SOL    HW217382   6.048   2.862   5.530
 5495SOL     OW17383   5.684   0.391   0.021
 5495SOL    HW117384   5.587   0.395   0.043
 5495SOL    HW217385   5.714   0.480   7.006
 5496SOL     OW17386   4.091   0.031   5.932
 5496SOL    HW117387   4.089   0.035   6.032
 5496SOL    HW217388   4.085   6.956   5.903
 5497SOL     OW17389   0.858   0.505   5.322
 5497SOL    HW117390   0.947   0.549   5.334
 5497SOL    HW217391   0.819   0.483   5.412
 5498SOL     OW17392   0.285   5.003   1.401
 5498SOL    HW117393   0.215   4.949   1.447
 5498SOL    HW217394   0.285   5.096   1.440
 5499SOL     OW17395   2.255   0.484   3.975
 5499SOL    HW117396   2.309   0.566   3.958
 5499SOL    HW217397   2.160   0.500   3.949
 5500SOL     OW17398   2.390   6.531   1.275
 5500SOL    HW117399   2.332   6.599   1.319
 5500SOL    HW217400   2.337   6.482   1.205
 5501SOL     OW17401   4.475   3.355   6.874
 5501SOL    HW117402   4.495   3.449   6.902
 5501SOL    HW217403   4.376   3.340   6.873
 5502SOL     OW17404   4.566   3.341   6.545
 5502SOL    HW117405   4.514   3.331   6.630
 5502SOL    HW217406   4.602   3.252   6.517
 5503SOL     OW17407   5.874   3.507   0.795
 5503SOL    HW117408   5.881   3.557   0.709
 5503SOL    HW217409   5.891   3.569   0.871
 5504SOL     OW17410   3.674   2.073   7.018
 5504SOL    HW117411   3.678   2.163   0.041
 5504SOL    HW217412   3.705   2.080   6.924
 5505SOL     OW17413   3.013   4.831   2.592
 5505SOL    HW117414   2.981   4.809   2.500
 5505SOL    HW217415   2.939   4.812   2.658
 5506SOL     OW17416   6.608   2.466   6.173
 5506SOL    HW117417   6.527   2.517   6.202
 5506SOL    HW217418   6.660   2.520   6.107
 5507SOL     OW17419   3.812   6.628   0.766
 5507SOL    HW117420   3.755   6.686   0.824
 5507SOL    HW217421   3.859   6.685   0.698
 5508SOL     OW17422   0.426   1.470   6.466
 5508SOL    HW117423   0.445   1.520   6.550
 5508SOL    HW217424   0.349   1.408   6.480
 5509SOL     OW17425   6.299   3.778   6.927
 5509SOL    HW117426   6.245   3.854   6.961
 5509SOL    HW217427   6.315   3.711   7.000
 5510SOL     OW17428   5.174   5.406   6.511
 5510SOL    HW117429   5.155   5.309   6.525
 5510SOL    HW217430   5.257   5.431   6.560
 5511SOL     OW17431   1.131   2.492   6.092
 5511SOL    HW117432   1.038   2.458   6.105
 5511SOL    HW217433   1.153   2.558   6.164
 5512SOL     OW17434   1.948   0.158   2.570
 5512SOL    HW117435   1.852   0.140   2.592
 5512SOL    HW217436   2.004   0.081   2.599
 5513SOL     OW17437   3.407   4.608   0.110
 5513SOL    HW117438   3.462   4.664   0.173
 5513SOL    HW217439   3.326   4.659   0.083
 5514SOL     OW17440   3.432   1.095   0.568
 5514SOL    HW117441   3.492   1.088   0.489
 5514SOL    HW217442   3.398   1.188   0.577
 5515SOL     OW17443   3.298   5.151   2.712
 5515SOL    HW117444   3.283   5.123   2.807
 5515SOL    HW217445   3.295   5.071   2.652
 5516SOL     OW17446   1.887   2.370   5.963
 5516SOL    HW117447   1.803   2.344   5.916
 5516SOL    HW217448   1.864   2.422   6.045
 5517SOL     OW17449   1.102   1.908   3.562
 5517SOL    HW117450   1.007   1.882   3.549
 5517SOL    HW217451   1.116   1.943   3.654
 5518SOL     OW17452   4.368   4.990   6.289
 5518SOL    HW117453   4.351   5.088   6.281
 5518SOL    HW217454   4.428   4.961   6.214
 5519SOL     OW17455   5.593   2.542   5.875
 5519SOL    HW117456   5.535   2.613   5.833
 5519SOL    HW217457   5.535   2.478   5.926
 5520SOL     OW17458   4.851   6.290   1.198
 5520SOL    HW117459   4.829   6.253   1.107
 5520SOL    HW217460   4.869   6.214   1.261
 5521SOL     OW17461   4.480   6.736   2.132
 5521SOL    HW117462   4.532   6.789   2.200
 5521SOL    HW217463   4.396   6.702   2.174
 5522SOL     OW17464   5.230   6.410   6.882
 5522SOL    HW117465   5.133   6.434   6.878
 5522SOL    HW217466   5.278   6.475   6.940
 5523SOL     OW17467   5.156   2.434   0.845
 5523SOL    HW117468   5.146   2.475   0.754
 5523SOL    HW217469   5.087   2.363   0.858
 5524SOL     OW17470   2.860   1.250   3.452
 5524SOL    HW117471   2.792   1.312   3.490
 5524SOL    HW217472   2.926   1.303   3.398
 5525SOL     OW17473   6.968   1.646   1.301
 5525SOL    HW117474   6.969   1.633   1.201
 5525SOL    HW217475   6.878   1.678   1.330
 5526SOL     OW17476   5.609   4.255   4.050
 5526SOL    HW117477   5.706   4.275   4.039
 5526SOL    HW217478   5.589   4.240   4.147
 5527SOL     OW17479   6.526   0.389   2.683
 5527SOL    HW117480   6.524   0.487   2.664
 5527SOL    HW217481   6.616   0.352   2.659
 5528SOL     OW17482   1.361   1.616   6.474
 5528SOL    HW117483   1.374   1.602   6.572
 5528SOL    HW217484   1.354   1.714   6.455
 5529SOL     OW17485   3.157   0.770   2.070
 5529SOL    HW117486   3.177   0.851   2.014
 5529SOL    HW217487   3.095   0.796   2.144
 5530SOL     OW17488   0.799   1.723   1.092
 5530SOL    HW117489   0.788   1.753   0.998
 5530SOL    HW217490   0.841   1.795   1.146
 5531SOL     OW17491   1.463   4.350   0.568
 5531SOL    HW117492   1.422   4.351   0.476
 5531SOL    HW217493   1.525   4.272   0.575
 5532SOL     OW17494   0.441   4.100   6.233
 5532SOL    HW117495   0.438   4.009   6.274
 5532SOL    HW217496   0.386   4.163   6.289
 5533SOL     OW17497   3.942   1.052   2.909
 5533SOL    HW117498   3.857   1.006   2.884
 5533SOL    HW217499   3.994   0.994   2.972
 5534SOL     OW17500   1.642   0.415   4.421
 5534SOL    HW117501   1.738   0.389   4.406
 5534SOL    HW217502   1.635   0.515   4.422
 5535SOL     OW17503   6.974   2.130   2.629
 5535SOL    HW117504   7.005   2.128   2.724
 5535SOL    HW217505   7.010   2.049   2.581
 5536SOL     OW17506   4.731   6.935   4.490
 5536SOL    HW117507   4.655   6.997   4.512
 5536SOL    HW217508   4.817   6.976   4.519
 5537SOL     OW17509   2.732   2.383   3.125
 5537SOL    HW117510   2.642   2.405   3.163
 5537SOL    HW217511   2.723   2.365   3.027
 5538SOL     OW17512   4.496   5.619   4.090
 5538SOL    HW117513   4.522   5.566   4.171
 5538SOL    HW217514   4.577   5.636   4.034
 5539SOL     OW17515   2.187   4.428   6.796
 5539SOL    HW117516   2.111   4.379   6.753
 5539SOL    HW217517   2.273   4.399   6.754
 5540SOL     OW17518   4.163   5.517   1.410
 5540SOL    HW117519   4.096   5.443   1.411
 5540SOL    HW217520   4.115   5.605   1.410
 5541SOL     OW17521   4.353   0.751   6.089
 5541SOL    HW117522   4.266   0.782   6.127
 5541SOL    HW217523   4.338   0.672   6.029
 5542SOL     OW17524   5.175   4.518   6.111
 5542SOL    HW117525   5.163   4.524   6.012
 5542SOL    HW217526   5.271   4.538   6.133
 5543SOL     OW17527   0.668   1.754   5.133
 5543SOL    HW117528   0.729   1.832   5.139
 5543SOL    HW217529   0.610   1.762   5.052
 5544SOL     OW17530   5.767   0.928   0.272
 5544SOL    HW117531   5.734   0.873   0.196
 5544SOL    HW217532   5.735   1.022   0.262
 5545SOL     OW17533   2.354   2.144   2.078
 5545SOL    HW117534   2.329   2.238   2.102
 5545SOL    HW217535   2.440   2.145   2.027
 5546SOL     OW17536   3.971   5.465   5.564
 5546SOL    HW117537   3.895   5.526   5.589
 5546SOL    HW217538   4.058   5.512   5.581
 5547SOL     OW17539   3.521   5.750   4.177
 5547SOL    HW117540   3.567   5.667   4.147
 5547SOL    HW217541   3.476   5.794   4.099
 5548SOL     OW17542   0.146   1.726   4.886
 5548SOL    HW117543   0.226   1.668   4.874
 5548SOL    HW217544   0.063   1.672   4.874
 5549SOL     OW17545   3.554   5.414   6.821
 5549SOL    HW117546   3.560   5.514   6.820
 5549SOL    HW217547   3.512   5.383   6.736
 5550SOL     OW17548   2.693   6.188   2.661
 5550SOL    HW117549   2.703   6.262   2.595
 5550SOL    HW217550   2.716   6.221   2.753
 5551SOL     OW17551   0.782   1.385   2.366
 5551SOL    HW117552   0.745   1.385   2.273
 5551SOL    HW217553   0.816   1.294   2.389
 5552SOL     OW17554   1.824   2.469   2.691
 5552SOL    HW117555   1.781   2.378   2.692
 5552SOL    HW217556   1.769   2.531   2.636
 5553SOL     OW17557   4.501   6.149   5.972
 5553SOL    HW117558   4.485   6.241   5.937
 5553SOL    HW217559   4.433   6.127   6.042
 5554SOL     OW17560   3.206   0.700   4.738
 5554SOL    HW117561   3.242   0.707   4.831
 5554SOL    HW217562   3.106   0.693   4.741
 5555SOL     OW17563   0.544   6.486   1.494
 5555SOL    HW117564   0.469   6.550   1.481
 5555SOL    HW217565   0.515   6.395   1.466
 5556SOL     OW17566   0.088   1.025   5.454
 5556SOL    HW117567   0.020   1.089   5.420
 5556SOL    HW217568   0.075   0.936   5.410
 5557SOL     OW17569   3.492   0.559   2.589
 5557SOL    HW117570   3.433   0.485   2.623
 5557SOL    HW217571   3.522   0.537   2.496
 5558SOL     OW17572   4.956   2.124   5.958
 5558SOL    HW117573   5.022   2.078   5.899
 5558SOL    HW217574   5.004   2.187   6.019
 5559SOL     OW17575   2.907   0.988   0.912
 5559SOL    HW117576   2.919   0.910   0.974
 5559SOL    HW217577   2.967   1.062   0.940
 5560SOL     OW17578   0.243   1.299   5.179
 5560SOL    HW117579   0.146   1.306   5.158
 5560SOL    HW217580   0.297   1.333   5.102
 5561SOL     OW17581   1.343   4.428   1.638
 5561SOL    HW117582   1.297   4.344   1.608
 5561SOL    HW217583   1.299   4.463   1.720
 5562SOL     OW17584   3.676   2.344   0.113
 5562SOL    HW117585   3.765   2.330   0.157
 5562SOL    HW217586   3.617   2.397   0.174
 5563SOL     OW17587   3.908   4.295   1.138
 5563SOL    HW117588   3.846   4.219   1.118
 5563SOL    HW217589   3.860   4.362   1.194
 5564SOL     OW17590   5.822   1.344   2.485
 5564SOL    HW117591   5.730   1.384   2.485
 5564SOL    HW217592   5.830   1.280   2.409
 5565SOL     OW17593   1.854   2.505   5.636
 5565SOL    HW117594   1.892   2.541   5.721
 5565SOL    HW217595   1.783   2.438   5.656
 5566SOL     OW17596   2.383   3.782   0.314
 5566SOL    HW117597   2.292   3.787   0.356
 5566SOL    HW217598   2.399   3.864   0.259
 5567SOL     OW17599   1.469   5.246   3.533
 5567SOL    HW117600   1.565   5.252   3.508
 5567SOL    HW217601   1.425   5.172   3.482
 5568SOL     OW17602   3.587   2.479   6.662
 5568SOL    HW117603   3.516   2.453   6.727
 5568SOL    HW217604   3.573   2.573   6.631
 5569SOL     OW17605   4.647   1.873   0.094
 5569SOL    HW117606   4.684   1.859   0.002
 5569SOL    HW217607   4.716   1.846   0.162
 5570SOL     OW17608   1.976   2.920   6.017
 5570SOL    HW117609   2.006   3.016   6.018
 5570SOL    HW217610   1.877   2.916   6.032
 5571SOL     OW17611   0.081   4.070   6.512
 5571SOL    HW117612   0.111   4.060   6.417
 5571SOL    HW217613   0.081   4.167   6.537
 5572SOL     OW17614   0.476   3.204   6.102
 5572SOL    HW117615   0.470   3.231   6.198
 5572SOL    HW217616   0.546   3.259   6.056
 5573SOL     OW17617   6.869   3.658   6.505
 5573SOL    HW117618   6.838   3.744   6.545
 5573SOL    HW217619   6.891   3.672   6.408
 5574SOL     OW17620   1.950   6.678   4.451
 5574SOL    HW117621   1.868   6.625   4.428
 5574SOL    HW217622   1.972   6.665   4.548
 5575SOL     OW17623   0.931   1.201   2.720
 5575SOL    HW117624   0.994   1.221   2.645
 5575SOL    HW217625   0.837   1.224   2.692
 5576SOL     OW17626   5.625   6.262   5.330
 5576SOL    HW117627   5.627   6.178   5.385
 5576SOL    HW217628   5.562   6.328   5.371
 5577SOL     OW17629   1.512   4.438   4.745
 5577SOL    HW117630   1.467   4.494   4.814
 5577SOL    HW217631   1.515   4.489   4.658
 5578SOL     OW17632   3.768   1.730   5.732
 5578SOL    HW117633   3.760   1.631   5.733
 5578SOL    HW217634   3.712   1.769   5.806
 5579SOL     OW17635   5.027   4.355   2.097
 5579SOL    HW117636   4.948   4.336   2.038
 5579SOL    HW217637   5.091   4.278   2.093
 5580SOL     OW17638   5.712   1.280   1.927
 5580SOL    HW117639   5.801   1.320   1.945
 5580SOL    HW217640   5.644   1.320   1.987
 5581SOL     OW17641   3.044   2.984   0.592
 5581SOL    HW117642   2.959   3.030   0.565
 5581SOL    HW217643   3.025   2.889   0.614
 5582SOL     OW17644   2.936   3.226   3.639
 5582SOL    HW117645   2.942   3.287   3.561
 5582SOL    HW217646   2.867   3.260   3.703
 5583SOL     OW17647   3.667   0.634   6.443
 5583SOL    HW117648   3.663   0.548   6.494
 5583SOL    HW217649   3.751   0.636   6.387
 5584SOL     OW17650   5.143   3.264   4.056
 5584SOL    HW117651   5.224   3.319   4.074
 5584SOL    HW217652   5.166   3.167   4.064
 5585SOL     OW17653   0.243   0.250   3.630
 5585SOL    HW117654   0.332   0.247   3.583
 5585SOL    HW217655   0.236   0.336   3.681
 5586SOL     OW17656   2.030   0.572   0.214
 5586SOL    HW117657   2.041   0.661   0.258
 5586SOL    HW217658   2.113   0.518   0.225
 5587SOL     OW17659   3.726   6.334   3.418
 5587SOL    HW117660   3.708   6.242   3.382
 5587SOL    HW217661   3.673   6.348   3.502
 5588SOL     OW17662   5.089   6.781   6.435
 5588SOL    HW117663   5.050   6.842   6.365
 5588SOL    HW217664   5.029   6.779   6.515
 5589SOL     OW17665   1.886   3.629   6.851
 5589SOL    HW117666   1.926   3.713   6.889
 5589SOL    HW217667   1.797   3.649   6.810
 5590SOL     OW17668   6.612   0.526   3.270
 5590SOL    HW117669   6.707   0.556   3.273
 5590SOL    HW217670   6.572   0.550   3.182
 5591SOL     OW17671   5.445   0.352   0.119
 5591SOL    HW117672   5.397   0.293   0.054
 5591SOL    HW217673   5.386   0.371   0.197
 5592SOL     OW17674   1.430   2.830   2.642
 5592SOL    HW117675   1.480   2.821   2.728
 5592SOL    HW217676   1.379   2.746   2.624
 5593SOL     OW17677   2.158   3.821   4.806
 5593SOL    HW117678   2.061   3.834   4.830
 5593SOL    HW217679   2.203   3.910   4.800
 5594SOL     OW17680   2.795   1.420   5.932
 5594SOL    HW117681   2.774   1.506   5.979
 5594SOL    HW217682   2.734   1.348   5.965
 5595SOL     OW17683   0.001   3.181   6.763
 5595SOL    HW117684   0.085   3.176   6.816
 5595SOL    HW217685   0.015   3.240   6.684
 5596SOL     OW17686   4.862   3.583   4.402
 5596SOL    HW117687   4.835   3.659   4.342
 5596SOL    HW217688   4.886   3.504   4.347
 5597SOL     OW17689   0.221   1.928   6.633
 5597SOL    HW117690   0.304   1.879   6.605
 5597SOL    HW217691   0.207   2.006   6.573
 5598SOL     OW17692   6.259   0.716   3.411
 5598SOL    HW117693   6.224   0.623   3.408
 5598SOL    HW217694   6.304   0.732   3.499
 5599SOL     OW17695   5.483   3.447   2.871
 5599SOL    HW117696   5.425   3.504   2.813
 5599SOL    HW217697   5.484   3.354   2.834
 5600SOL     OW17698   1.643   3.054   2.418
 5600SOL    HW117699   1.569   2.989   2.399
 5600SOL    HW217700   1.685   3.033   2.506
 5601SOL     OW17701   6.075   2.504   6.130
 5601SOL    HW117702   6.069   2.604   6.139
 5601SOL    HW217703   6.050   2.477   6.037
 5602SOL     OW17704   6.174   1.841   3.256
 5602SOL    HW117705   6.100   1.791   3.300
 5602SOL    HW217706   6.143   1.934   3.234
 5603SOL     OW17707   3.460   1.597   6.030
 5603SOL    HW117708   3.437   1.581   5.934
 5603SOL    HW217709   3.376   1.604   6.084
 5604SOL     OW17710   1.403   4.874   3.226
 5604SOL    HW117711   1.382   4.908   3.134
 5604SOL    HW217712   1.485   4.816   3.221
 5605SOL     OW17713   3.491   6.327   4.571
 5605SOL    HW117714   3.392   6.336   4.563
 5605SOL    HW217715   3.532   6.416   4.588
 5606SOL     OW17716   4.498   3.802   1.087
 5606SOL    HW117717   4.574   3.780   1.148
 5606SOL    HW217718   4.412   3.796   1.136
 5607SOL     OW17719   0.945   2.327   2.530
 5607SOL    HW117720   0.907   2.285   2.448
 5607SOL    HW217721   1.006   2.402   2.505
 5608SOL     OW17722   6.672   6.972   3.484
 5608SOL    HW117723   6.762   6.949   3.521
 5608SOL    HW217724   6.666   0.050   3.469
 5609SOL     OW17725   6.599   1.137   0.086
 5609SOL    HW117726   6.534   1.067   0.117
 5609SOL    HW217727   6.681   1.133   0.144
 5610SOL     OW17728   5.887   6.962   6.100
 5610SOL    HW117729   5.832   6.981   6.019
 5610SOL    HW217730   5.917   6.867   6.099
 5611SOL     OW17731   6.394   3.832   1.231
 5611SOL    HW117732   6.381   3.871   1.140
 5611SOL    HW217733   6.468   3.764   1.228
 5612SOL     OW17734   4.908   2.190   1.453
 5612SOL    HW117735   4.863   2.191   1.364
 5612SOL    HW217736   4.844   2.158   1.522
 5613SOL     OW17737   6.426   5.121   5.331
 5613SOL    HW117738   6.424   5.099   5.429
 5613SOL    HW217739   6.380   5.208   5.316
 5614SOL     OW17740   5.676   2.513   4.693
 5614SOL    HW117741   5.626   2.520   4.779
 5614SOL    HW217742   5.679   2.603   4.649
 5615SOL     OW17743   0.173   3.638   2.612
 5615SOL    HW117744   0.087   3.684   2.591
 5615SOL    HW217745   0.153   3.545   2.643
 5616SOL     OW17746   1.508   3.252   1.505
 5616SOL    HW117747   1.488   3.336   1.556
 5616SOL    HW217748   1.446   3.179   1.535
 5617SOL     OW17749   0.400   5.062   5.156
 5617SOL    HW117750   0.489   5.017   5.164
 5617SOL    HW217751   0.402   5.127   5.080
 5618SOL     OW17752   4.751   0.794   2.918
 5618SOL    HW117753   4.794   0.881   2.894
 5618SOL    HW217754   4.663   0.786   2.872
 5619SOL     OW17755   2.987   3.655   4.137
 5619SOL    HW117756   2.967   3.745   4.175
 5619SOL    HW217757   3.029   3.666   4.047
 5620SOL     OW17758   4.767   5.234   5.453
 5620SOL    HW117759   4.751   5.290   5.534
 5620SOL    HW217760   4.680   5.210   5.411
 5621SOL     OW17761   1.003   3.487   6.114
 5621SOL    HW117762   0.934   3.547   6.071
 5621SOL    HW217763   0.956   3.414   6.163
 5622SOL     OW17764   5.750   5.607   3.029
 5622SOL    HW117765   5.693   5.529   3.055
 5622SOL    HW217766   5.845   5.578   3.021
 5623SOL     OW17767   4.777   5.053   3.386
 5623SOL    HW117768   4.817   5.143   3.405
 5623SOL    HW217769   4.835   4.983   3.428
 5624SOL     OW17770   4.864   4.031   4.027
 5624SOL    HW117771   4.853   4.013   4.125
 5624SOL    HW217772   4.861   3.945   3.976
 5625SOL     OW17773   3.244   6.890   6.267
 5625SOL    HW117774   3.193   6.975   6.254
 5625SOL    HW217775   3.180   6.814   6.279
 5626SOL     OW17776   1.651   4.801   6.113
 5626SOL    HW117777   1.586   4.759   6.050
 5626SOL    HW217778   1.743   4.767   6.094
 5627SOL     OW17779   1.306   5.197   0.856
 5627SOL    HW117780   1.238   5.270   0.862
 5627SOL    HW217781   1.265   5.111   0.885
 5628SOL     OW17782   1.218   2.628   0.391
 5628SOL    HW117783   1.195   2.723   0.412
 5628SOL    HW217784   1.232   2.619   0.292
 5629SOL     OW17785   6.955   3.605   3.951
 5629SOL    HW117786   6.951   3.510   3.981
 5629SOL    HW217787   0.029   3.630   3.930
 5630SOL     OW17788   1.132   4.562   0.117
 5630SOL    HW117789   1.075   4.511   0.052
 5630SOL    HW217790   1.186   4.629   0.067
 5631SOL     OW17791   4.045   0.765   2.785
 5631SOL    HW117792   3.957   0.762   2.831
 5631SOL    HW217793   4.115   0.724   2.843
 5632SOL     OW17794   3.500   6.707   6.777
 5632SOL    HW117795   3.582   6.693   6.832
 5632SOL    HW217796   3.419   6.686   6.833
 5633SOL     OW17797   1.621   5.659   5.525
 5633SOL    HW117798   1.550   5.622   5.585
 5633SOL    HW217799   1.646   5.591   5.457
 5634SOL     OW17800   2.799   0.078   2.182
 5634SOL    HW117801   2.819   0.176   2.176
 5634SOL    HW217802   2.779   0.044   2.090
 5635SOL     OW17803   3.652   0.263   2.148
 5635SOL    HW117804   3.640   0.169   2.118
 5635SOL    HW217805   3.629   0.325   2.073
 5636SOL     OW17806   5.347   0.385   4.807
 5636SOL    HW117807   5.364   0.368   4.710
 5636SOL    HW217808   5.362   0.482   4.827
 5637SOL     OW17809   5.233   6.992   5.019
 5637SOL    HW117810   5.144   0.004   5.053
 5637SOL    HW217811   5.252   0.014   4.931
 5638SOL     OW17812   0.711   5.694   0.147
 5638SOL    HW117813   0.769   5.750   0.088
 5638SOL    HW217814   0.715   5.598   0.116
 5639SOL     OW17815   2.943   6.879   2.169
 5639SOL    HW117816   2.945   6.858   2.071
 5639SOL    HW217817   2.891   6.963   2.184
 5640SOL     OW17818   3.604   6.751   3.943
 5640SOL    HW117819   3.561   6.819   4.003
 5640SOL    HW217820   3.533   6.690   3.907
 5641SOL     OW17821   6.431   4.805   3.413
 5641SOL    HW117822   6.454   4.863   3.492
 5641SOL    HW217823   6.376   4.858   3.349
 5642SOL     OW17824   2.405   1.796   6.332
 5642SOL    HW117825   2.406   1.746   6.419
 5642SOL    HW217826   2.497   1.834   6.315
 5643SOL     OW17827   5.452   3.089   3.591
 5643SOL    HW117828   5.470   3.185   3.570
 5643SOL    HW217829   5.479   3.032   3.514
 5644SOL     OW17830   3.311   0.663   5.872
 5644SOL    HW117831   3.396   0.715   5.861
 5644SOL    HW217832   3.305   0.593   5.801
 5645SOL     OW17833   6.300   6.736   3.503
 5645SOL    HW117834   6.250   6.650   3.501
 5645SOL    HW217835   6.311   6.771   3.410
 5646SOL     OW17836   0.082   0.597   2.923
 5646SOL    HW117837   0.128   0.524   2.872
 5646SOL    HW217838   7.005   0.576   2.931
 5647SOL     OW17839   6.282   3.881   6.167
 5647SOL    HW117840   6.356   3.819   6.192
 5647SOL    HW217841   6.209   3.876   6.236
 5648SOL     OW17842   1.757   1.642   4.187
 5648SOL    HW117843   1.770   1.632   4.285
 5648SOL    HW217844   1.832   1.696   4.148
 5649SOL     OW17845   0.289   0.440   4.880
 5649SOL    HW117846   0.254   0.534   4.885
 5649SOL    HW217847   0.369   0.432   4.940
 5650SOL     OW17848   6.167   5.248   5.053
 5650SOL    HW117849   6.077   5.292   5.060
 5650SOL    HW217850   6.162   5.156   5.092
 5651SOL     OW17851   6.012   0.482   2.569
 5651SOL    HW117852   5.937   0.415   2.569
 5651SOL    HW217853   6.057   0.481   2.658
 5652SOL     OW17854   5.104   4.581   0.011
 5652SOL    HW117855   5.078   4.563   0.106
 5652SOL    HW217856   5.034   4.544   6.970
 5653SOL     OW17857   2.177   5.931   6.725
 5653SOL    HW117858   2.163   5.857   6.659
 5653SOL    HW217859   2.239   5.999   6.687
 5654SOL     OW17860   2.087   6.966   0.061
 5654SOL    HW117861   2.177   6.953   0.020
 5654SOL    HW217862   2.097   7.010   0.150
 5655SOL     OW17863   6.301   5.786   3.016
 5655SOL    HW117864   6.251   5.818   2.936
 5655SOL    HW217865   6.238   5.776   3.093
 5656SOL     OW17866   3.775   5.227   6.095
 5656SOL    HW117867   3.787   5.140   6.142
 5656SOL    HW217868   3.780   5.302   6.161
 5657SOL     OW17869   4.904   5.318   2.098
 5657SOL    HW117870   4.877   5.376   2.175
 5657SOL    HW217871   4.999   5.288   2.110
 5658SOL     OW17872   4.551   6.689   6.217
 5658SOL    HW117873   4.526   6.660   6.309
 5658SOL    HW217874   4.559   6.788   6.213
 5659SOL     OW17875   3.664   3.895   2.409
 5659SOL    HW117876   3.578   3.854   2.439
 5659SOL    HW217877   3.738   3.865   2.470
 5660SOL     OW17878   6.883   6.186   1.622
 5660SOL    HW117879   6.949   6.119   1.587
 5660SOL    HW217880   6.911   6.214   1.714
 5661SOL     OW17881   6.516   6.129   4.409
 5661SOL    HW117882   6.435   6.171   4.451
 5661SOL    HW217883   6.487   6.064   4.338
 5662SOL     OW17884   1.645   4.256   4.529
 5662SOL    HW117885   1.597   4.242   4.616
 5662SOL    HW217886   1.633   4.351   4.499
 5663SOL     OW17887   2.481   3.611   0.851
 5663SOL    HW117888   2.472   3.513   0.837
 5663SOL    HW217889   2.555   3.646   0.794
 5664SOL     OW17890   6.376   6.577   2.132
 5664SOL    HW117891   6.340   6.495   2.176
 5664SOL    HW217892   6.413   6.639   2.202
 5665SOL     OW17893   1.783   1.196   5.666
 5665SOL    HW117894   1.734   1.110   5.653
 5665SOL    HW217895   1.783   1.220   5.764
 5666SOL     OW17896   5.684   5.617   6.652
 5666SOL    HW117897   5.742   5.540   6.625
 5666SOL    HW217898   5.668   5.676   6.574
 5667SOL     OW17899   5.499   4.593   2.512
 5667SOL    HW117900   5.497   4.622   2.608
 5667SOL    HW217901   5.522   4.670   2.454
 5668SOL     OW17902   6.892   2.213   6.678
 5668SOL    HW117903   6.809   2.235   6.626
 5668SOL    HW217904   6.897   2.114   6.692
 5669SOL     OW17905   6.864   2.459   4.661
 5669SOL    HW117906   6.946   2.483   4.610
 5669SOL    HW217907   6.880   2.475   4.759
 5670SOL     OW17908   1.442   3.485   2.503
 5670SOL    HW117909   1.541   3.489   2.517
 5670SOL    HW217910   1.417   3.546   2.428
 5671SOL     OW17911   1.089   0.689   5.369
 5671SOL    HW117912   1.111   0.737   5.454
 5671SOL    HW217913   1.055   0.754   5.302
 5672SOL     OW17914   4.826   4.448   5.342
 5672SOL    HW117915   4.767   4.368   5.349
 5672SOL    HW217916   4.772   4.526   5.310
 5673SOL     OW17917   1.557   6.602   1.296
 5673SOL    HW117918   1.510   6.562   1.374
 5673SOL    HW217919   1.649   6.631   1.323
 5674SOL     OW17920   0.604   3.217   1.159
 5674SOL    HW117921   0.555   3.157   1.096
 5674SOL    HW217922   0.677   3.166   1.204
 5675SOL     OW17923   4.073   1.120   5.735
 5675SOL    HW117924   4.096   1.215   5.715
 5675SOL    HW217925   4.002   1.116   5.806
 5676SOL     OW17926   2.065   6.479   2.301
 5676SOL    HW117927   2.124   6.401   2.324
 5676SOL    HW217928   2.106   6.563   2.336
 5677SOL     OW17929   6.395   0.184   2.823
 5677SOL    HW117930   6.432   0.093   2.801
 5677SOL    HW217931   6.444   0.253   2.771
 5678SOL     OW17932   0.855   5.105   2.935
 5678SOL    HW117933   0.770   5.150   2.963
 5678SOL    HW217934   0.853   5.089   2.836
 5679SOL     OW17935   3.754   5.619   5.611
 5679SOL    HW117936   3.662   5.582   5.595
 5679SOL    HW217937   3.765   5.640   5.708
 5680SOL     OW17938   2.003   6.763   6.476
 5680SOL    HW117939   2.075   6.781   6.409
 5680SOL    HW217940   1.930   6.710   6.432
 5681SOL     OW17941   2.929   3.860   6.675
 5681SOL    HW117942   2.928   3.772   6.627
 5681SOL    HW217943   2.997   3.920   6.632
 5682SOL     OW17944   2.070   3.317   4.042
 5682SOL    HW117945   1.976   3.336   4.013
 5682SOL    HW217946   2.072   3.230   4.091
 5683SOL     OW17947   4.011   2.973   5.304
 5683SOL    HW117948   4.098   2.987   5.352
 5683SOL    HW217949   3.987   3.055   5.253
 5684SOL     OW17950   3.384   3.925   2.941
 5684SOL    HW117951   3.381   3.946   3.039
 5684SOL    HW217952   3.475   3.944   2.905
 5685SOL     OW17953   6.966   6.228   1.286
 5685SOL    HW117954   6.895   6.297   1.300
 5685SOL    HW217955   0.007   6.258   1.212
 5686SOL     OW17956   3.211   4.820   0.034
 5686SOL    HW117957   3.136   4.766   0.073
 5686SOL    HW217958   3.173   4.898   7.005
 5687SOL     OW17959   4.440   6.036   6.649
 5687SOL    HW117960   4.456   6.018   6.746
 5687SOL    HW217961   4.477   5.960   6.595
 5688SOL     OW17962   5.220   1.310   2.652
 5688SOL    HW117963   5.317   1.294   2.633
 5688SOL    HW217964   5.192   1.255   2.731
 5689SOL     OW17965   4.235   3.162   5.626
 5689SOL    HW117966   4.255   3.093   5.556
 5689SOL    HW217967   4.189   3.240   5.585
 5690SOL     OW17968   3.876   0.282   2.975
 5690SOL    HW117969   3.837   0.368   3.007
 5690SOL    HW217970   3.803   0.221   2.945
 5691SOL     OW17971   3.439   0.288   4.478
 5691SOL    HW117972   3.475   0.321   4.391
 5691SOL    HW217973   3.355   0.237   4.462
 5692SOL     OW17974   5.898   2.270   6.718
 5692SOL    HW117975   5.970   2.339   6.728
 5692SOL    HW217976   5.923   2.206   6.645
 5693SOL     OW17977   5.347   2.884   1.759
 5693SOL    HW117978   5.264   2.846   1.799
 5693SOL    HW217979   5.370   2.834   1.675
 5694SOL     OW17980   1.466   2.220   4.786
 5694SOL    HW117981   1.515   2.233   4.700
 5694SOL    HW217982   1.529   2.231   4.863
 5695SOL     OW17983   1.996   4.190   3.720
 5695SOL    HW117984   1.977   4.260   3.651
 5695SOL    HW217985   1.985   4.100   3.679
 5696SOL     OW17986   3.010   1.063   6.541
 5696SOL    HW117987   3.011   0.979   6.595
 5696SOL    HW217988   3.025   1.041   6.444
 5697SOL     OW17989   6.640   3.605   0.294
 5697SOL    HW117990   6.673   3.532   0.234
 5697SOL    HW217991   6.688   3.601   0.382
 5698SOL     OW17992   1.418   4.388   3.859
 5698SOL    HW117993   1.363   4.452   3.914
 5698SOL    HW217994   1.419   4.418   3.764
 5699SOL     OW17995   0.495   2.235   5.004
 5699SOL    HW117996   0.414   2.205   5.054
 5699SOL    HW217997   0.574   2.238   5.066
 5700SOL     OW17998   1.602   4.791   4.303
 5700SOL    HW117999   1.686   4.738   4.314
 5700SOL    HW218000   1.528   4.731   4.274
 5701SOL     OW18001   4.949   3.348   3.112
 5701SOL    HW118002   4.964   3.275   3.046
 5701SOL    HW218003   4.952   3.437   3.066
 5702SOL     OW18004   3.315   0.327   0.037
 5702SOL    HW118005   3.344   0.360   6.968
 5702SOL    HW218006   3.280   0.234   0.029
 5703SOL     OW18007   4.815   4.297   1.923
 5703SOL    HW118008   4.834   4.360   1.848
 5703SOL    HW218009   4.721   4.308   1.955
 5704SOL     OW18010   4.650   4.366   2.849
 5704SOL    HW118011   4.659   4.344   2.752
 5704SOL    HW218012   4.583   4.440   2.861
 5705SOL     OW18013   6.567   1.296   3.787
 5705SOL    HW118014   6.474   1.309   3.820
 5705SOL    HW218015   6.623   1.256   3.860
 5706SOL     OW18016   2.264   1.143   7.010
 5706SOL    HW118017   2.309   1.122   6.923
 5706SOL    HW218018   2.199   1.218   6.996
 5707SOL     OW18019   4.058   1.581   0.121
 5707SOL    HW118020   4.148   1.562   0.160
 5707SOL    HW218021   3.995   1.607   0.194
 5708SOL     OW18022   6.970   6.856   0.663
 5708SOL    HW118023   6.969   6.816   0.571
 5708SOL    HW218024   0.036   6.903   0.678
 5709SOL     OW18025   1.237   2.615   1.167
 5709SOL    HW118026   1.272   2.566   1.247
 5709SOL    HW218027   1.232   2.713   1.187
 5710SOL     OW18028   3.506   4.893   0.223
 5710SOL    HW118029   3.510   4.846   0.311
 5710SOL    HW218030   3.420   4.943   0.215
 5711SOL     OW18031   5.307   1.598   5.324
 5711SOL    HW118032   5.275   1.685   5.287
 5711SOL    HW218033   5.294   1.525   5.257
 5712SOL     OW18034   6.174   6.611   6.705
 5712SOL    HW118035   6.238   6.538   6.729
 5712SOL    HW218036   6.092   6.604   6.762
 5713SOL     OW18037   0.526   2.927   2.664
 5713SOL    HW118038   0.516   3.006   2.724
 5713SOL    HW218039   0.436   2.889   2.644
 5714SOL     OW18040   2.377   0.535   6.749
 5714SOL    HW118041   2.426   0.474   6.688
 5714SOL    HW218042   2.380   0.629   6.713
 5715SOL     OW18043   1.116   0.250   3.744
 5715SOL    HW118044   1.175   0.189   3.691
 5715SOL    HW218045   1.032   0.203   3.768
 5716SOL     OW18046   2.175   2.651   5.190
 5716SOL    HW118047   2.202   2.681   5.281
 5716SOL    HW218048   2.242   2.585   5.156
 5717SOL     OW18049   0.900   3.104   5.838
 5717SOL    HW118050   0.984   3.151   5.866
 5717SOL    HW218051   0.923   3.019   5.792
 5718SOL     OW18052   2.909   5.489   5.934
 5718SOL    HW118053   2.827   5.456   5.981
 5718SOL    HW218054   2.990   5.441   5.969
 5719SOL     OW18055   2.035   0.861   0.319
 5719SOL    HW118056   2.065   0.793   0.386
 5719SOL    HW218057   2.033   0.951   0.362
 5720SOL     OW18058   1.951   5.778   3.904
 5720SOL    HW118059   1.989   5.698   3.950
 5720SOL    HW218060   1.930   5.849   3.971
 5721SOL     OW18061   6.585   4.403   6.977
 5721SOL    HW118062   6.635   4.407   6.891
 5721SOL    HW218063   6.644   4.437   0.031
 5722SOL     OW18064   5.522   1.132   4.950
 5722SOL    HW118065   5.468   1.181   4.881
 5722SOL    HW218066   5.544   1.195   5.025
 5723SOL     OW18067   0.267   4.430   1.062
 5723SOL    HW118068   0.313   4.499   1.006
 5723SOL    HW218069   0.212   4.475   1.132
 5724SOL     OW18070   5.304   3.091   5.926
 5724SOL    HW118071   5.275   3.132   5.840
 5724SOL    HW218072   5.363   3.154   5.976
 5725SOL     OW18073   5.686   6.618   5.766
 5725SOL    HW118074   5.620   6.621   5.841
 5725SOL    HW218075   5.639   6.591   5.682
 5726SOL     OW18076   3.827   4.607   5.628
 5726SOL    HW118077   3.778   4.522   5.651
 5726SOL    HW218078   3.767   4.685   5.642
 5727SOL     OW18079   5.894   2.432   4.151
 5727SOL    HW118080   5.884   2.428   4.251
 5727SOL    HW218081   5.829   2.369   4.109
 5728SOL     OW18082   4.144   0.638   4.574
 5728SOL    HW118083   4.148   0.724   4.523
 5728SOL    HW218084   4.050   0.604   4.573
 5729SOL     OW18085   1.838   2.550   3.998
 5729SOL    HW118086   1.826   2.555   4.097
 5729SOL    HW218087   1.755   2.514   3.956
 5730SOL     OW18088   4.065   4.596   7.012
 5730SOL    HW118089   4.001   4.620   0.065
 5730SOL    HW218090   4.158   4.591   0.029
 5731SOL     OW18091   3.952   1.474   4.613
 5731SOL    HW118092   4.025   1.432   4.558
 5731SOL    HW218093   3.991   1.510   4.698
 5732SOL     OW18094   5.440   4.850   4.336
 5732SOL    HW118095   5.340   4.840   4.339
 5732SOL    HW218096   5.467   4.879   4.245
 5733SOL     OW18097   2.621   6.991   1.946
 5733SOL    HW118098   2.647   6.944   1.861
 5733SOL    HW218099   2.525   6.973   1.966
 5734SOL     OW18100   1.521   0.077   5.911
 5734SOL    HW118101   1.543   0.108   6.004
 5734SOL    HW218102   1.422   0.076   5.899
 5735SOL     OW18103   5.215   1.171   1.030
 5735SOL    HW118104   5.296   1.116   1.008
 5735SOL    HW218105   5.180   1.145   1.120
 5736SOL     OW18106   5.107   3.787   6.567
 5736SOL    HW118107   5.026   3.813   6.620
 5736SOL    HW218108   5.079   3.746   6.481
 5737SOL     OW18109   5.105   5.983   2.371
 5737SOL    HW118110   5.038   5.980   2.446
 5737SOL    HW218111   5.144   5.892   2.358
 5738SOL     OW18112   3.202   0.695   1.557
 5738SOL    HW118113   3.260   0.691   1.638
 5738SOL    HW218114   3.242   0.755   1.488
 5739SOL     OW18115   2.092   0.868   5.084
 5739SOL    HW118116   2.025   0.817   5.139
 5739SOL    HW218117   2.045   0.927   5.019
 5740SOL     OW18118   4.944   3.517   2.725
 5740SOL    HW118119   5.008   3.483   2.657
 5740SOL    HW218120   4.928   3.614   2.712
 5741SOL     OW18121   1.296   3.227   3.874
 5741SOL    HW118122   1.348   3.173   3.808
 5741SOL    HW218123   1.284   3.175   3.958
 5742SOL     OW18124   5.487   5.330   1.875
 5742SOL    HW118125   5.498   5.385   1.957
 5742SOL    HW218126   5.550   5.253   1.876
 5743SOL     OW18127   4.374   6.310   6.741
 5743SOL    HW118128   4.412   6.228   6.699
 5743SOL    HW218129   4.418   6.325   6.830
 5744SOL     OW18130   5.168   5.912   3.214
 5744SOL    HW118131   5.216   5.986   3.260
 5744SOL    HW218132   5.070   5.927   3.218
 5745SOL     OW18133   0.538   3.751   2.990
 5745SOL    HW118134   0.465   3.739   2.922
 5745SOL    HW218135   0.521   3.689   3.067
 5746SOL     OW18136   5.364   0.360   3.436
 5746SOL    HW118137   5.453   0.314   3.435
 5746SOL    HW218138   5.319   0.347   3.348
 5747SOL     OW18139   2.207   6.740   1.326
 5747SOL    HW118140   2.238   6.798   1.251
 5747SOL    HW218141   2.184   6.797   1.405
 5748SOL     OW18142   6.232   6.264   0.005
 5748SOL    HW118143   6.188   6.354   0.002
 5748SOL    HW218144   6.164   6.195   0.032
 5749SOL     OW18145   2.346   6.105   6.646
 5749SOL    HW118146   2.281   6.121   6.572
 5749SOL    HW218147   2.434   6.076   6.608
 5750SOL     OW18148   6.820   2.677   4.168
 5750SOL    HW118149   6.778   2.763   4.138
 5750SOL    HW218150   6.762   2.633   4.236
 5751SOL     OW18151   0.210   3.786   3.955
 5751SOL    HW118152   0.303   3.819   3.937
 5751SOL    HW218153   0.163   3.850   4.015
 5752SOL     OW18154   5.956   0.922   7.004
 5752SOL    HW118155   5.878   0.863   0.003
 5752SOL    HW218156   6.041   0.871   7.019
 5753SOL     OW18157   3.665   3.663   4.163
 5753SOL    HW118158   3.715   3.585   4.128
 5753SOL    HW218159   3.712   3.747   4.139
 5754SOL     OW18160   5.899   6.328   1.115
 5754SOL    HW118161   5.948   6.319   1.202
 5754SOL    HW218162   5.808   6.289   1.123
 5755SOL     OW18163   1.099   2.929   6.381
 5755SOL    HW118164   1.126   2.953   6.474
 5755SOL    HW218165   1.114   3.008   6.320
 5756SOL     OW18166   6.352   6.361   1.656
 5756SOL    HW118167   6.435   6.387   1.706
 5756SOL    HW218168   6.311   6.281   1.700
 5757SOL     OW18169   0.789   1.412   3.549
 5757SOL    HW118170   0.838   1.334   3.510
 5757SOL    HW218171   0.692   1.388   3.558
 5758SOL     OW18172   6.522   6.767   3.024
 5758SOL    HW118173   6.505   6.682   2.974
 5758SOL    HW218174   6.501   6.845   2.965
 5759SOL     OW18175   1.710   6.414   3.271
 5759SOL    HW118176   1.705   6.372   3.362
 5759SOL    HW218177   1.804   6.414   3.239
 5760SOL     OW18178   0.490   2.443   0.076
 5760SOL    HW118179   0.567   2.441   0.012
 5760SOL    HW218180   0.415   2.388   0.041
 5761SOL     OW18181   6.666   6.816   5.079
 5761SOL    HW118182   6.655   6.915   5.086
 5761SOL    HW218183   6.746   6.796   5.022
 5762SOL     OW18184   0.694   5.297   5.462
 5762SOL    HW118185   0.607   5.346   5.450
 5762SOL    HW218186   0.675   5.203   5.488
 5763SOL     OW18187   4.982   0.591   0.434
 5763SOL    HW118188   5.041   0.669   0.411
 5763SOL    HW218189   4.953   0.598   0.529
 5764SOL     OW18190   4.209   6.377   4.505
 5764SOL    HW118191   4.166   6.384   4.415
 5764SOL    HW218192   4.308   6.371   4.494
 5765SOL     OW18193   7.017   5.967   2.657
 5765SOL    HW118194   6.933   5.925   2.690
 5765SOL    HW218195   0.049   6.001   2.736
 5766SOL     OW18196   0.668   1.344   4.155
 5766SOL    HW118197   0.681   1.259   4.104
 5766SOL    HW218198   0.723   1.340   4.239
 5767SOL     OW18199   5.049   6.382   0.335
 5767SOL    HW118200   5.081   6.468   0.295
 5767SOL    HW218201   5.103   6.306   0.298
 5768SOL     OW18202   1.460   1.009   4.965
 5768SOL    HW118203   1.444   0.938   4.897
 5768SOL    HW218204   1.464   0.968   5.056
 5769SOL     OW18205   0.847   2.630   5.709
 5769SOL    HW118206   0.794   2.614   5.792
 5769SOL    HW218207   0.925   2.567   5.706
 5770SOL     OW18208   1.888   4.361   2.577
 5770SOL    HW118209   1.798   4.350   2.535
 5770SOL    HW218210   1.894   4.452   2.620
 5771SOL     OW18211   2.876   5.543   3.029
 5771SOL    HW118212   2.955   5.514   2.974
 5771SOL    HW218213   2.900   5.536   3.126
 5772SOL     OW18214   2.713   0.351   3.092
 5772SOL    HW118215   2.679   0.257   3.090
 5772SOL    HW218216   2.684   0.395   3.177
 5773SOL     OW18217   5.791   0.667   3.804
 5773SOL    HW118218   5.887   0.649   3.828
 5773SOL    HW218219   5.750   0.725   3.875
 5774SOL     OW18220   0.894   6.584   3.514
 5774SOL    HW118221   0.914   6.644   3.436
 5774SOL    HW218222   0.850   6.638   3.586
 5775SOL     OW18223   6.141   4.957   2.689
 5775SOL    HW118224   6.155   4.958   2.590
 5775SOL    HW218225   6.220   4.914   2.733
 5776SOL     OW18226   3.257   0.988   4.260
 5776SOL    HW118227   3.234   1.066   4.318
 5776SOL    HW218228   3.229   0.903   4.305
 5777SOL     OW18229   1.119   0.459   1.576
 5777SOL    HW118230   1.100   0.395   1.651
 5777SOL    HW218231   1.034   0.483   1.531
 5778SOL     OW18232   0.079   0.405   0.198
 5778SOL    HW118233   0.058   0.496   0.162
 5778SOL    HW218234   0.123   0.414   0.287
 5779SOL     OW18235   5.822   1.871   0.603
 5779SOL    HW118236   5.731   1.849   0.568
 5779SOL    HW218237   5.838   1.969   0.592
 5780SOL     OW18238   4.895   4.897   4.102
 5780SOL    HW118239   4.836   4.978   4.105
 5780SOL    HW218240   4.983   4.921   4.061
 5781SOL     OW18241   1.316   5.408   6.280
 5781SOL    HW118242   1.306   5.386   6.377
 5781SOL    HW218243   1.412   5.427   6.259
 5782SOL     OW18244   6.808   0.829   6.883
 5782SOL    HW118245   6.831   0.843   6.786
 5782SOL    HW218246   6.876   0.875   6.940
 5783SOL     OW18247   2.555   2.888   6.558
 5783SOL    HW118248   2.635   2.865   6.503
 5783SOL    HW218249   2.483   2.820   6.543
 5784SOL     OW18250   6.754   6.315   7.019
 5784SOL    HW118251   6.657   6.293   0.009
 5784SOL    HW218252   6.767   6.374   6.940
 5785SOL     OW18253   1.515   1.587   1.599
 5785SOL    HW118254   1.490   1.496   1.630
 5785SOL    HW218255   1.612   1.589   1.576
 5786SOL     OW18256   6.277   5.785   1.680
 5786SOL    HW118257   6.187   5.763   1.643
 5786SOL    HW218258   6.305   5.875   1.648
 5787SOL     OW18259   2.053   3.544   6.263
 5787SOL    HW118260   2.112   3.469   6.235
 5787SOL    HW218261   2.061   3.620   6.199
 5788SOL     OW18262   3.464   0.553   3.556
 5788SOL    HW118263   3.465   0.606   3.471
 5788SOL    HW218264   3.375   0.561   3.600
 5789SOL     OW18265   3.789   4.979   6.207
 5789SOL    HW118266   3.854   4.905   6.226
 5789SOL    HW218267   3.721   4.948   6.141
 5790SOL     OW18268   1.117   4.023   3.816
 5790SOL    HW118269   1.143   4.031   3.912
 5790SOL    HW218270   1.040   3.959   3.807
 5791SOL     OW18271   1.504   0.276   3.426
 5791SOL    HW118272   1.555   0.192   3.408
 5791SOL    HW218273   1.516   0.302   3.522
 5792SOL     OW18274   0.019   2.584   3.105
 5792SOL    HW118275   0.095   2.524   3.130
 5792SOL    HW218276   0.055   2.666   3.060
 5793SOL     OW18277   6.480   0.641   4.799
 5793SOL    HW118278   6.552   0.572   4.808
 5793SOL    HW218279   6.392   0.595   4.791
 5794SOL     OW18280   6.592   4.007   6.396
 5794SOL    HW118281   6.648   4.083   6.431
 5794SOL    HW218282   6.532   3.974   6.469
 5795SOL     OW18283   6.206   4.435   6.434
 5795SOL    HW118284   6.243   4.457   6.524
 5795SOL    HW218285   6.194   4.336   6.426
 5796SOL     OW18286   2.715   2.659   0.855
 5796SOL    HW118287   2.750   2.636   0.946
 5796SOL    HW218288   2.645   2.592   0.828
 5797SOL     OW18289   3.113   2.736   5.295
 5797SOL    HW118290   3.210   2.710   5.297
 5797SOL    HW218291   3.057   2.654   5.287
 5798SOL     OW18292   6.650   5.235   4.094
 5798SOL    HW118293   6.601   5.322   4.082
 5798SOL    HW218294   6.660   5.216   4.191
 5799SOL     OW18295   5.515   1.193   4.104
 5799SOL    HW118296   5.528   1.282   4.059
 5799SOL    HW218297   5.422   1.187   4.141
 5800SOL     OW18298   6.040   5.650   6.650
 5800SOL    HW118299   5.971   5.661   6.721
 5800SOL    HW218300   6.116   5.713   6.667
 5801SOL     OW18301   1.944   0.936   2.807
 5801SOL    HW118302   2.021   0.946   2.870
 5801SOL    HW218303   1.858   0.942   2.857
 5802SOL     OW18304   0.494   2.515   4.948
 5802SOL    HW118305   0.482   2.417   4.965
 5802SOL    HW218306   0.562   2.528   4.876
 5803SOL     OW18307   1.589   5.242   0.828
 5803SOL    HW118308   1.494   5.236   0.858
 5803SOL    HW218309   1.628   5.150   0.824
 5804SOL     OW18310   0.375   2.312   6.062
 5804SOL    HW118311   0.337   2.334   6.152
 5804SOL    HW218312   0.328   2.232   6.024
 5805SOL     OW18313   5.914   3.380   6.770
 5805SOL    HW118314   5.951   3.473   6.773
 5805SOL    HW218315   5.818   3.381   6.795
 5806SOL     OW18316   6.383   6.804   6.716
 5806SOL    HW118317   6.313   6.733   6.723
 5806SOL    HW218318   6.377   6.865   6.795
 5807SOL     OW18319   2.347   3.567   1.575
 5807SOL    HW118320   2.308   3.592   1.664
 5807SOL    HW218321   2.278   3.519   1.521
 5808SOL     OW18322   6.294   1.623   3.524
 5808SOL    HW118323   6.198   1.604   3.501
 5808SOL    HW218324   6.353   1.559   3.476
 5809SOL     OW18325   0.113   2.929   3.716
 5809SOL    HW118326   0.041   2.890   3.773
 5809SOL    HW218327   0.167   2.855   3.674
 5810SOL     OW18328   2.926   2.242   2.590
 5810SOL    HW118329   2.972   2.184   2.522
 5810SOL    HW218330   2.838   2.273   2.553
 5811SOL     OW18331   3.324   0.354   2.673
 5811SOL    HW118332   3.349   0.307   2.589
 5811SOL    HW218333   3.229   0.384   2.668
 5812SOL     OW18334   4.552   0.584   4.941
 5812SOL    HW118335   4.456   0.607   4.960
 5812SOL    HW218336   4.603   0.580   5.027
 5813SOL     OW18337   1.598   1.195   5.336
 5813SOL    HW118338   1.643   1.127   5.395
 5813SOL    HW218339   1.667   1.240   5.279
 5814SOL     OW18340   0.048   5.133   0.968
 5814SOL    HW118341   0.038   5.068   0.894
 5814SOL    HW218342   0.135   5.118   1.015
 5815SOL     OW18343   3.678   0.638   4.019
 5815SOL    HW118344   3.671   0.551   3.969
 5815SOL    HW218345   3.589   0.683   4.020
 5816SOL     OW18346   4.988   6.833   0.540
 5816SOL    HW118347   4.919   6.836   0.613
 5816SOL    HW218348   5.027   6.741   0.536
 5817SOL     OW18349   5.942   2.425   5.887
 5817SOL    HW118350   5.904   2.516   5.876
 5817SOL    HW218351   5.877   2.357   5.854
 5818SOL     OW18352   6.528   6.130   5.617
 5818SOL    HW118353   6.580   6.084   5.689
 5818SOL    HW218354   6.591   6.172   5.552
 5819SOL     OW18355   6.058   0.387   0.601
 5819SOL    HW118356   6.106   0.474   0.586
 5819SOL    HW218357   6.100   0.338   0.677
 5820SOL     OW18358   5.548   4.991   2.076
 5820SOL    HW118359   5.595   5.055   2.015
 5820SOL    HW218360   5.514   5.040   2.156
 5821SOL     OW18361   3.341   0.110   2.825
 5821SOL    HW118362   3.345   0.202   2.785
 5821SOL    HW218363   3.287   0.050   2.765
 5822SOL     OW18364   0.943   1.051   2.005
 5822SOL    HW118365   0.857   1.101   1.994
 5822SOL    HW218366   0.987   1.042   1.916
 5823SOL     OW18367   1.959   2.766   4.196
 5823SOL    HW118368   1.984   2.834   4.128
 5823SOL    HW218369   2.031   2.697   4.203
 5824SOL     OW18370   4.452   0.164   3.769
 5824SOL    HW118371   4.431   0.067   3.759
 5824SOL    HW218372   4.371   0.218   3.744
 5825SOL     OW18373   3.844   1.069   1.597
 5825SOL    HW118374   3.902   1.110   1.668
 5825SOL    HW218375   3.828   1.136   1.525
 5826SOL     OW18376   0.135   6.477   3.785
 5826SOL    HW118377   0.045   6.494   3.746
 5826SOL    HW218378   0.149   6.539   3.863
 5827SOL     OW18379   1.773   4.549   5.389
 5827SOL    HW118380   1.705   4.504   5.332
 5827SOL    HW218381   1.860   4.554   5.339
 5828SOL     OW18382   6.505   1.983   1.653
 5828SOL    HW118383   6.595   1.984   1.696
 5828SOL    HW218384   6.464   1.892   1.664
 5829SOL     OW18385   1.432   1.830   1.694
 5829SOL    HW118386   1.467   1.741   1.667
 5829SOL    HW218387   1.363   1.819   1.766
 5830SOL     OW18388   2.164   0.949   5.458
 5830SOL    HW118389   2.262   0.967   5.449
 5830SOL    HW218390   2.137   0.959   5.553
 5831SOL     OW18391   5.697   5.823   2.834
 5831SOL    HW118392   5.715   5.751   2.901
 5831SOL    HW218393   5.599   5.827   2.813
 5832SOL     OW18394   3.518   3.114   4.231
 5832SOL    HW118395   3.508   3.107   4.330
 5832SOL    HW218396   3.455   3.183   4.195
 5833SOL     OW18397   3.367   3.294   5.100
 5833SOL    HW118398   3.449   3.281   5.044
 5833SOL    HW218399   3.288   3.256   5.052
 5834SOL     OW18400   6.431   0.930   0.169
 5834SOL    HW118401   6.507   0.866   0.182
 5834SOL    HW218402   6.354   0.883   0.126
 5835SOL     OW18403   5.596   3.225   4.496
 5835SOL    HW118404   5.531   3.192   4.429
 5835SOL    HW218405   5.661   3.152   4.519
 5836SOL     OW18406   3.585   0.124   2.949
 5836SOL    HW118407   3.544   0.174   3.025
 5836SOL    HW218408   3.513   0.091   2.887
 5837SOL     OW18409   4.337   4.480   6.044
 5837SOL    HW118410   4.405   4.407   6.053
 5837SOL    HW218411   4.296   4.476   5.953
 5838SOL     OW18412   0.851   1.179   5.693
 5838SOL    HW118413   0.941   1.163   5.734
 5838SOL    HW218414   0.798   1.242   5.750
 5839SOL     OW18415   0.138   2.572   2.380
 5839SOL    HW118416   0.233   2.582   2.351
 5839SOL    HW218417   0.131   2.497   2.446
 5840SOL     OW18418   3.529   5.375   0.176
 5840SOL    HW118419   3.449   5.334   0.132
 5840SOL    HW218420   3.525   5.475   0.166
 5841SOL     OW18421   6.130   2.432   3.281
 5841SOL    HW118422   6.146   2.450   3.378
 5841SOL    HW218423   6.211   2.458   3.229
 5842SOL     OW18424   3.714   2.553   0.337
 5842SOL    HW118425   3.667   2.641   0.342
 5842SOL    HW218426   3.799   2.563   0.285
 5843SOL     OW18427   0.819   3.030   1.187
 5843SOL    HW118428   0.888   3.017   1.116
 5843SOL    HW218429   0.859   3.009   1.276
 5844SOL     OW18430   1.891   6.381   6.881
 5844SOL    HW118431   1.851   6.428   6.803
 5844SOL    HW218432   1.951   6.444   6.931
 5845SOL     OW18433   1.674   2.530   4.618
 5845SOL    HW118434   1.595   2.469   4.617
 5845SOL    HW218435   1.694   2.561   4.525
 5846SOL     OW18436   7.004   3.480   6.654
 5846SOL    HW118437   6.970   3.390   6.626
 5846SOL    HW218438   6.938   3.550   6.626
 5847SOL     OW18439   1.346   2.173   3.742
 5847SOL    HW118440   1.419   2.145   3.804
 5847SOL    HW218441   1.317   2.266   3.765
 5848SOL     OW18442   1.041   4.800   3.277
 5848SOL    HW118443   1.102   4.750   3.215
 5848SOL    HW218444   1.032   4.894   3.246
 5849SOL     OW18445   3.374   6.722   6.086
 5849SOL    HW118446   3.329   6.791   6.143
 5849SOL    HW218447   3.306   6.668   6.037
 5850SOL     OW18448   0.685   4.639   3.356
 5850SOL    HW118449   0.764   4.601   3.405
 5850SOL    HW218450   0.609   4.652   3.420
 5851SOL     OW18451   6.013   2.964   1.920
 5851SOL    HW118452   5.943   2.902   1.957
 5851SOL    HW218453   6.101   2.943   1.963
 5852SOL     OW18454   4.056   6.183   3.145
 5852SOL    HW118455   3.985   6.134   3.094
 5852SOL    HW218456   4.018   6.268   3.181
 5853SOL     OW18457   4.991   4.006   5.490
 5853SOL    HW118458   4.897   4.018   5.522
 5853SOL    HW218459   5.000   4.044   5.398
 5854SOL     OW18460   1.137   1.151   6.453
 5854SOL    HW118461   1.132   1.231   6.512
 5854SOL    HW218462   1.125   1.179   6.358
 5855SOL     OW18463   1.791   1.677   4.767
 5855SOL    HW118464   1.770   1.760   4.714
 5855SOL    HW218465   1.882   1.685   4.807
 5856SOL     OW18466   1.638   5.116   3.116
 5856SOL    HW118467   1.702   5.107   3.040
 5856SOL    HW218468   1.632   5.212   3.143
 5857SOL     OW18469   0.580   2.569   5.572
 5857SOL    HW118470   0.605   2.575   5.669
 5857SOL    HW218471   0.661   2.589   5.517
 5858SOL     OW18472   3.479   6.765   3.523
 5858SOL    HW118473   3.553   6.778   3.589
 5858SOL    HW218474   3.498   6.685   3.467
 5859SOL     OW18475   6.206   6.073   2.056
 5859SOL    HW118476   6.207   6.114   2.148
 5859SOL    HW218477   6.135   6.003   2.052
 5860SOL     OW18478   6.922   4.027   0.871
 5860SOL    HW118479   6.931   4.004   0.967
 5860SOL    HW218480   6.993   3.980   0.818
 5861SOL     OW18481   6.025   1.657   3.944
 5861SOL    HW118482   6.055   1.746   3.912
 5861SOL    HW218483   6.083   1.626   4.019
 5862SOL     OW18484   4.617   4.874   3.670
 5862SOL    HW118485   4.573   4.894   3.583
 5862SOL    HW218486   4.672   4.791   3.661
 5863SOL     OW18487   2.081   1.965   1.059
 5863SOL    HW118488   2.149   1.894   1.080
 5863SOL    HW218489   2.122   2.032   0.998
 5864SOL     OW18490   4.679   5.391   0.958
 5864SOL    HW118491   4.615   5.346   1.020
 5864SOL    HW218492   4.711   5.325   0.890
 5865SOL     OW18493   4.361   0.637   3.422
 5865SOL    HW118494   4.412   0.601   3.344
 5865SOL    HW218495   4.291   0.571   3.449
 5866SOL     OW18496   3.514   1.707   0.206
 5866SOL    HW118497   3.469   1.625   0.172
 5866SOL    HW218498   3.582   1.682   0.275
 5867SOL     OW18499   6.560   2.771   1.552
 5867SOL    HW118500   6.616   2.839   1.599
 5867SOL    HW218501   6.519   2.813   1.470
 5868SOL     OW18502   1.086   6.546   4.788
 5868SOL    HW118503   1.042   6.635   4.774
 5868SOL    HW218504   1.039   6.497   4.861
 5869SOL     OW18505   2.977   4.850   4.268
 5869SOL    HW118506   3.047   4.922   4.273
 5869SOL    HW218507   2.967   4.807   4.358
 5870SOL     OW18508   4.841   5.440   3.808
 5870SOL    HW118509   4.779   5.418   3.733
 5870SOL    HW218510   4.935   5.447   3.773
 5871SOL     OW18511   2.844   3.593   0.469
 5871SOL    HW118512   2.823   3.672   0.526
 5871SOL    HW218513   2.767   3.575   0.407
 5872SOL     OW18514   4.049   5.341   3.956
 5872SOL    HW118515   4.032   5.246   3.981
 5872SOL    HW218516   4.148   5.358   3.954
 5873SOL     OW18517   2.050   2.751   6.731
 5873SOL    HW118518   2.067   2.727   6.827
 5873SOL    HW218519   1.996   2.835   6.726
 5874SOL     OW18520   1.017   4.169   6.287
 5874SOL    HW118521   1.064   4.227   6.221
 5874SOL    HW218522   1.059   4.179   6.377
 5875SOL     OW18523   3.103   2.551   0.770
 5875SOL    HW118524   3.191   2.592   0.744
 5875SOL    HW218525   3.117   2.482   0.840
 5876SOL     OW18526   4.331   4.227   6.314
 5876SOL    HW118527   4.314   4.240   6.217
 5876SOL    HW218528   4.244   4.210   6.361
 5877SOL     OW18529   5.747   0.200   2.531
 5877SOL    HW118530   5.701   0.141   2.465
 5877SOL    HW218531   5.733   0.296   2.505
 5878SOL     OW18532   4.864   4.035   2.475
 5878SOL    HW118533   4.855   4.041   2.376
 5878SOL    HW218534   4.810   4.107   2.518
 5879SOL     OW18535   3.078   4.362   5.288
 5879SOL    HW118536   3.021   4.421   5.231
 5879SOL    HW218537   3.079   4.269   5.250
 5880SOL     OW18538   5.869   2.385   0.357
 5880SOL    HW118539   5.781   2.415   0.395
 5880SOL    HW218540   5.940   2.450   0.382
 5881SOL     OW18541   1.418   6.002   2.613
 5881SOL    HW118542   1.501   5.969   2.569
 5881SOL    HW218543   1.426   5.991   2.712
 5882SOL     OW18544   1.799   4.999   5.558
 5882SOL    HW118545   1.868   4.929   5.538
 5882SOL    HW218546   1.816   5.079   5.501
 5883SOL     OW18547   7.012   5.342   0.252
 5883SOL    HW118548   0.078   5.381   0.286
 5883SOL    HW218549   6.935   5.387   0.297
 5884SOL     OW18550   6.543   0.876   2.429
 5884SOL    HW118551   6.477   0.945   2.460
 5884SOL    HW218552   6.493   0.798   2.389
 5885SOL     OW18553   0.303   5.641   1.332
 5885SOL    HW118554   0.211   5.679   1.334
 5885SOL    HW218555   0.299   5.541   1.328
 5886SOL     OW18556   2.316   4.622   3.766
 5886SOL    HW118557   2.415   4.619   3.779
 5886SOL    HW218558   2.270   4.610   3.854
 5887SOL     OW18559   3.010   3.144   0.193
 5887SOL    HW118560   2.960   3.163   0.278
 5887SOL    HW218561   3.107   3.163   0.207
 5888SOL     OW18562   2.573   6.119   1.622
 5888SOL    HW118563   2.635   6.190   1.655
 5888SOL    HW218564   2.480   6.138   1.656
 5889SOL     OW18565   5.390   1.557   2.681
 5889SOL    HW118566   5.395   1.644   2.730
 5889SOL    HW218567   5.439   1.566   2.594
 5890SOL     OW18568   2.545   4.787   3.418
 5890SOL    HW118569   2.553   4.693   3.385
 5890SOL    HW218570   2.622   4.809   3.478
 5891SOL     OW18571   2.563   3.191   6.459
 5891SOL    HW118572   2.468   3.209   6.436
 5891SOL    HW218573   2.570   3.104   6.508
 5892SOL     OW18574   1.518   2.796   0.568
 5892SOL    HW118575   1.613   2.826   0.575
 5892SOL    HW218576   1.459   2.877   0.561
 5893SOL     OW18577   0.523   6.195   1.617
 5893SOL    HW118578   0.591   6.122   1.608
 5893SOL    HW218579   0.495   6.226   1.526
 5894SOL     OW18580   2.282   5.421   6.750
 5894SOL    HW118581   2.380   5.409   6.730
 5894SOL    HW218582   2.259   5.518   6.748
 5895SOL     OW18583   6.091   3.914   3.806
 5895SOL    HW118584   6.112   3.877   3.897
 5895SOL    HW218585   6.112   4.012   3.804
 5896SOL     OW18586   5.857   2.764   2.023
 5896SOL    HW118587   5.867   2.708   2.105
 5896SOL    HW218588   5.798   2.717   1.958
 5897SOL     OW18589   3.644   2.318   0.486
 5897SOL    HW118590   3.695   2.392   0.442
 5897SOL    HW218591   3.553   2.310   0.444
 5898SOL     OW18592   2.816   0.801   6.804
 5898SOL    HW118593   2.865   0.785   6.719
 5898SOL    HW218594   2.871   0.860   6.863
 5899SOL     OW18595   0.417   6.877   6.921
 5899SOL    HW118596   0.475   6.796   6.932
 5899SOL    HW218597   0.358   6.865   6.841
 5900SOL     OW18598   6.023   6.750   2.561
 5900SOL    HW118599   5.979   6.813   2.498
 5900SOL    HW218600   6.110   6.789   2.591
 5901SOL     OW18601   2.309   0.837   4.942
 5901SOL    HW118602   2.389   0.874   4.990
 5901SOL    HW218603   2.228   0.846   5.000
 5902SOL     OW18604   4.022   4.037   5.655
 5902SOL    HW118605   3.962   3.957   5.655
 5902SOL    HW218606   4.108   4.015   5.609
 5903SOL     OW18607   6.211   2.108   4.824
 5903SOL    HW118608   6.198   2.207   4.815
 5903SOL    HW218609   6.174   2.062   4.744
 5904SOL     OW18610   6.810   4.876   1.695
 5904SOL    HW118611   6.827   4.896   1.792
 5904SOL    HW218612   6.712   4.859   1.682
 5905SOL     OW18613   6.418   2.634   4.838
 5905SOL    HW118614   6.345   2.677   4.891
 5905SOL    HW218615   6.489   2.599   4.900
 5906SOL     OW18616   4.575   1.004   5.733
 5906SOL    HW118617   4.536   0.914   5.752
 5906SOL    HW218618   4.510   1.059   5.681
 5907SOL     OW18619   1.197   3.627   5.841
 5907SOL    HW118620   1.280   3.639   5.786
 5907SOL    HW218621   1.218   3.574   5.922
 5908SOL     OW18622   4.416   3.959   6.929
 5908SOL    HW118623   4.326   3.961   6.972
 5908SOL    HW218624   4.485   3.988   6.996
 5909SOL     OW18625   5.743   5.250   3.639
 5909SOL    HW118626   5.767   5.347   3.634
 5909SOL    HW218627   5.645   5.239   3.621
 5910SOL     OW18628   3.028   4.501   1.374
 5910SOL    HW118629   3.059   4.587   1.334
 5910SOL    HW218630   3.052   4.498   1.471
 5911SOL     OW18631   6.098   0.390   6.017
 5911SOL    HW118632   6.041   0.328   6.070
 5911SOL    HW218633   6.191   0.355   6.014
 5912SOL     OW18634   0.628   3.416   5.997
 5912SOL    HW118635   0.652   3.509   6.025
 5912SOL    HW218636   0.665   3.398   5.906
 5913SOL     OW18637   2.101   2.440   4.432
 5913SOL    HW118638   2.136   2.472   4.520
 5913SOL    HW218639   2.087   2.342   4.435
 5914SOL     OW18640   1.515   5.886   0.906
 5914SOL    HW118641   1.599   5.916   0.950
 5914SOL    HW218642   1.449   5.857   0.975
 5915SOL     OW18643   6.050   3.505   4.026
 5915SOL    HW118644   5.981   3.434   4.018
 5915SOL    HW218645   6.082   3.531   3.934
 5916SOL     OW18646   3.203   0.625   6.512
 5916SOL    HW118647   3.165   0.533   6.504
 5916SOL    HW218648   3.283   0.624   6.572
 5917SOL     OW18649   3.825   4.028   2.202
 5917SOL    HW118650   3.912   4.058   2.240
 5917SOL    HW218651   3.789   3.952   2.257
 5918SOL     OW18652   2.557   2.024   3.953
 5918SOL    HW118653   2.522   1.931   3.956
 5918SOL    HW218654   2.639   2.031   4.009
 5919SOL     OW18655   1.823   1.974   6.953
 5919SOL    HW118656   1.854   2.040   0.000
 5919SOL    HW218657   1.740   2.008   6.909
 5920SOL     OW18658   2.915   5.029   6.914
 5920SOL    HW118659   2.899   5.042   7.012
 5920SOL    HW218660   2.830   4.996   6.871
 5921SOL     OW18661   4.063   5.484   5.312
 5921SOL    HW118662   4.045   5.456   5.406
 5921SOL    HW218663   4.161   5.499   5.300
 5922SOL     OW18664   6.475   4.904   1.814
 5922SOL    HW118665   6.424   4.903   1.728
 5922SOL    HW218666   6.521   4.992   1.825
 5923SOL     OW18667   0.687   1.006   3.567
 5923SOL    HW118668   0.636   0.946   3.504
 5923SOL    HW218669   0.673   0.975   3.661
 5924SOL     OW18670   5.945   1.828   4.595
 5924SOL    HW118671   5.852   1.801   4.620
 5924SOL    HW218672   6.010   1.758   4.624
 5925SOL     OW18673   6.422   5.617   0.533
 5925SOL    HW118674   6.456   5.711   0.525
 5925SOL    HW218675   6.338   5.607   0.481
 5926SOL     OW18676   3.582   6.133   1.729
 5926SOL    HW118677   3.625   6.131   1.820
 5926SOL    HW218678   3.583   6.226   1.694
 5927SOL     OW18679   2.158   5.219   1.569
 5927SOL    HW118680   2.169   5.195   1.666
 5927SOL    HW218681   2.130   5.315   1.562
 5928SOL     OW18682   0.557   6.434   1.079
 5928SOL    HW118683   0.546   6.404   0.984
 5928SOL    HW218684   0.653   6.423   1.107
 5929SOL     OW18685   0.564   6.781   5.641
 5929SOL    HW118686   0.593   6.759   5.547
 5929SOL    HW218687   0.464   6.787   5.645
 5930SOL     OW18688   6.175   1.146   5.351
 5930SOL    HW118689   6.076   1.150   5.366
 5930SOL    HW218690   6.204   1.050   5.348
 5931SOL     OW18691   5.839   4.920   0.806
 5931SOL    HW118692   5.822   4.904   0.904
 5931SOL    HW218693   5.752   4.916   0.757
 5932SOL     OW18694   2.220   0.343   0.155
 5932SOL    HW118695   2.200   0.271   0.088
 5932SOL    HW218696   2.235   0.302   0.245
 5933SOL     OW18697   6.188   3.352   3.123
 5933SOL    HW118698   6.142   3.353   3.035
 5933SOL    HW218699   6.268   3.291   3.119
 5934SOL     OW18700   4.010   3.793   2.306
 5934SOL    HW118701   4.058   3.776   2.219
 5934SOL    HW218702   3.924   3.742   2.307
 5935SOL     OW18703   3.956   3.129   2.948
 5935SOL    HW118704   3.975   3.176   2.862
 5935SOL    HW218705   4.035   3.139   3.009
 5936SOL     OW18706   6.716   6.070   6.830
 5936SOL    HW118707   6.727   6.138   6.903
 5936SOL    HW218708   6.649   6.002   6.858
 5937SOL     OW18709   1.057   4.230   6.891
 5937SOL    HW118710   1.054   4.286   6.809
 5937SOL    HW218711   1.023   4.138   6.870
 5938SOL     OW18712   2.406   4.533   0.531
 5938SOL    HW118713   2.324   4.548   0.476
 5938SOL    HW218714   2.384   4.545   0.628
 5939SOL     OW18715   1.487   0.930   2.069
 5939SOL    HW118716   1.512   1.019   2.031
 5939SOL    HW218717   1.555   0.902   2.137
 5940SOL     OW18718   3.703   4.901   3.566
 5940SOL    HW118719   3.680   4.977   3.626
 5940SOL    HW218720   3.652   4.909   3.481
 5941SOL     OW18721   6.541   2.964   3.677
 5941SOL    HW118722   6.549   2.957   3.578
 5941SOL    HW218723   6.500   3.052   3.701
 5942SOL     OW18724   6.998   1.198   4.599
 5942SOL    HW118725   6.929   1.270   4.591
 5942SOL    HW218726   6.971   1.134   4.670
 5943SOL     OW18727   1.488   5.028   0.378
 5943SOL    HW118728   1.452   5.098   0.440
 5943SOL    HW218729   1.588   5.024   0.386
 5944SOL     OW18730   5.379   2.397   2.593
 5944SOL    HW118731   5.361   2.474   2.654
 5944SOL    HW218732   5.397   2.432   2.501
 5945SOL     OW18733   6.677   5.673   6.064
 5945SOL    HW118734   6.610   5.605   6.092
 5945SOL    HW218735   6.631   5.759   6.042
 5946SOL     OW18736   3.396   2.871   5.491
 5946SOL    HW118737   3.354   2.954   5.454
 5946SOL    HW218738   3.402   2.802   5.419
 5947SOL     OW18739   4.885   3.815   2.130
 5947SOL    HW118740   4.926   3.871   2.058
 5947SOL    HW218741   4.864   3.725   2.094
 5948SOL     OW18742   3.008   5.203   3.249
 5948SOL    HW118743   3.001   5.200   3.349
 5948SOL    HW218744   2.922   5.171   3.209
 5949SOL     OW18745   4.283   4.721   3.071
 5949SOL    HW118746   4.294   4.667   3.154
 5949SOL    HW218747   4.311   4.667   2.991
 5950SOL     OW18748   6.509   2.729   4.578
 5950SOL    HW118749   6.480   2.677   4.659
 5950SOL    HW218750   6.428   2.758   4.527
 5951SOL     OW18751   1.899   0.412   4.303
 5951SOL    HW118752   1.903   0.373   4.211
 5951SOL    HW218753   1.954   0.496   4.306
 5952SOL     OW18754   0.362   5.894   5.036
 5952SOL    HW118755   0.288   5.953   5.069
 5952SOL    HW218756   0.429   5.950   4.987
 5953SOL     OW18757   0.838   3.219   6.117
 5953SOL    HW118758   0.917   3.159   6.127
 5953SOL    HW218759   0.812   3.224   6.020
 5954SOL     OW18760   1.389   4.948   6.500
 5954SOL    HW118761   1.461   5.002   6.456
 5954SOL    HW218762   1.304   4.958   6.449
 5955SOL     OW18763   5.054   4.865   2.662
 5955SOL    HW118764   5.060   4.897   2.567
 5955SOL    HW218765   5.053   4.944   2.724
 5956SOL     OW18766   0.256   2.192   0.183
 5956SOL    HW118767   0.166   2.159   0.212
 5956SOL    HW218768   0.247   2.238   0.094
 5957SOL     OW18769   4.483   6.864   5.436
 5957SOL    HW118770   4.403   6.828   5.483
 5957SOL    HW218771   4.561   6.863   5.498
 5958SOL     OW18772   1.119   5.310   2.566
 5958SOL    HW118773   1.129   5.346   2.473
 5958SOL    HW218774   1.027   5.328   2.599
 5959SOL     OW18775   1.403   1.124   6.644
 5959SOL    HW118776   1.366   1.046   6.593
 5959SOL    HW218777   1.439   1.191   6.579
 5960SOL     OW18778   3.533   6.356   5.501
 5960SOL    HW118779   3.564   6.390   5.412
 5960SOL    HW218780   3.433   6.367   5.508
 5961SOL     OW18781   2.656   1.064   5.291
 5961SOL    HW118782   2.641   1.119   5.373
 5961SOL    HW218783   2.713   1.115   5.226
 5962SOL     OW18784   5.293   3.915   2.099
 5962SOL    HW118785   5.250   3.826   2.109
 5962SOL    HW218786   5.371   3.908   2.037
 5963SOL     OW18787   4.242   4.086   1.688
 5963SOL    HW118788   4.185   4.133   1.622
 5963SOL    HW218789   4.294   4.154   1.741
 5964SOL     OW18790   1.362   3.606   5.606
 5964SOL    HW118791   1.461   3.610   5.591
 5964SOL    HW218792   1.321   3.692   5.577
 5965SOL     OW18793   2.151   1.826   3.668
 5965SOL    HW118794   2.129   1.907   3.723
 5965SOL    HW218795   2.248   1.828   3.644
 5966SOL     OW18796   1.864   5.743   4.207
 5966SOL    HW118797   1.939   5.680   4.227
 5966SOL    HW218798   1.790   5.694   4.161
 5967SOL     OW18799   4.692   5.953   2.328
 5967SOL    HW118800   4.692   6.028   2.394
 5967SOL    HW218801   4.636   5.878   2.362
 5968SOL     OW18802   0.648   1.603   3.997
 5968SOL    HW118803   0.583   1.591   3.922
 5968SOL    HW218804   0.654   1.519   4.049
 5969SOL     OW18805   6.040   2.290   2.978
 5969SOL    HW118806   6.014   2.384   3.001
 5969SOL    HW218807   6.118   2.291   2.915
 5970SOL     OW18808   2.058   3.380   3.575
 5970SOL    HW118809   2.101   3.357   3.663
 5970SOL    HW218810   2.087   3.315   3.505
 5971SOL     OW18811   3.161   6.272   3.340
 5971SOL    HW118812   3.174   6.204   3.268
 5971SOL    HW218813   3.064   6.278   3.363
 5972SOL     OW18814   5.288   0.223   1.793
 5972SOL    HW118815   5.239   0.299   1.836
 5972SOL    HW218816   5.386   0.243   1.792
 5973SOL     OW18817   1.622   4.705   3.236
 5973SOL    HW118818   1.713   4.718   3.198
 5973SOL    HW218819   1.627   4.638   3.311
 5974SOL     OW18820   1.101   3.981   6.521
 5974SOL    HW118821   1.093   3.909   6.589
 5974SOL    HW218822   1.161   3.952   6.447
 5975SOL     OW18823   2.191   2.352   6.211
 5975SOL    HW118824   2.226   2.264   6.179
 5975SOL    HW218825   2.155   2.404   6.134
 5976SOL     OW18826   3.376   2.884   4.309
 5976SOL    HW118827   3.360   2.961   4.246
 5976SOL    HW218828   3.294   2.869   4.364
 5977SOL     OW18829   0.348   3.641   3.230
 5977SOL    HW118830   0.274   3.666   3.168
 5977SOL    HW218831   0.377   3.547   3.212
 5978SOL     OW18832   4.959   5.485   1.888
 5978SOL    HW118833   4.930   5.443   1.974
 5978SOL    HW218834   4.999   5.415   1.829
 5979SOL     OW18835   0.953   1.201   1.262
 5979SOL    HW118836   0.854   1.194   1.270
 5979SOL    HW218837   0.990   1.244   1.345
 5980SOL     OW18838   6.162   3.100   6.049
 5980SOL    HW118839   6.161   3.051   5.961
 5980SOL    HW218840   6.141   3.036   6.123
 5981SOL     OW18841   3.714   2.047   0.876
 5981SOL    HW118842   3.655   2.110   0.826
 5981SOL    HW218843   3.661   1.999   0.945
 5982SOL     OW18844   6.168   2.497   6.775
 5982SOL    HW118845   6.099   2.527   6.841
 5982SOL    HW218846   6.197   2.404   6.797
 5983SOL     OW18847   1.324   0.506   4.795
 5983SOL    HW118848   1.227   0.486   4.783
 5983SOL    HW218849   1.358   0.459   4.876
 5984SOL     OW18850   0.560   6.984   6.109
 5984SOL    HW118851   0.609   6.980   6.022
 5984SOL    HW218852   0.511   0.050   6.116
 5985SOL     OW18853   5.419   3.720   3.916
 5985SOL    HW118854   5.469   3.652   3.969
 5985SOL    HW218855   5.444   3.712   3.820
 5986SOL     OW18856   3.055   3.230   3.064
 5986SOL    HW118857   3.134   3.273   3.108
 5986SOL    HW218858   2.971   3.277   3.094
 5987SOL     OW18859   4.966   0.419   5.828
 5987SOL    HW118860   4.871   0.446   5.844
 5987SOL    HW218861   4.995   0.356   5.899
 5988SOL     OW18862   3.569   0.256   5.818
 5988SOL    HW118863   3.663   0.225   5.826
 5988SOL    HW218864   3.552   0.330   5.883
 5989SOL     OW18865   3.018   1.607   0.075
 5989SOL    HW118866   3.022   1.544   7.019
 5989SOL    HW218867   3.106   1.654   0.083
 5990SOL     OW18868   3.635   5.131   2.706
 5990SOL    HW118869   3.588   5.099   2.788
 5990SOL    HW218870   3.593   5.089   2.626
 5991SOL     OW18871   2.669   5.136   3.678
 5991SOL    HW118872   2.678   5.231   3.648
 5991SOL    HW218873   2.575   5.120   3.710
 5992SOL     OW18874   4.457   2.045   4.154
 5992SOL    HW118875   4.443   1.953   4.190
 5992SOL    HW218876   4.383   2.068   4.091
 5993SOL     OW18877   2.895   5.727   3.601
 5993SOL    HW118878   2.801   5.760   3.604
 5993SOL    HW218879   2.950   5.789   3.544
 5994SOL     OW18880   6.359   2.251   1.175
 5994SOL    HW118881   6.446   2.241   1.126
 5994SOL    HW218882   6.377   2.274   1.270
 5995SOL     OW18883   0.923   4.458   1.436
 5995SOL    HW118884   1.000   4.519   1.456
 5995SOL    HW218885   0.841   4.512   1.416
 5996SOL     OW18886   1.109   5.692   5.975
 5996SOL    HW118887   1.175   5.728   5.909
 5996SOL    HW218888   1.032   5.756   5.982
 5997SOL     OW18889   0.380   0.648   1.460
 5997SOL    HW118890   0.397   0.712   1.535
 5997SOL    HW218891   0.360   0.699   1.377
 5998SOL     OW18892   4.623   2.742   3.428
 5998SOL    HW118893   4.693   2.754   3.499
 5998SOL    HW218894   4.662   2.766   3.339
 5999SOL     OW18895   2.380   2.729   3.176
 5999SOL    HW118896   2.314   2.762   3.243
 5999SOL    HW218897   2.404   2.803   3.114
 6000SOL     OW18898   4.952   0.792   3.495
 6000SOL    HW118899   5.027   0.857   3.503
 6000SOL    HW218900   4.866   0.837   3.523
 6001SOL     OW18901   6.535   1.619   0.453
 6001SOL    HW118902   6.495   1.643   0.365
 6001SOL    HW218903   6.468   1.568   0.508
 6002SOL     OW18904   1.660   0.288   2.052
 6002SOL    HW118905   1.661   0.355   1.978
 6002SOL    HW218906   1.605   0.323   2.128
 6003SOL     OW18907   5.424   4.464   3.969
 6003SOL    HW118908   5.483   4.525   4.020
 6003SOL    HW218909   5.459   4.370   3.975
 6004SOL     OW18910   6.771   3.236   2.007
 6004SOL    HW118911   6.857   3.201   2.044
 6004SOL    HW218912   6.789   3.316   1.949
 6005SOL     OW18913   1.963   6.053   2.490
 6005SOL    HW118914   1.910   6.114   2.430
 6005SOL    HW218915   1.993   5.973   2.438
 6006SOL     OW18916   2.588   5.838   0.231
 6006SOL    HW118917   2.526   5.770   0.191
 6006SOL    HW218918   2.665   5.792   0.273
 6007SOL     OW18919   5.284   3.559   4.524
 6007SOL    HW118920   5.337   3.641   4.498
 6007SOL    HW218921   5.187   3.583   4.529
 6008SOL     OW18922   4.755   3.925   1.376
 6008SOL    HW118923   4.692   3.957   1.447
 6008SOL    HW218924   4.738   3.828   1.357
 6009SOL     OW18925   4.743   2.039   5.050
 6009SOL    HW118926   4.666   2.019   4.990
 6009SOL    HW218927   4.815   1.971   5.035
 6010SOL     OW18928   1.600   4.449   2.985
 6010SOL    HW118929   1.593   4.373   3.049
 6010SOL    HW218930   1.675   4.510   3.013
 6011SOL     OW18931   6.332   2.172   1.721
 6011SOL    HW118932   6.293   2.150   1.810
 6011SOL    HW218933   6.400   2.102   1.697
 6012SOL     OW18934   0.328   3.043   1.832
 6012SOL    HW118935   0.346   2.951   1.796
 6012SOL    HW218936   0.415   3.090   1.847
 6013SOL     OW18937   5.567   0.348   2.782
 6013SOL    HW118938   5.652   0.395   2.761
 6013SOL    HW218939   5.498   0.370   2.713
 6014SOL     OW18940   6.166   0.453   1.098
 6014SOL    HW118941   6.146   0.501   1.184
 6014SOL    HW218942   6.184   0.520   1.026
 6015SOL     OW18943   5.599   0.453   4.313
 6015SOL    HW118944   5.560   0.526   4.256
 6015SOL    HW218945   5.553   0.367   4.292
 6016SOL     OW18946   2.054   6.989   5.137
 6016SOL    HW118947   2.098   6.919   5.193
 6016SOL    HW218948   1.979   0.009   5.188
 6017SOL     OW18949   0.024   4.025   2.221
 6017SOL    HW118950   6.971   3.959   2.199
 6017SOL    HW218951   0.111   3.990   2.186
 6018SOL     OW18952   2.614   5.321   1.653
 6018SOL    HW118953   2.696   5.266   1.637
 6018SOL    HW218954   2.557   5.277   1.723
 6019SOL     OW18955   5.864   6.221   3.352
 6019SOL    HW118956   5.830   6.238   3.260
 6019SOL    HW218957   5.815   6.280   3.416
 6020SOL     OW18958   2.243   6.593   2.960
 6020SOL    HW118959   2.181   6.652   2.908
 6020SOL    HW218960   2.196   6.507   2.981
 6021SOL     OW18961   4.185   0.275   3.756
 6021SOL    HW118962   4.152   0.324   3.836
 6021SOL    HW218963   4.115   0.209   3.727
 6022SOL     OW18964   4.491   1.016   4.960
 6022SOL    HW118965   4.447   0.950   5.021
 6022SOL    HW218966   4.575   1.050   5.003
 6023SOL     OW18967   0.109   2.312   2.151
 6023SOL    HW118968   0.166   2.307   2.234
 6023SOL    HW218969   0.037   2.244   2.157
 6024SOL     OW18970   6.788   5.884   2.756
 6024SOL    HW118971   6.708   5.827   2.735
 6024SOL    HW218972   6.801   5.886   2.855
 6025SOL     OW18973   4.110   2.230   2.432
 6025SOL    HW118974   4.024   2.181   2.438
 6025SOL    HW218975   4.153   2.234   2.523
 6026SOL     OW18976   0.394   4.578   5.301
 6026SOL    HW118977   0.393   4.634   5.384
 6026SOL    HW218978   0.350   4.490   5.320
 6027SOL     OW18979   4.000   3.607   0.259
 6027SOL    HW118980   4.074   3.598   0.326
 6027SOL    HW218981   4.040   3.613   0.167
 6028SOL     OW18982   0.902   4.240   0.134
 6028SOL    HW118983   0.968   4.252   0.060
 6028SOL    HW218984   0.818   4.290   0.112
 6029SOL     OW18985   0.782   4.978   1.510
 6029SOL    HW118986   0.714   4.941   1.446
 6029SOL    HW218987   0.794   4.914   1.586
 6030SOL     OW18988   1.860   6.661   1.621
 6030SOL    HW118989   1.814   6.578   1.590
 6030SOL    HW218990   1.922   6.639   1.696
 6031SOL     OW18991   5.265   0.928   4.309
 6031SOL    HW118992   5.246   0.943   4.406
 6031SOL    HW218993   5.347   0.872   4.299
 6032SOL     OW18994   0.359   3.117   2.287
 6032SOL    HW118995   0.385   3.063   2.207
 6032SOL    HW218996   0.440   3.133   2.343
 6033SOL     OW18997   0.072   6.825   4.598
 6033SOL    HW118998   0.137   6.784   4.534
 6033SOL    HW218999   7.002   6.830   4.555
 6034SOL     OW19000   2.381   4.397   4.997
 6034SOL    HW119001   2.408   4.327   5.063
 6034SOL    HW219002   2.359   4.353   4.910
 6035SOL     OW19003   5.563   0.174   3.753
 6035SOL    HW119004   5.548   0.129   3.665
 6035SOL    HW219005   5.480   0.169   3.808
 6036SOL     OW19006   6.948   0.573   4.877
 6036SOL    HW119007   6.994   0.522   4.805
 6036SOL    HW219008   6.849   0.562   4.868
 6037SOL     OW19009   0.270   5.666   4.756
 6037SOL    HW119010   0.356   5.710   4.730
 6037SOL    HW219011   0.269   5.653   4.856
 6038SOL     OW19012   6.491   3.914   6.649
 6038SOL    HW119013   6.510   3.912   6.747
 6038SOL    HW219014   6.512   3.825   6.608
 6039SOL     OW19015   4.126   3.378   4.388
 6039SOL    HW119016   4.174   3.302   4.343
 6039SOL    HW219017   4.045   3.343   4.435
 6040SOL     OW19018   1.339   0.877   1.375
 6040SOL    HW119019   1.284   0.944   1.324
 6040SOL    HW219020   1.288   0.791   1.382
 6041SOL     OW19021   0.400   2.519   0.563
 6041SOL    HW119022   0.387   2.543   0.659
 6041SOL    HW219023   0.394   2.602   0.507
 6042SOL     OW19024   5.314   5.439   4.980
 6042SOL    HW119025   5.267   5.527   4.974
 6042SOL    HW219026   5.310   5.393   4.891
 6043SOL     OW19027   0.236   4.434   4.273
 6043SOL    HW119028   0.309   4.398   4.215
 6043SOL    HW219029   0.150   4.433   4.223
 6044SOL     OW19030   1.894   0.332   1.491
 6044SOL    HW119031   1.953   0.262   1.452
 6044SOL    HW219032   1.802   0.325   1.452
 6045SOL     OW19033   6.648   4.081   0.626
 6045SOL    HW119034   6.720   4.145   0.653
 6045SOL    HW219035   6.688   4.006   0.573
 6046SOL     OW19036   1.916   3.512   0.271
 6046SOL    HW119037   1.890   3.450   0.345
 6046SOL    HW219038   1.876   3.481   0.185
 6047SOL     OW19039   0.395   6.278   4.949
 6047SOL    HW119040   0.316   6.338   4.944
 6047SOL    HW219041   0.436   6.283   5.040
 6048SOL     OW19042   4.568   6.059   4.393
 6048SOL    HW119043   4.487   6.095   4.347
 6048SOL    HW219044   4.604   6.128   4.456
 6049SOL     OW19045   6.681   5.415   0.142
 6049SOL    HW119046   6.608   5.481   0.157
 6049SOL    HW219047   6.733   5.403   0.227
 6050SOL     OW19048   5.540   4.746   5.352
 6050SOL    HW119049   5.500   4.787   5.270
 6050SOL    HW219050   5.520   4.648   5.353
 6051SOL     OW19051   3.289   2.082   3.539
 6051SOL    HW119052   3.370   2.141   3.531
 6051SOL    HW219053   3.253   2.063   3.447
 6052SOL     OW19054   6.823   1.235   0.259
 6052SOL    HW119055   6.798   1.330   0.278
 6052SOL    HW219056   6.922   1.228   0.250
 6053SOL     OW19057   1.716   0.129   6.385
 6053SOL    HW119058   1.749   0.167   6.299
 6053SOL    HW219059   1.781   0.062   6.420
 6054SOL     OW19060   1.651   4.218   6.531
 6054SOL    HW119061   1.688   4.278   6.602
 6054SOL    HW219062   1.669   4.122   6.556
 6055SOL     OW19063   5.630   0.304   3.375
 6055SOL    HW119064   5.726   0.275   3.370
 6055SOL    HW219065   5.625   0.403   3.364
 6056SOL     OW19066   5.360   3.379   6.359
 6056SOL    HW119067   5.444   3.433   6.368
 6056SOL    HW219068   5.317   3.398   6.271
 6057SOL     OW19069   3.617   1.158   6.554
 6057SOL    HW119070   3.646   1.234   6.496
 6057SOL    HW219071   3.517   1.151   6.553
 6058SOL     OW19072   5.550   1.574   4.840
 6058SOL    HW119073   5.648   1.560   4.853
 6058SOL    HW219074   5.519   1.650   4.897
 6059SOL     OW19075   6.569   5.858   6.301
 6059SOL    HW119076   6.565   5.936   6.240
 6059SOL    HW219077   6.477   5.833   6.330
 6060SOL     OW19078   3.648   6.285   6.381
 6060SOL    HW119079   3.658   6.189   6.406
 6060SOL    HW219080   3.607   6.335   6.458
 6061SOL     OW19081   1.963   1.541   0.093
 6061SOL    HW119082   1.864   1.556   0.085
 6061SOL    HW219083   2.004   1.616   0.144
 6062SOL     OW19084   1.317   0.089   4.348
 6062SOL    HW119085   1.273   0.168   4.391
 6062SOL    HW219086   1.316   0.012   4.411
 6063SOL     OW19087   5.700   5.829   0.119
 6063SOL    HW119088   5.692   5.912   0.064
 6063SOL    HW219089   5.608   5.794   0.139
 6064SOL     OW19090   0.725   5.023   2.646
 6064SOL    HW119091   0.626   5.010   2.658
 6064SOL    HW219092   0.742   5.057   2.554
 6065SOL     OW19093   5.703   6.797   1.704
 6065SOL    HW119094   5.797   6.786   1.738
 6065SOL    HW219095   5.656   6.709   1.708
 6066SOL     OW19096   4.398   1.982   6.096
 6066SOL    HW119097   4.468   2.047   6.064
 6066SOL    HW219098   4.435   1.930   6.173
 6067SOL     OW19099   5.283   2.495   6.923
 6067SOL    HW119100   5.243   2.548   6.998
 6067SOL    HW219101   5.287   2.398   6.950
 6068SOL     OW19102   5.557   1.634   5.442
 6068SOL    HW119103   5.544   1.623   5.540
 6068SOL    HW219104   5.470   1.624   5.395
 6069SOL     OW19105   6.421   4.930   4.182
 6069SOL    HW119106   6.461   4.966   4.098
 6069SOL    HW219107   6.457   4.981   4.260
 6070SOL     OW19108   5.007   2.987   0.114
 6070SOL    HW119109   5.044   3.076   0.088
 6070SOL    HW219110   5.036   2.965   0.207
 6071SOL     OW19111   5.312   6.812   5.671
 6071SOL    HW119112   5.363   6.742   5.622
 6071SOL    HW219113   5.371   6.856   5.739
 6072SOL     OW19114   6.511   1.388   1.078
 6072SOL    HW119115   6.564   1.420   1.157
 6072SOL    HW219116   6.550   1.425   0.994
 6073SOL     OW19117   6.503   1.279   1.331
 6073SOL    HW119118   6.524   1.271   1.234
 6073SOL    HW219119   6.545   1.203   1.380
 6074SOL     OW19120   0.772   0.288   5.146
 6074SOL    HW119121   0.806   0.343   5.222
 6074SOL    HW219122   0.743   0.348   5.071
 6075SOL     OW19123   4.602   3.948   6.485
 6075SOL    HW119124   4.585   3.882   6.413
 6075SOL    HW219125   4.533   3.938   6.556
 6076SOL     OW19126   2.822   0.351   4.356
 6076SOL    HW119127   2.828   0.252   4.368
 6076SOL    HW219128   2.738   0.386   4.397
 6077SOL     OW19129   5.033   4.846   3.134
 6077SOL    HW119130   5.066   4.895   3.053
 6077SOL    HW219131   5.101   4.850   3.206
 6078SOL     OW19132   1.693   4.381   3.977
 6078SOL    HW119133   1.596   4.393   3.958
 6078SOL    HW219134   1.724   4.294   3.938
 6079SOL     OW19135   2.775   1.563   0.778
 6079SOL    HW119136   2.813   1.564   0.685
 6079SOL    HW219137   2.717   1.482   0.789
 6080SOL     OW19138   6.203   2.738   3.204
 6080SOL    HW119139   6.181   2.689   3.288
 6080SOL    HW219140   6.258   2.819   3.226
 6081SOL     OW19141   0.920   3.858   2.879
 6081SOL    HW119142   0.902   3.766   2.845
 6081SOL    HW219143   0.862   3.878   2.957
 6082SOL     OW19144   3.418   1.869   4.590
 6082SOL    HW119145   3.454   1.877   4.497
 6082SOL    HW219146   3.358   1.947   4.609
 6083SOL     OW19147   1.775   6.675   0.514
 6083SOL    HW119148   1.828   6.643   0.436
 6083SOL    HW219149   1.816   6.759   0.550
 6084SOL     OW19150   0.272   5.209   5.607
 6084SOL    HW119151   0.216   5.289   5.588
 6084SOL    HW219152   0.252   5.137   5.540
 6085SOL     OW19153   4.873   5.035   1.785
 6085SOL    HW119154   4.892   4.958   1.847
 6085SOL    HW219155   4.824   5.106   1.834
 6086SOL     OW19156   3.378   1.547   2.562
 6086SOL    HW119157   3.451   1.509   2.620
 6086SOL    HW219158   3.354   1.480   2.492
 6087SOL     OW19159   3.398   0.421   0.768
 6087SOL    HW119160   3.382   0.362   0.848
 6087SOL    HW219161   3.492   0.454   0.769
 6088SOL     OW19162   0.258   6.949   4.967
 6088SOL    HW119163   0.233   0.023   4.947
 6088SOL    HW219164   0.247   6.932   5.065
 6089SOL     OW19165   6.391   3.682   0.592
 6089SOL    HW119166   6.300   3.654   0.623
 6089SOL    HW219167   6.383   3.764   0.535
 6090SOL     OW19168   0.041   5.698   4.152
 6090SOL    HW119169   0.038   5.689   4.052
 6090SOL    HW219170   0.032   5.607   4.194
 6091SOL     OW19171   6.625   2.099   1.414
 6091SOL    HW119172   6.555   2.168   1.428
 6091SOL    HW219173   6.597   2.013   1.458
 6092SOL     OW19174   0.924   3.574   1.055
 6092SOL    HW119175   0.981   3.519   1.116
 6092SOL    HW219176   0.850   3.517   1.019
 6093SOL     OW19177   1.198   4.121   0.747
 6093SOL    HW119178   1.121   4.149   0.804
 6093SOL    HW219179   1.241   4.202   0.708
 6094SOL     OW19180   0.712   1.383   0.301
 6094SOL    HW119181   0.739   1.378   0.398
 6094SOL    HW219182   0.789   1.352   0.244
 6095SOL     OW19183   6.529   4.198   5.286
 6095SOL    HW119184   6.546   4.225   5.191
 6095SOL    HW219185   6.481   4.272   5.333
 6096SOL     OW19186   4.654   2.299   3.048
 6096SOL    HW119187   4.600   2.221   3.080
 6096SOL    HW219188   4.649   2.303   2.948
 6097SOL     OW19189   3.303   2.122   2.368
 6097SOL    HW119190   3.207   2.143   2.351
 6097SOL    HW219191   3.353   2.121   2.281
 6098SOL     OW19192   1.090   0.277   6.626
 6098SOL    HW119193   1.030   0.348   6.590
 6098SOL    HW219194   1.153   0.318   6.693
 6099SOL     OW19195   5.775   4.453   5.169
 6099SOL    HW119196   5.856   4.396   5.181
 6099SOL    HW219197   5.700   4.397   5.134
 6100SOL     OW19198   0.216   2.774   6.841
 6100SOL    HW119199   0.224   2.870   6.868
 6100SOL    HW219200   0.145   2.729   6.895
 6101SOL     OW19201   6.446   6.928   3.632
 6101SOL    HW119202   6.404   6.855   3.577
 6101SOL    HW219203   6.537   6.948   3.597
 6102SOL     OW19204   2.527   6.877   4.958
 6102SOL    HW119205   2.579   6.819   5.020
 6102SOL    HW219206   2.459   6.822   4.910
 6103SOL     OW19207   5.654   1.605   5.196
 6103SOL    HW119208   5.635   1.611   5.294
 6103SOL    HW219209   5.623   1.689   5.151
 6104SOL     OW19210   1.485   2.948   1.178
 6104SOL    HW119211   1.512   2.859   1.217
 6104SOL    HW219212   1.557   2.980   1.117
 6105SOL     OW19213   3.139   4.999   4.972
 6105SOL    HW119214   3.124   5.085   4.923
 6105SOL    HW219215   3.051   4.955   4.990
 6106SOL     OW19216   2.441   5.065   4.235
 6106SOL    HW119217   2.532   5.062   4.194
 6106SOL    HW219218   2.398   5.152   4.214
 6107SOL     OW19219   1.985   4.883   5.226
 6107SOL    HW119220   2.005   4.842   5.316
 6107SOL    HW219221   2.053   4.853   5.160
 6108SOL     OW19222   5.252   1.634   4.697
 6108SOL    HW119223   5.333   1.688   4.720
 6108SOL    HW219224   5.277   1.564   4.630
 6109SOL     OW19225   6.928   3.709   1.734
 6109SOL    HW119226   6.941   3.767   1.814
 6109SOL    HW219227   6.834   3.675   1.732
 6110SOL     OW19228   3.176   2.123   3.256
 6110SOL    HW119229   3.107   2.164   3.197
 6110SOL    HW219230   3.255   2.094   3.202
 6111SOL     OW19231   0.598   4.528   3.654
 6111SOL    HW119232   0.552   4.442   3.675
 6111SOL    HW219233   0.690   4.527   3.692
 6112SOL     OW19234   1.320   2.517   0.780
 6112SOL    HW119235   1.366   2.481   0.698
 6112SOL    HW219236   1.373   2.592   0.818
 6113SOL     OW19237   1.723   5.213   4.873
 6113SOL    HW119238   1.674   5.300   4.863
 6113SOL    HW219239   1.734   5.171   4.783
 6114SOL     OW19240   4.782   4.443   0.822
 6114SOL    HW119241   4.740   4.438   0.731
 6114SOL    HW219242   4.822   4.355   0.846
 6115SOL     OW19243   6.369   4.691   1.665
 6115SOL    HW119244   6.443   4.699   1.732
 6115SOL    HW219245   6.405   4.652   1.580
 6116SOL     OW19246   3.258   2.472   1.058
 6116SOL    HW119247   3.304   2.433   1.138
 6116SOL    HW219248   3.171   2.511   1.086
 6117SOL     OW19249   5.557   6.736   4.179
 6117SOL    HW119250   5.560   6.818   4.122
 6117SOL    HW219251   5.479   6.742   4.241
 6118SOL     OW19252   6.769   0.130   3.149
 6118SOL    HW119253   6.748   0.044   3.196
 6118SOL    HW219254   6.695   0.195   3.162
 6119SOL     OW19255   5.289   5.948   4.134
 6119SOL    HW119256   5.205   5.938   4.187
 6119SOL    HW219257   5.368   5.936   4.194
 6120SOL     OW19258   2.222   1.637   2.993
 6120SOL    HW119259   2.137   1.611   3.038
 6120SOL    HW219260   2.261   1.717   3.038
 6121SOL     OW19261   6.908   1.649   4.874
 6121SOL    HW119262   6.818   1.611   4.856
 6121SOL    HW219263   6.919   1.666   4.972
 6122SOL     OW19264   3.674   6.184   4.443
 6122SOL    HW119265   3.623   6.241   4.507
 6122SOL    HW219266   3.765   6.223   4.429
 6123SOL     OW19267   5.672   1.189   2.736
 6123SOL    HW119268   5.703   1.280   2.766
 6123SOL    HW219269   5.600   1.157   2.798
 6124SOL     OW19270   2.895   0.347   4.810
 6124SOL    HW119271   2.914   0.253   4.838
 6124SOL    HW219272   2.934   0.363   4.719
 6125SOL     OW19273   0.863   4.474   2.085
 6125SOL    HW119274   0.825   4.512   2.169
 6125SOL    HW219275   0.799   4.408   2.046
 6126SOL     OW19276   3.753   6.317   2.792
 6126SOL    HW119277   3.658   6.321   2.761
 6126SOL    HW219278   3.813   6.354   2.721
 6127SOL     OW19279   1.751   5.184   1.886
 6127SOL    HW119280   1.789   5.263   1.838
 6127SOL    HW219281   1.768   5.101   1.833
 6128SOL     OW19282   5.162   3.585   1.312
 6128SOL    HW119283   5.106   3.654   1.358
 6128SOL    HW219284   5.102   3.520   1.265
 6129SOL     OW19285   6.409   3.907   3.250
 6129SOL    HW119286   6.468   3.905   3.169
 6129SOL    HW219287   6.466   3.903   3.332
 6130SOL     OW19288   5.229   3.842   2.699
 6130SOL    HW119289   5.238   3.890   2.787
 6130SOL    HW219290   5.239   3.907   2.624
 6131SOL     OW19291   6.301   1.220   5.109
 6131SOL    HW119292   6.356   1.302   5.125
 6131SOL    HW219293   6.248   1.199   5.190
 6132SOL     OW19294   6.631   2.407   0.623
 6132SOL    HW119295   6.723   2.369   0.618
 6132SOL    HW219296   6.576   2.373   0.547
 6133SOL     OW19297   1.288   4.452   0.311
 6133SOL    HW119298   1.225   4.475   0.237
 6133SOL    HW219299   1.357   4.524   0.319
 6134SOL     OW19300   4.534   4.239   6.838
 6134SOL    HW119301   4.620   4.278   6.806
 6134SOL    HW219302   4.547   4.142   6.861
 6135SOL     OW19303   5.964   0.081   2.934
 6135SOL    HW119304   6.053   0.123   2.949
 6135SOL    HW219305   5.892   0.147   2.955
 6136SOL     OW19306   1.327   1.548   2.184
 6136SOL    HW119307   1.242   1.534   2.133
 6136SOL    HW219308   1.307   1.551   2.282
 6137SOL     OW19309   3.146   0.322   6.578
 6137SOL    HW119310   3.120   0.226   6.583
 6137SOL    HW219311   3.148   0.361   6.671
 6138SOL     OW19312   5.507   0.294   3.063
 6138SOL    HW119313   5.422   0.300   3.114
 6138SOL    HW219314   5.495   0.335   2.972
 6139SOL     OW19315   2.928   6.218   3.597
 6139SOL    HW119316   2.879   6.167   3.669
 6139SOL    HW219317   2.969   6.300   3.637
 6140SOL     OW19318   1.907   5.496   1.099
 6140SOL    HW119319   1.858   5.483   1.185
 6140SOL    HW219320   1.972   5.421   1.085
 6141SOL     OW19321   0.059   5.762   5.430
 6141SOL    HW119322   0.029   5.857   5.437
 6141SOL    HW219323   0.043   5.715   5.516
 6142SOL     OW19324   0.436   4.179   3.368
 6142SOL    HW119325   0.458   4.246   3.297
 6142SOL    HW219326   0.447   4.087   3.331
 6143SOL     OW19327   6.677   4.570   6.041
 6143SOL    HW119328   6.626   4.512   6.105
 6143SOL    HW219329   6.715   4.648   6.090
 6144SOL     OW19330   0.221   5.107   4.209
 6144SOL    HW119331   0.220   5.061   4.298
 6144SOL    HW219332   0.315   5.126   4.182
 6145SOL     OW19333   5.485   5.309   3.227
 6145SOL    HW119334   5.555   5.344   3.290
 6145SOL    HW219335   5.495   5.211   3.216
 6146SOL     OW19336   5.717   2.429   3.795
 6146SOL    HW119337   5.791   2.483   3.755
 6146SOL    HW219338   5.636   2.434   3.737
 6147SOL     OW19339   1.058   3.948   3.139
 6147SOL    HW119340   1.123   3.879   3.108
 6147SOL    HW219341   1.024   4.000   3.061
 6148SOL     OW19342   6.414   6.040   2.791
 6148SOL    HW119343   6.378   6.132   2.776
 6148SOL    HW219344   6.493   6.044   2.853
 6149SOL     OW19345   1.329   5.596   5.020
 6149SOL    HW119346   1.388   5.623   5.096
 6149SOL    HW219347   1.234   5.593   5.051
 6150SOL     OW19348   4.309   6.580   5.745
 6150SOL    HW119349   4.266   6.490   5.740
 6150SOL    HW219350   4.396   6.573   5.795
 6151SOL     OW19351   4.587   0.215   5.816
 6151SOL    HW119352   4.637   0.130   5.802
 6151SOL    HW219353   4.645   0.293   5.793
 6152SOL     OW19354   6.598   4.506   5.030
 6152SOL    HW119355   6.604   4.486   5.128
 6152SOL    HW219356   6.503   4.493   4.999
 6153SOL     OW19357   4.085   4.874   6.206
 6153SOL    HW119358   4.178   4.902   6.228
 6153SOL    HW219359   4.065   4.894   6.110
 6154SOL     OW19360   5.430   3.340   3.458
 6154SOL    HW119361   5.406   3.420   3.514
 6154SOL    HW219362   5.353   3.317   3.399
 6155SOL     OW19363   2.492   4.675   4.612
 6155SOL    HW119364   2.570   4.671   4.674
 6155SOL    HW219365   2.458   4.583   4.596
 6156SOL     OW19366   5.745   0.486   4.677
 6156SOL    HW119367   5.664   0.544   4.665
 6156SOL    HW219368   5.719   0.390   4.665
 6157SOL     OW19369   0.993   1.551   4.021
 6157SOL    HW119370   0.934   1.616   4.071
 6157SOL    HW219371   0.960   1.543   3.927
 6158SOL     OW19372   5.434   6.801   6.859
 6158SOL    HW119373   5.513   6.838   6.811
 6158SOL    HW219374   5.460   6.777   6.952
 6159SOL     OW19375   4.883   3.426   6.674
 6159SOL    HW119376   4.981   3.410   6.669
 6159SOL    HW219377   4.844   3.373   6.750
 6160SOL     OW19378   6.445   4.542   0.270
 6160SOL    HW119379   6.497   4.461   0.295
 6160SOL    HW219380   6.507   4.620   0.261
 6161SOL     OW19381   6.162   6.958   6.385
 6161SOL    HW119382   6.127   6.870   6.418
 6161SOL    HW219383   6.226   6.941   6.310
 6162SOL     OW19384   5.169   4.919   3.940
 6162SOL    HW119385   5.264   4.934   3.966
 6162SOL    HW219386   5.136   4.996   3.886
 6163SOL     OW19387   6.963   4.252   2.672
 6163SOL    HW119388   6.913   4.228   2.755
 6163SOL    HW219389   6.999   4.169   2.629
 6164SOL     OW19390   4.253   3.072   0.999
 6164SOL    HW119391   4.193   2.992   0.997
 6164SOL    HW219392   4.342   3.047   0.961
 6165SOL     OW19393   4.068   0.338   1.193
 6165SOL    HW119394   4.008   0.400   1.245
 6165SOL    HW219395   4.160   0.376   1.189
 6166SOL     OW19396   3.817   1.251   0.789
 6166SOL    HW119397   3.796   1.154   0.778
 6166SOL    HW219398   3.810   1.276   0.886
 6167SOL     OW19399   0.137   5.370   3.682
 6167SOL    HW119400   0.118   5.278   3.718
 6167SOL    HW219401   0.088   5.382   3.596
 6168SOL     OW19402   0.156   3.186   1.012
 6168SOL    HW119403   0.203   3.111   0.965
 6168SOL    HW219404   0.137   3.259   0.947
 6169SOL     OW19405   2.068   4.199   1.412
 6169SOL    HW119406   2.160   4.167   1.434
 6169SOL    HW219407   2.072   4.296   1.386
 6170SOL     OW19408   6.428   1.809   3.345
 6170SOL    HW119409   6.333   1.830   3.322
 6170SOL    HW219410   6.435   1.786   3.442
 6171SOL     OW19411   6.230   1.475   6.006
 6171SOL    HW119412   6.192   1.567   5.996
 6171SOL    HW219413   6.267   1.464   6.098
 6172SOL     OW19414   0.585   4.790   3.961
 6172SOL    HW119415   0.531   4.796   3.877
 6172SOL    HW219416   0.672   4.744   3.940
 6173SOL     OW19417   5.555   6.068   3.003
 6173SOL    HW119418   5.601   6.121   2.932
 6173SOL    HW219419   5.623   6.022   3.060
 6174SOL     OW19420   6.621   2.347   3.350
 6174SOL    HW119421   6.568   2.270   3.314
 6174SOL    HW219422   6.596   2.364   3.445
 6175SOL     OW19423   3.825   1.454   0.109
 6175SOL    HW119424   3.918   1.424   0.089
 6175SOL    HW219425   3.779   1.480   0.024
 6176SOL     OW19426   2.629   4.541   6.407
 6176SOL    HW119427   2.535   4.546   6.440
 6176SOL    HW219428   2.687   4.601   6.463
 6177SOL     OW19429   5.813   5.458   1.681
 6177SOL    HW119430   5.804   5.555   1.703
 6177SOL    HW219431   5.728   5.425   1.640
 6178SOL     OW19432   4.014   4.770   2.044
 6178SOL    HW119433   3.930   4.762   2.098
 6178SOL    HW219434   4.012   4.705   1.969
 6179SOL     OW19435   5.360   5.274   4.718
 6179SOL    HW119436   5.297   5.197   4.728
 6179SOL    HW219437   5.379   5.289   4.621
 6180SOL     OW19438   1.929   4.056   6.762
 6180SOL    HW119439   1.890   4.096   6.845
 6180SOL    HW219440   1.860   3.998   6.717
 6181SOL     OW19441   6.354   5.992   0.003
 6181SOL    HW119442   6.304   5.959   6.944
 6181SOL    HW219443   6.358   6.092   0.001
 6182SOL     OW19444   2.901   2.334   6.719
 6182SOL    HW119445   2.860   2.305   6.632
 6182SOL    HW219446   2.997   2.358   6.705
 6183SOL     OW19447   0.073   0.750   0.495
 6183SOL    HW119448   0.019   0.792   0.567
 6183SOL    HW219449   0.166   0.785   0.499
 6184SOL     OW19450   3.260   6.798   5.557
 6184SOL    HW119451   3.175   6.747   5.567
 6184SOL    HW219452   3.273   6.858   5.637
 6185SOL     OW19453   3.620   2.861   4.789
 6185SOL    HW119454   3.539   2.894   4.741
 6185SOL    HW219455   3.600   2.772   4.831
 6186SOL     OW19456   1.250   2.109   2.446
 6186SOL    HW119457   1.195   2.038   2.489
 6186SOL    HW219458   1.324   2.138   2.507
 6187SOL     OW19459   3.164   1.891   5.935
 6187SOL    HW119460   3.184   1.805   5.981
 6187SOL    HW219461   3.245   1.949   5.936
 6188SOL     OW19462   1.715   1.593   5.479
 6188SOL    HW119463   1.664   1.544   5.550
 6188SOL    HW219464   1.677   1.685   5.469
 6189SOL     OW19465   6.484   5.149   0.384
 6189SOL    HW119466   6.451   5.074   0.326
 6189SOL    HW219467   6.481   5.234   0.332
 6190SOL     OW19468   0.905   2.759   3.575
 6190SOL    HW119469   0.829   2.823   3.565
 6190SOL    HW219470   0.991   2.809   3.576
 6191SOL     OW19471   2.568   4.328   0.418
 6191SOL    HW119472   2.665   4.353   0.425
 6191SOL    HW219473   2.514   4.385   0.480
 6192SOL     OW19474   3.203   1.599   1.447
 6192SOL    HW119475   3.173   1.535   1.518
 6192SOL    HW219476   3.129   1.611   1.380
 6193SOL     OW19477   4.078   5.882   6.738
 6193SOL    HW119478   4.122   5.952   6.682
 6193SOL    HW219479   4.104   5.791   6.704
 6194SOL     OW19480   5.335   0.310   6.076
 6194SOL    HW119481   5.343   0.317   5.977
 6194SOL    HW219482   5.239   0.299   6.102
 6195SOL     OW19483   4.442   5.667   5.555
 6195SOL    HW119484   4.476   5.573   5.552
 6195SOL    HW219485   4.519   5.731   5.556
 6196SOL     OW19486   6.296   3.567   3.241
 6196SOL    HW119487   6.223   3.507   3.209
 6196SOL    HW219488   6.350   3.599   3.163
 6197SOL     OW19489   0.898   5.488   0.804
 6197SOL    HW119490   0.974   5.539   0.843
 6197SOL    HW219491   0.817   5.547   0.797
 6198SOL     OW19492   6.249   1.348   6.509
 6198SOL    HW119493   6.244   1.435   6.558
 6198SOL    HW219494   6.158   1.322   6.478
 6199SOL     OW19495   2.586   0.134   6.255
 6199SOL    HW119496   2.645   0.150   6.175
 6199SOL    HW219497   2.641   0.144   6.338
 6200SOL     OW19498   1.643   0.304   0.689
 6200SOL    HW119499   1.632   0.403   0.699
 6200SOL    HW219500   1.562   0.266   0.644
 6201SOL     OW19501   0.344   5.037   3.426
 6201SOL    HW119502   0.430   5.073   3.464
 6201SOL    HW219503   0.332   4.943   3.455
 6202SOL     OW19504   5.613   0.835   1.815
 6202SOL    HW119505   5.547   0.815   1.742
 6202SOL    HW219506   5.640   0.931   1.810
 6203SOL     OW19507   6.425   1.180   2.243
 6203SOL    HW119508   6.491   1.114   2.207
 6203SOL    HW219509   6.383   1.143   2.326
 6204SOL     OW19510   0.900   5.430   4.890
 6204SOL    HW119511   0.873   5.410   4.796
 6204SOL    HW219512   0.968   5.362   4.920
 6205SOL     OW19513   6.278   4.415   3.039
 6205SOL    HW119514   6.293   4.343   2.971
 6205SOL    HW219515   6.366   4.442   3.078
 6206SOL     OW19516   5.122   1.936   3.326
 6206SOL    HW119517   5.023   1.948   3.337
 6206SOL    HW219518   5.155   1.868   3.391
 6207SOL     OW19519   1.901   5.805   3.627
 6207SOL    HW119520   1.906   5.816   3.726
 6207SOL    HW219521   1.909   5.895   3.583
 6208SOL     OW19522   3.726   4.542   6.500
 6208SOL    HW119523   3.641   4.548   6.552
 6208SOL    HW219524   3.780   4.466   6.535
 6209SOL     OW19525   3.600   1.352   2.046
 6209SOL    HW119526   3.587   1.388   1.953
 6209SOL    HW219527   3.573   1.422   2.112
 6210SOL     OW19528   5.570   1.440   3.998
 6210SOL    HW119529   5.566   1.490   4.084
 6210SOL    HW219530   5.664   1.407   3.984
 6211SOL     OW19531   5.410   2.922   5.268
 6211SOL    HW119532   5.311   2.909   5.264
 6211SOL    HW219533   5.432   2.980   5.347
 6212SOL     OW19534   5.000   4.343   5.035
 6212SOL    HW119535   4.925   4.376   5.094
 6212SOL    HW219536   4.974   4.255   4.996
 6213SOL     OW19537   5.403   5.979   0.476
 6213SOL    HW119538   5.431   5.949   0.567
 6213SOL    HW219539   5.314   6.024   0.481
 6214SOL     OW19540   6.603   6.967   6.271
 6214SOL    HW119541   6.619   6.874   6.303
 6214SOL    HW219542   6.540   7.013   6.334
 6215SOL     OW19543   5.774   1.815   4.870
 6215SOL    HW119544   5.729   1.838   4.784
 6215SOL    HW219545   5.788   1.716   4.876
 6216SOL     OW19546   5.205   2.130   5.594
 6216SOL    HW119547   5.217   2.214   5.647
 6216SOL    HW219548   5.147   2.066   5.645
 6217SOL     OW19549   6.763   4.170   2.385
 6217SOL    HW119550   6.840   4.110   2.408
 6217SOL    HW219551   6.738   4.156   2.289
 6218SOL     OW19552   4.556   6.572   0.898
 6218SOL    HW119553   4.459   6.593   0.917
 6218SOL    HW219554   4.563   6.524   0.811
 6219SOL     OW19555   2.124   0.528   6.865
 6219SOL    HW119556   2.157   0.580   6.944
 6219SOL    HW219557   2.196   0.525   6.796
 6220SOL     OW19558   3.345   7.015   1.909
 6220SOL    HW119559   3.381   6.985   1.820
 6220SOL    HW219560   3.328   6.935   1.966
 6221SOL     OW19561   4.524   5.756   5.237
 6221SOL    HW119562   4.505   5.746   5.334
 6221SOL    HW219563   4.449   5.805   5.193
 6222SOL     OW19564   6.150   1.672   2.357
 6222SOL    HW119565   6.078   1.679   2.426
 6222SOL    HW219566   6.170   1.575   2.339
 6223SOL     OW19567   6.680   5.261   4.421
 6223SOL    HW119568   6.679   5.347   4.370
 6223SOL    HW219569   6.752   5.264   4.490
 6224SOL     OW19570   4.313   6.642   0.324
 6224SOL    HW119571   4.377   6.632   0.401
 6224SOL    HW219572   4.266   6.730   0.332
 6225SOL     OW19573   5.002   6.206   6.473
 6225SOL    HW119574   5.048   6.288   6.508
 6225SOL    HW219575   4.988   6.216   6.374
 6226SOL     OW19576   0.608   1.043   4.012
 6226SOL    HW119577   0.675   1.006   4.077
 6226SOL    HW219578   0.656   1.071   3.929
 6227SOL     OW19579   2.203   4.866   6.258
 6227SOL    HW119580   2.284   4.883   6.201
 6227SOL    HW219581   2.154   4.787   6.222
 6228SOL     OW19582   0.876   3.162   4.167
 6228SOL    HW119583   0.788   3.204   4.191
 6228SOL    HW219584   0.908   3.200   4.081
 6229SOL     OW19585   0.113   4.166   4.367
 6229SOL    HW119586   0.163   4.249   4.343
 6229SOL    HW219587   0.057   4.183   4.448
 6230SOL     OW19588   0.981   0.897   1.482
 6230SOL    HW119589   0.890   0.930   1.506
 6230SOL    HW219590   1.050   0.960   1.519
 6231SOL     OW19591   2.196   5.550   6.057
 6231SOL    HW119592   2.152   5.598   5.981
 6231SOL    HW219593   2.295   5.565   6.054
 6232SOL     OW19594   4.373   0.250   6.815
 6232SOL    HW119595   4.276   0.260   6.790
 6232SOL    HW219596   4.402   0.330   6.867
 6233SOL     OW19597   0.106   3.967   1.622
 6233SOL    HW119598   0.191   3.922   1.596
 6233SOL    HW219599   0.074   3.930   1.709
 6234SOL     OW19600   4.763   5.973   3.670
 6234SOL    HW119601   4.717   5.964   3.758
 6234SOL    HW219602   4.857   5.939   3.677
 6235SOL     OW19603   0.131   0.403   1.808
 6235SOL    HW119604   0.056   0.423   1.745
 6235SOL    HW219605   0.193   0.481   1.812
 6236SOL     OW19606   6.830   6.480   1.640
 6236SOL    HW119607   6.922   6.453   1.668
 6236SOL    HW219608   6.800   6.424   1.563
 6237SOL     OW19609   4.211   1.258   2.375
 6237SOL    HW119610   4.163   1.195   2.435
 6237SOL    HW219611   4.160   1.268   2.290
 6238SOL     OW19612   2.632   0.389   3.837
 6238SOL    HW119613   2.601   0.477   3.802
 6238SOL    HW219614   2.564   0.352   3.900
 6239SOL     OW19615   4.020   1.401   3.957
 6239SOL    HW119616   3.986   1.309   3.974
 6239SOL    HW219617   3.996   1.460   4.034
 6240SOL     OW19618   3.964   3.103   4.255
 6240SOL    HW119619   4.014   3.141   4.178
 6240SOL    HW219620   3.878   3.153   4.268
 6241SOL     OW19621   3.378   0.185   3.671
 6241SOL    HW119622   3.396   0.092   3.637
 6241SOL    HW219623   3.283   0.209   3.653
 6242SOL     OW19624   3.570   2.135   4.356
 6242SOL    HW119625   3.478   2.174   4.348
 6242SOL    HW219626   3.572   2.071   4.433
 6243SOL     OW19627   4.035   0.994   0.120
 6243SOL    HW119628   4.046   1.068   0.186
 6243SOL    HW219629   4.102   1.004   0.047
 6244SOL     OW19630   4.595   2.222   2.040
 6244SOL    HW119631   4.572   2.186   1.950
 6244SOL    HW219632   4.613   2.320   2.034
 6245SOL     OW19633   6.551   4.955   1.455
 6245SOL    HW119634   6.460   4.966   1.495
 6245SOL    HW219635   6.574   4.858   1.451
 6246SOL     OW19636   0.806   6.040   5.254
 6246SOL    HW119637   0.787   6.033   5.352
 6246SOL    HW219638   0.905   6.040   5.239
 6247SOL     OW19639   5.747   5.314   2.804
 6247SOL    HW119640   5.780   5.271   2.888
 6247SOL    HW219641   5.655   5.351   2.820
 6248SOL     OW19642   4.245   2.738   5.613
 6248SOL    HW119643   4.234   2.723   5.515
 6248SOL    HW219644   4.341   2.759   5.633
 6249SOL     OW19645   5.377   2.563   3.150
 6249SOL    HW119646   5.429   2.523   3.074
 6249SOL    HW219647   5.436   2.569   3.231
 6250SOL     OW19648   5.329   0.322   5.823
 6250SOL    HW119649   5.256   0.254   5.831
 6250SOL    HW219650   5.337   0.351   5.728
 6251SOL     OW19651   2.999   0.766   4.302
 6251SOL    HW119652   3.058   0.685   4.302
 6251SOL    HW219653   3.039   0.835   4.241
 6252SOL     OW19654   3.319   5.380   0.376
 6252SOL    HW119655   3.339   5.337   0.464
 6252SOL    HW219656   3.398   5.368   0.314
 6253SOL     OW19657   5.113   6.468   3.419
 6253SOL    HW119658   5.199   6.499   3.378
 6253SOL    HW219659   5.062   6.547   3.453
 6254SOL     OW19660   0.371   0.272   1.692
 6254SOL    HW119661   0.275   0.289   1.712
 6254SOL    HW219662   0.426   0.348   1.725
 6255SOL     OW19663   1.935   0.888   0.682
 6255SOL    HW119664   2.001   0.815   0.702
 6255SOL    HW219665   1.981   0.960   0.628
 6256SOL     OW19666   6.189   5.065   1.941
 6256SOL    HW119667   6.127   5.073   2.019
 6256SOL    HW219668   6.183   4.973   1.903
 6257SOL     OW19669   3.639   3.655   0.867
 6257SOL    HW119670   3.546   3.632   0.896
 6257SOL    HW219671   3.642   3.660   0.767
 6258SOL     OW19672   3.791   5.121   5.105
 6258SOL    HW119673   3.868   5.061   5.086
 6258SOL    HW219674   3.707   5.067   5.110
 6259SOL     OW19675   4.292   1.456   4.678
 6259SOL    HW119676   4.324   1.492   4.765
 6259SOL    HW219677   4.262   1.531   4.619
 6260SOL     OW19678   3.383   2.071   0.450
 6260SOL    HW119679   3.344   2.162   0.461
 6260SOL    HW219680   3.392   2.050   0.353
 6261SOL     OW19681   4.024   6.960   0.788
 6261SOL    HW119682   3.975   6.934   0.872
 6261SOL    HW219683   4.049   6.877   0.737
 6262SOL     OW19684   5.979   1.430   2.940
 6262SOL    HW119685   6.033   1.362   2.990
 6262SOL    HW219686   5.882   1.415   2.959
 6263SOL     OW19687   6.460   6.284   6.460
 6263SOL    HW119688   6.512   6.300   6.545
 6263SOL    HW219689   6.397   6.208   6.474
 6264SOL     OW19690   0.894   6.448   1.113
 6264SOL    HW119691   0.904   6.482   1.207
 6264SOL    HW219692   0.930   6.355   1.106
 6265SOL     OW19693   3.870   6.705   6.708
 6265SOL    HW119694   3.802   6.761   6.659
 6265SOL    HW219695   3.904   6.633   6.648
 6266SOL     OW19696   3.076   5.231   2.972
 6266SOL    HW119697   3.162   5.278   2.953
 6266SOL    HW219698   3.066   5.219   3.071
 6267SOL     OW19699   0.450   6.310   4.405
 6267SOL    HW119700   0.358   6.272   4.405
 6267SOL    HW219701   0.517   6.235   4.409
 6268SOL     OW19702   3.676   1.658   1.320
 6268SOL    HW119703   3.582   1.690   1.303
 6268SOL    HW219704   3.722   1.644   1.232
 6269SOL     OW19705   6.656   6.022   0.399
 6269SOL    HW119706   6.599   6.002   0.320
 6269SOL    HW219707   6.738   6.070   0.370
 6270SOL     OW19708   1.149   6.589   1.112
 6270SOL    HW119709   1.084   6.626   1.046
 6270SOL    HW219710   1.190   6.663   1.164
 6271SOL     OW19711   6.757   2.994   5.587
 6271SOL    HW119712   6.759   3.093   5.573
 6271SOL    HW219713   6.721   2.949   5.505
 6272SOL     OW19714   0.714   1.092   0.218
 6272SOL    HW119715   0.806   1.096   0.181
 6272SOL    HW219716   0.689   1.180   0.257
 6273SOL     OW19717   0.636   6.597   3.269
 6273SOL    HW119718   0.544   6.569   3.240
 6273SOL    HW219719   0.692   6.515   3.285
 6274SOL     OW19720   2.827   5.726   4.049
 6274SOL    HW119721   2.924   5.727   4.028
 6274SOL    HW219722   2.812   5.768   4.139
 6275SOL     OW19723   2.463   5.973   0.752
 6275SOL    HW119724   2.542   5.928   0.710
 6275SOL    HW219725   2.405   6.012   0.681
 6276SOL     OW19726   1.866   5.023   2.845
 6276SOL    HW119727   1.810   5.079   2.784
 6276SOL    HW219728   1.835   4.929   2.842
 6277SOL     OW19729   5.286   2.937   1.255
 6277SOL    HW119730   5.214   2.947   1.324
 6277SOL    HW219731   5.272   3.004   1.182
 6278SOL     OW19732   3.341   2.574   0.465
 6278SOL    HW119733   3.383   2.614   0.547
 6278SOL    HW219734   3.311   2.648   0.404
 6279SOL     OW19735   1.636   6.315   2.536
 6279SOL    HW119736   1.536   6.312   2.539
 6279SOL    HW219737   1.670   6.255   2.464
 6280SOL     OW19738   5.065   1.273   0.089
 6280SOL    HW119739   4.973   1.234   0.091
 6280SOL    HW219740   5.125   1.214   0.035
 6281SOL     OW19741   5.337   4.157   5.924
 6281SOL    HW119742   5.238   4.141   5.927
 6281SOL    HW219743   5.360   4.204   5.839
 6282SOL     OW19744   0.623   3.821   5.630
 6282SOL    HW119745   0.639   3.896   5.695
 6282SOL    HW219746   0.632   3.733   5.677
 6283SOL     OW19747   2.591   0.708   4.418
 6283SOL    HW119748   2.598   0.632   4.354
 6283SOL    HW219749   2.564   0.672   4.508
 6284SOL     OW19750   1.676   3.617   6.195
 6284SOL    HW119751   1.701   3.614   6.292
 6284SOL    HW219752   1.754   3.586   6.140
 6285SOL     OW19753   1.152   4.271   3.223
 6285SOL    HW119754   1.054   4.261   3.203
 6285SOL    HW219755   1.204   4.211   3.162
 6286SOL     OW19756   0.963   2.643   6.902
 6286SOL    HW119757   0.983   2.599   6.989
 6286SOL    HW219758   1.004   2.591   6.827
 6287SOL     OW19759   4.431   5.158   4.558
 6287SOL    HW119760   4.392   5.156   4.466
 6287SOL    HW219761   4.365   5.123   4.623
 6288SOL     OW19762   3.044   3.649   5.600
 6288SOL    HW119763   3.135   3.612   5.584
 6288SOL    HW219764   2.984   3.622   5.525
 6289SOL     OW19765   2.561   4.594   5.097
 6289SOL    HW119766   2.655   4.608   5.066
 6289SOL    HW219767   2.515   4.531   5.035
 6290SOL     OW19768   6.713   6.869   3.213
 6290SOL    HW119769   6.650   6.846   3.139
 6290SOL    HW219770   6.664   6.867   3.301
 6291SOL     OW19771   3.195   3.616   2.009
 6291SOL    HW119772   3.096   3.623   2.021
 6291SOL    HW219773   3.241   3.653   2.089
 6292SOL     OW19774   1.209   4.349   4.653
 6292SOL    HW119775   1.256   4.273   4.606
 6292SOL    HW219776   1.268   4.430   4.651
 6293SOL     OW19777   3.129   1.135   7.019
 6293SOL    HW119778   3.038   1.118   6.982
 6293SOL    HW219779   3.136   1.093   0.089
 6294SOL     OW19780   2.042   0.619   2.111
 6294SOL    HW119781   2.007   0.571   2.030
 6294SOL    HW219782   2.006   0.713   2.112
 6295SOL     OW19783   4.675   3.012   5.997
 6295SOL    HW119784   4.733   2.968   5.929
 6295SOL    HW219785   4.593   2.956   6.011
 6296SOL     OW19786   0.238   2.595   0.143
 6296SOL    HW119787   0.151   2.561   0.107
 6296SOL    HW219788   0.314   2.544   0.102
 6297SOL     OW19789   6.260   0.923   4.216
 6297SOL    HW119790   6.267   0.887   4.309
 6297SOL    HW219791   6.314   1.008   4.209
 6298SOL     OW19792   6.780   6.884   6.778
 6298SOL    HW119793   6.708   6.940   6.821
 6298SOL    HW219794   6.761   6.875   6.680
 6299SOL     OW19795   3.510   1.700   4.014
 6299SOL    HW119796   3.564   1.640   3.956
 6299SOL    HW219797   3.571   1.764   4.062
 6300SOL     OW19798   2.560   1.861   1.190
 6300SOL    HW119799   2.646   1.905   1.162
 6300SOL    HW219800   2.547   1.874   1.289
 6301SOL     OW19801   4.259   6.477   0.706
 6301SOL    HW119802   4.166   6.450   0.731
 6301SOL    HW219803   4.289   6.425   0.627
 6302SOL     OW19804   1.193   3.321   0.268
 6302SOL    HW119805   1.284   3.325   0.311
 6302SOL    HW219806   1.185   3.237   0.215
 6303SOL     OW19807   6.921   5.350   4.569
 6303SOL    HW119808   6.989   5.412   4.608
 6303SOL    HW219809   6.848   5.334   4.635
 6304SOL     OW19810   2.391   1.906   3.566
 6304SOL    HW119811   2.387   1.847   3.485
 6304SOL    HW219812   2.420   1.998   3.538
 6305SOL     OW19813   0.506   5.510   5.427
 6305SOL    HW119814   0.418   5.553   5.446
 6305SOL    HW219815   0.576   5.581   5.416
 6306SOL     OW19816   0.635   4.447   3.982
 6306SOL    HW119817   0.720   4.474   3.939
 6306SOL    HW219818   0.559   4.463   3.920
 6307SOL     OW19819   3.071   3.046   3.292
 6307SOL    HW119820   3.095   2.965   3.345
 6307SOL    HW219821   3.082   3.027   3.194
 6308SOL     OW19822   1.185   2.035   0.739
 6308SOL    HW119823   1.198   2.124   0.783
 6308SOL    HW219824   1.179   2.047   0.640
 6309SOL     OW19825   1.791   5.483   5.300
 6309SOL    HW119826   1.760   5.388   5.307
 6309SOL    HW219827   1.887   5.489   5.324
 6310SOL     OW19828   0.335   6.774   3.585
 6310SOL    HW119829   0.285   6.698   3.544
 6310SOL    HW219830   0.413   6.798   3.527
 6311SOL     OW19831   6.520   1.296   6.458
 6311SOL    HW119832   6.425   1.329   6.455
 6311SOL    HW219833   6.539   1.258   6.549
 6312SOL     OW19834   3.505   5.731   1.093
 6312SOL    HW119835   3.519   5.657   1.028
 6312SOL    HW219836   3.440   5.702   1.164
 6313SOL     OW19837   5.490   5.040   3.154
 6313SOL    HW119838   5.478   4.992   3.241
 6313SOL    HW219839   5.410   5.025   3.096
 6314SOL     OW19840   1.822   6.923   3.739
 6314SOL    HW119841   1.817   6.942   3.837
 6314SOL    HW219842   1.913   6.889   3.716
 6315SOL     OW19843   2.397   2.465   3.223
 6315SOL    HW119844   2.384   2.563   3.206
 6315SOL    HW219845   2.317   2.428   3.271
 6316SOL     OW19846   4.281   0.611   4.976
 6316SOL    HW119847   4.208   0.640   4.914
 6316SOL    HW219848   4.240   0.588   5.065
 6317SOL     OW19849   4.390   4.510   2.905
 6317SOL    HW119850   4.331   4.439   2.866
 6317SOL    HW219851   4.428   4.478   2.991
 6318SOL     OW19852   6.067   6.944   6.892
 6318SOL    HW119853   6.060   0.000   6.956
 6318SOL    HW219854   5.995   6.877   6.912
 6319SOL     OW19855   5.221   2.453   4.679
 6319SOL    HW119856   5.123   2.430   4.678
 6319SOL    HW219857   5.233   2.546   4.711
 6320SOL     OW19858   6.351   1.618   6.274
 6320SOL    HW119859   6.302   1.623   6.361
 6320SOL    HW219860   6.386   1.709   6.249
 6321SOL     OW19861   0.543   3.727   0.365
 6321SOL    HW119862   0.447   3.747   0.342
 6321SOL    HW219863   0.552   3.718   0.464
 6322SOL     OW19864   1.712   1.798   2.549
 6322SOL    HW119865   1.718   1.877   2.488
 6322SOL    HW219866   1.644   1.735   2.515
 6323SOL     OW19867   2.254   5.904   1.455
 6323SOL    HW119868   2.169   5.899   1.506
 6323SOL    HW219869   2.330   5.876   1.514
 6324SOL     OW19870   4.962   3.505   0.982
 6324SOL    HW119871   4.937   3.502   0.885
 6324SOL    HW219872   4.959   3.413   1.020
 6325SOL     OW19873   1.217   3.586   3.873
 6325SOL    HW119874   1.253   3.499   3.839
 6325SOL    HW219875   1.229   3.656   3.803
 6326SOL     OW19876   4.688   5.527   5.230
 6326SOL    HW119877   4.766   5.530   5.293
 6326SOL    HW219878   4.655   5.620   5.213
 6327SOL     OW19879   0.539   0.799   2.605
 6327SOL    HW119880   0.621   0.854   2.623
 6327SOL    HW219881   0.473   0.854   2.554
 6328SOL     OW19882   3.901   3.814   5.299
 6328SOL    HW119883   3.831   3.750   5.269
 6328SOL    HW219884   3.867   3.908   5.288
 6329SOL     OW19885   0.395   3.060   4.808
 6329SOL    HW119886   0.409   3.095   4.901
 6329SOL    HW219887   0.471   2.999   4.784
 6330SOL     OW19888   4.144   1.943   3.732
 6330SOL    HW119889   4.175   1.971   3.823
 6330SOL    HW219890   4.223   1.932   3.672
 6331SOL     OW19891   1.841   3.579   3.957
 6331SOL    HW119892   1.922   3.607   3.905
 6331SOL    HW219893   1.855   3.598   4.054
 6332SOL     OW19894   4.422   1.428   0.036
 6332SOL    HW119895   4.386   1.497   6.994
 6332SOL    HW219896   4.367   1.426   0.120
 6333SOL     OW19897   6.002   0.946   0.428
 6333SOL    HW119898   6.060   0.868   0.406
 6333SOL    HW219899   5.914   0.935   0.382
 6334SOL     OW19900   2.555   1.149   2.182
 6334SOL    HW119901   2.607   1.149   2.096
 6334SOL    HW219902   2.506   1.063   2.192
 6335SOL     OW19903   6.679   3.286   5.587
 6335SOL    HW119904   6.604   3.260   5.647
 6335SOL    HW219905   6.669   3.382   5.561
 6336SOL     OW19906   0.791   4.526   5.503
 6336SOL    HW119907   0.785   4.530   5.404
 6336SOL    HW219908   0.849   4.601   5.536
 6337SOL     OW19909   5.938   6.926   5.219
 6337SOL    HW119910   6.028   6.881   5.218
 6337SOL    HW219911   5.909   6.944   5.125
 6338SOL     OW19912   0.498   0.574   2.402
 6338SOL    HW119913   0.475   0.539   2.493
 6338SOL    HW219914   0.571   0.642   2.410
 6339SOL     OW19915   0.415   3.945   3.219
 6339SOL    HW119916   0.420   3.885   3.299
 6339SOL    HW219917   0.476   3.910   3.148
 6340SOL     OW19918   2.742   5.315   6.135
 6340SOL    HW119919   2.774   5.288   6.226
 6340SOL    HW219920   2.657   5.366   6.143
 6341SOL     OW19921   0.291   4.489   2.809
 6341SOL    HW119922   0.243   4.577   2.811
 6341SOL    HW219923   0.260   4.433   2.885
 6342SOL     OW19924   2.037   0.553   1.467
 6342SOL    HW119925   2.088   0.576   1.550
 6342SOL    HW219926   1.989   0.466   1.480
 6343SOL     OW19927   1.607   4.987   6.914
 6343SOL    HW119928   1.528   5.020   6.862
 6343SOL    HW219929   1.642   5.061   6.972
 6344SOL     OW19930   0.987   1.213   4.114
 6344SOL    HW119931   1.073   1.244   4.074
 6344SOL    HW219932   0.959   1.275   4.186
 6345SOL     OW19933   6.811   3.295   3.286
 6345SOL    HW119934   6.796   3.237   3.367
 6345SOL    HW219935   6.904   3.331   3.287
 6346SOL     OW19936   0.402   4.843   4.257
 6346SOL    HW119937   0.309   4.816   4.231
 6346SOL    HW219938   0.440   4.903   4.187
 6347SOL     OW19939   2.100   2.516   3.392
 6347SOL    HW119940   2.134   2.605   3.422
 6347SOL    HW219941   2.173   2.448   3.398
 6348SOL     OW19942   0.854   3.041   6.621
 6348SOL    HW119943   0.909   3.124   6.630
 6348SOL    HW219944   0.759   3.066   6.603
 6349SOL     OW19945   6.088   1.461   0.737
 6349SOL    HW119946   6.132   1.450   0.826
 6349SOL    HW219947   6.049   1.374   0.708
 6350SOL     OW19948   0.764   6.122   1.436
 6350SOL    HW119949   0.766   6.222   1.425
 6350SOL    HW219950   0.836   6.082   1.379
 6351SOL     OW19951   6.062   2.551   1.823
 6351SOL    HW119952   5.988   2.485   1.836
 6351SOL    HW219953   6.149   2.507   1.842
 6352SOL     OW19954   4.645   0.666   4.455
 6352SOL    HW119955   4.598   0.593   4.505
 6352SOL    HW219956   4.683   0.732   4.520
 6353SOL     OW19957   3.619   6.352   5.882
 6353SOL    HW119958   3.644   6.338   5.978
 6353SOL    HW219959   3.621   6.450   5.861
 6354SOL     OW19960   5.388   5.006   2.605
 6354SOL    HW119961   5.397   5.102   2.630
 6354SOL    HW219962   5.405   4.948   2.685
 6355SOL     OW19963   5.461   5.805   0.234
 6355SOL    HW119964   5.452   5.900   0.265
 6355SOL    HW219965   5.400   5.789   0.157
 6356SOL     OW19966   0.422   6.517   6.478
 6356SOL    HW119967   0.501   6.524   6.417
 6356SOL    HW219968   0.356   6.453   6.439
 6357SOL     OW19969   4.993   1.914   2.908
 6357SOL    HW119970   5.012   1.990   2.846
 6357SOL    HW219971   4.982   1.830   2.854
 6358SOL     OW19972   1.068   1.727   4.373
 6358SOL    HW119973   0.990   1.728   4.311
 6358SOL    HW219974   1.132   1.654   4.346
 6359SOL     OW19975   6.057   4.563   0.892
 6359SOL    HW119976   5.958   4.564   0.908
 6359SOL    HW219977   6.075   4.544   0.795
 6360SOL     OW19978   2.093   2.803   1.239
 6360SOL    HW119979   1.999   2.834   1.227
 6360SOL    HW219980   2.148   2.832   1.161
 6361SOL     OW19981   0.098   1.954   2.496
 6361SOL    HW119982   0.167   1.910   2.553
 6361SOL    HW219983   0.128   1.956   2.401
 6362SOL     OW19984   1.916   5.199   0.554
 6362SOL    HW119985   1.920   5.219   0.652
 6362SOL    HW219986   2.002   5.159   0.524
 6363SOL     OW19987   0.927   2.216   2.214
 6363SOL    HW119988   1.025   2.210   2.197
 6363SOL    HW219989   0.877   2.171   2.140
 6364SOL     OW19990   2.718   1.032   4.112
 6364SOL    HW119991   2.707   0.939   4.145
 6364SOL    HW219992   2.660   1.093   4.166
 6365SOL     OW19993   6.810   6.750   2.625
 6365SOL    HW119994   6.816   6.686   2.549
 6365SOL    HW219995   6.766   6.705   2.703
 6366SOL     OW19996   6.027   1.604   5.084
 6366SOL    HW119997   5.956   1.658   5.129
 6366SOL    HW219998   6.101   1.585   5.150
 6367SOL     OW19999   1.266   2.396   4.679
 6367SOL    HW120000   1.331   2.342   4.732
 6367SOL    HW220001   1.211   2.336   4.620
 6368SOL     OW20002   4.950   3.475   4.900
 6368SOL    HW120003   4.887   3.521   4.963
 6368SOL    HW220004   5.037   3.524   4.898
 6369SOL     OW20005   3.096   4.216   0.960
 6369SOL    HW120006   3.138   4.165   1.035
 6369SOL    HW220007   3.059   4.302   0.995
 6370SOL     OW20008   5.936   4.250   4.656
 6370SOL    HW120009   5.957   4.221   4.749
 6370SOL    HW220010   6.010   4.306   4.620
 6371SOL     OW20011   6.094   4.181   0.794
 6371SOL    HW120012   6.191   4.185   0.815
 6371SOL    HW220013   6.076   4.227   0.706
 6372SOL     OW20014   6.585   0.974   0.892
 6372SOL    HW120015   6.630   1.010   0.974
 6372SOL    HW220016   6.526   1.045   0.852
 6373SOL     OW20017   5.376   2.099   1.246
 6373SOL    HW120018   5.473   2.124   1.239
 6373SOL    HW220019   5.332   2.109   1.157
 6374SOL     OW20020   4.216   3.242   6.628
 6374SOL    HW120021   4.245   3.162   6.680
 6374SOL    HW220022   4.208   3.218   6.531
 6375SOL     OW20023   5.119   0.891   2.286
 6375SOL    HW120024   5.189   0.862   2.221
 6375SOL    HW220025   5.161   0.942   2.360
 6376SOL     OW20026   2.774   6.535   0.509
 6376SOL    HW120027   2.758   6.466   0.580
 6376SOL    HW220028   2.686   6.573   0.479
 6377SOL     OW20029   0.354   0.831   0.499
 6377SOL    HW120030   0.441   0.782   0.491
 6377SOL    HW220031   0.365   0.908   0.561
 6378SOL     OW20032   6.125   4.076   2.983
 6378SOL    HW120033   6.047   4.094   2.924
 6378SOL    HW220034   6.123   3.981   3.013
 6379SOL     OW20035   3.118   5.303   6.843
 6379SOL    HW120036   3.080   5.320   6.934
 6379SOL    HW220037   3.139   5.390   6.799
 6380SOL     OW20038   2.066   3.175   4.705
 6380SOL    HW120039   2.113   3.150   4.620
 6380SOL    HW220040   2.043   3.092   4.756
 6381SOL     OW20041   3.248   3.783   0.910
 6381SOL    HW120042   3.313   3.709   0.924
 6381SOL    HW220043   3.296   3.863   0.873
 6382SOL     OW20044   2.088   1.144   1.388
 6382SOL    HW120045   2.157   1.191   1.444
 6382SOL    HW220046   2.012   1.206   1.370
 6383SOL     OW20047   2.822   1.902   2.550
 6383SOL    HW120048   2.849   1.855   2.466
 6383SOL    HW220049   2.904   1.933   2.598
 6384SOL     OW20050   6.572   1.950   2.111
 6384SOL    HW120051   6.650   1.888   2.123
 6384SOL    HW220052   6.602   2.031   2.060
 6385SOL     OW20053   6.878   3.732   1.280
 6385SOL    HW120054   6.967   3.713   1.239
 6385SOL    HW220055   6.880   3.821   1.325
 6386SOL     OW20056   3.065   3.826   0.428
 6386SOL    HW120057   3.056   3.778   0.341
 6386SOL    HW220058   3.083   3.760   0.501
 6387SOL     OW20059   6.399   0.823   6.241
 6387SOL    HW120060   6.379   0.904   6.185
 6387SOL    HW220061   6.320   0.761   6.239
 6388SOL     OW20062   6.016   4.889   1.574
 6388SOL    HW120063   6.048   4.855   1.486
 6388SOL    HW220064   5.956   4.968   1.560
 6389SOL     OW20065   6.456   6.410   0.707
 6389SOL    HW120066   6.436   6.425   0.804
 6389SOL    HW220067   6.480   6.496   0.663
 6390SOL     OW20068   4.881   6.504   6.474
 6390SOL    HW120069   4.832   6.519   6.388
 6390SOL    HW220070   4.978   6.492   6.455
 6391SOL     OW20071   1.594   2.276   5.015
 6391SOL    HW120072   1.606   2.355   5.076
 6391SOL    HW220073   1.678   2.222   5.015
 6392SOL     OW20074   5.096   6.799   3.912
 6392SOL    HW120075   4.999   6.822   3.902
 6392SOL    HW220076   5.134   6.774   3.823
 6393SOL     OW20077   2.248   5.374   0.744
 6393SOL    HW120078   2.211   5.404   0.656
 6393SOL    HW220079   2.340   5.412   0.755
 6394SOL     OW20080   1.578   5.474   2.032
 6394SOL    HW120081   1.626   5.495   2.117
 6394SOL    HW220082   1.631   5.508   1.954
 6395SOL     OW20083   1.421   4.179   4.814
 6395SOL    HW120084   1.453   4.273   4.811
 6395SOL    HW220085   1.332   4.175   4.859
 6396SOL     OW20086   1.372   3.201   5.220
 6396SOL    HW120087   1.384   3.188   5.318
 6396SOL    HW220088   1.461   3.201   5.175
 6397SOL     OW20089   7.014   2.811   5.129
 6397SOL    HW120090   0.084   2.779   5.101
 6397SOL    HW220091   0.004   2.881   5.200
 6398SOL     OW20092   1.291   0.421   2.513
 6398SOL    HW120093   1.278   0.459   2.421
 6398SOL    HW220094   1.218   0.453   2.573
 6399SOL     OW20095   2.519   0.208   0.080
 6399SOL    HW120096   2.611   0.200   0.118
 6399SOL    HW220097   2.472   0.285   0.122
 6400SOL     OW20098   0.884   6.513   2.820
 6400SOL    HW120099   0.963   6.518   2.882
 6400SOL    HW220100   0.899   6.438   2.755
 6401SOL     OW20101   4.075   5.011   1.877
 6401SOL    HW120102   4.156   5.067   1.892
 6401SOL    HW220103   4.077   4.931   1.937
 6402SOL     OW20104   4.036   3.913   6.310
 6402SOL    HW120105   4.114   3.928   6.248
 6402SOL    HW220106   3.956   3.961   6.274
 6403SOL     OW20107   4.206   5.568   5.661
 6403SOL    HW120108   4.287   5.619   5.633
 6403SOL    HW220109   4.234   5.488   5.714
 6404SOL     OW20110   4.513   5.877   6.447
 6404SOL    HW120111   4.524   5.779   6.463
 6404SOL    HW220112   4.599   5.915   6.412
 6405SOL     OW20113   4.444   0.954   2.300
 6405SOL    HW120114   4.431   0.996   2.211
 6405SOL    HW220115   4.377   0.881   2.313
 6406SOL     OW20116   0.535   3.495   2.027
 6406SOL    HW120117   0.437   3.494   2.048
 6406SOL    HW220118   0.587   3.506   2.112
 6407SOL     OW20119   0.453   6.842   1.710
 6407SOL    HW120120   0.469   6.791   1.794
 6407SOL    HW220121   0.377   6.906   1.724
 6408SOL     OW20122   0.008   0.914   1.673
 6408SOL    HW120123   0.062   0.945   1.752
 6408SOL    HW220124   7.015   0.991   1.611
 6409SOL     OW20125   5.661   4.202   3.685
 6409SOL    HW120126   5.607   4.135   3.634
 6409SOL    HW220127   5.718   4.155   3.752
 6410SOL     OW20128   1.627   0.617   0.222
 6410SOL    HW120129   1.626   0.537   0.161
 6410SOL    HW220130   1.576   0.595   0.305
 6411SOL     OW20131   1.241   2.419   3.794
 6411SOL    HW120132   1.181   2.473   3.735
 6411SOL    HW220133   1.268   2.474   3.873
 6412SOL     OW20134   4.020   0.145   0.095
 6412SOL    HW120135   4.012   0.067   0.156
 6412SOL    HW220136   4.115   0.178   0.094
 6413SOL     OW20137   4.233   6.002   3.204
 6413SOL    HW120138   4.163   6.068   3.176
 6413SOL    HW220139   4.235   5.997   3.304
 6414SOL     OW20140   3.104   0.331   0.227
 6414SOL    HW120141   3.100   0.278   0.142
 6414SOL    HW220142   3.198   0.360   0.244
 6415SOL     OW20143   0.664   1.960   3.765
 6415SOL    HW120144   0.635   1.921   3.853
 6415SOL    HW220145   0.596   1.937   3.695
 6416SOL     OW20146   2.905   4.835   0.297
 6416SOL    HW120147   2.847   4.781   0.358
 6416SOL    HW220148   2.889   4.808   0.202
 6417SOL     OW20149   4.292   3.484   6.265
 6417SOL    HW120150   4.302   3.575   6.225
 6417SOL    HW220151   4.261   3.492   6.360
 6418SOL     OW20152   4.724   5.229   0.338
 6418SOL    HW120153   4.737   5.145   0.284
 6418SOL    HW220154   4.626   5.250   0.343
 6419SOL     OW20155   1.136   6.575   6.381
 6419SOL    HW120156   1.229   6.554   6.352
 6419SOL    HW220157   1.134   6.593   6.479
 6420SOL     OW20158   2.854   4.865   3.283
 6420SOL    HW120159   2.819   4.879   3.376
 6420SOL    HW220160   2.826   4.941   3.225
 6421SOL     OW20161   5.527   6.915   1.479
 6421SOL    HW120162   5.600   6.961   1.428
 6421SOL    HW220163   5.560   6.890   1.570
 6422SOL     OW20164   0.811   2.083   4.401
 6422SOL    HW120165   0.799   2.053   4.306
 6422SOL    HW220166   0.792   2.181   4.408
 6423SOL     OW20167   1.164   4.036   4.569
 6423SOL    HW120168   1.082   4.019   4.624
 6423SOL    HW220169   1.229   3.962   4.583
 6424SOL     OW20170   6.846   3.749   5.731
 6424SOL    HW120171   6.878   3.692   5.655
 6424SOL    HW220172   6.804   3.690   5.800
 6425SOL     OW20173   0.973   6.693   5.416
 6425SOL    HW120174   1.023   6.759   5.359
 6425SOL    HW220175   1.029   6.668   5.495
 6426SOL     OW20176   3.806   5.838   3.996
 6426SOL    HW120177   3.902   5.865   4.007
 6426SOL    HW220178   3.764   5.826   4.086
 6427SOL     OW20179   3.836   3.194   3.544
 6427SOL    HW120180   3.820   3.134   3.623
 6427SOL    HW220181   3.895   3.147   3.478
 6428SOL     OW20182   6.117   2.235   0.400
 6428SOL    HW120183   6.104   2.150   0.450
 6428SOL    HW220184   6.029   2.276   0.378
 6429SOL     OW20185   2.679   1.746   4.496
 6429SOL    HW120186   2.652   1.651   4.482
 6429SOL    HW220187   2.692   1.791   4.408
 6430SOL     OW20188   5.748   1.487   4.473
 6430SOL    HW120189   5.808   1.531   4.406
 6430SOL    HW220190   5.803   1.440   4.541
 6431SOL     OW20191   2.999   4.949   2.891
 6431SOL    HW120192   3.009   5.035   2.941
 6431SOL    HW220193   2.961   4.967   2.800
 6432SOL     OW20194   4.566   3.084   6.439
 6432SOL    HW120195   4.533   3.018   6.506
 6432SOL    HW220196   4.540   3.055   6.348
 6433SOL     OW20197   3.473   5.231   6.070
 6433SOL    HW120198   3.541   5.160   6.053
 6433SOL    HW220199   3.504   5.317   6.031
 6434SOL     OW20200   6.701   4.768   6.220
 6434SOL    HW120201   6.675   4.864   6.208
 6434SOL    HW220202   6.651   4.730   6.297
 6435SOL     OW20203   4.555   1.608   1.246
 6435SOL    HW120204   4.607   1.684   1.285
 6435SOL    HW220205   4.604   1.571   1.167
 6436SOL     OW20206   0.695   2.949   3.559
 6436SOL    HW120207   0.679   3.016   3.486
 6436SOL    HW220208   0.699   2.997   3.647
 6437SOL     OW20209   1.629   2.865   5.594
 6437SOL    HW120210   1.696   2.851   5.666
 6437SOL    HW220211   1.616   2.780   5.543
 6438SOL     OW20212   0.561   4.927   0.998
 6438SOL    HW120213   0.568   4.876   0.912
 6438SOL    HW220214   0.589   5.022   0.982
 6439SOL     OW20215   4.837   6.362   2.974
 6439SOL    HW120216   4.821   6.420   3.054
 6439SOL    HW220217   4.810   6.268   2.995
 6440SOL     OW20218   2.559   1.689   5.163
 6440SOL    HW120219   2.526   1.737   5.081
 6440SOL    HW220220   2.659   1.686   5.163
 6441SOL     OW20221   1.047   1.935   1.576
 6441SOL    HW120222   1.023   1.972   1.667
 6441SOL    HW220223   1.018   2.000   1.506
 6442SOL     OW20224   2.421   1.789   4.005
 6442SOL    HW120225   2.467   1.735   4.075
 6442SOL    HW220226   2.330   1.751   3.988
 6443SOL     OW20227   2.581   2.519   6.019
 6443SOL    HW120228   2.628   2.580   5.955
 6443SOL    HW220229   2.495   2.489   5.978
 6444SOL     OW20230   0.158   3.747   5.053
 6444SOL    HW120231   0.207   3.724   4.969
 6444SOL    HW220232   0.060   3.756   5.033
 6445SOL     OW20233   3.671   2.993   3.363
 6445SOL    HW120234   3.644   3.080   3.322
 6445SOL    HW220235   3.620   2.919   3.319
 6446SOL     OW20236   1.433   0.654   1.603
 6446SOL    HW120237   1.365   0.706   1.553
 6446SOL    HW220238   1.404   0.643   1.698
 6447SOL     OW20239   6.120   3.882   0.913
 6447SOL    HW120240   6.049   3.947   0.941
 6447SOL    HW220241   6.209   3.913   0.945
 6448SOL     OW20242   4.057   4.191   1.499
 6448SOL    HW120243   4.080   4.203   1.402
 6448SOL    HW220244   3.972   4.140   1.507
 6449SOL     OW20245   4.701   5.252   0.722
 6449SOL    HW120246   4.679   5.329   0.661
 6449SOL    HW220247   4.701   5.167   0.669
 6450SOL     OW20248   4.721   3.605   0.283
 6450SOL    HW120249   4.626   3.578   0.269
 6450SOL    HW220250   4.762   3.626   0.194
 6451SOL     OW20251   4.189   2.793   1.568
 6451SOL    HW120252   4.273   2.794   1.622
 6451SOL    HW220253   4.118   2.845   1.615
 6452SOL     OW20254   4.498   2.238   4.350
 6452SOL    HW120255   4.566   2.189   4.404
 6452SOL    HW220256   4.475   2.185   4.268
 6453SOL     OW20257   2.598   0.531   2.844
 6453SOL    HW120258   2.597   0.523   2.744
 6453SOL    HW220259   2.692   0.533   2.876
 6454SOL     OW20260   5.171   3.823   4.936
 6454SOL    HW120261   5.206   3.908   4.898
 6454SOL    HW220262   5.074   3.832   4.956
 6455SOL     OW20263   0.630   2.503   4.358
 6455SOL    HW120264   0.627   2.466   4.266
 6455SOL    HW220265   0.606   2.600   4.357
 6456SOL     OW20266   5.960   2.187   3.422
 6456SOL    HW120267   5.936   2.195   3.518
 6456SOL    HW220268   6.039   2.125   3.413
 6457SOL     OW20269   1.547   5.807   3.345
 6457SOL    HW120270   1.547   5.718   3.301
 6457SOL    HW220271   1.487   5.805   3.425
 6458SOL     OW20272   1.523   0.278   4.618
 6458SOL    HW120273   1.542   0.332   4.699
 6458SOL    HW220274   1.578   0.311   4.541
 6459SOL     OW20275   0.471   3.382   2.799
 6459SOL    HW120276   0.523   3.459   2.761
 6459SOL    HW220277   0.374   3.394   2.779
 6460SOL     OW20278   1.692   5.054   5.817
 6460SOL    HW120279   1.721   5.150   5.810
 6460SOL    HW220280   1.762   4.995   5.776
 6461SOL     OW20281   0.271   0.025   1.613
 6461SOL    HW120282   0.300   0.029   1.518
 6461SOL    HW220283   0.287   0.114   1.657
 6462SOL     OW20284   2.356   3.884   5.702
 6462SOL    HW120285   2.354   3.784   5.704
 6462SOL    HW220286   2.284   3.917   5.640
 6463SOL     OW20287   4.594   3.256   1.193
 6463SOL    HW120288   4.629   3.164   1.204
 6463SOL    HW220289   4.494   3.255   1.202
 6464SOL     OW20290   1.365   3.586   3.312
 6464SOL    HW120291   1.395   3.504   3.263
 6464SOL    HW220292   1.266   3.585   3.322
 6465SOL     OW20293   2.581   1.640   2.980
 6465SOL    HW120294   2.504   1.600   2.930
 6465SOL    HW220295   2.643   1.685   2.915
 6466SOL     OW20296   6.652   5.211   6.782
 6466SOL    HW120297   6.718   5.261   6.838
 6466SOL    HW220298   6.560   5.227   6.817
 6467SOL     OW20299   2.328   3.586   5.708
 6467SOL    HW120300   2.319   3.579   5.807
 6467SOL    HW220301   2.425   3.582   5.683
 6468SOL     OW20302   1.126   0.441   1.213
 6468SOL    HW120303   1.202   0.398   1.262
 6468SOL    HW220304   1.156   0.528   1.173
 6469SOL     OW20305   2.387   0.801   1.122
 6469SOL    HW120306   2.302   0.850   1.140
 6469SOL    HW220307   2.465   0.861   1.141
 6470SOL     OW20308   6.069   1.606   6.786
 6470SOL    HW120309   6.071   1.692   6.837
 6470SOL    HW220310   6.004   1.614   6.711
 6471SOL     OW20311   0.771   6.237   5.975
 6471SOL    HW120312   0.859   6.235   5.926
 6471SOL    HW220313   0.743   6.332   5.988
 6472SOL     OW20314   0.542   6.844   1.273
 6472SOL    HW120315   0.577   6.866   1.365
 6472SOL    HW220316   0.459   6.789   1.281
 6473SOL     OW20317   2.828   1.927   3.504
 6473SOL    HW120318   2.751   1.986   3.476
 6473SOL    HW220319   2.898   1.928   3.433
 6474SOL     OW20320   3.601   7.002   4.329
 6474SOL    HW120321   3.574   6.905   4.324
 6474SOL    HW220322   3.590   0.015   4.422
 6475SOL     OW20323   5.206   5.655   3.296
 6475SOL    HW120324   5.257   5.600   3.229
 6475SOL    HW220325   5.211   5.751   3.270
 6476SOL     OW20326   5.172   4.362   5.611
 6476SOL    HW120327   5.077   4.389   5.622
 6476SOL    HW220328   5.187   4.328   5.518
 6477SOL     OW20329   0.524   6.488   0.769
 6477SOL    HW120330   0.495   6.462   0.677
 6477SOL    HW220331   0.458   6.552   0.808
 6478SOL     OW20332   1.543   6.271   0.716
 6478SOL    HW120333   1.590   6.319   0.790
 6478SOL    HW220334   1.592   6.186   0.696
 6479SOL     OW20335   4.695   5.952   3.940
 6479SOL    HW120336   4.718   5.913   4.029
 6479SOL    HW220337   4.597   5.941   3.924
 6480SOL     OW20338   3.212   1.547   5.242
 6480SOL    HW120339   3.207   1.493   5.158
 6480SOL    HW220340   3.162   1.633   5.229
 6481SOL     OW20341   4.368   3.165   1.746
 6481SOL    HW120342   4.421   3.150   1.830
 6481SOL    HW220343   4.408   3.114   1.671
 6482SOL     OW20344   5.279   3.207   5.247
 6482SOL    HW120345   5.328   3.202   5.160
 6482SOL    HW220346   5.289   3.299   5.285
 6483SOL     OW20347   1.685   5.574   5.940
 6483SOL    HW120348   1.651   5.658   5.982
 6483SOL    HW220349   1.746   5.596   5.864
 6484SOL     OW20350   4.044   1.746   3.056
 6484SOL    HW120351   4.097   1.661   3.062
 6484SOL    HW220352   4.057   1.799   3.139
 6485SOL     OW20353   2.262   4.809   4.539
 6485SOL    HW120354   2.345   4.758   4.562
 6485SOL    HW220355   2.283   4.906   4.536
 6486SOL     OW20356   0.036   4.332   2.218
 6486SOL    HW120357   0.125   4.370   2.192
 6486SOL    HW220358   0.047   4.239   2.251
 6487SOL     OW20359   5.741   5.504   4.070
 6487SOL    HW120360   5.775   5.450   4.147
 6487SOL    HW220361   5.682   5.578   4.103
 6488SOL     OW20362   4.011   5.073   4.036
 6488SOL    HW120363   4.034   5.074   4.133
 6488SOL    HW220364   4.079   5.019   3.986
 6489SOL     OW20365   6.600   3.285   5.036
 6489SOL    HW120366   6.563   3.341   4.962
 6489SOL    HW220367   6.614   3.191   5.004
 6490SOL     OW20368   1.925   3.207   0.213
 6490SOL    HW120369   1.936   3.114   0.247
 6490SOL    HW220370   1.881   3.264   0.283
 6491SOL     OW20371   1.875   0.331   1.752
 6491SOL    HW120372   1.906   0.241   1.782
 6491SOL    HW220373   1.877   0.335   1.652
 6492SOL     OW20374   4.121   3.574   3.758
 6492SOL    HW120375   4.077   3.489   3.787
 6492SOL    HW220376   4.098   3.648   3.821
 6493SOL     OW20377   1.158   4.735   4.312
 6493SOL    HW120378   1.102   4.761   4.233
 6493SOL    HW220379   1.100   4.694   4.382
 6494SOL     OW20380   6.651   1.110   1.501
 6494SOL    HW120381   6.672   1.014   1.485
 6494SOL    HW220382   6.734   1.158   1.529
 6495SOL     OW20383   6.435   6.529   2.482
 6495SOL    HW120384   6.380   6.459   2.436
 6495SOL    HW220385   6.523   6.490   2.509
 6496SOL     OW20386   2.750   2.226   1.546
 6496SOL    HW120387   2.847   2.208   1.529
 6496SOL    HW220388   2.695   2.150   1.510
 6497SOL     OW20389   0.329   2.324   1.003
 6497SOL    HW120390   0.359   2.347   0.910
 6497SOL    HW220391   0.324   2.408   1.058
 6498SOL     OW20392   2.380   4.572   4.275
 6498SOL    HW120393   2.405   4.483   4.237
 6498SOL    HW220394   2.395   4.571   4.374
 6499SOL     OW20395   5.718   2.294   2.517
 6499SOL    HW120396   5.636   2.345   2.541
 6499SOL    HW220397   5.784   2.299   2.593
 6500SOL     OW20398   1.712   4.033   2.456
 6500SOL    HW120399   1.655   3.956   2.484
 6500SOL    HW220400   1.808   4.007   2.463
 6501SOL     OW20401   6.821   1.341   2.592
 6501SOL    HW120402   6.847   1.350   2.496
 6501SOL    HW220403   6.775   1.424   2.623
 6502SOL     OW20404   1.012   3.007   2.114
 6502SOL    HW120405   1.031   3.081   2.178
 6502SOL    HW220406   1.097   2.978   2.069
 6503SOL     OW20407   0.338   2.623   5.430
 6503SOL    HW120408   0.424   2.617   5.481
 6503SOL    HW220409   0.357   2.620   5.332
 6504SOL     OW20410   3.855   6.952   6.369
 6504SOL    HW120411   3.828   6.936   6.464
 6504SOL    HW220412   3.773   6.965   6.312
 6505SOL     OW20413   0.270   6.575   0.155
 6505SOL    HW120414   0.248   6.481   0.179
 6505SOL    HW220415   0.369   6.585   0.145
 6506SOL     OW20416   0.361   3.853   1.589
 6506SOL    HW120417   0.348   3.780   1.657
 6506SOL    HW220418   0.432   3.826   1.524
 6507SOL     OW20419   4.587   5.614   0.871
 6507SOL    HW120420   4.504   5.576   0.830
 6507SOL    HW220421   4.644   5.539   0.905
 6508SOL     OW20422   0.060   0.617   4.409
 6508SOL    HW120423   7.009   0.678   4.374
 6508SOL    HW220424   0.132   0.609   4.341
 6509SOL     OW20425   2.433   1.821   0.561
 6509SOL    HW120426   2.529   1.836   0.581
 6509SOL    HW220427   2.399   1.894   0.501
 6510SOL     OW20428   3.274   4.965   4.654
 6510SOL    HW120429   3.320   4.997   4.736
 6510SOL    HW220430   3.334   4.978   4.575
 6511SOL     OW20431   3.337   2.735   6.745
 6511SOL    HW120432   3.337   2.654   6.686
 6511SOL    HW220433   3.287   2.809   6.700
 6512SOL     OW20434   5.127   0.981   1.267
 6512SOL    HW120435   5.127   0.947   1.173
 6512SOL    HW220436   5.041   0.954   1.312
 6513SOL     OW20437   3.263   4.939   2.534
 6513SOL    HW120438   3.184   4.885   2.566
 6513SOL    HW220439   3.265   4.939   2.435
 6514SOL     OW20440   4.795   5.545   5.671
 6514SOL    HW120441   4.704   5.525   5.706
 6514SOL    HW220442   4.850   5.461   5.673
 6515SOL     OW20443   0.821   4.843   2.230
 6515SOL    HW120444   0.851   4.856   2.136
 6515SOL    HW220445   0.738   4.897   2.247
 6516SOL     OW20446   5.835   1.301   3.694
 6516SOL    HW120447   5.888   1.253   3.624
 6516SOL    HW220448   5.743   1.262   3.699
 6517SOL     OW20449   6.886   4.282   0.289
 6517SOL    HW120450   6.832   4.326   0.360
 6517SOL    HW220451   6.840   4.199   0.258
 6518SOL     OW20452   1.079   1.738   2.084
 6518SOL    HW120453   1.057   1.725   2.180
 6518SOL    HW220454   1.028   1.816   2.048
 6519SOL     OW20455   1.324   1.505   3.256
 6519SOL    HW120456   1.343   1.602   3.240
 6519SOL    HW220457   1.268   1.496   3.339
 6520SOL     OW20458   5.716   6.218   6.386
 6520SOL    HW120459   5.686   6.125   6.403
 6520SOL    HW220460   5.767   6.252   6.465
 6521SOL     OW20461   1.587   4.523   4.500
 6521SOL    HW120462   1.535   4.550   4.420
 6521SOL    HW220463   1.672   4.576   4.504
 6522SOL     OW20464   2.185   3.079   5.232
 6522SOL    HW120465   2.104   3.020   5.242
 6522SOL    HW220466   2.258   3.028   5.186
 6523SOL     OW20467   5.336   6.565   0.738
 6523SOL    HW120468   5.406   6.632   0.713
 6523SOL    HW220469   5.276   6.549   0.659
 6524SOL     OW20470   3.309   2.546   1.463
 6524SOL    HW120471   3.248   2.625   1.455
 6524SOL    HW220472   3.347   2.542   1.555
 6525SOL     OW20473   2.054   4.377   4.117
 6525SOL    HW120474   2.078   4.316   4.192
 6525SOL    HW220475   1.960   4.410   4.129
 6526SOL     OW20476   6.316   6.183   0.346
 6526SOL    HW120477   6.398   6.240   0.356
 6526SOL    HW220478   6.257   6.219   0.274
 6527SOL     OW20479   5.279   2.208   1.003
 6527SOL    HW120480   5.241   2.290   0.961
 6527SOL    HW220481   5.260   2.129   0.945
 6528SOL     OW20482   4.664   6.481   0.407
 6528SOL    HW120483   4.706   6.550   0.348
 6528SOL    HW220484   4.565   6.492   0.406
 6529SOL     OW20485   4.368   0.049   1.801
 6529SOL    HW120486   4.395   0.006   1.715
 6529SOL    HW220487   4.270   0.034   1.816
 6530SOL     OW20488   0.348   2.369   4.141
 6530SOL    HW120489   0.264   2.411   4.107
 6530SOL    HW220490   0.424   2.432   4.131
 6531SOL     OW20491   3.754   3.426   3.597
 6531SOL    HW120492   3.775   3.330   3.577
 6531SOL    HW220493   3.694   3.430   3.677
 6532SOL     OW20494   1.172   5.624   0.182
 6532SOL    HW120495   1.241   5.587   0.244
 6532SOL    HW220496   1.102   5.554   0.164
 6533SOL     OW20497   4.939   5.214   1.347
 6533SOL    HW120498   5.032   5.195   1.378
 6533SOL    HW220499   4.875   5.202   1.424
 6534SOL     OW20500   6.538   3.004   4.033
 6534SOL    HW120501   6.526   2.991   4.132
 6534SOL    HW220502   6.469   2.950   3.984
 6535SOL     OW20503   5.343   3.400   5.850
 6535SOL    HW120504   5.269   3.462   5.875
 6535SOL    HW220505   5.313   3.342   5.774
 6536SOL     OW20506   0.374   4.913   5.748
 6536SOL    HW120507   0.356   4.991   5.689
 6536SOL    HW220508   0.471   4.910   5.771
 6537SOL     OW20509   6.640   5.483   4.306
 6537SOL    HW120510   6.569   5.485   4.236
 6537SOL    HW220511   6.644   5.572   4.352
 6538SOL     OW20512   1.630   3.220   3.509
 6538SOL    HW120513   1.677   3.300   3.472
 6538SOL    HW220514   1.646   3.141   3.449
 6539SOL     OW20515   5.175   0.044   5.899
 6539SOL    HW120516   5.254   7.009   5.922
 6539SOL    HW220517   5.117   7.016   5.833
 6540SOL     OW20518   0.985   2.406   4.840
 6540SOL    HW120519   0.959   2.317   4.804
 6540SOL    HW220520   0.940   2.478   4.786
 6541SOL     OW20521   4.011   1.735   5.580
 6541SOL    HW120522   3.944   1.746   5.653
 6541SOL    HW220523   4.008   1.641   5.545
 6542SOL     OW20524   1.642   4.311   2.059
 6542SOL    HW120525   1.732   4.351   2.045
 6542SOL    HW220526   1.635   4.226   2.007
 6543SOL     OW20527   4.004   1.492   4.219
 6543SOL    HW120528   4.078   1.554   4.190
 6543SOL    HW220529   4.044   1.410   4.259
 6544SOL     OW20530   0.957   0.290   1.048
 6544SOL    HW120531   0.916   0.228   1.115
 6544SOL    HW220532   1.038   0.332   1.087
 6545SOL     OW20533   5.738   5.690   0.856
 6545SOL    HW120534   5.809   5.620   0.867
 6545SOL    HW220535   5.648   5.647   0.850
 6546SOL     OW20536   4.677   5.281   5.103
 6546SOL    HW120537   4.692   5.379   5.113
 6546SOL    HW220538   4.700   5.252   5.010
 6547SOL     OW20539   1.357   6.174   5.184
 6547SOL    HW120540   1.414   6.217   5.254
 6547SOL    HW220541   1.409   6.103   5.137
 6548SOL     OW20542   1.429   2.296   5.732
 6548SOL    HW120543   1.456   2.202   5.754
 6548SOL    HW220544   1.344   2.318   5.779
 6549SOL     OW20545   3.834   1.278   2.638
 6549SOL    HW120546   3.792   1.188   2.623
 6549SOL    HW220547   3.817   1.336   2.558
 6550SOL     OW20548   6.077   0.189   1.966
 6550SOL    HW120549   6.072   0.240   1.880
 6550SOL    HW220550   6.173   0.173   1.989
 6551SOL     OW20551   2.631   5.051   1.376
 6551SOL    HW120552   2.715   5.020   1.330
 6551SOL    HW220553   2.556   4.991   1.350
 6552SOL     OW20554   2.090   3.856   6.944
 6552SOL    HW120555   2.026   3.893   7.011
 6552SOL    HW220556   2.120   3.928   6.882
 6553SOL     OW20557   0.063   1.747   3.275
 6553SOL    HW120558   7.000   1.695   3.256
 6553SOL    HW220559   0.042   1.823   3.336
 6554SOL     OW20560   1.469   1.708   3.845
 6554SOL    HW120561   1.442   1.675   3.754
 6554SOL    HW220562   1.390   1.701   3.907
 6555SOL     OW20563   1.417   3.702   2.302
 6555SOL    HW120564   1.356   3.674   2.229
 6555SOL    HW220565   1.487   3.764   2.266
 6556SOL     OW20566   4.928   3.392   3.370
 6556SOL    HW120567   4.950   3.490   3.371
 6556SOL    HW220568   4.929   3.359   3.276
 6557SOL     OW20569   2.029   6.751   2.829
 6557SOL    HW120570   1.940   6.786   2.799
 6557SOL    HW220571   2.094   6.827   2.836
 6558SOL     OW20572   5.344   5.694   1.032
 6558SOL    HW120573   5.294   5.779   1.017
 6558SOL    HW220574   5.309   5.623   0.971
 6559SOL     OW20575   0.179   1.711   6.268
 6559SOL    HW120576   0.159   1.699   6.170
 6559SOL    HW220577   0.213   1.625   6.306
 6560SOL     OW20578   6.937   4.752   6.065
 6560SOL    HW120579   6.851   4.759   6.115
 6560SOL    HW220580   6.919   4.729   5.970
 6561SOL     OW20581   2.783   5.472   0.877
 6561SOL    HW120582   2.860   5.497   0.819
 6561SOL    HW220583   2.812   5.403   0.943
 6562SOL     OW20584   4.740   2.341   1.785
 6562SOL    HW120585   4.655   2.334   1.734
 6562SOL    HW220586   4.739   2.423   1.842
 6563SOL     OW20587   5.922   5.978   5.007
 6563SOL    HW120588   5.956   5.922   5.083
 6563SOL    HW220589   5.831   5.946   4.981
 6564SOL     OW20590   5.292   3.450   2.386
 6564SOL    HW120591   5.305   3.398   2.302
 6564SOL    HW220592   5.196   3.446   2.413
 6565SOL     OW20593   4.960   6.005   2.119
 6565SOL    HW120594   4.999   5.970   2.204
 6565SOL    HW220595   4.906   5.933   2.075
 6566SOL     OW20596   5.088   5.521   3.737
 6566SOL    HW120597   5.166   5.458   3.745
 6566SOL    HW220598   5.068   5.537   3.641
 6567SOL     OW20599   3.025   0.828   2.948
 6567SOL    HW120600   2.972   0.904   2.984
 6567SOL    HW220601   3.101   0.863   2.892
 6568SOL     OW20602   5.206   1.553   1.150
 6568SOL    HW120603   5.257   1.468   1.161
 6568SOL    HW220604   5.137   1.541   1.079
 6569SOL     OW20605   1.672   4.496   3.394
 6569SOL    HW120606   1.648   4.429   3.324
 6569SOL    HW220607   1.625   4.473   3.480
 6570SOL     OW20608   4.703   6.931   2.748
 6570SOL    HW120609   4.742   6.850   2.704
 6570SOL    HW220610   4.606   6.916   2.767
 6571SOL     OW20611   3.025   6.397   2.788
 6571SOL    HW120612   3.082   6.423   2.866
 6571SOL    HW220613   3.017   6.474   2.725
 6572SOL     OW20614   1.297   6.003   3.898
 6572SOL    HW120615   1.280   5.917   3.849
 6572SOL    HW220616   1.395   6.017   3.909
 6573SOL     OW20617   0.635   2.146   3.156
 6573SOL    HW120618   0.547   2.158   3.202
 6573SOL    HW220619   0.699   2.216   3.188
 6574SOL     OW20620   0.420   5.314   1.771
 6574SOL    HW120621   0.429   5.403   1.816
 6574SOL    HW220622   0.503   5.294   1.719
 6575SOL     OW20623   0.156   1.402   3.439
 6575SOL    HW120624   0.163   1.349   3.524
 6575SOL    HW220625   0.092   1.357   3.377
 6576SOL     OW20626   4.072   6.819   2.074
 6576SOL    HW120627   4.039   6.831   2.168
 6576SOL    HW220628   4.019   6.747   2.029
 6577SOL     OW20629   3.516   1.041   4.936
 6577SOL    HW120630   3.534   1.139   4.925
 6577SOL    HW220631   3.592   1.000   4.986
 6578SOL     OW20632   1.350   5.753   6.707
 6578SOL    HW120633   1.348   5.671   6.765
 6578SOL    HW220634   1.304   5.828   6.754
 6579SOL     OW20635   1.783   1.448   3.470
 6579SOL    HW120636   1.735   1.535   3.473
 6579SOL    HW220637   1.881   1.464   3.483
 6580SOL     OW20638   3.230   2.928   6.922
 6580SOL    HW120639   3.146   2.946   6.870
 6580SOL    HW220640   3.285   2.861   6.873
 6581SOL     OW20641   0.561   2.681   2.149
 6581SOL    HW120642   0.500   2.637   2.215
 6581SOL    HW220643   0.583   2.617   2.076
 6582SOL     OW20644   4.120   0.446   3.429
 6582SOL    HW120645   4.131   0.488   3.339
 6582SOL    HW220646   4.149   0.350   3.425
 6583SOL     OW20647   2.694   4.222   1.244
 6583SOL    HW120648   2.672   4.222   1.147
 6583SOL    HW220649   2.673   4.133   1.283
 6584SOL     OW20650   4.196   3.239   6.345
 6584SOL    HW120651   4.110   3.245   6.394
 6584SOL    HW220652   4.215   3.325   6.298
 6585SOL     OW20653   5.545   0.447   1.554
 6585SOL    HW120654   5.517   0.460   1.649
 6585SOL    HW220655   5.577   0.353   1.541
 6586SOL     OW20656   6.736   1.494   0.300
 6586SOL    HW120657   6.690   1.534   0.379
 6586SOL    HW220658   6.674   1.495   0.221
 6587SOL     OW20659   2.999   4.833   5.511
 6587SOL    HW120660   3.051   4.918   5.518
 6587SOL    HW220661   3.002   4.800   5.417
 6588SOL     OW20662   1.051   1.490   0.302
 6588SOL    HW120663   1.007   1.572   0.264
 6588SOL    HW220664   1.094   1.512   0.389
 6589SOL     OW20665   6.055   6.965   1.067
 6589SOL    HW120666   6.105   6.967   0.980
 6589SOL    HW220667   6.072   0.030   1.117
 6590SOL     OW20668   1.372   5.886   4.694
 6590SOL    HW120669   1.422   5.971   4.708
 6590SOL    HW220670   1.318   5.864   4.775
 6591SOL     OW20671   6.243   3.386   3.561
 6591SOL    HW120672   6.195   3.329   3.495
 6591SOL    HW220673   6.338   3.355   3.570
 6592SOL     OW20674   0.128   0.871   4.165
 6592SOL    HW120675   0.174   0.953   4.131
 6592SOL    HW220676   0.063   0.838   4.096
 6593SOL     OW20677   1.228   0.364   3.137
 6593SOL    HW120678   1.193   0.450   3.175
 6593SOL    HW220679   1.200   0.288   3.195
 6594SOL     OW20680   5.807   0.203   6.547
 6594SOL    HW120681   5.832   0.137   6.475
 6594SOL    HW220682   5.806   0.156   6.635
 6595SOL     OW20683   1.365   1.514   5.021
 6595SOL    HW120684   1.460   1.543   5.014
 6595SOL    HW220685   1.360   1.421   5.058
 6596SOL     OW20686   5.463   0.776   3.142
 6596SOL    HW120687   5.389   0.832   3.181
 6596SOL    HW220688   5.486   0.702   3.205
 6597SOL     OW20689   0.926   5.114   1.108
 6597SOL    HW120690   0.831   5.113   1.141
 6597SOL    HW220691   0.964   5.206   1.118
 6598SOL     OW20692   1.036   5.505   1.686
 6598SOL    HW120693   1.055   5.523   1.783
 6598SOL    HW220694   1.069   5.413   1.663
 6599SOL     OW20695   0.736   5.633   6.309
 6599SOL    HW120696   0.824   5.677   6.328
 6599SOL    HW220697   0.691   5.681   6.233
 6600SOL     OW20698   4.223   6.210   4.815
 6600SOL    HW120699   4.136   6.237   4.774
 6600SOL    HW220700   4.268   6.143   4.756
 6601SOL     OW20701   1.139   2.971   2.415
 6601SOL    HW120702   1.101   2.879   2.423
 6601SOL    HW220703   1.237   2.965   2.394
 6602SOL     OW20704   5.939   5.998   0.425
 6602SOL    HW120705   6.009   5.985   0.355
 6602SOL    HW220706   5.971   5.959   0.511
 6603SOL     OW20707   0.249   4.553   2.348
 6603SOL    HW120708   0.224   4.650   2.355
 6603SOL    HW220709   0.191   4.499   2.409
 6604SOL     OW20710   1.406   5.470   2.421
 6604SOL    HW120711   1.393   5.412   2.501
 6604SOL    HW220712   1.376   5.421   2.339
 6605SOL     OW20713   6.779   5.103   1.415
 6605SOL    HW120714   6.828   5.119   1.501
 6605SOL    HW220715   6.699   5.046   1.433
 6606SOL     OW20716   1.329   4.500   2.901
 6606SOL    HW120717   1.269   4.420   2.903
 6606SOL    HW220718   1.423   4.470   2.920
 6607SOL     OW20719   6.491   3.293   4.114
 6607SOL    HW120720   6.512   3.200   4.083
 6607SOL    HW220721   6.392   3.304   4.119
 6608SOL     OW20722   1.470   0.410   5.263
 6608SOL    HW120723   1.374   0.431   5.282
 6608SOL    HW220724   1.501   0.462   5.183
 6609SOL     OW20725   3.215   2.489   0.021
 6609SOL    HW120726   3.152   2.458   0.092
 6609SOL    HW220727   3.162   2.531   6.967
 6610SOL     OW20728   3.346   6.374   1.322
 6610SOL    HW120729   3.380   6.428   1.245
 6610SOL    HW220730   3.413   6.304   1.345
 6611SOL     OW20731   3.097   1.640   4.379
 6611SOL    HW120732   3.138   1.566   4.325
 6611SOL    HW220733   2.998   1.629   4.382
 6612SOL     OW20734   0.014   0.281   6.853
 6612SOL    HW120735   6.954   0.278   6.913
 6612SOL    HW220736   0.095   0.250   6.903
 6613SOL     OW20737   4.091   6.732   1.426
 6613SOL    HW120738   4.180   6.692   1.447
 6613SOL    HW220739   4.048   6.682   1.351
 6614SOL     OW20740   3.641   4.348   0.928
 6614SOL    HW120741   3.607   4.301   1.009
 6614SOL    HW220742   3.612   4.444   0.930
 6615SOL     OW20743   3.197   6.110   5.856
 6615SOL    HW120744   3.239   6.036   5.805
 6615SOL    HW220745   3.106   6.129   5.818
 6616SOL     OW20746   3.913   2.030   6.512
 6616SOL    HW120747   3.845   2.039   6.439
 6616SOL    HW220748   3.867   2.029   6.600
 6617SOL     OW20749   3.433   1.586   4.256
 6617SOL    HW120750   3.488   1.592   4.339
 6617SOL    HW220751   3.476   1.641   4.184
 6618SOL     OW20752   5.824   3.423   3.492
 6618SOL    HW120753   5.899   3.358   3.491
 6618SOL    HW220754   5.758   3.399   3.421
 6619SOL     OW20755   4.707   5.102   4.086
 6619SOL    HW120756   4.695   5.083   3.988
 6619SOL    HW220757   4.635   5.056   4.138
 6620SOL     OW20758   1.297   2.632   3.158
 6620SOL    HW120759   1.203   2.602   3.180
 6620SOL    HW220760   1.361   2.589   3.222
 6621SOL     OW20761   3.241   3.594   3.456
 6621SOL    HW120762   3.146   3.593   3.423
 6621SOL    HW220763   3.245   3.554   3.548
 6622SOL     OW20764   0.027   4.899   1.544
 6622SOL    HW120765   6.953   4.889   1.576
 6622SOL    HW220766   0.089   4.853   1.608
 6623SOL     OW20767   3.512   3.388   3.921
 6623SOL    HW120768   3.536   3.480   3.889
 6623SOL    HW220769   3.593   3.329   3.918
 6624SOL     OW20770   2.724   2.376   2.844
 6624SOL    HW120771   2.794   2.424   2.791
 6624SOL    HW220772   2.738   2.278   2.836
 6625SOL     OW20773   6.976   4.653   5.371
 6625SOL    HW120774   6.987   4.554   5.364
 6625SOL    HW220775   6.903   4.683   5.309
 6626SOL     OW20776   3.207   5.839   5.771
 6626SOL    HW120777   3.188   5.787   5.854
 6626SOL    HW220778   3.166   5.792   5.693
 6627SOL     OW20779   2.538   6.510   4.518
 6627SOL    HW120780   2.495   6.467   4.597
 6627SOL    HW220781   2.478   6.501   4.438
 6628SOL     OW20782   3.822   0.269   3.440
 6628SOL    HW120783   3.803   0.255   3.537
 6628SOL    HW220784   3.820   0.366   3.419
 6629SOL     OW20785   4.877   5.938   4.917
 6629SOL    HW120786   4.788   5.942   4.964
 6629SOL    HW220787   4.873   5.991   4.833
 6630SOL     OW20788   2.115   0.045   0.325
 6630SOL    HW120789   2.120   7.015   0.411
 6630SOL    HW220790   2.079   0.137   0.342
 6631SOL     OW20791   1.472   2.369   5.462
 6631SOL    HW120792   1.459   2.328   5.553
 6631SOL    HW220793   1.566   2.352   5.432
 6632SOL     OW20794   1.329   0.234   6.361
 6632SOL    HW120795   1.279   0.191   6.286
 6632SOL    HW220796   1.266   0.252   6.437
 6633SOL     OW20797   4.779   6.534   6.215
 6633SOL    HW120798   4.812   6.508   6.124
 6633SOL    HW220799   4.692   6.583   6.206
 6634SOL     OW20800   2.915   2.289   4.172
 6634SOL    HW120801   2.831   2.339   4.150
 6634SOL    HW220802   2.987   2.315   4.108
 6635SOL     OW20803   5.052   5.691   5.999
 6635SOL    HW120804   5.121   5.622   5.978
 6635SOL    HW220805   5.096   5.771   6.040
 6636SOL     OW20806   4.011   1.382   1.081
 6636SOL    HW120807   4.059   1.466   1.057
 6636SOL    HW220808   4.001   1.376   1.181
 6637SOL     OW20809   0.035   2.128   6.944
 6637SOL    HW120810   0.070   2.199   6.884
 6637SOL    HW220811   6.963   2.152   6.974
 6638SOL     OW20812   2.879   3.671   3.698
 6638SOL    HW120813   2.847   3.639   3.609
 6638SOL    HW220814   2.860   3.601   3.767
 6639SOL     OW20815   4.477   2.945   1.268
 6639SOL    HW120816   4.559   2.888   1.263
 6639SOL    HW220817   4.452   2.976   1.176
 6640SOL     OW20818   1.069   3.743   4.477
 6640SOL    HW120819   1.092   3.725   4.573
 6640SOL    HW220820   1.148   3.784   4.432
 6641SOL     OW20821   5.853   2.421   0.092
 6641SOL    HW120822   5.940   2.449   0.051
 6641SOL    HW220823   5.869   2.394   0.187
 6642SOL     OW20824   1.115   5.019   5.993
 6642SOL    HW120825   1.165   5.091   6.041
 6642SOL    HW220826   1.168   4.934   5.994
 6643SOL     OW20827   4.331   5.729   5.955
 6643SOL    HW120828   4.263   5.657   5.971
 6643SOL    HW220829   4.359   5.769   6.043
 6644SOL     OW20830   1.827   0.342   3.697
 6644SOL    HW120831   1.767   0.262   3.697
 6644SOL    HW220832   1.849   0.367   3.602
 6645SOL     OW20833   4.908   2.263   5.299
 6645SOL    HW120834   4.928   2.360   5.315
 6645SOL    HW220835   4.823   2.239   5.344
 6646SOL     OW20836   4.972   0.385   6.473
 6646SOL    HW120837   5.072   0.374   6.469
 6646SOL    HW220838   4.944   0.396   6.569
 6647SOL     OW20839   4.095   4.756   1.069
 6647SOL    HW120840   4.158   4.678   1.072
 6647SOL    HW220841   4.090   4.790   0.975
 6648SOL     OW20842   3.307   5.399   5.455
 6648SOL    HW120843   3.358   5.329   5.405
 6648SOL    HW220844   3.209   5.385   5.443
 6649SOL     OW20845   5.342   2.443   5.942
 6649SOL    HW120846   5.280   2.499   5.996
 6649SOL    HW220847   5.301   2.421   5.854
 6650SOL     OW20848   2.528   1.265   4.777
 6650SOL    HW120849   2.451   1.222   4.824
 6650SOL    HW220850   2.609   1.208   4.786
 6651SOL     OW20851   6.718   1.206   3.993
 6651SOL    HW120852   6.775   1.217   4.074
 6651SOL    HW220853   6.738   1.118   3.950
 6652SOL     OW20854   0.092   4.551   6.513
 6652SOL    HW120855   0.128   4.642   6.494
 6652SOL    HW220856   7.016   4.547   6.486
 6653SOL     OW20857   5.489   4.143   6.904
 6653SOL    HW120858   5.412   4.144   6.968
 6653SOL    HW220859   5.455   4.154   6.811
 6654SOL     OW20860   6.520   2.080   3.292
 6654SOL    HW120861   6.515   1.983   3.319
 6654SOL    HW220862   6.485   2.090   3.199
 6655SOL     OW20863   7.011   5.985   1.475
 6655SOL    HW120864   0.027   5.994   1.382
 6655SOL    HW220865   0.022   5.899   1.515
 6656SOL     OW20866   4.694   1.155   2.266
 6656SOL    HW120867   4.603   1.171   2.304
 6656SOL    HW220868   4.754   1.230   2.292
 6657SOL     OW20869   4.725   2.203   4.698
 6657SOL    HW120870   4.696   2.299   4.691
 6657SOL    HW220871   4.811   2.198   4.748
 6658SOL     OW20872   6.609   5.845   4.794
 6658SOL    HW120873   6.675   5.779   4.831
 6658SOL    HW220874   6.657   5.929   4.768
 6659SOL     OW20875   0.453   6.222   0.845
 6659SOL    HW120876   0.357   6.218   0.872
 6659SOL    HW220877   0.471   6.308   0.797
 6660SOL     OW20878   0.779   6.945   4.301
 6660SOL    HW120879   0.818   0.015   4.322
 6660SOL    HW220880   0.842   6.874   4.331
 6661SOL     OW20881   4.128   6.609   4.003
 6661SOL    HW120882   4.170   6.525   3.968
 6661SOL    HW220883   4.077   6.653   3.929
 6662SOL     OW20884   3.538   6.899   2.249
 6662SOL    HW120885   3.558   6.805   2.220
 6662SOL    HW220886   3.443   6.921   2.229
 6663SOL     OW20887   1.601   4.139   5.703
 6663SOL    HW120888   1.531   4.208   5.686
 6663SOL    HW220889   1.665   4.136   5.626
 6664SOL     OW20890   3.109   0.349   2.243
 6664SOL    HW120891   3.196   0.334   2.195
 6664SOL    HW220892   3.080   0.263   2.286
 6665SOL     OW20893   2.673   0.994   0.484
 6665SOL    HW120894   2.681   1.066   0.553
 6665SOL    HW220895   2.713   0.910   0.519
 6666SOL     OW20896   2.717   5.827   5.670
 6666SOL    HW120897   2.765   5.848   5.585
 6666SOL    HW220898   2.784   5.813   5.743
 6667SOL     OW20899   1.867   5.762   0.435
 6667SOL    HW120900   1.851   5.861   0.439
 6667SOL    HW220901   1.937   5.737   0.501
 6668SOL     OW20902   7.009   3.453   6.039
 6668SOL    HW120903   0.052   3.527   6.018
 6668SOL    HW220904   6.969   3.418   5.954
 6669SOL     OW20905   0.751   3.102   3.293
 6669SOL    HW120906   0.809   3.130   3.371
 6669SOL    HW220907   0.802   3.037   3.236
 6670SOL     OW20908   2.637   3.925   0.468
 6670SOL    HW120909   2.688   3.988   0.410
 6670SOL    HW220910   2.574   3.871   0.412
 6671SOL     OW20911   4.698   4.993   0.574
 6671SOL    HW120912   4.742   4.986   0.485
 6671SOL    HW220913   4.679   4.901   0.609
 6672SOL     OW20914   1.827   2.930   1.410
 6672SOL    HW120915   1.830   2.835   1.443
 6672SOL    HW220916   1.734   2.966   1.419
 6673SOL     OW20917   5.825   3.742   4.025
 6673SOL    HW120918   5.911   3.697   3.999
 6673SOL    HW220919   5.843   3.837   4.049
 6674SOL     OW20920   6.782   0.478   0.367
 6674SOL    HW120921   6.842   0.557   0.357
 6674SOL    HW220922   6.737   0.459   0.280
 6675SOL     OW20923   4.293   1.094   0.356
 6675SOL    HW120924   4.347   1.020   0.397
 6675SOL    HW220925   4.327   1.114   0.265
 6676SOL     OW20926   0.700   4.298   5.112
 6676SOL    HW120927   0.639   4.253   5.178
 6676SOL    HW220928   0.660   4.293   5.021
 6677SOL     OW20929   0.293   2.328   6.974
 6677SOL    HW120930   0.226   2.372   6.913
 6677SOL    HW220931   0.311   2.235   6.942
 6678SOL     OW20932   2.684   4.250   6.656
 6678SOL    HW120933   2.782   4.262   6.642
 6678SOL    HW220934   2.645   4.201   6.578
 6679SOL     OW20935   1.385   0.532   4.501
 6679SOL    HW120936   1.393   0.448   4.447
 6679SOL    HW220937   1.381   0.510   4.598
 6680SOL     OW20938   5.944   5.271   1.807
 6680SOL    HW120939   6.034   5.308   1.785
 6680SOL    HW220940   5.873   5.324   1.760
 6681SOL     OW20941   3.141   5.523   1.009
 6681SOL    HW120942   3.100   5.538   0.920
 6681SOL    HW220943   3.123   5.430   1.040
 6682SOL     OW20944   2.510   5.217   6.531
 6682SOL    HW120945   2.541   5.225   6.626
 6682SOL    HW220946   2.468   5.127   6.517
 6683SOL     OW20947   6.530   6.084   6.164
 6683SOL    HW120948   6.435   6.114   6.154
 6683SOL    HW220949   6.589   6.164   6.177
 6684SOL     OW20950   2.676   6.074   6.176
 6684SOL    HW120951   2.613   6.104   6.248
 6684SOL    HW220952   2.689   6.148   6.110
 6685SOL     OW20953   3.953   2.399   0.579
 6685SOL    HW120954   3.876   2.372   0.637
 6685SOL    HW220955   3.998   2.480   0.617
 6686SOL     OW20956   4.549   4.815   5.372
 6686SOL    HW120957   4.479   4.784   5.308
 6686SOL    HW220958   4.636   4.769   5.353
 6687SOL     OW20959   0.549   2.205   1.372
 6687SOL    HW120960   0.499   2.291   1.374
 6687SOL    HW220961   0.613   2.205   1.296
 6688SOL     OW20962   5.134   5.576   0.621
 6688SOL    HW120963   5.060   5.570   0.555
 6688SOL    HW220964   5.221   5.586   0.573
 6689SOL     OW20965   3.356   5.062   6.246
 6689SOL    HW120966   3.266   5.100   6.269
 6689SOL    HW220967   3.401   5.121   6.179
 6690SOL     OW20968   1.224   0.365   0.656
 6690SOL    HW120969   1.182   0.285   0.699
 6690SOL    HW220970   1.161   0.406   0.590
 6691SOL     OW20971   2.763   1.745   2.113
 6691SOL    HW120972   2.771   1.798   2.029
 6691SOL    HW220973   2.710   1.662   2.096
 6692SOL     OW20974   4.252   6.539   2.229
 6692SOL    HW120975   4.231   6.487   2.146
 6692SOL    HW220976   4.324   6.493   2.281
 6693SOL     OW20977   3.353   1.569   5.775
 6693SOL    HW120978   3.322   1.637   5.708
 6693SOL    HW220979   3.274   1.517   5.809
 6694SOL     OW20980   4.484   3.961   1.472
 6694SOL    HW120981   4.440   3.909   1.545
 6694SOL    HW220982   4.493   4.057   1.500
 6695SOL     OW20983   2.726   2.768   0.533
 6695SOL    HW120984   2.793   2.749   0.605
 6695SOL    HW220985   2.769   2.820   0.459
 6696SOL     OW20986   3.609   3.192   5.388
 6696SOL    HW120987   3.686   3.197   5.452
 6696SOL    HW220988   3.609   3.103   5.343
 6697SOL     OW20989   4.498   2.172   2.573
 6697SOL    HW120990   4.518   2.121   2.490
 6697SOL    HW220991   4.425   2.238   2.555
 6698SOL     OW20992   2.713   3.640   1.609
 6698SOL    HW120993   2.783   3.689   1.661
 6698SOL    HW220994   2.713   3.672   1.514
 6699SOL     OW20995   1.550   3.140   6.422
 6699SOL    HW120996   1.546   3.229   6.468
 6699SOL    HW220997   1.558   3.155   6.323
 6700SOL     OW20998   5.607   0.976   1.173
 6700SOL    HW120999   5.541   0.989   1.099
 6700SOL    HW221000   5.564   0.998   1.260
 6701SOL     OW21001   5.614   0.174   1.532
 6701SOL    HW121002   5.562   0.187   1.447
 6701SOL    HW221003   5.702   0.131   1.512
 6702SOL     OW21004   4.138   2.814   1.033
 6702SOL    HW121005   4.155   2.866   1.116
 6702SOL    HW221006   4.200   2.735   1.029
 6703SOL     OW21007   0.891   1.342   0.095
 6703SOL    HW121008   0.932   1.252   0.082
 6703SOL    HW221009   0.958   1.413   0.074
 6704SOL     OW21010   2.984   6.980   5.563
 6704SOL    HW121011   2.988   0.031   5.633
 6704SOL    HW221012   3.065   6.922   5.570
 6705SOL     OW21013   0.285   4.856   2.247
 6705SOL    HW121014   0.233   4.909   2.180
 6705SOL    HW221015   0.328   4.778   2.202
 6706SOL     OW21016   6.956   6.117   0.421
 6706SOL    HW121017   6.976   6.022   0.398
 6706SOL    HW221018   6.969   6.174   0.340
 6707SOL     OW21019   4.398   1.216   2.717
 6707SOL    HW121020   4.306   1.178   2.711
 6707SOL    HW221021   4.460   1.161   2.660
 6708SOL     OW21022   0.521   3.008   0.603
 6708SOL    HW121023   0.479   3.083   0.654
 6708SOL    HW221024   0.467   2.988   0.521
 6709SOL     OW21025   2.430   4.287   1.872
 6709SOL    HW121026   2.353   4.309   1.933
 6709SOL    HW221027   2.503   4.354   1.887
 6710SOL     OW21028   4.630   1.892   1.223
 6710SOL    HW121029   4.589   1.934   1.304
 6710SOL    HW221030   4.718   1.852   1.247
 6711SOL     OW21031   4.162   5.855   6.389
 6711SOL    HW121032   4.099   5.820   6.319
 6711SOL    HW221033   4.256   5.839   6.360
 6712SOL     OW21034   5.447   3.820   1.201
 6712SOL    HW121035   5.498   3.833   1.286
 6712SOL    HW221036   5.355   3.859   1.211
 6713SOL     OW21037   1.776   4.044   4.359
 6713SOL    HW121038   1.741   4.124   4.409
 6713SOL    HW221039   1.715   4.024   4.282
 6714SOL     OW21040   5.531   1.368   2.087
 6714SOL    HW121041   5.489   1.442   2.035
 6714SOL    HW221042   5.462   1.300   2.111
 6715SOL     OW21043   1.123   0.541   5.908
 6715SOL    HW121044   1.105   0.627   5.860
 6715SOL    HW221045   1.036   0.496   5.929
 6716SOL     OW21046   1.126   5.261   1.520
 6716SOL    HW121047   1.099   5.190   1.455
 6716SOL    HW221048   1.218   5.241   1.554
 6717SOL     OW21049   6.622   2.168   5.259
 6717SOL    HW121050   6.536   2.218   5.270
 6717SOL    HW221051   6.651   2.172   5.163
 6718SOL     OW21052   4.779   2.150   1.122
 6718SOL    HW121053   4.878   2.143   1.127
 6718SOL    HW221054   4.738   2.060   1.132
 6719SOL     OW21055   1.709   1.217   0.768
 6719SOL    HW121056   1.807   1.221   0.746
 6719SOL    HW221057   1.656   1.249   0.689
 6720SOL     OW21058   1.284   1.618   5.406
 6720SOL    HW121059   1.277   1.648   5.311
 6720SOL    HW221060   1.318   1.524   5.410
 6721SOL     OW21061   6.554   6.331   0.342
 6721SOL    HW121062   6.627   6.303   0.403
 6721SOL    HW221063   6.572   6.424   0.309
 6722SOL     OW21064   6.127   4.875   0.694
 6722SOL    HW121065   6.088   4.964   0.671
 6722SOL    HW221066   6.054   4.806   0.696
 6723SOL     OW21067   1.594   3.236   4.267
 6723SOL    HW121068   1.581   3.296   4.188
 6723SOL    HW221069   1.507   3.223   4.314
 6724SOL     OW21070   1.770   3.497   4.576
 6724SOL    HW121071   1.795   3.482   4.481
 6724SOL    HW221072   1.851   3.485   4.634
 6725SOL     OW21073   4.893   3.343   4.229
 6725SOL    HW121074   4.880   3.276   4.302
 6725SOL    HW221075   4.984   3.332   4.189
 6726SOL     OW21076   6.997   1.457   6.609
 6726SOL    HW121077   0.030   1.446   6.693
 6726SOL    HW221078   6.939   1.537   6.617
 6727SOL     OW21079   0.664   4.949   5.154
 6727SOL    HW121080   0.761   4.934   5.141
 6727SOL    HW221081   0.617   4.862   5.170
 6728SOL     OW21082   3.527   1.047   4.338
 6728SOL    HW121083   3.540   1.136   4.383
 6728SOL    HW221084   3.429   1.033   4.320
 6729SOL     OW21085   4.219   1.153   1.864
 6729SOL    HW121086   4.139   1.208   1.840
 6729SOL    HW221087   4.217   1.067   1.812
 6730SOL     OW21088   0.346   1.801   0.605
 6730SOL    HW121089   0.381   1.876   0.660
 6730SOL    HW221090   0.277   1.750   0.657
 6731SOL     OW21091   3.810   0.254   6.432
 6731SOL    HW121092   3.755   0.263   6.349
 6731SOL    HW221093   3.885   0.191   6.416
 6732SOL     OW21094   6.263   5.112   5.647
 6732SOL    HW121095   6.263   5.212   5.637
 6732SOL    HW221096   6.351   5.083   5.684
 6733SOL     OW21097   4.972   5.252   5.252
 6733SOL    HW121098   4.944   5.269   5.157
 6733SOL    HW221099   4.892   5.240   5.309
 6734SOL     OW21100   5.834   2.310   5.026
 6734SOL    HW121101   5.759   2.290   4.962
 6734SOL    HW221102   5.800   2.304   5.120
 6735SOL     OW21103   5.392   2.964   4.375
 6735SOL    HW121104   5.385   3.047   4.320
 6735SOL    HW221105   5.467   2.908   4.342
 6736SOL     OW21106   3.626   4.138   0.440
 6736SOL    HW121107   3.591   4.187   0.520
 6736SOL    HW221108   3.677   4.058   0.471
 6737SOL     OW21109   6.160   3.625   0.720
 6737SOL    HW121110   6.071   3.670   0.729
 6737SOL    HW221111   6.183   3.581   0.807
 6738SOL     OW21112   2.250   6.615   4.474
 6738SOL    HW121113   2.234   6.550   4.549
 6738SOL    HW221114   2.162   6.641   4.435
 6739SOL     OW21115   6.833   0.018   5.892
 6739SOL    HW121116   6.765   6.992   5.835
 6739SOL    HW221117   6.853   0.108   5.852
 6740SOL     OW21118   0.484   6.704   1.940
 6740SOL    HW121119   0.574   6.738   1.967
 6740SOL    HW221120   0.417   6.725   2.011
 6741SOL     OW21121   3.474   1.785   0.501
 6741SOL    HW121122   3.430   1.873   0.482
 6741SOL    HW221123   3.412   1.711   0.477
 6742SOL     OW21124   6.585   4.523   2.272
 6742SOL    HW121125   6.672   4.511   2.224
 6742SOL    HW221126   6.518   4.458   2.237
 6743SOL     OW21127   3.905   3.927   6.996
 6743SOL    HW121128   3.850   4.010   6.983
 6743SOL    HW221129   3.883   3.862   6.924
 6744SOL     OW21130   6.654   6.884   5.737
 6744SOL    HW121131   6.704   6.825   5.674
 6744SOL    HW221132   6.623   6.830   5.816
 6745SOL     OW21133   6.359   3.565   5.633
 6745SOL    HW121134   6.394   3.659   5.625
 6745SOL    HW221135   6.318   3.553   5.723
 6746SOL     OW21136   1.402   2.347   2.823
 6746SOL    HW121137   1.445   2.305   2.903
 6746SOL    HW221138   1.303   2.353   2.838
 6747SOL     OW21139   1.457   6.128   4.802
 6747SOL    HW121140   1.502   6.200   4.856
 6747SOL    HW221141   1.371   6.164   4.765
 6748SOL     OW21142   1.764   1.420   4.708
 6748SOL    HW121143   1.752   1.515   4.738
 6748SOL    HW221144   1.860   1.393   4.720
 6749SOL     OW21145   4.103   5.049   2.219
 6749SOL    HW121146   4.175   5.118   2.208
 6749SOL    HW221147   4.024   5.075   2.164
 6750SOL     OW21148   3.455   1.064   5.529
 6750SOL    HW121149   3.379   1.009   5.563
 6750SOL    HW221150   3.498   1.113   5.605
 6751SOL     OW21151   4.173   0.860   4.416
 6751SOL    HW121152   4.093   0.877   4.359
 6751SOL    HW221153   4.199   0.944   4.463
 6752SOL     OW21154   2.141   4.940   2.536
 6752SOL    HW121155   2.047   4.907   2.548
 6752SOL    HW221156   2.205   4.865   2.552
 6753SOL     OW21157   3.595   4.383   0.328
 6753SOL    HW121158   3.610   4.289   0.360
 6753SOL    HW221159   3.620   4.390   0.231
 6754SOL     OW21160   6.467   1.109   0.368
 6754SOL    HW121161   6.431   1.201   0.353
 6754SOL    HW221162   6.437   1.049   0.294
 6755SOL     OW21163   3.560   5.849   5.699
 6755SOL    HW121164   3.619   5.918   5.740
 6755SOL    HW221165   3.538   5.779   5.767
 6756SOL     OW21166   3.890   3.312   6.091
 6756SOL    HW121167   3.952   3.378   6.134
 6756SOL    HW221168   3.796   3.333   6.115
 6757SOL     OW21169   4.440   6.969   1.545
 6757SOL    HW121170   4.465   6.875   1.520
 6757SOL    HW221171   4.355   6.994   1.500
 6758SOL     OW21172   5.258   3.547   3.106
 6758SOL    HW121173   5.253   3.448   3.099
 6758SOL    HW221174   5.193   3.589   3.043
 6759SOL     OW21175   1.502   1.655   2.536
 6759SOL    HW121176   1.472   1.560   2.542
 6759SOL    HW221177   1.460   1.709   2.610
 6760SOL     OW21178   5.673   1.914   5.407
 6760SOL    HW121179   5.644   1.944   5.316
 6760SOL    HW221180   5.635   1.823   5.425
 6761SOL     OW21181   3.249   0.793   5.149
 6761SOL    HW121182   3.152   0.801   5.125
 6761SOL    HW221183   3.303   0.793   5.065
 6762SOL     OW21184   5.831   4.875   4.379
 6762SOL    HW121185   5.922   4.904   4.348
 6762SOL    HW221186   5.801   4.933   4.455
 6763SOL     OW21187   5.886   6.886   4.051
 6763SOL    HW121188   5.940   6.924   4.125
 6763SOL    HW221189   5.906   6.935   3.966
 6764SOL     OW21190   0.396   4.852   1.697
 6764SOL    HW121191   0.320   4.800   1.735
 6764SOL    HW221192   0.429   4.806   1.614
 6765SOL     OW21193   0.478   3.802   2.315
 6765SOL    HW121194   0.451   3.857   2.394
 6765SOL    HW221195   0.469   3.705   2.338
 6766SOL     OW21196   6.129   0.255   0.833
 6766SOL    HW121197   6.039   0.226   0.866
 6766SOL    HW221198   6.168   0.321   0.898
 6767SOL     OW21199   3.272   0.493   1.407
 6767SOL    HW121200   3.241   0.560   1.474
 6767SOL    HW221201   3.194   0.456   1.357
 6768SOL     OW21202   1.905   6.869   6.881
 6768SOL    HW121203   1.814   6.906   6.897
 6768SOL    HW221204   1.973   6.928   6.924
 6769SOL     OW21205   4.853   3.156   1.093
 6769SOL    HW121206   4.782   3.201   1.038
 6769SOL    HW221207   4.910   3.225   1.137
 6770SOL     OW21208   0.048   1.431   1.691
 6770SOL    HW121209   0.064   1.471   1.782
 6770SOL    HW221210   0.136   1.404   1.651
 6771SOL     OW21211   4.927   1.680   3.377
 6771SOL    HW121212   4.888   1.729   3.455
 6771SOL    HW221213   5.015   1.640   3.403
 6772SOL     OW21214   3.634   1.813   4.396
 6772SOL    HW121215   3.699   1.828   4.321
 6772SOL    HW221216   3.541   1.807   4.359
 6773SOL     OW21217   0.484   4.102   1.522
 6773SOL    HW121218   0.546   4.053   1.460
 6773SOL    HW221219   0.435   4.035   1.578
 6774SOL     OW21220   1.179   2.283   6.494
 6774SOL    HW121221   1.243   2.331   6.433
 6774SOL    HW221222   1.137   2.207   6.446
 6775SOL     OW21223   1.007   3.962   6.839
 6775SOL    HW121224   0.929   3.929   6.892
 6775SOL    HW221225   1.034   3.893   6.772
 6776SOL     OW21226   5.778   5.943   6.715
 6776SOL    HW121227   5.744   5.906   6.801
 6776SOL    HW221228   5.710   6.004   6.675
 6777SOL     OW21229   4.647   5.357   6.707
 6777SOL    HW121230   4.705   5.437   6.697
 6777SOL    HW221231   4.676   5.286   6.643
 6778SOL     OW21232   6.460   6.087   3.286
 6778SOL    HW121233   6.390   6.095   3.215
 6778SOL    HW221234   6.422   6.115   3.374
 6779SOL     OW21235   6.044   3.797   6.284
 6779SOL    HW121236   6.067   3.706   6.318
 6779SOL    HW221237   5.946   3.811   6.291
 6780SOL     OW21238   0.693   3.265   1.544
 6780SOL    HW121239   0.732   3.357   1.547
 6780SOL    HW221240   0.678   3.232   1.637
 6781SOL     OW21241   5.945   5.257   5.666
 6781SOL    HW121242   5.850   5.281   5.685
 6781SOL    HW221243   6.001   5.276   5.747
 6782SOL     OW21244   5.576   0.943   3.426
 6782SOL    HW121245   5.594   0.874   3.496
 6782SOL    HW221246   5.497   0.916   3.371
 6783SOL     OW21247   0.985   6.003   6.501
 6783SOL    HW121248   0.902   6.050   6.532
 6783SOL    HW221249   0.964   5.947   6.421
 6784SOL     OW21250   4.279   3.424   0.102
 6784SOL    HW121251   4.261   3.420   0.003
 6784SOL    HW221252   4.218   3.360   0.149
 6785SOL     OW21253   6.019   5.142   2.162
 6785SOL    HW121254   6.058   5.182   2.246
 6785SOL    HW221255   6.036   5.204   2.085
 6786SOL     OW21256   1.669   3.516   5.777
 6786SOL    HW121257   1.584   3.464   5.775
 6786SOL    HW221258   1.700   3.526   5.872
 6787SOL     OW21259   1.121   4.066   1.299
 6787SOL    HW121260   1.055   4.111   1.359
 6787SOL    HW221261   1.200   4.125   1.285
 6788SOL     OW21262   2.615   4.143   0.983
 6788SOL    HW121263   2.555   4.162   0.906
 6788SOL    HW221264   2.687   4.079   0.954
 6789SOL     OW21265   0.849   5.418   3.469
 6789SOL    HW121266   0.790   5.498   3.474
 6789SOL    HW221267   0.840   5.364   3.552
 6790SOL     OW21268   1.101   2.491   0.967
 6790SOL    HW121269   1.155   2.540   1.035
 6790SOL    HW221270   1.158   2.470   0.888
 6791SOL     OW21271   3.105   3.847   6.098
 6791SOL    HW121272   3.104   3.843   5.998
 6791SOL    HW221273   3.200   3.851   6.130
 6792SOL     OW21274   0.282   4.803   0.210
 6792SOL    HW121275   0.297   4.704   0.211
 6792SOL    HW221276   0.345   4.845   0.144
 6793SOL     OW21277   5.890   1.285   1.697
 6793SOL    HW121278   5.816   1.348   1.721
 6793SOL    HW221279   5.866   1.235   1.614
 6794SOL     OW21280   4.113   1.263   4.357
 6794SOL    HW121281   4.058   1.180   4.367
 6794SOL    HW221282   4.209   1.242   4.372
 6795SOL     OW21283   3.701   6.219   7.010
 6795SOL    HW121284   3.657   6.309   7.011
 6795SOL    HW221285   3.799   6.230   6.999
 6796SOL     OW21286   3.819   1.982   3.067
 6796SOL    HW121287   3.860   2.020   2.984
 6796SOL    HW221288   3.883   1.991   3.143
 6797SOL     OW21289   6.726   2.161   2.008
 6797SOL    HW121290   6.781   2.111   1.941
 6797SOL    HW221291   6.654   2.212   1.961
 6798SOL     OW21292   6.746   0.284   2.532
 6798SOL    HW121293   6.833   0.272   2.580
 6798SOL    HW221294   6.742   0.222   2.454
 6799SOL     OW21295   5.126   5.630   1.742
 6799SOL    HW121296   5.052   5.587   1.794
 6799SOL    HW221297   5.150   5.718   1.784
 6800SOL     OW21298   3.486   3.981   6.768
 6800SOL    HW121299   3.437   3.905   6.811
 6800SOL    HW221300   3.443   4.003   6.681
 6801SOL     OW21301   1.067   2.913   2.828
 6801SOL    HW121302   0.973   2.898   2.857
 6801SOL    HW221303   1.072   2.994   2.770
 6802SOL     OW21304   2.577   4.703   2.635
 6802SOL    HW121305   2.552   4.613   2.600
 6802SOL    HW221306   2.606   4.762   2.560
 6803SOL     OW21307   3.820   2.622   0.959
 6803SOL    HW121308   3.817   2.722   0.950
 6803SOL    HW221309   3.753   2.581   0.896
 6804SOL     OW21310   1.118   6.903   3.937
 6804SOL    HW121311   1.064   6.932   3.858
 6804SOL    HW221312   1.158   6.983   3.981
 6805SOL     OW21313   5.896   1.122   5.349
 6805SOL    HW121314   5.845   1.207   5.362
 6805SOL    HW221315   5.858   1.072   5.271
 6806SOL     OW21316   5.355   6.506   5.129
 6806SOL    HW121317   5.280   6.562   5.092
 6806SOL    HW221318   5.431   6.566   5.155
 6807SOL     OW21319   3.462   3.596   6.604
 6807SOL    HW121320   3.459   3.641   6.694
 6807SOL    HW221321   3.379   3.620   6.553
 6808SOL     OW21322   2.198   3.383   3.825
 6808SOL    HW121323   2.152   3.353   3.908
 6808SOL    HW221324   2.296   3.393   3.843
 6809SOL     OW21325   1.533   3.516   7.005
 6809SOL    HW121326   1.476   3.437   6.981
 6809SOL    HW221327   1.481   3.578   0.044
 6810SOL     OW21328   5.576   1.450   3.429
 6810SOL    HW121329   5.558   1.474   3.334
 6810SOL    HW221330   5.620   1.360   3.432
 6811SOL     OW21331   4.822   5.820   1.957
 6811SOL    HW121332   4.862   5.861   1.875
 6811SOL    HW221333   4.727   5.793   1.938
 6812SOL     OW21334   3.450   3.281   2.533
 6812SOL    HW121335   3.473   3.184   2.523
 6812SOL    HW221336   3.437   3.321   2.442
 6813SOL     OW21337   5.319   3.540   1.001
 6813SOL    HW121338   5.246   3.600   0.967
 6813SOL    HW221339   5.391   3.532   0.932
 6814SOL     OW21340   2.368   3.193   0.738
 6814SOL    HW121341   2.346   3.124   0.807
 6814SOL    HW221342   2.441   3.252   0.772
 6815SOL     OW21343   1.320   0.216   1.161
 6815SOL    HW121344   1.322   0.251   1.255
 6815SOL    HW221345   1.389   0.264   1.106
 6816SOL     OW21346   6.346   4.015   1.012
 6816SOL    HW121347   6.324   4.084   1.082
 6816SOL    HW221348   6.421   4.048   0.955
 6817SOL     OW21349   0.632   2.426   6.543
 6817SOL    HW121350   0.652   2.481   6.623
 6817SOL    HW221351   0.694   2.450   6.468
 6818SOL     OW21352   3.962   5.298   1.367
 6818SOL    HW121353   4.001   5.212   1.399
 6818SOL    HW221354   3.890   5.279   1.300
 6819SOL     OW21355   3.034   1.595   3.836
 6819SOL    HW121356   3.005   1.649   3.915
 6819SOL    HW221357   3.131   1.571   3.846
 6820SOL     OW21358   2.053   5.247   4.290
 6820SOL    HW121359   2.035   5.279   4.383
 6820SOL    HW221360   2.037   5.149   4.285
 6821SOL     OW21361   2.255   2.871   4.339
 6821SOL    HW121362   2.220   2.809   4.409
 6821SOL    HW221363   2.336   2.831   4.296
 6822SOL     OW21364   4.903   1.725   6.352
 6822SOL    HW121365   4.950   1.812   6.339
 6822SOL    HW221366   4.937   1.658   6.287
 6823SOL     OW21367   3.996   3.442   1.881
 6823SOL    HW121368   4.047   3.359   1.905
 6823SOL    HW221369   3.903   3.417   1.855
 6824SOL     OW21370   1.349   4.811   5.729
 6824SOL    HW121371   1.420   4.741   5.730
 6824SOL    HW221372   1.286   4.796   5.806
 6825SOL     OW21373   5.619   6.973   4.034
 6825SOL    HW121374   5.631   0.052   4.035
 6825SOL    HW221375   5.708   6.929   4.018
 6826SOL     OW21376   0.786   3.195   2.903
 6826SOL    HW121377   0.814   3.101   2.884
 6826SOL    HW221378   0.789   3.248   2.818
 6827SOL     OW21379   5.632   6.166   4.783
 6827SOL    HW121380   5.630   6.178   4.882
 6827SOL    HW221381   5.559   6.219   4.741
 6828SOL     OW21382   2.238   1.864   1.416
 6828SOL    HW121383   2.161   1.917   1.380
 6828SOL    HW221384   2.275   1.910   1.497
 6829SOL     OW21385   5.526   4.870   3.715
 6829SOL    HW121386   5.611   4.865   3.663
 6829SOL    HW221387   5.476   4.784   3.706
 6830SOL     OW21388   5.082   2.075   4.086
 6830SOL    HW121389   5.122   2.105   4.173
 6830SOL    HW221390   5.153   2.075   4.016
 6831SOL     OW21391   0.008   1.448   5.983
 6831SOL    HW121392   6.935   1.432   6.013
 6831SOL    HW221393   0.037   1.373   5.923
 6832SOL     OW21394   3.204   5.384   1.587
 6832SOL    HW121395   3.217   5.482   1.576
 6832SOL    HW221396   3.121   5.355   1.540
 6833SOL     OW21397   4.406   5.709   6.963
 6833SOL    HW121398   4.428   5.645   6.889
 6833SOL    HW221399   4.310   5.698   6.989
 6834SOL     OW21400   3.529   5.522   2.490
 6834SOL    HW121401   3.555   5.489   2.399
 6834SOL    HW221402   3.430   5.534   2.494
 6835SOL     OW21403   4.152   0.209   4.781
 6835SOL    HW121404   4.105   0.123   4.757
 6835SOL    HW221405   4.215   0.192   4.857
 6836SOL     OW21406   3.892   5.536   6.781
 6836SOL    HW121407   3.820   5.605   6.773
 6836SOL    HW221408   3.850   5.447   6.799
 6837SOL     OW21409   0.525   3.114   2.867
 6837SOL    HW121410   0.506   3.207   2.834
 6837SOL    HW221411   0.617   3.111   2.906
 6838SOL     OW21412   2.383   1.573   0.840
 6838SOL    HW121413   2.374   1.574   0.940
 6838SOL    HW221414   2.324   1.643   0.800
 6839SOL     OW21415   4.643   0.734   1.897
 6839SOL    HW121416   4.555   0.781   1.905
 6839SOL    HW221417   4.647   0.686   1.809
 6840SOL     OW21418   0.850   1.034   6.850
 6840SOL    HW121419   0.933   1.034   6.794
 6840SOL    HW221420   0.775   1.074   6.797
 6841SOL     OW21421   0.230   3.394   5.728
 6841SOL    HW121422   0.141   3.378   5.686
 6841SOL    HW221423   0.297   3.330   5.691
 6842SOL     OW21424   2.505   4.476   2.513
 6842SOL    HW121425   2.426   4.415   2.507
 6842SOL    HW221426   2.516   4.525   2.427
 6843SOL     OW21427   4.474   0.126   1.002
 6843SOL    HW121428   4.413   0.160   1.073
 6843SOL    HW221429   4.460   0.028   0.990
 6844SOL     OW21430   5.684   0.597   5.733
 6844SOL    HW121431   5.601   0.624   5.782
 6844SOL    HW221432   5.685   0.498   5.720
 6845SOL     OW21433   5.076   2.060   2.673
 6845SOL    HW121434   5.167   2.095   2.651
 6845SOL    HW221435   5.040   2.009   2.594
 6846SOL     OW21436   2.113   3.355   0.102
 6846SOL    HW121437   2.119   3.443   0.150
 6846SOL    HW221438   2.039   3.301   0.143
 6847SOL     OW21439   6.658   2.254   4.640
 6847SOL    HW121440   6.660   2.199   4.557
 6847SOL    HW221441   6.726   2.327   4.635
 6848SOL     OW21442   0.119   5.061   3.605
 6848SOL    HW121443   0.070   4.983   3.566
 6848SOL    HW221444   0.210   5.068   3.565
 6849SOL     OW21445   2.734   4.614   6.155
 6849SOL    HW121446   2.695   4.563   6.231
 6849SOL    HW221447   2.667   4.620   6.081
 6850SOL     OW21448   5.125   0.216   4.444
 6850SOL    HW121449   5.146   0.165   4.361
 6850SOL    HW221450   5.209   0.256   4.481
 6851SOL     OW21451   1.772   3.894   2.871
 6851SOL    HW121452   1.850   3.955   2.856
 6851SOL    HW221453   1.687   3.947   2.865
 6852SOL     OW21454   4.539   3.985   0.457
 6852SOL    HW121455   4.468   3.982   0.527
 6852SOL    HW221456   4.561   4.081   0.435
 6853SOL     OW21457   3.954   4.704   6.610
 6853SOL    HW121458   4.025   4.672   6.549
 6853SOL    HW221459   3.870   4.651   6.595
 6854SOL     OW21460   4.935   5.749   5.753
 6854SOL    HW121461   4.873   5.676   5.725
 6854SOL    HW221462   4.972   5.729   5.844
 6855SOL     OW21463   4.372   5.113   3.189
 6855SOL    HW121464   4.312   5.037   3.163
 6855SOL    HW221465   4.316   5.191   3.218
 6856SOL     OW21466   6.880   2.676   0.183
 6856SOL    HW121467   6.959   2.679   0.244
 6856SOL    HW221468   6.799   2.708   0.232
 6857SOL     OW21469   1.192   4.192   5.887
 6857SOL    HW121470   1.280   4.232   5.913
 6857SOL    HW221471   1.207   4.105   5.841
 6858SOL     OW21472   1.460   3.710   1.463
 6858SOL    HW121473   1.456   3.789   1.402
 6858SOL    HW221474   1.375   3.659   1.457
 6859SOL     OW21475   2.019   2.008   1.315
 6859SOL    HW121476   1.932   2.048   1.342
 6859SOL    HW221477   2.016   1.984   1.218
 6860SOL     OW21478   0.210   6.327   0.237
 6860SOL    HW121479   0.120   6.325   0.193
 6860SOL    HW221480   0.202   6.301   0.333
 6861SOL     OW21481   6.074   3.057   6.466
 6861SOL    HW121482   6.040   3.150   6.483
 6861SOL    HW221483   6.005   3.005   6.415
 6862SOL     OW21484   1.067   4.761   3.702
 6862SOL    HW121485   1.117   4.847   3.710
 6862SOL    HW221486   0.980   4.768   3.750
 6863SOL     OW21487   4.989   1.392   5.016
 6863SOL    HW121488   4.978   1.369   5.112
 6863SOL    HW221489   4.915   1.454   4.988
 6864SOL     OW21490   1.511   3.437   6.480
 6864SOL    HW121491   1.498   3.535   6.499
 6864SOL    HW221492   1.421   3.393   6.474
 6865SOL     OW21493   2.045   0.454   4.557
 6865SOL    HW121494   1.993   0.479   4.639
 6865SOL    HW221495   1.983   0.426   4.485
 6866SOL     OW21496   2.107   4.913   0.269
 6866SOL    HW121497   2.015   4.875   0.258
 6866SOL    HW221498   2.134   4.963   0.187
 6867SOL     OW21499   2.402   2.620   6.588
 6867SOL    HW121500   2.328   2.591   6.527
 6867SOL    HW221501   2.373   2.700   6.640
 6868SOL     OW21502   3.581   4.947   3.266
 6868SOL    HW121503   3.489   4.927   3.234
 6868SOL    HW221504   3.648   4.913   3.199
 6869SOL     OW21505   1.961   0.819   5.752
 6869SOL    HW121506   2.043   0.795   5.805
 6869SOL    HW221507   1.926   0.907   5.784
 6870SOL     OW21508   5.636   2.512   6.479
 6870SOL    HW121509   5.661   2.516   6.383
 6870SOL    HW221510   5.574   2.435   6.495
 6871SOL     OW21511   6.734   3.000   2.645
 6871SOL    HW121512   6.758   3.067   2.575
 6871SOL    HW221513   6.735   2.908   2.607
 6872SOL     OW21514   1.365   4.213   1.178
 6872SOL    HW121515   1.326   4.296   1.137
 6872SOL    HW221516   1.352   4.136   1.115
 6873SOL     OW21517   0.411   4.141   2.737
 6873SOL    HW121518   0.481   4.102   2.798
 6873SOL    HW221519   0.329   4.162   2.791
 6874SOL     OW21520   4.436   6.382   2.350
 6874SOL    HW121521   4.407   6.338   2.435
 6874SOL    HW221522   4.484   6.467   2.372
 6875SOL     OW21523   2.707   0.937   0.178
 6875SOL    HW121524   2.708   0.938   0.278
 6875SOL    HW221525   2.622   0.980   0.146
 6876SOL     OW21526   5.237   5.230   3.293
 6876SOL    HW121527   5.317   5.256   3.240
 6876SOL    HW221528   5.227   5.130   3.291
 6877SOL     OW21529   0.717   4.407   1.664
 6877SOL    HW121530   0.659   4.335   1.703
 6877SOL    HW221531   0.813   4.383   1.678
 6878SOL     OW21532   2.360   0.597   4.692
 6878SOL    HW121533   2.305   0.523   4.656
 6878SOL    HW221534   2.341   0.681   4.641
 6879SOL     OW21535   1.415   1.796   1.214
 6879SOL    HW121536   1.375   1.874   1.165
 6879SOL    HW221537   1.513   1.811   1.226
 6880SOL     OW21538   1.917   6.184   0.745
 6880SOL    HW121539   1.849   6.111   0.752
 6880SOL    HW221540   1.898   6.239   0.664
 6881SOL     OW21541   7.004   3.527   0.436
 6881SOL    HW121542   6.960   3.443   0.405
 6881SOL    HW221543   0.062   3.504   0.494
 6882SOL     OW21544   2.995   6.761   0.297
 6882SOL    HW121545   2.965   6.670   0.271
 6882SOL    HW221546   2.984   6.773   0.396
 6883SOL     OW21547   5.211   0.785   1.423
 6883SOL    HW121548   5.131   0.770   1.481
 6883SOL    HW221549   5.189   0.851   1.352
 6884SOL     OW21550   2.121   4.797   3.730
 6884SOL    HW121551   2.194   4.732   3.754
 6884SOL    HW221552   2.162   4.881   3.695
 6885SOL     OW21553   5.792   4.737   4.738
 6885SOL    HW121554   5.743   4.755   4.824
 6885SOL    HW221555   5.872   4.681   4.756
 6886SOL     OW21556   5.375   3.471   0.130
 6886SOL    HW121557   5.355   3.569   0.127
 6886SOL    HW221558   5.294   3.421   0.161
 6887SOL     OW21559   5.649   5.987   5.745
 6887SOL    HW121560   5.698   6.061   5.792
 6887SOL    HW221561   5.550   6.002   5.754
 6888SOL     OW21562   6.525   3.930   6.935
 6888SOL    HW121563   6.481   4.017   6.957
 6888SOL    HW221564   6.462   3.855   6.953
 6889SOL     OW21565   6.778   2.108   5.484
 6889SOL    HW121566   6.726   2.136   5.403
 6889SOL    HW221567   6.764   2.011   5.501
 6890SOL     OW21568   4.937   4.435   4.139
 6890SOL    HW121569   4.899   4.498   4.071
 6890SOL    HW221570   4.929   4.475   4.230
 6891SOL     OW21571   1.659   1.911   0.902
 6891SOL    HW121572   1.683   1.965   0.984
 6891SOL    HW221573   1.743   1.882   0.856
 6892SOL     OW21574   2.519   0.894   5.117
 6892SOL    HW121575   2.578   0.941   5.183
 6892SOL    HW221576   2.568   0.883   5.031
 6893SOL     OW21577   6.082   2.571   0.375
 6893SOL    HW121578   6.178   2.581   0.399
 6893SOL    HW221579   6.056   2.644   0.311
 6894SOL     OW21580   5.336   4.947   6.944
 6894SOL    HW121581   5.429   4.955   6.906
 6894SOL    HW221582   5.336   4.881   7.018
 6895SOL     OW21583   1.059   5.502   2.319
 6895SOL    HW121584   1.028   5.546   2.234
 6895SOL    HW221585   1.033   5.559   2.397
 6896SOL     OW21586   5.280   1.086   5.912
 6896SOL    HW121587   5.211   1.016   5.892
 6896SOL    HW221588   5.354   1.046   5.966
 6897SOL     OW21589   4.339   2.707   5.349
 6897SOL    HW121590   4.260   2.672   5.299
 6897SOL    HW221591   4.383   2.779   5.295
 6898SOL     OW21592   1.741   6.792   1.385
 6898SOL    HW121593   1.778   6.740   1.462
 6898SOL    HW221594   1.816   6.839   1.338
 6899SOL     OW21595   5.403   5.511   2.375
 6899SOL    HW121596   5.447   5.508   2.285
 6899SOL    HW221597   5.464   5.556   2.440
 6900SOL     OW21598   6.736   3.764   4.584
 6900SOL    HW121599   6.709   3.821   4.661
 6900SOL    HW221600   6.735   3.818   4.500
 6901SOL     OW21601   4.918   4.991   5.854
 6901SOL    HW121602   4.926   4.900   5.895
 6901SOL    HW221603   5.009   5.027   5.833
 6902SOL     OW21604   0.284   5.637   5.514
 6902SOL    HW121605   0.225   5.698   5.462
 6902SOL    HW221606   0.229   5.575   5.570
 6903SOL     OW21607   1.823   6.144   5.276
 6903SOL    HW121608   1.820   6.109   5.183
 6903SOL    HW221609   1.857   6.073   5.338
 6904SOL     OW21610   0.466   0.444   5.615
 6904SOL    HW121611   0.447   0.415   5.709
 6904SOL    HW221612   0.556   0.410   5.587
 6905SOL     OW21613   4.693   5.807   5.603
 6905SOL    HW121614   4.764   5.877   5.613
 6905SOL    HW221615   4.702   5.740   5.677
 6906SOL     OW21616   2.784   0.777   3.774
 6906SOL    HW121617   2.700   0.723   3.762
 6906SOL    HW221618   2.791   0.807   3.869
 6907SOL     OW21619   5.948   2.021   1.054
 6907SOL    HW121620   5.859   1.996   1.092
 6907SOL    HW221621   5.937   2.098   0.991
 6908SOL     OW21622   3.766   5.742   0.417
 6908SOL    HW121623   3.731   5.783   0.501
 6908SOL    HW221624   3.838   5.800   0.379
 6909SOL     OW21625   5.889   4.138   2.060
 6909SOL    HW121626   5.793   4.165   2.073
 6909SOL    HW221627   5.893   4.060   1.997
 6910SOL     OW21628   1.048   2.730   2.390
 6910SOL    HW121629   1.049   2.716   2.291
 6910SOL    HW221630   0.955   2.749   2.421
 6911SOL     OW21631   2.816   6.450   5.541
 6911SOL    HW121632   2.784   6.361   5.509
 6911SOL    HW221633   2.738   6.510   5.559
 6912SOL     OW21634   3.361   4.189   0.070
 6912SOL    HW121635   3.294   4.116   0.059
 6912SOL    HW221636   3.350   4.256   7.017
 6913SOL     OW21637   4.018   5.792   5.766
 6913SOL    HW121638   4.073   5.835   5.838
 6913SOL    HW221639   4.069   5.715   5.727
 6914SOL     OW21640   6.431   2.404   2.595
 6914SOL    HW121641   6.442   2.503   2.597
 6914SOL    HW221642   6.338   2.381   2.566
 6915SOL     OW21643   0.494   3.405   3.423
 6915SOL    HW121644   0.402   3.441   3.442
 6915SOL    HW221645   0.529   3.361   3.505
 6916SOL     OW21646   4.524   6.299   5.734
 6916SOL    HW121647   4.603   6.300   5.673
 6916SOL    HW221648   4.473   6.214   5.721
 6917SOL     OW21649   3.743   6.223   2.006
 6917SOL    HW121650   3.753   6.150   2.073
 6917SOL    HW221651   3.668   6.284   2.032
 6918SOL     OW21652   1.812   3.334   0.438
 6918SOL    HW121653   1.712   3.326   0.439
 6918SOL    HW221654   1.850   3.290   0.519
 6919SOL     OW21655   6.259   6.120   3.080
 6919SOL    HW121656   6.334   6.103   3.017
 6919SOL    HW221657   6.176   6.076   3.046
 6920SOL     OW21658   6.874   2.331   5.636
 6920SOL    HW121659   6.849   2.419   5.595
 6920SOL    HW221660   6.851   2.257   5.573
 6921SOL     OW21661   3.240   0.128   4.392
 6921SOL    HW121662   3.247   0.077   4.306
 6921SOL    HW221663   3.148   0.117   4.430
 6922SOL     OW21664   2.894   5.202   6.695
 6922SOL    HW121665   2.908   5.125   6.757
 6922SOL    HW221666   2.964   5.272   6.713
 6923SOL     OW21667   5.062   6.905   3.001
 6923SOL    HW121668   5.039   6.986   2.946
 6923SOL    HW221669   5.107   6.837   2.942
 6924SOL     OW21670   3.368   5.306   1.776
 6924SOL    HW121671   3.298   5.320   1.706
 6924SOL    HW221672   3.374   5.388   1.833
 6925SOL     OW21673   5.730   6.681   4.751
 6925SOL    HW121674   5.824   6.695   4.718
 6925SOL    HW221675   5.732   6.625   4.834
 6926SOL     OW21676   2.886   2.352   0.326
 6926SOL    HW121677   2.976   2.362   0.285
 6926SOL    HW221678   2.893   2.362   0.426
 6927SOL     OW21679   3.386   0.289   6.450
 6927SOL    HW121680   3.461   0.318   6.510
 6927SOL    HW221681   3.302   0.282   6.503
 6928SOL     OW21682   3.578   5.656   0.210
 6928SOL    HW121683   3.623   5.665   0.299
 6928SOL    HW221684   3.627   5.713   0.143
 6929SOL     OW21685   4.861   4.671   2.727
 6929SOL    HW121686   4.892   4.578   2.747
 6929SOL    HW221687   4.923   4.713   2.661
 6930SOL     OW21688   1.038   6.414   1.911
 6930SOL    HW121689   1.045   6.344   1.982
 6930SOL    HW221690   1.032   6.504   1.953
 6931SOL     OW21691   3.164   3.112   1.149
 6931SOL    HW121692   3.238   3.055   1.186
 6931SOL    HW221693   3.076   3.069   1.169
 6932SOL     OW21694   4.575   0.240   6.544
 6932SOL    HW121695   4.508   0.228   6.618
 6932SOL    HW221696   4.550   0.319   6.489
 6933SOL     OW21697   2.920   6.229   5.881
 6933SOL    HW121698   2.821   6.225   5.893
 6933SOL    HW221699   2.942   6.280   5.798
 6934SOL     OW21700   5.175   5.350   6.952
 6934SOL    HW121701   5.269   5.318   6.943
 6934SOL    HW221702   5.168   5.414   0.008
 6935SOL     OW21703   4.096   5.977   1.865
 6935SOL    HW121704   4.065   5.907   1.801
 6935SOL    HW221705   4.111   6.063   1.816
 6936SOL     OW21706   1.025   1.936   6.674
 6936SOL    HW121707   1.115   1.950   6.716
 6936SOL    HW221708   0.961   2.005   6.708
 6937SOL     OW21709   5.752   5.016   0.412
 6937SOL    HW121710   5.725   4.982   0.322
 6937SOL    HW221711   5.851   5.026   0.416
 6938SOL     OW21712   3.223   0.371   4.696
 6938SOL    HW121713   3.301   0.391   4.637
 6938SOL    HW221714   3.139   0.375   4.642
 6939SOL     OW21715   5.549   2.896   3.441
 6939SOL    HW121716   5.606   2.925   3.364
 6939SOL    HW221717   5.520   2.801   3.427
 6940SOL     OW21718   2.708   6.604   1.226
 6940SOL    HW121719   2.630   6.620   1.287
 6940SOL    HW221720   2.690   6.523   1.170
 6941SOL     OW21721   3.593   3.042   2.530
 6941SOL    HW121722   3.652   3.021   2.608
 6941SOL    HW221723   3.531   2.965   2.513
 6942SOL     OW21724   6.591   4.758   3.146
 6942SOL    HW121725   6.532   4.803   3.213
 6942SOL    HW221726   6.603   4.818   3.067
 6943SOL     OW21727   3.960   4.922   5.887
 6943SOL    HW121728   4.054   4.888   5.877
 6943SOL    HW221729   3.898   4.865   5.833
 6944SOL     OW21730   0.498   4.616   4.843
 6944SOL    HW121731   0.414   4.635   4.792
 6944SOL    HW221732   0.577   4.649   4.792
 6945SOL     OW21733   4.808   1.781   0.663
 6945SOL    HW121734   4.761   1.760   0.578
 6945SOL    HW221735   4.785   1.713   0.733
 6946SOL     OW21736   5.746   6.013   2.276
 6946SOL    HW121737   5.658   5.993   2.232
 6946SOL    HW221738   5.810   6.050   2.209
 6947SOL     OW21739   6.148   4.014   5.414
 6947SOL    HW121740   6.201   4.002   5.330
 6947SOL    HW221741   6.160   4.107   5.449
 6948SOL     OW21742   6.771   4.098   0.008
 6948SOL    HW121743   6.681   4.139   0.000
 6948SOL    HW221744   6.770   4.007   6.988
 6949SOL     OW21745   3.220   1.252   3.024
 6949SOL    HW121746   3.316   1.266   3.000
 6949SOL    HW221747   3.195   1.157   3.007
 6950SOL     OW21748   2.050   0.924   3.610
 6950SOL    HW121749   2.029   0.846   3.551
 6950SOL    HW221750   2.007   1.006   3.574
 6951SOL     OW21751   1.169   3.553   6.866
 6951SOL    HW121752   1.203   3.507   6.784
 6951SOL    HW221753   1.144   3.485   6.935
 6952SOL     OW21754   3.960   5.892   3.428
 6952SOL    HW121755   3.983   5.820   3.362
 6952SOL    HW221756   4.043   5.920   3.477
 6953SOL     OW21757   0.115   0.843   2.092
 6953SOL    HW121758   0.091   0.777   2.021
 6953SOL    HW221759   0.038   0.853   2.155
 6954SOL     OW21760   6.844   4.298   6.149
 6954SOL    HW121761   6.878   4.303   6.055
 6954SOL    HW221762   6.918   4.320   6.212
 6955SOL     OW21763   4.317   5.731   2.813
 6955SOL    HW121764   4.274   5.786   2.883
 6955SOL    HW221765   4.251   5.710   2.741
 6956SOL     OW21766   5.405   5.288   1.351
 6956SOL    HW121767   5.333   5.220   1.340
 6956SOL    HW221768   5.486   5.259   1.301
 6957SOL     OW21769   6.097   5.008   5.158
 6957SOL    HW121770   6.026   4.939   5.142
 6957SOL    HW221771   6.126   5.003   5.254
 6958SOL     OW21772   3.222   3.626   2.432
 6958SOL    HW121773   3.240   3.534   2.397
 6958SOL    HW221774   3.214   3.623   2.532
 6959SOL     OW21775   1.378   4.706   2.576
 6959SOL    HW121776   1.282   4.733   2.586
 6959SOL    HW221777   1.416   4.680   2.665
 6960SOL     OW21778   4.955   4.841   1.376
 6960SOL    HW121779   5.009   4.771   1.330
 6960SOL    HW221780   4.910   4.898   1.308
 6961SOL     OW21781   5.163   2.715   5.131
 6961SOL    HW121782   5.083   2.671   5.091
 6961SOL    HW221783   5.216   2.760   5.059
 6962SOL     OW21784   2.757   6.116   0.395
 6962SOL    HW121785   2.689   6.132   0.323
 6962SOL    HW221786   2.841   6.165   0.373
 6963SOL     OW21787   0.738   6.457   6.482
 6963SOL    HW121788   0.786   6.530   6.532
 6963SOL    HW221789   0.678   6.407   6.544
 6964SOL     OW21790   2.081   1.696   4.855
 6964SOL    HW121791   2.054   1.780   4.903
 6964SOL    HW221792   2.124   1.633   4.920
 6965SOL     OW21793   1.954   1.340   0.270
 6965SOL    HW121794   1.919   1.263   0.216
 6965SOL    HW221795   1.955   1.423   0.215
 6966SOL     OW21796   1.541   6.659   1.025
 6966SOL    HW121797   1.466   6.713   0.986
 6966SOL    HW221798   1.521   6.637   1.120
 6967SOL     OW21799   3.657   0.359   6.899
 6967SOL    HW121800   3.681   0.431   6.963
 6967SOL    HW221801   3.736   0.299   6.885
 6968SOL     OW21802   3.178   0.170   3.025
 6968SOL    HW121803   3.233   0.149   2.944
 6968SOL    HW221804   3.105   0.233   3.000
 6969SOL     OW21805   1.786   3.008   2.645
 6969SOL    HW121806   1.755   2.961   2.729
 6969SOL    HW221807   1.877   2.976   2.621
 6970SOL     OW21808   3.152   5.931   5.377
 6970SOL    HW121809   3.181   5.884   5.460
 6970SOL    HW221810   3.198   5.891   5.298
 6971SOL     OW21811   6.092   3.727   6.588
 6971SOL    HW121812   6.065   3.674   6.508
 6971SOL    HW221813   6.190   3.716   6.603
 6972SOL     OW21814   5.686   3.814   1.371
 6972SOL    HW121815   5.728   3.775   1.453
 6972SOL    HW221816   5.712   3.910   1.363
 6973SOL     OW21817   0.992   1.372   2.911
 6973SOL    HW121818   1.032   1.335   2.996
 6973SOL    HW221819   0.974   1.297   2.848
 6974SOL     OW21820   4.147   3.442   2.822
 6974SOL    HW121821   4.135   3.415   2.726
 6974SOL    HW221822   4.103   3.531   2.836
 6975SOL     OW21823   2.591   5.547   4.940
 6975SOL    HW121824   2.512   5.573   4.885
 6975SOL    HW221825   2.615   5.452   4.922
 6976SOL     OW21826   4.350   5.293   6.241
 6976SOL    HW121827   4.384   5.387   6.229
 6976SOL    HW221828   4.318   5.258   6.153
 6977SOL     OW21829   5.078   4.518   2.470
 6977SOL    HW121830   5.000   4.460   2.446
 6977SOL    HW221831   5.054   4.614   2.455
 6978SOL     OW21832   0.980   4.162   0.897
 6978SOL    HW121833   0.923   4.233   0.939
 6978SOL    HW221834   0.967   4.076   0.945
 6979SOL     OW21835   1.353   3.644   2.877
 6979SOL    HW121836   1.256   3.663   2.892
 6979SOL    HW221837   1.363   3.557   2.829
 6980SOL     OW21838   2.186   4.732   2.864
 6980SOL    HW121839   2.120   4.802   2.890
 6980SOL    HW221840   2.254   4.721   2.936
 6981SOL     OW21841   4.597   2.910   6.871
 6981SOL    HW121842   4.692   2.919   6.841
 6981SOL    HW221843   4.590   2.937   6.967
 6982SOL     OW21844   6.685   0.440   1.600
 6982SOL    HW121845   6.657   0.394   1.685
 6982SOL    HW221846   6.780   0.472   1.610
 6983SOL     OW21847   6.536   0.015   4.297
 6983SOL    HW121848   6.454   0.072   4.310
 6983SOL    HW221849   6.617   0.073   4.295
 6984SOL     OW21850   1.932   4.471   3.610
 6984SOL    HW121851   2.025   4.505   3.599
 6984SOL    HW221852   1.872   4.516   3.544
 6985SOL     OW21853   5.278   2.853   0.677
 6985SOL    HW121854   5.281   2.915   0.600
 6985SOL    HW221855   5.332   2.891   0.753
 6986SOL     OW21856   3.954   5.181   5.877
 6986SOL    HW121857   3.958   5.082   5.861
 6986SOL    HW221858   3.877   5.202   5.937
 6987SOL     OW21859   6.934   0.994   6.384
 6987SOL    HW121860   6.896   0.955   6.468
 6987SOL    HW221861   6.901   1.088   6.374
 6988SOL     OW21862   2.281   1.137   6.106
 6988SOL    HW121863   2.363   1.192   6.123
 6988SOL    HW221864   2.279   1.109   6.011
 6989SOL     OW21865   0.499   4.151   2.278
 6989SOL    HW121866   0.592   4.186   2.291
 6989SOL    HW221867   0.501   4.078   2.208
 6990SOL     OW21868   3.677   4.117   7.008
 6990SOL    HW121869   3.728   4.179   6.949
 6990SOL    HW221870   3.607   4.070   6.955
 6991SOL     OW21871   5.751   4.111   3.252
 6991SOL    HW121872   5.734   4.028   3.305
 6991SOL    HW221873   5.711   4.189   3.299
 6992SOL     OW21874   1.773   5.167   6.692
 6992SOL    HW121875   1.825   5.143   6.611
 6992SOL    HW221876   1.705   5.237   6.669
 6993SOL     OW21877   4.216   2.386   1.689
 6993SOL    HW121878   4.130   2.423   1.655
 6993SOL    HW221879   4.198   2.317   1.759
 6994SOL     OW21880   3.021   1.098   3.154
 6994SOL    HW121881   2.958   1.042   3.208
 6994SOL    HW221882   3.039   1.184   3.202
 6995SOL     OW21883   0.554   4.115   0.271
 6995SOL    HW121884   0.579   4.097   0.366
 6995SOL    HW221885   0.632   4.095   0.212
 6996SOL     OW21886   0.698   1.315   6.500
 6996SOL    HW121887   0.610   1.352   6.468
 6996SOL    HW221888   0.767   1.388   6.498
 6997SOL     OW21889   6.313   6.354   5.860
 6997SOL    HW121890   6.319   6.454   5.856
 6997SOL    HW221891   6.236   6.328   5.918
 6998SOL     OW21892   0.604   0.155   0.564
 6998SOL    HW121893   0.684   0.167   0.506
 6998SOL    HW221894   0.633   0.142   0.659
 6999SOL     OW21895   6.521   2.701   0.024
 6999SOL    HW121896   6.453   2.648   0.076
 6999SOL    HW221897   6.569   2.640   6.981
 7000SOL     OW21898   0.801   5.272   3.701
 7000SOL    HW121899   0.821   5.264   3.799
 7000SOL    HW221900   0.712   5.229   3.681
 7001SOL     OW21901   0.216   1.351   3.934
 7001SOL    HW121902   0.221   1.379   4.030
 7001SOL    HW221903   0.293   1.390   3.884
 7002SOL     OW21904   0.998   4.677   2.422
 7002SOL    HW121905   0.948   4.739   2.361
 7002SOL    HW221906   0.946   4.593   2.435
 7003SOL     OW21907   0.574   5.133   6.632
 7003SOL    HW121908   0.549   5.223   6.668
 7003SOL    HW221909   0.491   5.087   6.598
 7004SOL     OW21910   1.943   0.317   6.468
 7004SOL    HW121911   1.901   0.324   6.377
 7004SOL    HW221912   2.026   0.261   6.462
 7005SOL     OW21913   1.747   5.483   0.504
 7005SOL    HW121914   1.765   5.484   0.602
 7005SOL    HW221915   1.769   5.393   0.467
 7006SOL     OW21916   0.753   0.864   3.799
 7006SOL    HW121917   0.807   0.919   3.863
 7006SOL    HW221918   0.685   0.811   3.851
 7007SOL     OW21919   1.841   0.226   6.162
 7007SOL    HW121920   1.928   0.275   6.149
 7007SOL    HW221921   1.768   0.273   6.113
 7008SOL     OW21922   5.079   3.005   3.226
 7008SOL    HW121923   5.121   2.915   3.216
 7008SOL    HW221924   5.100   3.042   3.316
 7009SOL     OW21925   5.276   5.847   1.856
 7009SOL    HW121926   5.277   5.938   1.897
 7009SOL    HW221927   5.336   5.846   1.776
 7010SOL     OW21928   5.304   3.274   3.073
 7010SOL    HW121929   5.308   3.274   2.973
 7010SOL    HW221930   5.381   3.222   3.109
 7011SOL     OW21931   2.606   6.813   6.097
 7011SOL    HW121932   2.602   6.827   5.998
 7011SOL    HW221933   2.639   6.897   6.141
 7012SOL     OW21934   0.260   3.727   0.600
 7012SOL    HW121935   0.172   3.761   0.636
 7012SOL    HW221936   0.269   3.754   0.504
 7013SOL     OW21937   3.499   2.756   0.226
 7013SOL    HW121938   3.547   2.756   0.138
 7013SOL    HW221939   3.403   2.731   0.211
 7014SOL     OW21940   6.198   3.192   0.079
 7014SOL    HW121941   6.268   3.245   0.030
 7014SOL    HW221942   6.207   3.096   0.056
 7015SOL     OW21943   6.058   6.417   0.927
 7015SOL    HW121944   5.998   6.384   0.999
 7015SOL    HW221945   6.154   6.401   0.953
 7016SOL     OW21946   3.322   4.756   1.023
 7016SOL    HW121947   3.299   4.810   0.942
 7016SOL    HW221948   3.388   4.806   1.079
 7017SOL     OW21949   5.924   4.407   6.453
 7017SOL    HW121950   5.868   4.476   6.499
 7017SOL    HW221951   6.006   4.451   6.415
 7018SOL     OW21952   5.638   3.626   5.120
 7018SOL    HW121953   5.716   3.653   5.177
 7018SOL    HW221954   5.553   3.657   5.163
 7019SOL     OW21955   3.999   5.479   2.281
 7019SOL    HW121956   4.013   5.495   2.379
 7019SOL    HW221957   4.016   5.564   2.231
 7020SOL     OW21958   0.734   2.111   0.105
 7020SOL    HW121959   0.665   2.090   0.174
 7020SOL    HW221960   0.695   2.174   0.037
 7021SOL     OW21961   1.045   1.700   4.809
 7021SOL    HW121962   0.950   1.672   4.805
 7021SOL    HW221963   1.102   1.621   4.835
 7022SOL     OW21964   2.125   3.740   1.027
 7022SOL    HW121965   2.046   3.749   1.088
 7022SOL    HW221966   2.196   3.805   1.053
 7023SOL     OW21967   0.167   1.654   0.766
 7023SOL    HW121968   0.216   1.582   0.814
 7023SOL    HW221969   0.123   1.715   0.833
 7024SOL     OW21970   3.377   3.789   5.500
 7024SOL    HW121971   3.410   3.761   5.410
 7024SOL    HW221972   3.295   3.846   5.489
 7025SOL     OW21973   3.430   0.879   1.089
 7025SOL    HW121974   3.504   0.938   1.057
 7025SOL    HW221975   3.432   0.793   1.039
 7026SOL     OW21976   3.014   2.293   1.110
 7026SOL    HW121977   3.089   2.229   1.098
 7026SOL    HW221978   3.021   2.336   1.200
 7027SOL     OW21979   3.168   4.865   1.472
 7027SOL    HW121980   3.254   4.901   1.508
 7027SOL    HW221981   3.108   4.839   1.547
 7028SOL     OW21982   3.156   0.131   3.464
 7028SOL    HW121983   3.194   0.171   3.381
 7028SOL    HW221984   3.136   0.203   3.530
 7029SOL     OW21985   3.416   4.097   3.165
 7029SOL    HW121986   3.514   4.112   3.180
 7029SOL    HW221987   3.375   4.180   3.127
 7030SOL     OW21988   6.271   0.027   5.235
 7030SOL    HW121989   6.256   0.114   5.189
 7030SOL    HW221990   6.273   6.974   5.168
 7031SOL     OW21991   5.002   5.412   0.979
 7031SOL    HW121992   4.905   5.389   0.983
 7031SOL    HW221993   5.040   5.414   1.071
 7032SOL     OW21994   4.187   5.072   4.686
 7032SOL    HW121995   4.193   5.083   4.786
 7032SOL    HW221996   4.141   4.986   4.665
 7033SOL     OW21997   1.978   1.841   5.349
 7033SOL    HW121998   1.938   1.932   5.356
 7033SOL    HW221999   2.034   1.836   5.266
 7034SOL     OW22000   6.857   1.813   2.183
 7034SOL    HW122001   6.865   1.913   2.178
 7034SOL    HW222002   6.925   1.778   2.248
 7035SOL     OW22003   2.547   2.070   1.464
 7035SOL    HW122004   2.490   2.119   1.530
 7035SOL    HW222005   2.545   1.972   1.484
 7036SOL     OW22006   6.135   1.799   1.662
 7036SOL    HW122007   6.090   1.888   1.676
 7036SOL    HW222008   6.138   1.779   1.564
 7037SOL     OW22009   1.595   0.571   6.535
 7037SOL    HW122010   1.563   0.476   6.537
 7037SOL    HW222011   1.691   0.574   6.562
 7038SOL     OW22012   0.476   4.387   0.368
 7038SOL    HW122013   0.548   4.318   0.357
 7038SOL    HW222014   0.439   4.410   0.278
 7039SOL     OW22015   6.219   0.163   1.532
 7039SOL    HW122016   6.206   0.079   1.584
 7039SOL    HW222017   6.174   0.154   1.443
 7040SOL     OW22018   5.495   3.169   5.537
 7040SOL    HW122019   5.523   3.082   5.579
 7040SOL    HW222020   5.573   3.209   5.489
 7041SOL     OW22021   1.035   0.511   3.718
 7041SOL    HW122022   1.058   0.423   3.759
 7041SOL    HW222023   1.103   0.535   3.649
 7042SOL     OW22024   5.974   6.260   4.969
 7042SOL    HW122025   5.943   6.175   5.011
 7042SOL    HW222026   5.960   6.336   5.032
 7043SOL     OW22027   2.140   5.978   0.642
 7043SOL    HW122028   2.141   6.058   0.583
 7043SOL    HW222029   2.116   6.004   0.735
 7044SOL     OW22030   4.520   6.372   5.338
 7044SOL    HW122031   4.513   6.414   5.247
 7044SOL    HW222032   4.511   6.443   5.408
 7045SOL     OW22033   5.955   6.752   1.803
 7045SOL    HW122034   5.919   6.669   1.844
 7045SOL    HW222035   5.963   6.823   1.874
 7046SOL     OW22036   2.793   1.305   2.949
 7046SOL    HW122037   2.733   1.333   2.873
 7046SOL    HW222038   2.789   1.374   3.021
 7047SOL     OW22039   1.394   6.901   0.989
 7047SOL    HW122040   1.312   6.931   1.037
 7047SOL    HW222041   1.473   6.951   1.022
 7048SOL     OW22042   0.163   5.767   3.873
 7048SOL    HW122043   0.078   5.716   3.888
 7048SOL    HW222044   0.235   5.704   3.846
 7049SOL     OW22045   3.313   1.365   4.654
 7049SOL    HW122046   3.292   1.329   4.745
 7049SOL    HW222047   3.298   1.463   4.652
 7050SOL     OW22048   4.151   4.310   1.241
 7050SOL    HW122049   4.195   4.221   1.243
 7050SOL    HW222050   4.063   4.304   1.195
 7051SOL     OW22051   1.429   1.275   2.277
 7051SOL    HW122052   1.422   1.214   2.357
 7051SOL    HW222053   1.349   1.334   2.273
 7052SOL     OW22054   5.280   2.602   2.773
 7052SOL    HW122055   5.314   2.693   2.799
 7052SOL    HW222056   5.180   2.602   2.773
 7053SOL     OW22057   1.179   5.027   3.688
 7053SOL    HW122058   1.230   5.073   3.615
 7053SOL    HW222059   1.244   4.990   3.755
 7054SOL     OW22060   5.678   6.932   0.114
 7054SOL    HW122061   5.622   6.970   0.187
 7054SOL    HW222062   5.740   7.003   0.079
 7055SOL     OW22063   2.415   0.365   0.805
 7055SOL    HW122064   2.457   0.453   0.783
 7055SOL    HW222065   2.321   0.363   0.770
 7056SOL     OW22066   6.914   5.553   0.767
 7056SOL    HW122067   6.855   5.596   0.835
 7056SOL    HW222068   6.865   5.480   0.721
 7057SOL     OW22069   3.476   5.512   4.513
 7057SOL    HW122070   3.479   5.464   4.600
 7057SOL    HW222071   3.567   5.548   4.492
 7058SOL     OW22072   6.333   2.363   6.016
 7058SOL    HW122073   6.353   2.452   6.057
 7058SOL    HW222074   6.351   2.366   5.918
 7059SOL     OW22075   1.907   0.677   5.247
 7059SOL    HW122076   1.905   0.679   5.347
 7059SOL    HW222077   1.858   0.596   5.214
 7060SOL     OW22078   3.113   2.283   1.700
 7060SOL    HW122079   3.212   2.283   1.717
 7060SOL    HW222080   3.074   2.369   1.734
 7061SOL     OW22081   1.966   0.805   1.400
 7061SOL    HW122082   2.017   0.724   1.426
 7061SOL    HW222083   2.018   0.887   1.425
 7062SOL     OW22084   3.719   0.815   4.751
 7062SOL    HW122085   3.641   0.773   4.704
 7062SOL    HW222086   3.750   0.894   4.698
 7063SOL     OW22087   0.125   1.029   1.887
 7063SOL    HW122088   0.125   0.959   1.959
 7063SOL    HW222089   0.192   1.100   1.909
 7064SOL     OW22090   2.956   1.242   5.448
 7064SOL    HW122091   2.892   1.165   5.450
 7064SOL    HW222092   2.938   1.303   5.526
 7065SOL     OW22093   3.694   6.522   4.559
 7065SOL    HW122094   3.739   6.545   4.645
 7065SOL    HW222095   3.642   6.601   4.526
 7066SOL     OW22096   3.486   0.794   1.392
 7066SOL    HW122097   3.468   0.786   1.294
 7066SOL    HW222098   3.515   0.888   1.412
 7067SOL     OW22099   2.068   4.526   6.492
 7067SOL    HW122100   2.025   4.591   6.555
 7067SOL    HW222101   2.034   4.434   6.511
 7068SOL     OW22102   5.173   4.578   4.206
 7068SOL    HW122103   5.108   4.539   4.141
 7068SOL    HW222104   5.212   4.504   4.262
 7069SOL     OW22105   4.685   0.562   5.176
 7069SOL    HW122106   4.684   0.661   5.166
 7069SOL    HW222107   4.776   0.532   5.206
 7070SOL     OW22108   0.168   0.972   5.721
 7070SOL    HW122109   0.267   0.965   5.729
 7070SOL    HW222110   0.144   1.003   5.629
 7071SOL     OW22111   4.154   5.593   6.432
 7071SOL    HW122112   4.250   5.599   6.402
 7071SOL    HW222113   4.148   5.621   6.527
 7072SOL     OW22114   0.864   3.869   6.475
 7072SOL    HW122115   0.941   3.926   6.503
 7072SOL    HW222116   0.851   3.877   6.376
 7073SOL     OW22117   4.461   1.090   3.889
 7073SOL    HW122118   4.401   1.043   3.824
 7073SOL    HW222119   4.407   1.127   3.964
 7074SOL     OW22120   6.100   3.698   1.821
 7074SOL    HW122121   6.035   3.766   1.852
 7074SOL    HW222122   6.193   3.728   1.843
 7075SOL     OW22123   2.412   5.369   2.107
 7075SOL    HW122124   2.346   5.294   2.100
 7075SOL    HW222125   2.363   5.455   2.123
 7076SOL     OW22126   6.140   2.066   1.339
 7076SOL    HW122127   6.191   1.980   1.350
 7076SOL    HW222128   6.150   2.099   1.245
 7077SOL     OW22129   3.757   6.157   1.353
 7077SOL    HW122130   3.818   6.214   1.408
 7077SOL    HW222131   3.810   6.088   1.304
 7078SOL     OW22132   6.937   1.692   6.396
 7078SOL    HW122133   6.996   1.747   6.454
 7078SOL    HW222134   6.849   1.678   6.442
 7079SOL     OW22135   1.998   5.338   5.050
 7079SOL    HW122136   1.998   5.331   5.150
 7079SOL    HW222137   1.994   5.246   5.011
 7080SOL     OW22138   4.033   1.643   5.941
 7080SOL    HW122139   3.983   1.679   6.020
 7080SOL    HW222140   4.126   1.681   5.940
 7081SOL     OW22141   2.108   6.251   0.430
 7081SOL    HW122142   2.020   6.295   0.450
 7081SOL    HW222143   2.183   6.314   0.450
 7082SOL     OW22144   0.749   4.585   2.306
 7082SOL    HW122145   0.762   4.674   2.263
 7082SOL    HW222146   0.664   4.584   2.358
 7083SOL     OW22147   5.200   3.123   2.785
 7083SOL    HW122148   5.273   3.168   2.734
 7083SOL    HW222149   5.131   3.087   2.721
 7084SOL     OW22150   1.148   5.024   0.507
 7084SOL    HW122151   1.059   5.033   0.552
 7084SOL    HW222152   1.213   5.086   0.551
 7085SOL     OW22153   0.403   4.005   2.499
 7085SOL    HW122154   0.398   4.046   2.590
 7085SOL    HW222155   0.429   4.074   2.432
 7086SOL     OW22156   4.563   0.817   3.311
 7086SOL    HW122157   4.481   0.788   3.359
 7086SOL    HW222158   4.638   0.827   3.377
 7087SOL     OW22159   5.440   2.876   3.754
 7087SOL    HW122160   5.346   2.854   3.780
 7087SOL    HW222161   5.439   2.942   3.679
 7088SOL     OW22162   5.927   2.760   4.811
 7088SOL    HW122163   5.966   2.743   4.720
 7088SOL    HW222164   5.905   2.673   4.855
 7089SOL     OW22165   3.240   5.645   1.215
 7089SOL    HW122166   3.213   5.600   1.130
 7089SOL    HW222167   3.166   5.703   1.247
 7090SOL     OW22168   4.535   3.015   0.987
 7090SOL    HW122169   4.564   2.934   0.936
 7090SOL    HW222170   4.588   3.094   0.958
 7091SOL     OW22171   6.254   0.406   6.508
 7091SOL    HW122172   6.264   0.504   6.490
 7091SOL    HW222173   6.200   0.393   6.591
 7092SOL     OW22174   4.210   0.173   6.477
 7092SOL    HW122175   4.196   0.213   6.386
 7092SOL    HW222176   4.230   0.076   6.467
 7093SOL     OW22177   3.970   3.147   0.566
 7093SOL    HW122178   3.913   3.066   0.579
 7093SOL    HW222179   3.912   3.228   0.558
 7094SOL     OW22180   4.517   1.004   4.663
 7094SOL    HW122181   4.436   0.956   4.631
 7094SOL    HW222182   4.511   1.018   4.762
 7095SOL     OW22183   2.550   4.551   3.922
 7095SOL    HW122184   2.499   4.469   3.947
 7095SOL    HW222185   2.572   4.603   4.005
 7096SOL     OW22186   6.791   5.725   0.439
 7096SOL    HW122187   6.867   5.786   0.461
 7096SOL    HW222188   6.711   5.752   0.492
 7097SOL     OW22189   4.745   1.993   3.016
 7097SOL    HW122190   4.687   1.926   2.968
 7097SOL    HW222191   4.841   1.967   3.004
 7098SOL     OW22192   0.689   1.262   2.585
 7098SOL    HW122193   0.612   1.279   2.647
 7098SOL    HW222194   0.698   1.339   2.522
 7099SOL     OW22195   3.711   1.987   4.591
 7099SOL    HW122196   3.643   2.008   4.661
 7099SOL    HW222197   3.680   1.910   4.535
 7100SOL     OW22198   0.298   4.295   1.818
 7100SOL    HW122199   0.267   4.341   1.735
 7100SOL    HW222200   0.250   4.207   1.827
 7101SOL     OW22201   2.596   5.202   4.021
 7101SOL    HW122202   2.604   5.294   3.982
 7101SOL    HW222203   2.608   5.134   3.949
 7102SOL     OW22204   5.132   1.235   2.957
 7102SOL    HW122205   5.074   1.279   3.026
 7102SOL    HW222206   5.083   1.157   2.918
 7103SOL     OW22207   5.753   4.037   3.871
 7103SOL    HW122208   5.670   4.009   3.919
 7103SOL    HW222209   5.804   4.102   3.928
 7104SOL     OW22210   5.206   2.929   4.561
 7104SOL    HW122211   5.273   2.916   4.488
 7104SOL    HW222212   5.234   3.005   4.620
 7105SOL     OW22213   3.366   4.048   2.187
 7105SOL    HW122214   3.301   4.120   2.161
 7105SOL    HW222215   3.428   4.083   2.257
 7106SOL     OW22216   3.046   2.170   2.305
 7106SOL    HW122217   2.999   2.252   2.271
 7106SOL    HW222218   3.048   2.100   2.233
 7107SOL     OW22219   3.984   0.998   6.832
 7107SOL    HW122220   3.887   1.008   6.811
 7107SOL    HW222221   4.026   0.934   6.768
 7108SOL     OW22222   3.649   0.009   1.957
 7108SOL    HW122223   3.697   6.945   1.979
 7108SOL    HW222224   3.585   7.013   1.882
 7109SOL     OW22225   3.155   4.785   5.755
 7109SOL    HW122226   3.079   4.781   5.690
 7109SOL    HW222227   3.210   4.867   5.736
 7110SOL     OW22228   2.602   6.069   5.714
 7110SOL    HW122229   2.632   5.974   5.713
 7110SOL    HW222230   2.507   6.075   5.682
 7111SOL     OW22231   6.945   1.046   4.821
 7111SOL    HW122232   6.968   0.968   4.879
 7111SOL    HW222233   6.888   1.111   4.872
 7112SOL     OW22234   6.685   4.890   5.524
 7112SOL    HW122235   6.695   4.987   5.546
 7112SOL    HW222236   6.719   4.834   5.600
 7113SOL     OW22237   3.203   6.826   5.110
 7113SOL    HW122238   3.274   6.896   5.105
 7113SOL    HW222239   3.137   6.851   5.181
 7114SOL     OW22240   5.242   4.207   0.591
 7114SOL    HW122241   5.329   4.216   0.542
 7114SOL    HW222242   5.171   4.179   0.527
 7115SOL     OW22243   4.831   2.814   5.796
 7115SOL    HW122244   4.740   2.777   5.778
 7115SOL    HW222245   4.878   2.756   5.863
 7116SOL     OW22246   6.724   5.305   4.761
 7116SOL    HW122247   6.792   5.236   4.787
 7116SOL    HW222248   6.640   5.290   4.813
 7117SOL     OW22249   4.547   0.441   2.926
 7117SOL    HW122250   4.594   0.369   2.977
 7117SOL    HW222251   4.505   0.505   2.991
 7118SOL     OW22252   4.623   4.101   5.937
 7118SOL    HW122253   4.696   4.035   5.957
 7118SOL    HW222254   4.632   4.180   5.998
 7119SOL     OW22255   2.924   6.500   4.502
 7119SOL    HW122256   2.946   6.556   4.422
 7119SOL    HW222257   2.862   6.426   4.476
 7120SOL     OW22258   4.382   1.492   1.650
 7120SOL    HW122259   4.444   1.466   1.724
 7120SOL    HW222260   4.436   1.516   1.569
 7121SOL     OW22261   0.894   6.133   2.302
 7121SOL    HW122262   0.945   6.209   2.261
 7121SOL    HW222263   0.803   6.164   2.328
 7122SOL     OW22264   3.364   2.049   6.261
 7122SOL    HW122265   3.361   2.051   6.161
 7122SOL    HW222266   3.276   2.079   6.297
 7123SOL     OW22267   4.918   4.591   6.568
 7123SOL    HW122268   5.008   4.622   6.538
 7123SOL    HW222269   4.926   4.503   6.615
 7124SOL     OW22270   2.743   2.885   6.950
 7124SOL    HW122271   2.756   2.798   6.902
 7124SOL    HW222272   2.715   2.867   0.024
 7125SOL     OW22273   0.927   6.683   1.730
 7125SOL    HW122274   0.840   6.642   1.756
 7125SOL    HW222275   0.981   6.618   1.677
 7126SOL     OW22276   4.267   5.133   1.117
 7126SOL    HW122277   4.256   5.054   1.177
 7126SOL    HW222278   4.180   5.153   1.071
 7127SOL     OW22279   3.042   6.625   5.566
 7127SOL    HW122280   2.973   6.553   5.562
 7127SOL    HW222281   3.120   6.593   5.618
 7128SOL     OW22282   3.320   4.263   0.326
 7128SOL    HW122283   3.343   4.247   0.230
 7128SOL    HW222284   3.389   4.323   0.367
 7129SOL     OW22285   0.060   0.668   0.025
 7129SOL    HW122286   0.022   0.660   6.953
 7129SOL    HW222287   0.159   0.683   0.019
 7130SOL     OW22288   3.527   0.418   4.246
 7130SOL    HW122289   3.479   0.440   4.161
 7130SOL    HW222290   3.583   0.496   4.273
 7131SOL     OW22291   2.548   1.541   2.494
 7131SOL    HW122292   2.482   1.615   2.491
 7131SOL    HW222293   2.517   1.466   2.436
 7132SOL     OW22294   5.339   4.346   1.630
 7132SOL    HW122295   5.259   4.299   1.666
 7132SOL    HW222296   5.316   4.441   1.609
 7133SOL     OW22297   4.107   6.001   2.695
 7133SOL    HW122298   4.032   5.938   2.676
 7133SOL    HW222299   4.126   6.001   2.794
 7134SOL     OW22300   4.794   5.029   0.048
 7134SOL    HW122301   4.731   5.074   7.006
 7134SOL    HW222302   4.877   5.002   7.020
 7135SOL     OW22303   1.984   4.591   1.588
 7135SOL    HW122304   1.929   4.510   1.608
 7135SOL    HW222305   2.078   4.563   1.568
 7136SOL     OW22306   1.282   2.699   1.789
 7136SOL    HW122307   1.251   2.633   1.721
 7136SOL    HW222308   1.379   2.718   1.775
 7137SOL     OW22309   2.295   0.610   2.268
 7137SOL    HW122310   2.379   0.557   2.256
 7137SOL    HW222311   2.235   0.594   2.190
 7138SOL     OW22312   6.725   3.188   6.891
 7138SOL    HW122313   6.670   3.214   6.812
 7138SOL    HW222314   6.791   3.261   6.912
 7139SOL     OW22315   6.154   5.479   1.062
 7139SOL    HW122316   6.177   5.511   1.154
 7139SOL    HW222317   6.187   5.545   0.994
 7140SOL     OW22318   0.254   5.329   0.378
 7140SOL    HW122319   0.277   5.237   0.410
 7140SOL    HW222320   0.220   5.384   0.454
 7141SOL     OW22321   3.429   1.213   1.023
 7141SOL    HW122322   3.445   1.141   0.956
 7141SOL    HW222323   3.403   1.298   0.976
 7142SOL     OW22324   4.675   6.975   5.818
 7142SOL    HW122325   4.734   6.909   5.770
 7142SOL    HW222326   4.611   6.925   5.877
 7143SOL     OW22327   3.182   3.044   5.839
 7143SOL    HW122328   3.156   3.071   5.932
 7143SOL    HW222329   3.269   2.995   5.842
 7144SOL     OW22330   6.400   1.148   5.592
 7144SOL    HW122331   6.330   1.173   5.525
 7144SOL    HW222332   6.382   1.197   5.678
 7145SOL     OW22333   6.460   2.708   5.704
 7145SOL    HW122334   6.447   2.801   5.671
 7145SOL    HW222335   6.489   2.650   5.628
 7146SOL     OW22336   0.022   1.673   4.484
 7146SOL    HW122337   6.949   1.692   4.515
 7146SOL    HW222338   0.061   1.599   4.539
 7147SOL     OW22339   6.787   6.906   1.137
 7147SOL    HW122340   6.766   6.810   1.156
 7147SOL    HW222341   6.848   6.911   1.058
 7148SOL     OW22342   5.479   6.811   0.704
 7148SOL    HW122343   5.489   6.851   0.796
 7148SOL    HW222344   5.544   6.856   0.642
 7149SOL     OW22345   5.706   4.411   6.175
 7149SOL    HW122346   5.745   4.325   6.210
 7149SOL    HW222347   5.780   4.471   6.144
 7150SOL     OW22348   3.115   2.345   0.208
 7150SOL    HW122349   3.161   2.316   0.292
 7150SOL    HW222350   3.137   2.280   0.135
 7151SOL     OW22351   5.571   1.736   6.939
 7151SOL    HW122352   5.605   1.829   6.923
 7151SOL    HW222353   5.626   1.693   7.011
 7152SOL     OW22354   4.997   0.087   5.568
 7152SOL    HW122355   4.950   0.072   5.481
 7152SOL    HW222356   5.006   7.020   5.616
 7153SOL     OW22357   4.539   5.949   0.631
 7153SOL    HW122358   4.465   5.978   0.692
 7153SOL    HW222359   4.621   5.931   0.685
 7154SOL     OW22360   5.208   0.782   1.978
 7154SOL    HW122361   5.141   0.713   2.007
 7154SOL    HW222362   5.276   0.795   2.050
 7155SOL     OW22363   2.296   6.967   1.193
 7155SOL    HW122364   2.314   6.961   1.094
 7155SOL    HW222365   2.335   0.032   1.228
 7156SOL     OW22366   6.196   3.480   5.201
 7156SOL    HW122367   6.130   3.405   5.202
 7156SOL    HW222368   6.235   3.490   5.110
 7157SOL     OW22369   6.920   3.576   5.516
 7157SOL    HW122370   6.946   3.558   5.421
 7157SOL    HW222371   6.902   3.490   5.563
 7158SOL     OW22372   5.194   0.368   3.649
 7158SOL    HW122373   5.128   0.440   3.628
 7158SOL    HW222374   5.266   0.367   3.579
 7159SOL     OW22375   0.382   6.514   3.244
 7159SOL    HW122376   0.293   6.547   3.278
 7159SOL    HW222377   0.399   6.422   3.279
 7160SOL     OW22378   5.821   6.932   2.757
 7160SOL    HW122379   5.879   6.995   2.808
 7160SOL    HW222380   5.854   6.925   2.663
 7161SOL     OW22381   3.774   3.655   2.259
 7161SOL    HW122382   3.724   3.638   2.344
 7161SOL    HW222383   3.711   3.693   2.190
 7162SOL     OW22384   0.413   6.419   0.516
 7162SOL    HW122385   0.327   6.367   0.521
 7162SOL    HW222386   0.477   6.370   0.457
 7163SOL     OW22387   6.700   0.071   0.159
 7163SOL    HW122388   6.762   0.143   0.128
 7163SOL    HW222389   6.735   7.003   0.130
 7164SOL     OW22390   1.762   0.036   0.338
 7164SOL    HW122391   1.854   0.074   0.329
 7164SOL    HW222392   1.742   0.019   0.435
 7165SOL     OW22393   4.587   2.141   6.288
 7165SOL    HW122394   4.515   2.080   6.321
 7165SOL    HW222395   4.600   2.216   6.352
 7166SOL     OW22396   6.709   5.956   5.148
 7166SOL    HW122397   6.635   5.966   5.081
 7166SOL    HW222398   6.686   5.882   5.211
 7167SOL     OW22399   0.717   3.305   5.739
 7167SOL    HW122400   0.774   3.228   5.768
 7167SOL    HW222401   0.640   3.270   5.685
 7168SOL     OW22402   1.420   0.706   2.635
 7168SOL    HW122403   1.378   0.747   2.554
 7168SOL    HW222404   1.350   0.693   2.705
 7169SOL     OW22405   1.874   4.620   6.316
 7169SOL    HW122406   1.954   4.599   6.372
 7169SOL    HW222407   1.792   4.581   6.358
 7170SOL     OW22408   3.704   2.069   1.263
 7170SOL    HW122409   3.793   2.032   1.235
 7170SOL    HW222410   3.717   2.137   1.335
 7171SOL     OW22411   0.150   4.761   0.883
 7171SOL    HW122412   0.237   4.717   0.859
 7171SOL    HW222413   0.081   4.692   0.901
 7172SOL     OW22414   1.003   2.518   3.471
 7172SOL    HW122415   1.099   2.505   3.447
 7172SOL    HW222416   0.986   2.616   3.486
 7173SOL     OW22417   3.492   5.412   4.767
 7173SOL    HW122418   3.579   5.414   4.816
 7173SOL    HW222419   3.418   5.432   4.832
 7174SOL     OW22420   6.560   3.821   2.179
 7174SOL    HW122421   6.497   3.784   2.110
 7174SOL    HW222422   6.580   3.751   2.248
 7175SOL     OW22423   6.732   3.300   5.900
 7175SOL    HW122424   6.814   3.244   5.915
 7175SOL    HW222425   6.658   3.241   5.867
 7176SOL     OW22426   0.185   1.301   6.523
 7176SOL    HW122427   0.214   1.261   6.611
 7176SOL    HW222428   0.114   1.369   6.539
 7177SOL     OW22429   1.047   5.367   3.259
 7177SOL    HW122430   1.029   5.427   3.182
 7177SOL    HW222431   0.995   5.399   3.339
 7178SOL     OW22432   1.329   6.468   5.961
 7178SOL    HW122433   1.429   6.469   5.967
 7178SOL    HW222434   1.296   6.377   5.985
 7179SOL     OW22435   4.737   4.626   6.035
 7179SOL    HW122436   4.735   4.671   5.946
 7179SOL    HW222437   4.819   4.653   6.085
 7180SOL     OW22438   0.995   2.725   2.128
 7180SOL    HW122439   0.930   2.653   2.104
 7180SOL    HW222440   0.951   2.814   2.118
 7181SOL     OW22441   3.263   0.647   0.461
 7181SOL    HW122442   3.251   0.588   0.381
 7181SOL    HW222443   3.360   0.669   0.472
 7182SOL     OW22444   1.930   1.035   3.190
 7182SOL    HW122445   2.024   0.999   3.187
 7182SOL    HW222446   1.923   1.116   3.131
 7183SOL     OW22447   1.351   6.937   1.529
 7183SOL    HW122448   1.427   6.997   1.505
 7183SOL    HW222449   1.375   6.882   1.609
 7184SOL     OW22450   0.037   0.914   3.759
 7184SOL    HW122451   0.135   0.915   3.742
 7184SOL    HW222452   0.017   0.857   3.838
 7185SOL     OW22453   4.166   0.580   3.651
 7185SOL    HW122454   4.213   0.536   3.728
 7185SOL    HW222455   4.151   0.513   3.578
 7186SOL     OW22456   6.989   1.427   6.335
 7186SOL    HW122457   7.019   1.522   6.323
 7186SOL    HW222458   6.990   1.403   6.432
 7187SOL     OW22459   3.238   3.594   4.023
 7187SOL    HW122460   3.182   3.536   4.082
 7187SOL    HW222461   3.283   3.665   4.078
 7188SOL     OW22462   5.295   4.736   0.117
 7188SOL    HW122463   5.306   4.735   0.216
 7188SOL    HW222464   5.217   4.680   0.090
 7189SOL     OW22465   7.009   2.376   6.025
 7189SOL    HW122466   6.929   2.343   5.975
 7189SOL    HW222467   7.014   2.331   6.114
 7190SOL     OW22468   6.195   5.633   0.388
 7190SOL    HW122469   6.196   5.556   0.323
 7190SOL    HW222470   6.105   5.639   0.430
 7191SOL     OW22471   0.098   5.333   2.314
 7191SOL    HW122472   0.106   5.363   2.409
 7191SOL    HW222473   0.159   5.387   2.256
 7192SOL     OW22474   2.862   3.889   5.117
 7192SOL    HW122475   2.838   3.903   5.213
 7192SOL    HW222476   2.781   3.897   5.060
 7193SOL     OW22477   3.616   1.322   3.859
 7193SOL    HW122478   3.667   1.240   3.832
 7193SOL    HW222479   3.655   1.401   3.812
 7194SOL     OW22480   3.410   2.255   5.616
 7194SOL    HW122481   3.403   2.292   5.709
 7194SOL    HW222482   3.330   2.198   5.597
 7195SOL     OW22483   0.712   3.771   6.239
 7195SOL    HW122484   0.716   3.871   6.249
 7195SOL    HW222485   0.732   3.746   6.144
 7196SOL     OW22486   3.067   3.593   1.703
 7196SOL    HW122487   3.111   3.655   1.639
 7196SOL    HW222488   2.991   3.640   1.749
 7197SOL     OW22489   3.448   5.032   6.626
 7197SOL    HW122490   3.430   5.122   6.586
 7197SOL    HW222491   3.386   5.017   6.703
 7198SOL     OW22492   1.238   0.411   1.898
 7198SOL    HW122493   1.250   0.371   1.988
 7198SOL    HW222494   1.187   0.347   1.840
 7199SOL     OW22495   6.058   0.915   3.409
 7199SOL    HW122496   6.057   0.947   3.314
 7199SOL    HW222497   6.135   0.853   3.422
 7200SOL     OW22498   0.948   3.292   6.707
 7200SOL    HW122499   0.862   3.342   6.699
 7200SOL    HW222500   0.987   3.307   6.798
 7201SOL     OW22501   5.924   6.182   4.011
 7201SOL    HW122502   5.827   6.158   4.015
 7201SOL    HW222503   5.979   6.105   4.044
 7202SOL     OW22504   4.689   0.518   5.783
 7202SOL    HW122505   4.718   0.543   5.690
 7202SOL    HW222506   4.710   0.593   5.846
 7203SOL     OW22507   0.720   1.796   0.818
 7203SOL    HW122508   0.636   1.846   0.840
 7203SOL    HW222509   0.790   1.859   0.786
 7204SOL     OW22510   5.966   0.974   2.947
 7204SOL    HW122511   5.877   0.930   2.941
 7204SOL    HW222512   5.998   0.999   2.855
 7205SOL     OW22513   2.954   1.278   4.171
 7205SOL    HW122514   2.944   1.278   4.071
 7205SOL    HW222515   3.010   1.355   4.199
 7206SOL     OW22516   2.290   3.136   6.681
 7206SOL    HW122517   2.373   3.181   6.712
 7206SOL    HW222518   2.222   3.136   6.755
 7207SOL     OW22519   1.427   1.243   2.783
 7207SOL    HW122520   1.522   1.268   2.765
 7207SOL    HW222521   1.396   1.289   2.867
 7208SOL     OW22522   3.524   0.378   3.773
 7208SOL    HW122523   3.527   0.453   3.706
 7208SOL    HW222524   3.465   0.306   3.738
 7209SOL     OW22525   3.819   0.941   2.414
 7209SOL    HW122526   3.789   0.989   2.496
 7209SOL    HW222527   3.744   0.884   2.380
 7210SOL     OW22528   3.738   1.475   4.275
 7210SOL    HW122529   3.709   1.496   4.368
 7210SOL    HW222530   3.836   1.488   4.266
 7211SOL     OW22531   3.912   6.306   5.793
 7211SOL    HW122532   3.812   6.306   5.789
 7211SOL    HW222533   3.946   6.393   5.758
 7212SOL     OW22534   0.734   5.706   5.454
 7212SOL    HW122535   0.829   5.736   5.463
 7212SOL    HW222536   0.680   5.744   5.529
 7213SOL     OW22537   4.546   2.856   0.365
 7213SOL    HW122538   4.545   2.937   0.423
 7213SOL    HW222539   4.469   2.860   0.301
 7214SOL     OW22540   6.172   1.184   6.235
 7214SOL    HW122541   6.160   1.141   6.325
 7214SOL    HW222542   6.270   1.197   6.218
 7215SOL     OW22543   6.424   1.623   2.660
 7215SOL    HW122544   6.401   1.530   2.632
 7215SOL    HW222545   6.378   1.689   2.601
 7216SOL     OW22546   5.521   6.773   3.860
 7216SOL    HW122547   5.424   6.798   3.860
 7216SOL    HW222548   5.575   6.846   3.901
 7217SOL     OW22549   1.088   3.171   3.276
 7217SOL    HW122550   1.104   3.099   3.209
 7217SOL    HW222551   1.104   3.260   3.234
 7218SOL     OW22552   6.542   2.455   5.039
 7218SOL    HW122553   6.459   2.447   5.094
 7218SOL    HW222554   6.582   2.365   5.025
 7219SOL     OW22555   2.572   6.273   2.036
 7219SOL    HW122556   2.628   6.235   1.963
 7219SOL    HW222557   2.582   6.216   2.118
 7220SOL     OW22558   6.577   3.939   3.549
 7220SOL    HW122559   6.676   3.947   3.539
 7220SOL    HW222560   6.544   4.011   3.611
 7221SOL     OW22561   4.171   5.037   3.454
 7221SOL    HW122562   4.118   5.061   3.373
 7221SOL    HW222563   4.116   4.981   3.515
 7222SOL     OW22564   6.859   5.879   4.361
 7222SOL    HW122565   6.844   5.977   4.358
 7222SOL    HW222566   6.854   5.841   4.269
 7223SOL     OW22567   6.720   5.629   1.917
 7223SOL    HW122568   6.811   5.587   1.910
 7223SOL    HW222569   6.655   5.561   1.949
 7224SOL     OW22570   4.674   2.330   2.762
 7224SOL    HW122571   4.618   2.257   2.723
 7224SOL    HW222572   4.633   2.419   2.741
 7225SOL     OW22573   0.792   5.770   0.498
 7225SOL    HW122574   0.760   5.849   0.445
 7225SOL    HW222575   0.713   5.722   0.535
 7226SOL     OW22576   5.734   6.248   0.168
 7226SOL    HW122577   5.807   6.237   0.235
 7226SOL    HW222578   5.733   6.342   0.134
 7227SOL     OW22579   1.922   0.938   2.147
 7227SOL    HW122580   1.959   0.888   2.225
 7227SOL    HW222581   1.845   0.995   2.177
 7228SOL     OW22582   5.748   3.162   2.601
 7228SOL    HW122583   5.738   3.119   2.512
 7228SOL    HW222584   5.657   3.184   2.637
 7229SOL     OW22585   5.854   7.013   4.969
 7229SOL    HW122586   5.861   0.090   4.946
 7229SOL    HW222587   5.870   6.958   4.886
 7230SOL     OW22588   2.207   5.209   4.753
 7230SOL    HW122589   2.298   5.193   4.790
 7230SOL    HW222590   2.139   5.169   4.814
 7231SOL     OW22591   4.018   3.556   6.162
 7231SOL    HW122592   3.990   3.634   6.105
 7231SOL    HW222593   4.118   3.547   6.158
 7232SOL     OW22594   4.188   6.018   3.537
 7232SOL    HW122595   4.147   6.080   3.604
 7232SOL    HW222596   4.276   6.055   3.506
 7233SOL     OW22597   0.470   1.386   6.197
 7233SOL    HW122598   0.462   1.427   6.288
 7233SOL    HW222599   0.382   1.347   6.171
 7234SOL     OW22600   5.239   4.952   3.292
 7234SOL    HW122601   5.298   4.889   3.242
 7234SOL    HW222602   5.218   4.913   3.382
 7235SOL     OW22603   6.366   0.668   1.866
 7235SOL    HW122604   6.351   0.571   1.852
 7235SOL    HW222605   6.281   0.712   1.895
 7236SOL     OW22606   1.318   3.790   3.106
 7236SOL    HW122607   1.381   3.736   3.050
 7236SOL    HW222608   1.264   3.730   3.164
 7237SOL     OW22609   5.372   1.545   0.010
 7237SOL    HW122610   5.412   1.486   0.081
 7237SOL    HW222611   5.440   1.611   6.999
 7238SOL     OW22612   4.157   3.663   0.040
 7238SOL    HW122613   4.183   3.687   6.967
 7238SOL    HW222614   4.228   3.606   0.081
 7239SOL     OW22615   5.579   2.504   1.837
 7239SOL    HW122616   5.656   2.556   1.799
 7239SOL    HW222617   5.547   2.437   1.769
 7240SOL     OW22618   0.246   1.432   0.175
 7240SOL    HW122619   0.273   1.419   0.270
 7240SOL    HW222620   0.300   1.505   0.134
 7241SOL     OW22621   1.774   6.770   2.534
 7241SOL    HW122622   1.684   6.777   2.490
 7241SOL    HW222623   1.767   6.801   2.629
 7242SOL     OW22624   6.361   4.660   5.312
 7242SOL    HW122625   6.365   4.704   5.402
 7242SOL    HW222626   6.430   4.588   5.308
 7243SOL     OW22627   5.482   4.642   6.210
 7243SOL    HW122628   5.484   4.689   6.122
 7243SOL    HW222629   5.479   4.543   6.195
 7244SOL     OW22630   6.606   5.844   6.912
 7244SOL    HW122631   6.658   5.840   6.998
 7244SOL    HW222632   6.512   5.814   6.928
 7245SOL     OW22633   1.273   2.873   0.098
 7245SOL    HW122634   1.285   2.835   0.006
 7245SOL    HW222635   1.324   2.818   0.163
 7246SOL     OW22636   4.071   0.021   3.434
 7246SOL    HW122637   4.020   0.043   3.351
 7246SOL    HW222638   4.018   0.049   3.514
 7247SOL     OW22639   3.118   3.838   4.360
 7247SOL    HW122640   3.079   3.877   4.277
 7247SOL    HW222641   3.214   3.814   4.345
 7248SOL     OW22642   2.844   1.689   5.597
 7248SOL    HW122643   2.881   1.698   5.690
 7248SOL    HW222644   2.908   1.730   5.532
 7249SOL     OW22645   3.191   5.745   2.959
 7249SOL    HW122646   3.236   5.806   2.894
 7249SOL    HW222647   3.128   5.798   3.016
 7250SOL     OW22648   5.703   5.350   5.709
 7250SOL    HW122649   5.621   5.363   5.763
 7250SOL    HW222650   5.679   5.309   5.621
 7251SOL     OW22651   0.998   5.306   4.254
 7251SOL    HW122652   0.943   5.387   4.276
 7251SOL    HW222653   1.052   5.281   4.334
 7252SOL     OW22654   4.100   3.628   2.093
 7252SOL    HW122655   4.057   3.558   2.036
 7252SOL    HW222656   4.193   3.600   2.116
 7253SOL     OW22657   2.049   5.291   4.550
 7253SOL    HW122658   1.981   5.350   4.593
 7253SOL    HW222659   2.112   5.256   4.619
 7254SOL     OW22660   6.561   3.833   3.832
 7254SOL    HW122661   6.507   3.750   3.852
 7254SOL    HW222662   6.502   3.901   3.789
 7255SOL     OW22663   4.688   4.037   0.054
 7255SOL    HW122664   4.776   4.046   0.102
 7255SOL    HW222665   4.614   4.036   0.120
 7256SOL     OW22666   3.281   7.001   4.156
 7256SOL    HW122667   3.357   0.039   4.127
 7256SOL    HW222668   3.222   6.981   4.078
 7257SOL     OW22669   0.925   1.315   4.991
 7257SOL    HW122670   0.846   1.367   5.024
 7257SOL    HW222671   0.932   1.324   4.892
 7258SOL     OW22672   6.329   2.624   1.977
 7258SOL    HW122673   6.425   2.623   2.005
 7258SOL    HW222674   6.321   2.659   1.884
 7259SOL     OW22675   1.527   3.834   2.542
 7259SOL    HW122676   1.457   3.861   2.608
 7259SOL    HW222677   1.486   3.778   2.471
 7260SOL     OW22678   6.113   3.206   0.791
 7260SOL    HW122679   6.202   3.162   0.806
 7260SOL    HW222680   6.063   3.209   0.878
 7261SOL     OW22681   6.783   3.882   6.864
 7261SOL    HW122682   6.683   3.881   6.863
 7261SOL    HW222683   6.817   3.801   6.912
 7262SOL     OW22684   4.802   1.257   4.814
 7262SOL    HW122685   4.756   1.287   4.730
 7262SOL    HW222686   4.899   1.279   4.808
 7263SOL     OW22687   6.802   5.400   5.669
 7263SOL    HW122688   6.827   5.448   5.754
 7263SOL    HW222689   6.772   5.466   5.601
 7264SOL     OW22690   5.777   1.539   1.721
 7264SOL    HW122691   5.838   1.592   1.781
 7264SOL    HW222692   5.808   1.548   1.627
 7265SOL     OW22693   3.971   0.663   5.599
 7265SOL    HW122694   3.941   0.755   5.622
 7265SOL    HW222695   3.908   0.596   5.638
 7266SOL     OW22696   0.375   0.514   2.963
 7266SOL    HW122697   0.338   0.598   3.003
 7266SOL    HW222698   0.307   0.441   2.970
 7267SOL     OW22699   6.685   4.207   4.236
 7267SOL    HW122700   6.721   4.123   4.278
 7267SOL    HW222701   6.723   4.287   4.283
 7268SOL     OW22702   6.126   6.575   4.059
 7268SOL    HW122703   6.119   6.575   4.159
 7268SOL    HW222704   6.035   6.565   4.019
 7269SOL     OW22705   2.626   4.739   4.360
 7269SOL    HW122706   2.707   4.688   4.389
 7269SOL    HW222707   2.561   4.743   4.435
 7270SOL     OW22708   0.881   0.134   4.723
 7270SOL    HW122709   0.848   0.201   4.657
 7270SOL    HW222710   0.803   0.087   4.765
 7271SOL     OW22711   0.552   4.988   3.159
 7271SOL    HW122712   0.486   4.913   3.159
 7271SOL    HW222713   0.613   4.978   3.238
 7272SOL     OW22714   6.382   3.863   1.666
 7272SOL    HW122715   6.424   3.932   1.607
 7272SOL    HW222716   6.314   3.907   1.725
 7273SOL     OW22717   0.767   1.523   5.524
 7273SOL    HW122718   0.672   1.535   5.554
 7273SOL    HW222719   0.794   1.601   5.467
 7274SOL     OW22720   0.433   5.248   6.098
 7274SOL    HW122721   0.390   5.297   6.023
 7274SOL    HW222722   0.523   5.289   6.118
 7275SOL     OW22723   0.783   5.858   3.820
 7275SOL    HW122724   0.833   5.802   3.887
 7275SOL    HW222725   0.847   5.890   3.751
 7276SOL     OW22726   4.464   6.124   3.492
 7276SOL    HW122727   4.560   6.123   3.464
 7276SOL    HW222728   4.446   6.208   3.543
 7277SOL     OW22729   4.691   0.987   0.448
 7277SOL    HW122730   4.592   0.973   0.453
 7277SOL    HW222731   4.731   0.923   0.382
 7278SOL     OW22732   3.428   2.846   2.378
 7278SOL    HW122733   3.515   2.831   2.332
 7278SOL    HW222734   3.362   2.885   2.313
 7279SOL     OW22735   3.512   6.949   6.372
 7279SOL    HW122736   3.428   6.895   6.377
 7279SOL    HW222737   3.491   0.021   6.339
 7280SOL     OW22738   4.948   1.680   5.881
 7280SOL    HW122739   4.918   1.687   5.786
 7280SOL    HW222740   4.883   1.728   5.940
 7281SOL     OW22741   5.515   1.142   6.259
 7281SOL    HW122742   5.601   1.191   6.249
 7281SOL    HW222743   5.439   1.205   6.240
 7282SOL     OW22744   5.848   6.208   2.067
 7282SOL    HW122745   5.927   6.269   2.070
 7282SOL    HW222746   5.766   6.258   2.092
 7283SOL     OW22747   2.364   1.006   3.947
 7283SOL    HW122748   2.299   1.060   4.001
 7283SOL    HW222749   2.445   1.061   3.926
 7284SOL     OW22750   1.073   1.870   5.282
 7284SOL    HW122751   1.138   1.830   5.217
 7284SOL    HW222752   1.123   1.914   5.357
 7285SOL     OW22753   5.809   4.684   1.573
 7285SOL    HW122754   5.890   4.739   1.592
 7285SOL    HW222755   5.825   4.589   1.599
 7286SOL     OW22756   2.187   4.257   0.666
 7286SOL    HW122757   2.133   4.173   0.667
 7286SOL    HW222758   2.161   4.312   0.587
 7287SOL     OW22759   5.957   1.399   5.571
 7287SOL    HW122760   5.926   1.483   5.615
 7287SOL    HW222761   5.929   1.320   5.625
 7288SOL     OW22762   2.776   6.945   0.207
 7288SOL    HW122763   2.797   0.022   0.216
 7288SOL    HW222764   2.856   6.891   0.234
 7289SOL     OW22765   5.129   2.213   4.341
 7289SOL    HW122766   5.083   2.298   4.315
 7289SOL    HW222767   5.111   2.193   4.438
 7290SOL     OW22768   2.778   5.840   4.698
 7290SOL    HW122769   2.801   5.745   4.722
 7290SOL    HW222770   2.816   5.902   4.766
 7291SOL     OW22771   3.513   4.852   1.428
 7291SOL    HW122772   3.484   4.945   1.451
 7291SOL    HW222773   3.491   4.833   1.333
 7292SOL     OW22774   3.153   6.944   4.843
 7292SOL    HW122775   3.082   6.902   4.786
 7292SOL    HW222776   3.213   6.873   4.880
 7293SOL     OW22777   1.941   1.745   6.620
 7293SOL    HW122778   1.959   1.739   6.718
 7293SOL    HW222779   2.018   1.788   6.574
 7294SOL     OW22780   4.903   5.547   0.411
 7294SOL    HW122781   4.929   5.463   0.363
 7294SOL    HW222782   4.894   5.621   0.344
 7295SOL     OW22783   5.185   0.275   1.371
 7295SOL    HW122784   5.245   0.349   1.404
 7295SOL    HW222785   5.220   0.187   1.403
 7296SOL     OW22786   4.262   5.210   1.877
 7296SOL    HW122787   4.326   5.257   1.816
 7296SOL    HW222788   4.170   5.215   1.840
 7297SOL     OW22789   5.283   6.748   2.313
 7297SOL    HW122790   5.305   6.839   2.277
 7297SOL    HW222791   5.336   6.732   2.397
 7298SOL     OW22792   6.550   3.566   4.113
 7298SOL    HW122793   6.508   3.480   4.142
 7298SOL    HW222794   6.569   3.562   4.015
 7299SOL     OW22795   5.365   3.729   6.290
 7299SOL    HW122796   5.372   3.806   6.225
 7299SOL    HW222797   5.272   3.693   6.288
 7300SOL     OW22798   4.763   5.378   1.546
 7300SOL    HW122799   4.766   5.281   1.568
 7300SOL    HW222800   4.750   5.431   1.630
 7301SOL     OW22801   6.522   1.422   6.208
 7301SOL    HW122802   6.531   1.353   6.281
 7301SOL    HW222803   6.446   1.483   6.229
 7302SOL     OW22804   5.528   0.859   6.406
 7302SOL    HW122805   5.443   0.849   6.459
 7302SOL    HW222806   5.574   0.771   6.400
 7303SOL     OW22807   3.673   0.489   0.715
 7303SOL    HW122808   3.763   0.502   0.673
 7303SOL    HW222809   3.683   0.433   0.797
 7304SOL     OW22810   3.735   3.603   5.273
 7304SOL    HW122811   3.766   3.520   5.319
 7304SOL    HW222812   3.641   3.624   5.301
 7305SOL     OW22813   5.383   1.536   0.426
 7305SOL    HW122814   5.296   1.487   0.420
 7305SOL    HW222815   5.433   1.507   0.507
 7306SOL     OW22816   4.888   4.848   1.991
 7306SOL    HW122817   4.926   4.759   2.017
 7306SOL    HW222818   4.801   4.861   2.038
 7307SOL     OW22819   4.129   6.309   2.376
 7307SOL    HW122820   4.143   6.228   2.319
 7307SOL    HW222821   4.211   6.325   2.431
 7308SOL     OW22822   6.141   0.885   3.982
 7308SOL    HW122823   6.149   0.960   3.916
 7308SOL    HW222824   6.197   0.904   4.062
 7309SOL     OW22825   4.503   5.457   2.214
 7309SOL    HW122826   4.438   5.495   2.280
 7309SOL    HW222827   4.542   5.531   2.160
 7310SOL     OW22828   2.044   5.813   1.645
 7310SOL    HW122829   1.970   5.746   1.641
 7310SOL    HW222830   2.097   5.800   1.729
 7311SOL     OW22831   2.764   2.090   2.200
 7311SOL    HW122832   2.825   2.169   2.188
 7311SOL    HW222833   2.709   2.103   2.283
 7312SOL     OW22834   0.218   2.099   6.017
 7312SOL    HW122835   0.195   2.047   6.099
 7312SOL    HW222836   0.136   2.142   5.981
 7313SOL     OW22837   3.460   2.453   6.244
 7313SOL    HW122838   3.511   2.419   6.165
 7313SOL    HW222839   3.436   2.549   6.229
 7314SOL     OW22840   1.280   2.673   4.651
 7314SOL    HW122841   1.262   2.576   4.662
 7314SOL    HW222842   1.328   2.689   4.565
 7315SOL     OW22843   0.085   0.685   5.786
 7315SOL    HW122844   0.087   0.778   5.824
 7315SOL    HW222845   0.151   0.679   5.711
 7316SOL     OW22846   4.087   3.312   5.146
 7316SOL    HW122847   4.093   3.308   5.046
 7316SOL    HW222848   3.992   3.297   5.174
 7317SOL     OW22849   3.194   1.206   3.808
 7317SOL    HW122850   3.270   1.196   3.873
 7317SOL    HW222851   3.165   1.116   3.777
 7318SOL     OW22852   1.689   1.793   1.318
 7318SOL    HW122853   1.689   1.737   1.401
 7318SOL    HW222854   1.726   1.740   1.242
 7319SOL     OW22855   0.224   4.193   6.010
 7319SOL    HW122856   0.297   4.136   5.971
 7319SOL    HW222857   0.258   4.286   6.020
 7320SOL     OW22858   6.890   2.395   2.641
 7320SOL    HW122859   6.823   2.393   2.567
 7320SOL    HW222860   6.918   2.302   2.663
 7321SOL     OW22861   2.594   1.510   4.425
 7321SOL    HW122862   2.655   1.439   4.388
 7321SOL    HW222863   2.522   1.467   4.479
 7322SOL     OW22864   0.450   3.410   1.755
 7322SOL    HW122865   0.466   3.454   1.843
 7322SOL    HW222866   0.493   3.319   1.755
 7323SOL     OW22867   2.233   4.006   3.200
 7323SOL    HW122868   2.213   4.023   3.297
 7323SOL    HW222869   2.330   4.022   3.183
 7324SOL     OW22870   5.012   5.695   2.561
 7324SOL    HW122871   5.011   5.732   2.654
 7324SOL    HW222872   4.934   5.731   2.509
 7325SOL     OW22873   3.259   6.154   0.416
 7325SOL    HW122874   3.240   6.194   0.506
 7325SOL    HW222875   3.346   6.191   0.381
 7326SOL     OW22876   2.337   0.950   4.703
 7326SOL    HW122877   2.247   0.975   4.670
 7326SOL    HW222878   2.328   0.887   4.780
 7327SOL     OW22879   1.437   2.850   5.104
 7327SOL    HW122880   1.437   2.753   5.079
 7327SOL    HW222881   1.451   2.905   5.022
 7328SOL     OW22882   2.792   6.817   6.475
 7328SOL    HW122883   2.728   6.761   6.424
 7328SOL    HW222884   2.756   6.910   6.485
 7329SOL     OW22885   4.660   3.439   1.630
 7329SOL    HW122886   4.706   3.483   1.707
 7329SOL    HW222887   4.562   3.436   1.646
 7330SOL     OW22888   4.307   2.276   0.693
 7330SOL    HW122889   4.404   2.293   0.676
 7330SOL    HW222890   4.284   2.305   0.786
 7331SOL     OW22891   5.359   1.192   2.201
 7331SOL    HW122892   5.288   1.176   2.269
 7331SOL    HW222893   5.346   1.129   2.124
 7332SOL     OW22894   3.347   5.214   0.956
 7332SOL    HW122895   3.254   5.244   0.937
 7332SOL    HW222896   3.352   5.114   0.946
 7333SOL     OW22897   0.510   4.803   2.580
 7333SOL    HW122898   0.514   4.787   2.679
 7333SOL    HW222899   0.529   4.717   2.532
 7334SOL     OW22900   3.796   6.826   4.579
 7334SOL    HW122901   3.804   6.925   4.594
 7334SOL    HW222902   3.699   6.802   4.572
 7335SOL     OW22903   2.308   2.868   2.812
 7335SOL    HW122904   2.236   2.799   2.800
 7335SOL    HW222905   2.310   2.928   2.732
 7336SOL     OW22906   1.963   6.158   4.252
 7336SOL    HW122907   2.029   6.232   4.237
 7336SOL    HW222908   1.913   6.175   4.336
 7337SOL     OW22909   4.905   2.406   2.063
 7337SOL    HW122910   4.920   2.343   1.987
 7337SOL    HW222911   4.871   2.355   2.142
 7338SOL     OW22912   6.534   3.162   0.120
 7338SOL    HW122913   6.501   3.241   0.069
 7338SOL    HW222914   6.545   3.084   0.058
 7339SOL     OW22915   1.243   5.456   4.406
 7339SOL    HW122916   1.342   5.460   4.420
 7339SOL    HW222917   1.205   5.381   4.461
 7340SOL     OW22918   2.402   7.014   6.598
 7340SOL    HW122919   2.308   6.988   6.619
 7340SOL    HW222920   2.460   7.001   6.679
 7341SOL     OW22921   6.752   1.701   0.620
 7341SOL    HW122922   6.683   1.664   0.558
 7341SOL    HW222923   6.843   1.679   0.585
 7342SOL     OW22924   0.466   6.264   2.051
 7342SOL    HW122925   0.408   6.317   2.113
 7342SOL    HW222926   0.524   6.327   1.999
 7343SOL     OW22927   5.757   2.898   0.454
 7343SOL    HW122928   5.667   2.854   0.449
 7343SOL    HW222929   5.776   2.925   0.548
 7344SOL     OW22930   1.921   6.104   6.120
 7344SOL    HW122931   1.977   6.049   6.181
 7344SOL    HW222932   1.936   6.201   6.139
 7345SOL     OW22933   3.215   5.670   5.997
 7345SOL    HW122934   3.255   5.742   6.054
 7345SOL    HW222935   3.159   5.610   6.054
 7346SOL     OW22936   4.180   5.210   2.553
 7346SOL    HW122937   4.157   5.130   2.608
 7346SOL    HW222938   4.256   5.187   2.491
 7347SOL     OW22939   6.344   1.344   0.327
 7347SOL    HW122940   6.341   1.377   0.421
 7347SOL    HW222941   6.412   1.395   0.275
 7348SOL     OW22942   6.286   4.578   0.049
 7348SOL    HW122943   6.337   4.595   6.985
 7348SOL    HW222944   6.349   4.579   0.126
 7349SOL     OW22945   3.824   1.681   1.750
 7349SOL    HW122946   3.785   1.685   1.842
 7349SOL    HW222947   3.910   1.731   1.748
 7350SOL     OW22948   3.935   0.735   4.110
 7350SOL    HW122949   3.853   0.719   4.055
 7350SOL    HW222950   3.936   0.829   4.143
 7351SOL     OW22951   2.348   4.274   4.303
 7351SOL    HW122952   2.273   4.211   4.323
 7351SOL    HW222953   2.374   4.266   4.207
 7352SOL     OW22954   6.272   3.840   4.032
 7352SOL    HW122955   6.316   3.906   4.094
 7352SOL    HW222956   6.198   3.793   4.080
 7353SOL     OW22957   6.494   0.708   5.689
 7353SOL    HW122958   6.396   0.723   5.671
 7353SOL    HW222959   6.522   0.620   5.652
 7354SOL     OW22960   0.759   1.542   2.897
 7354SOL    HW122961   0.686   1.495   2.947
 7354SOL    HW222962   0.840   1.484   2.895
 7355SOL     OW22963   3.257   1.614   0.416
 7355SOL    HW122964   3.250   1.565   0.329
 7355SOL    HW222965   3.169   1.659   0.436
 7356SOL     OW22966   3.972   3.798   5.983
 7356SOL    HW122967   3.994   3.731   5.912
 7356SOL    HW222968   3.879   3.833   5.967
 7357SOL     OW22969   5.226   6.541   2.141
 7357SOL    HW122970   5.256   6.616   2.200
 7357SOL    HW222971   5.163   6.483   2.192
 7358SOL     OW22972   5.638   0.746   3.585
 7358SOL    HW122973   5.711   0.726   3.650
 7358SOL    HW222974   5.557   0.691   3.607
 7359SOL     OW22975   4.428   6.692   1.804
 7359SOL    HW122976   4.441   6.781   1.761
 7359SOL    HW222977   4.446   6.700   1.902
 7360SOL     OW22978   2.929   3.405   4.831
 7360SOL    HW122979   2.888   3.388   4.920
 7360SOL    HW222980   2.932   3.321   4.778
 7361SOL     OW22981   6.875   0.615   3.258
 7361SOL    HW122982   6.911   0.527   3.290
 7361SOL    HW222983   6.950   0.679   3.243
 7362SOL     OW22984   3.309   5.778   0.187
 7362SOL    HW122985   3.236   5.713   0.166
 7362SOL    HW222986   3.396   5.730   0.193
 7363SOL     OW22987   4.089   0.990   1.365
 7363SOL    HW122988   4.088   0.891   1.352
 7363SOL    HW222989   4.150   1.031   1.298
 7364SOL     OW22990   5.926   6.560   1.583
 7364SOL    HW122991   5.951   6.471   1.619
 7364SOL    HW222992   5.933   6.629   1.656
 7365SOL     OW22993   4.926   3.628   2.360
 7365SOL    HW122994   4.902   3.695   2.289
 7365SOL    HW222995   4.933   3.675   2.448
 7366SOL     OW22996   2.090   0.220   3.629
 7366SOL    HW122997   2.009   0.277   3.641
 7366SOL    HW222998   2.062   0.128   3.603
 7367SOL     OW22999   4.129   0.857   6.382
 7367SOL    HW123000   4.041   0.901   6.404
 7367SOL    HW223001   4.204   0.915   6.413
 7368SOL     OW23002   3.518   3.278   3.457
 7368SOL    HW123003   3.455   3.282   3.534
 7368SOL    HW223004   3.606   3.242   3.488
 7369SOL     OW23005   5.670   3.296   0.171
 7369SOL    HW123006   5.631   3.351   0.245
 7369SOL    HW223007   5.689   3.204   0.204
 7370SOL     OW23008   1.814   1.022   4.683
 7370SOL    HW123009   1.782   0.976   4.766
 7370SOL    HW223010   1.755   1.101   4.664
 7371SOL     OW23011   3.791   1.139   3.744
 7371SOL    HW123012   3.887   1.116   3.761
 7371SOL    HW223013   3.743   1.059   3.708
 7372SOL     OW23014   5.297   1.248   5.364
 7372SOL    HW123015   5.393   1.247   5.393
 7372SOL    HW223016   5.291   1.280   5.270
 7373SOL     OW23017   6.064   3.034   4.445
 7373SOL    HW123018   6.143   3.022   4.384
 7373SOL    HW223019   6.093   3.084   4.527
 7374SOL     OW23020   0.451   2.092   6.244
 7374SOL    HW123021   0.503   2.139   6.173
 7374SOL    HW223022   0.422   2.003   6.209
 7375SOL     OW23023   1.689   3.616   0.546
 7375SOL    HW123024   1.657   3.687   0.483
 7375SOL    HW223025   1.755   3.557   0.499
 7376SOL     OW23026   0.010   4.159   0.556
 7376SOL    HW123027   0.059   4.216   0.490
 7376SOL    HW223028   6.971   4.217   0.613
 7377SOL     OW23029   2.494   5.670   1.511
 7377SOL    HW123030   2.514   5.704   1.420
 7377SOL    HW223031   2.579   5.643   1.557
 7378SOL     OW23032   1.953   5.105   4.953
 7378SOL    HW123033   1.858   5.107   4.920
 7378SOL    HW223034   1.975   5.013   4.984
 7379SOL     OW23035   4.333   1.676   2.686
 7379SOL    HW123036   4.316   1.762   2.637
 7379SOL    HW223037   4.255   1.614   2.672
 7380SOL     OW23038   5.561   3.250   1.546
 7380SOL    HW123039   5.644   3.287   1.505
 7380SOL    HW223040   5.543   3.296   1.632
 7381SOL     OW23041   3.797   6.787   1.918
 7381SOL    HW123042   3.816   6.700   1.962
 7381SOL    HW223043   3.842   6.790   1.829
 7382SOL     OW23044   6.791   1.710   6.166
 7382SOL    HW123045   6.824   1.758   6.086
 7382SOL    HW223046   6.854   1.724   6.243
 7383SOL     OW23047   2.154   6.743   0.801
 7383SOL    HW123048   2.079   6.719   0.862
 7383SOL    HW223049   2.224   6.672   0.805
 7384SOL     OW23050   6.566   6.613   0.901
 7384SOL    HW123051   6.658   6.650   0.888
 7384SOL    HW223052   6.534   6.636   0.993
 7385SOL     OW23053   6.231   4.926   3.033
 7385SOL    HW123054   6.162   4.863   3.068
 7385SOL    HW223055   6.277   4.884   2.954
 7386SOL     OW23056   5.299   3.843   6.829
 7386SOL    HW123057   5.296   3.850   6.730
 7386SOL    HW223058   5.210   3.812   6.863
 7387SOL     OW23059   5.980   5.820   4.719
 7387SOL    HW123060   5.930   5.876   4.783
 7387SOL    HW223061   6.018   5.740   4.766
 7388SOL     OW23062   2.266   4.336   2.533
 7388SOL    HW123063   2.201   4.357   2.460
 7388SOL    HW223064   2.272   4.236   2.544
 7389SOL     OW23065   6.627   3.135   0.418
 7389SOL    HW123066   6.594   3.155   0.325
 7389SOL    HW223067   6.588   3.201   0.482
 7390SOL     OW23068   2.626   2.343   4.099
 7390SOL    HW123069   2.688   2.318   4.024
 7390SOL    HW223070   2.533   2.315   4.075
 7391SOL     OW23071   3.589   3.809   3.208
 7391SOL    HW123072   3.529   3.738   3.244
 7391SOL    HW223073   3.651   3.769   3.140
 7392SOL     OW23074   3.055   0.007   0.392
 7392SOL    HW123075   3.149   0.041   0.392
 7392SOL    HW223076   3.051   6.939   0.346
 7393SOL     OW23077   4.589   5.523   3.361
 7393SOL    HW123078   4.580   5.571   3.448
 7393SOL    HW223079   4.504   5.476   3.339
 7394SOL     OW23080   2.211   2.066   5.590
 7394SOL    HW123081   2.255   2.035   5.506
 7394SOL    HW223082   2.220   1.995   5.660
 7395SOL     OW23083   3.051   5.892   1.181
 7395SOL    HW123084   2.981   5.902   1.110
 7395SOL    HW223085   3.121   5.962   1.168
 7396SOL     OW23086   1.247   5.111   2.352
 7396SOL    HW123087   1.239   5.086   2.448
 7396SOL    HW223088   1.156   5.119   2.311
 7397SOL     OW23089   6.234   4.764   3.656
 7397SOL    HW123090   6.239   4.672   3.616
 7397SOL    HW223091   6.323   4.808   3.647
 7398SOL     OW23092   3.111   4.905   2.267
 7398SOL    HW123093   3.201   4.900   2.226
 7398SOL    HW223094   3.047   4.849   2.214
 7399SOL     OW23095   5.310   1.280   6.173
 7399SOL    HW123096   5.244   1.233   6.115
 7399SOL    HW223097   5.263   1.348   6.229
 7400SOL     OW23098   4.709   3.779   5.625
 7400SOL    HW123099   4.704   3.879   5.629
 7400SOL    HW223100   4.619   3.742   5.603
 7401SOL     OW23101   1.623   2.429   3.847
 7401SOL    HW123102   1.661   2.361   3.784
 7401SOL    HW223103   1.550   2.388   3.901
 7402SOL     OW23104   3.782   5.455   4.377
 7402SOL    HW123105   3.859   5.482   4.319
 7402SOL    HW223106   3.816   5.432   4.468
 7403SOL     OW23107   2.038   4.180   4.315
 7403SOL    HW123108   2.011   4.270   4.351
 7403SOL    HW223109   1.956   4.126   4.297
 7404SOL     OW23110   2.874   3.879   0.619
 7404SOL    HW123111   2.815   3.923   0.552
 7404SOL    HW223112   2.966   3.870   0.582
 7405SOL     OW23113   3.801   6.680   5.791
 7405SOL    HW123114   3.774   6.769   5.829
 7405SOL    HW223115   3.724   6.640   5.741
 7406SOL     OW23116   1.088   2.099   4.286
 7406SOL    HW123117   1.072   2.197   4.282
 7406SOL    HW223118   1.032   2.059   4.359
 7407SOL     OW23119   1.339   6.121   5.707
 7407SOL    HW123120   1.254   6.068   5.701
 7407SOL    HW223121   1.389   6.113   5.621
 7408SOL     OW23122   4.477   5.600   4.881
 7408SOL    HW123123   4.441   5.540   4.809
 7408SOL    HW223124   4.405   5.617   4.949
 7409SOL     OW23125   6.716   4.209   1.393
 7409SOL    HW123126   6.694   4.223   1.296
 7409SOL    HW223127   6.692   4.291   1.445
 7410SOL     OW23128   6.435   0.693   1.159
 7410SOL    HW123129   6.402   0.787   1.154
 7410SOL    HW223130   6.367   0.632   1.118
 7411SOL     OW23131   3.135   1.864   4.789
 7411SOL    HW123132   3.191   1.795   4.744
 7411SOL    HW223133   3.047   1.872   4.742
 7412SOL     OW23134   3.947   6.723   0.541
 7412SOL    HW123135   3.920   6.746   0.447
 7412SOL    HW223136   4.046   6.714   0.546
 7413SOL     OW23137   4.722   0.937   3.536
 7413SOL    HW123138   4.714   1.010   3.467
 7413SOL    HW223139   4.732   0.978   3.627
 7414SOL     OW23140   2.941   0.557   3.987
 7414SOL    HW123141   2.947   0.522   3.894
 7414SOL    HW223142   2.940   0.480   4.051
 7415SOL     OW23143   4.106   6.994   6.191
 7415SOL    HW123144   4.023   7.001   6.247
 7415SOL    HW223145   4.161   6.917   6.223
 7416SOL     OW23146   1.963   0.571   1.849
 7416SOL    HW123147   1.928   0.645   1.791
 7416SOL    HW223148   1.918   0.485   1.824
 7417SOL     OW23149   0.920   0.808   2.122
 7417SOL    HW123150   0.978   0.736   2.084
 7417SOL    HW223151   0.927   0.890   2.066
 7418SOL     OW23152   1.595   4.132   6.256
 7418SOL    HW123153   1.626   4.168   6.344
 7418SOL    HW223154   1.637   4.042   6.241
 7419SOL     OW23155   6.903   3.448   4.279
 7419SOL    HW123156   6.981   3.399   4.316
 7419SOL    HW223157   6.866   3.399   4.200
 7420SOL     OW23158   6.901   6.343   1.001
 7420SOL    HW123159   6.894   6.320   0.904
 7420SOL    HW223160   6.813   6.326   1.046
 7421SOL     OW23161   5.707   3.980   0.750
 7421SOL    HW123162   5.652   3.924   0.813
 7421SOL    HW223163   5.754   4.051   0.802
 7422SOL     OW23164   5.715   3.142   1.806
 7422SOL    HW123165   5.748   3.107   1.719
 7422SOL    HW223166   5.773   3.108   1.880
 7423SOL     OW23167   4.601   2.600   6.237
 7423SOL    HW123168   4.565   2.507   6.230
 7423SOL    HW223169   4.548   2.652   6.304
 7424SOL     OW23170   0.774   2.341   3.308
 7424SOL    HW123171   0.739   2.432   3.288
 7424SOL    HW223172   0.791   2.332   3.406
 7425SOL     OW23173   5.345   0.804   0.875
 7425SOL    HW123174   5.302   0.806   0.965
 7425SOL    HW223175   5.278   0.772   0.808
 7426SOL     OW23176   2.642   2.656   5.772
 7426SOL    HW123177   2.586   2.635   5.692
 7426SOL    HW223178   2.722   2.710   5.743
 7427SOL     OW23179   2.693   6.895   3.387
 7427SOL    HW123180   2.790   6.918   3.386
 7427SOL    HW223181   2.667   6.864   3.479
 7428SOL     OW23182   3.400   6.996   5.121
 7428SOL    HW123183   3.405   6.967   5.216
 7428SOL    HW223184   3.403   0.075   5.116
 7429SOL     OW23185   1.097   0.096   2.351
 7429SOL    HW123186   1.180   0.107   2.406
 7429SOL    HW223187   1.069   7.020   2.351
 7430SOL     OW23188   6.779   4.803   2.947
 7430SOL    HW123189   6.771   4.796   2.848
 7430SOL    HW223190   6.876   4.801   2.973
 7431SOL     OW23191   0.842   1.822   3.565
 7431SOL    HW123192   0.799   1.882   3.633
 7431SOL    HW223193   0.772   1.764   3.524
 7432SOL     OW23194   1.683   1.075   2.838
 7432SOL    HW123195   1.754   1.133   2.798
 7432SOL    HW223196   1.666   0.996   2.778
 7433SOL     OW23197   3.298   6.869   6.657
 7433SOL    HW123198   3.374   6.804   6.657
 7433SOL    HW223199   3.214   6.823   6.628
 7434SOL     OW23200   4.410   6.935   3.652
 7434SOL    HW123201   4.340   6.872   3.619
 7434SOL    HW223202   4.479   6.948   3.581
 7435SOL     OW23203   4.859   4.470   3.050
 7435SOL    HW123204   4.823   4.560   3.077
 7435SOL    HW223205   4.802   4.432   2.977
 7436SOL     OW23206   5.412   3.309   6.086
 7436SOL    HW123207   5.495   3.348   6.127
 7436SOL    HW223208   5.402   3.345   5.993
 7437SOL     OW23209   3.511   0.545   1.278
 7437SOL    HW123210   3.427   0.499   1.306
 7437SOL    HW223211   3.521   0.631   1.329
 7438SOL     OW23212   2.086   0.069   6.391
 7438SOL    HW123213   2.165   0.102   6.339
 7438SOL    HW223214   2.115   0.036   6.480
 7439SOL     OW23215   0.863   4.832   6.008
 7439SOL    HW123216   0.868   4.740   6.048
 7439SOL    HW223217   0.956   4.869   5.998
 7440SOL     OW23218   5.881   4.220   4.021
 7440SOL    HW123219   5.953   4.289   4.012
 7440SOL    HW223220   5.916   4.142   4.074
 7441SOL     OW23221   4.545   6.054   1.000
 7441SOL    HW123222   4.636   6.034   0.965
 7441SOL    HW223223   4.481   5.983   0.970
 7442SOL     OW23224   5.170   0.947   6.269
 7442SOL    HW123225   5.096   1.008   6.296
 7442SOL    HW223226   5.233   0.935   6.345
 7443SOL     OW23227   0.141   0.460   1.239
 7443SOL    HW123228   0.064   0.447   1.175
 7443SOL    HW223229   0.223   0.421   1.199
 7444SOL     OW23230   1.676   6.417   0.083
 7444SOL    HW123231   1.598   6.394   0.025
 7444SOL    HW223232   1.761   6.389   0.038
 7445SOL     OW23233   3.804   5.691   2.207
 7445SOL    HW123234   3.896   5.701   2.169
 7445SOL    HW223235   3.793   5.750   2.287
 7446SOL     OW23236   5.631   4.979   6.761
 7446SOL    HW123237   5.558   4.915   6.735
 7446SOL    HW223238   5.695   4.933   6.822
 7447SOL     OW23239   0.645   5.179   0.989
 7447SOL    HW123240   0.723   5.190   0.927
 7447SOL    HW223241   0.630   5.264   1.039
 7448SOL     OW23242   4.412   5.352   6.500
 7448SOL    HW123243   4.501   5.314   6.527
 7448SOL    HW223244   4.384   5.314   6.412
 7449SOL     OW23245   6.354   4.423   5.974
 7449SOL    HW123246   6.450   4.399   5.958
 7449SOL    HW223247   6.296   4.346   5.951
 7450SOL     OW23248   5.756   2.025   6.483
 7450SOL    HW123249   5.673   1.970   6.478
 7450SOL    HW223250   5.750   2.100   6.416
 7451SOL     OW23251   4.513   4.475   3.145
 7451SOL    HW123252   4.543   4.391   3.190
 7451SOL    HW223253   4.487   4.542   3.215
 7452SOL     OW23254   6.481   5.551   6.199
 7452SOL    HW123255   6.396   5.558   6.147
 7452SOL    HW223256   6.460   5.532   6.295
 7453SOL     OW23257   4.097   5.935   5.993
 7453SOL    HW123258   4.080   5.881   6.076
 7453SOL    HW223259   4.046   6.021   5.998
 7454SOL     OW23260   3.484   2.174   1.107
 7454SOL    HW123261   3.448   2.254   1.155
 7454SOL    HW223262   3.565   2.140   1.155
 7455SOL     OW23263   6.885   0.956   3.135
 7455SOL    HW123264   6.890   0.921   3.042
 7455SOL    HW223265   6.954   0.911   3.192
 7456SOL     OW23266   2.982   1.990   6.127
 7456SOL    HW123267   3.056   1.958   6.069
 7456SOL    HW223268   2.930   2.060   6.080
 7457SOL     OW23269   1.043   1.239   2.468
 7457SOL    HW123270   1.142   1.227   2.480
 7457SOL    HW223271   1.005   1.158   2.422
 7458SOL     OW23272   1.025   5.454   5.183
 7458SOL    HW123273   1.028   5.366   5.136
 7458SOL    HW223274   1.006   5.527   5.117
 7459SOL     OW23275   5.943   0.039   3.329
 7459SOL    HW123276   5.911   0.131   3.307
 7459SOL    HW223277   6.042   0.039   3.336
 7460SOL     OW23278   1.272   0.287   1.425
 7460SOL    HW123279   1.201   0.337   1.474
 7460SOL    HW223280   1.340   0.252   1.489
 7461SOL     OW23281   1.930   4.449   4.726
 7461SOL    HW123282   1.930   4.543   4.761
 7461SOL    HW223283   1.862   4.395   4.775
 7462SOL     OW23284   1.687   4.274   0.305
 7462SOL    HW123285   1.696   4.326   0.390
 7462SOL    HW223286   1.771   4.281   0.252
 7463SOL     OW23287   5.035   5.001   1.573
 7463SOL    HW123288   4.971   5.031   1.643
 7463SOL    HW223289   4.991   4.935   1.513
 7464SOL     OW23290   6.224   5.979   4.999
 7464SOL    HW123291   6.218   5.880   5.012
 7464SOL    HW223292   6.133   6.016   4.978
 7465SOL     OW23293   1.362   4.448   6.664
 7465SOL    HW123294   1.285   4.498   6.703
 7465SOL    HW223295   1.405   4.503   6.592
 7466SOL     OW23296   0.148   0.222   4.997
 7466SOL    HW123297   0.204   0.281   4.939
 7466SOL    HW223298   0.052   0.246   4.984
 7467SOL     OW23299   0.537   3.595   4.733
 7467SOL    HW123300   0.625   3.575   4.776
 7467SOL    HW223301   0.543   3.683   4.685
 7468SOL     OW23302   5.195   2.386   5.708
 7468SOL    HW123303   5.206   2.466   5.650
 7468SOL    HW223304   5.098   2.360   5.711
 7469SOL     OW23305   0.362   1.811   0.321
 7469SOL    HW123306   0.448   1.775   0.284
 7469SOL    HW223307   0.355   1.789   0.418
 7470SOL     OW23308   5.386   3.379   3.918
 7470SOL    HW123309   5.450   3.305   3.898
 7470SOL    HW223310   5.401   3.412   4.011
 7471SOL     OW23311   3.656   6.967   6.933
 7471SOL    HW123312   3.559   6.985   6.916
 7471SOL    HW223313   3.712   0.015   6.885
 7472SOL     OW23314   0.326   0.100   5.852
 7472SOL    HW123315   0.310   0.198   5.848
 7472SOL    HW223316   0.368   0.069   5.767
 7473SOL     OW23317   3.788   5.727   3.590
 7473SOL    HW123318   3.858   5.782   3.544
 7473SOL    HW223319   3.832   5.653   3.640
 7474SOL     OW23320   5.847   2.167   0.608
 7474SOL    HW123321   5.857   2.241   0.542
 7474SOL    HW223322   5.893   2.191   0.693
 7475SOL     OW23323   4.876   2.986   0.841
 7475SOL    HW123324   4.895   3.020   0.933
 7475SOL    HW223325   4.878   2.886   0.842
 7476SOL     OW23326   2.632   0.923   2.787
 7476SOL    HW123327   2.602   0.976   2.707
 7476SOL    HW223328   2.719   0.877   2.766
 7477SOL     OW23329   2.352   3.558   6.016
 7477SOL    HW123330   2.442   3.529   6.049
 7477SOL    HW223331   2.320   3.635   6.071
 7478SOL     OW23332   0.026   1.821   5.736
 7478SOL    HW123333   7.002   1.852   5.820
 7478SOL    HW223334   6.980   1.773   5.679
 7479SOL     OW23335   4.733   2.799   1.278
 7479SOL    HW123336   4.825   2.760   1.273
 7479SOL    HW223337   4.705   2.805   1.374
 7480SOL     OW23338   3.821   6.112   2.981
 7480SOL    HW123339   3.791   6.030   2.933
 7480SOL    HW223340   3.802   6.192   2.924
 7481SOL     OW23341   0.325   3.857   6.314
 7481SOL    HW123342   0.244   3.907   6.285
 7481SOL    HW223343   0.297   3.776   6.366
 7482SOL     OW23344   5.323   2.248   4.073
 7482SOL    HW123345   5.291   2.268   3.980
 7482SOL    HW223346   5.421   2.230   4.071
 7483SOL     OW23347   4.456   1.885   6.366
 7483SOL    HW123348   4.377   1.857   6.420
 7483SOL    HW223349   4.515   1.806   6.349
 7484SOL     OW23350   3.244   0.570   4.311
 7484SOL    HW123351   3.245   0.592   4.213
 7484SOL    HW223352   3.221   0.474   4.323
 7485SOL     OW23353   3.621   0.399   6.568
 7485SOL    HW123354   3.693   0.344   6.525
 7485SOL    HW223355   3.654   0.434   6.656
 7486SOL     OW23356   4.379   6.913   0.871
 7486SOL    HW123357   4.470   6.875   0.884
 7486SOL    HW223358   4.330   6.859   0.803
 7487SOL     OW23359   3.460   6.462   4.231
 7487SOL    HW123360   3.393   6.484   4.161
 7487SOL    HW223361   3.549   6.443   4.188
 7488SOL     OW23362   1.225   5.727   4.044
 7488SOL    HW123363   1.142   5.732   3.989
 7488SOL    HW223364   1.231   5.637   4.087
 7489SOL     OW23365   5.608   2.941   6.997
 7489SOL    HW123366   5.586   2.844   6.998
 7489SOL    HW223367   5.539   2.991   6.945
 7490SOL     OW23368   1.649   2.789   2.265
 7490SOL    HW123369   1.618   2.694   2.265
 7490SOL    HW223370   1.726   2.799   2.203
 7491SOL     OW23371   4.460   4.020   0.186
 7491SOL    HW123372   4.415   4.109   0.180
 7491SOL    HW223373   4.479   3.999   0.282
 7492SOL     OW23374   1.592   0.525   3.976
 7492SOL    HW123375   1.645   0.580   4.041
 7492SOL    HW223376   1.638   0.439   3.960
 7493SOL     OW23377   6.514   5.004   4.782
 7493SOL    HW123378   6.419   5.032   4.770
 7493SOL    HW223379   6.553   4.979   4.694
 7494SOL     OW23380   6.510   1.245   2.790
 7494SOL    HW123381   6.606   1.215   2.794
 7494SOL    HW223382   6.465   1.223   2.877
 7495SOL     OW23383   1.606   3.277   5.026
 7495SOL    HW123384   1.693   3.303   5.069
 7495SOL    HW223385   1.612   3.184   4.991
 7496SOL     OW23386   6.438   4.311   2.163
 7496SOL    HW123387   6.362   4.358   2.119
 7496SOL    HW223388   6.403   4.244   2.228
 7497SOL     OW23389   6.160   6.991   1.721
 7497SOL    HW123390   6.151   6.893   1.703
 7497SOL    HW223391   6.073   0.016   1.699
 7498SOL     OW23392   3.086   6.699   3.701
 7498SOL    HW123393   3.017   6.675   3.633
 7498SOL    HW223394   3.145   6.771   3.665
 7499SOL     OW23395   3.477   1.276   3.390
 7499SOL    HW123396   3.451   1.220   3.469
 7499SOL    HW223397   3.439   1.368   3.402
 7500SOL     OW23398   4.256   0.862   3.721
 7500SOL    HW123399   4.254   0.774   3.674
 7500SOL    HW223400   4.250   0.847   3.820
 7501SOL     OW23401   6.845   1.798   4.616
 7501SOL    HW123402   6.929   1.773   4.664
 7501SOL    HW223403   6.766   1.780   4.675
 7502SOL     OW23404   4.506   0.800   4.074
 7502SOL    HW123405   4.435   0.840   4.016
 7502SOL    HW223406   4.473   0.798   4.169
 7503SOL     OW23407   1.679   5.596   1.770
 7503SOL    HW123408   1.772   5.608   1.736
 7503SOL    HW223409   1.630   5.683   1.763
 7504SOL     OW23410   5.645   6.636   4.485
 7504SOL    HW123411   5.651   6.541   4.456
 7504SOL    HW223412   5.635   6.640   4.585
 7505SOL     OW23413   0.651   6.394   5.369
 7505SOL    HW123414   0.749   6.384   5.349
 7505SOL    HW223415   0.600   6.323   5.320
 7506SOL     OW23416   3.284   1.971   3.797
 7506SOL    HW123417   3.304   2.027   3.717
 7506SOL    HW223418   3.322   1.880   3.785
 7507SOL     OW23419   6.597   4.285   6.602
 7507SOL    HW123420   6.595   4.358   6.670
 7507SOL    HW223421   6.506   4.244   6.595
 7508SOL     OW23422   2.759   6.313   0.723
 7508SOL    HW123423   2.797   6.223   0.707
 7508SOL    HW223424   2.660   6.306   0.738
 7509SOL     OW23425   6.060   4.347   2.046
 7509SOL    HW123426   6.008   4.412   2.101
 7509SOL    HW223427   6.002   4.268   2.024
 7510SOL     OW23428   3.667   4.191   2.043
 7510SOL    HW123429   3.703   4.132   2.115
 7510SOL    HW223430   3.657   4.284   2.079
 7511SOL     OW23431   4.386   5.951   3.900
 7511SOL    HW123432   4.314   5.908   3.846
 7511SOL    HW223433   4.358   5.955   3.996
 7512SOL     OW23434   4.042   0.870   0.953
 7512SOL    HW123435   4.133   0.829   0.948
 7512SOL    HW223436   4.049   0.966   0.978
 7513SOL     OW23437   1.140   1.137   1.796
 7513SOL    HW123438   1.183   1.061   1.747
 7513SOL    HW223439   1.208   1.184   1.852
 7514SOL     OW23440   0.050   6.712   1.354
 7514SOL    HW123441   0.100   6.627   1.336
 7514SOL    HW223442   6.972   6.696   1.340
 7515SOL     OW23443   0.126   4.521   5.062
 7515SOL    HW123444   0.065   4.444   5.081
 7515SOL    HW223445   0.220   4.489   5.062
 7516SOL     OW23446   1.692   6.394   5.178
 7516SOL    HW123447   1.664   6.449   5.257
 7516SOL    HW223448   1.730   6.307   5.210
 7517SOL     OW23449   1.008   1.552   6.207
 7517SOL    HW123450   0.913   1.531   6.182
 7517SOL    HW223451   1.008   1.620   6.281
 7518SOL     OW23452   4.130   2.036   4.279
 7518SOL    HW123453   4.045   2.041   4.331
 7518SOL    HW223454   4.204   2.078   4.332
 7519SOL     OW23455   3.889   0.095   4.512
 7519SOL    HW123456   3.910   0.090   4.414
 7519SOL    HW223457   3.970   0.069   4.564
 7520SOL     OW23458   2.005   1.519   0.743
 7520SOL    HW123459   2.070   1.452   0.780
 7520SOL    HW223460   1.934   1.471   0.691
 7521SOL     OW23461   4.063   1.548   4.848
 7521SOL    HW123462   4.044   1.616   4.918
 7521SOL    HW223463   4.150   1.503   4.867
 7522SOL     OW23464   1.943   6.813   4.022
 7522SOL    HW123465   1.916   6.717   4.024
 7522SOL    HW223466   2.040   6.820   3.998
 7523SOL     OW23467   5.518   1.208   0.426
 7523SOL    HW123468   5.438   1.148   0.418
 7523SOL    HW223469   5.512   1.259   0.513
 7524SOL     OW23470   0.274   3.637   4.835
 7524SOL    HW123471   0.202   3.624   4.766
 7524SOL    HW223472   0.363   3.619   4.794
 7525SOL     OW23473   3.207   4.649   6.209
 7525SOL    HW123474   3.261   4.575   6.167
 7525SOL    HW223475   3.229   4.655   6.306
 7526SOL     OW23476   2.076   3.962   0.702
 7526SOL    HW123477   2.133   3.889   0.740
 7526SOL    HW223478   2.030   4.010   0.777
 7527SOL     OW23479   2.923   5.304   2.765
 7527SOL    HW123480   2.915   5.267   2.672
 7527SOL    HW223481   2.999   5.260   2.812
 7528SOL     OW23482   6.136   2.205   5.766
 7528SOL    HW123483   6.113   2.286   5.819
 7528SOL    HW223484   6.235   2.196   5.760
 7529SOL     OW23485   6.215   3.287   4.141
 7529SOL    HW123486   6.222   3.368   4.198
 7529SOL    HW223487   6.125   3.284   4.097
 7530SOL     OW23488   0.898   2.862   3.146
 7530SOL    HW123489   0.989   2.899   3.165
 7530SOL    HW223490   0.904   2.764   3.130
 7531SOL     OW23491   3.785   1.897   3.849
 7531SOL    HW123492   3.791   1.994   3.822
 7531SOL    HW223493   3.856   1.845   3.802
 7532SOL     OW23494   5.000   6.066   6.710
 7532SOL    HW123495   4.996   6.110   6.620
 7532SOL    HW223496   4.909   6.066   6.751
 7533SOL     OW23497   4.305   4.493   1.739
 7533SOL    HW123498   4.359   4.576   1.756
 7533SOL    HW223499   4.346   4.416   1.787
 7534SOL     OW23500   4.691   5.957   5.127
 7534SOL    HW123501   4.658   5.871   5.166
 7534SOL    HW223502   4.614   6.021   5.119
 7535SOL     OW23503   0.144   6.630   4.063
 7535SOL    HW123504   0.233   6.621   4.108
 7535SOL    HW223505   0.079   6.566   4.105
 7536SOL     OW23506   6.370   6.149   3.541
 7536SOL    HW123507   6.443   6.206   3.580
 7536SOL    HW223508   6.285   6.201   3.538
 7537SOL     OW23509   1.691   6.438   2.861
 7537SOL    HW123510   1.739   6.457   2.775
 7537SOL    HW223511   1.727   6.498   2.933
 7538SOL     OW23512   0.152   4.682   6.786
 7538SOL    HW123513   0.246   4.677   6.753
 7538SOL    HW223514   0.091   4.633   6.724
 7539SOL     OW23515   6.754   0.190   4.245
 7539SOL    HW123516   6.706   0.273   4.273
 7539SOL    HW223517   6.851   0.210   4.231
 7540SOL     OW23518   5.315   4.720   3.158
 7540SOL    HW123519   5.260   4.662   3.218
 7540SOL    HW223520   5.265   4.736   3.072
 7541SOL     OW23521   2.631   3.955   5.822
 7541SOL    HW123522   2.617   4.027   5.890
 7541SOL    HW223523   2.543   3.926   5.785
 7542SOL     OW23524   5.794   5.746   4.509
 7542SOL    HW123525   5.800   5.647   4.504
 7542SOL    HW223526   5.865   5.781   4.570
 7543SOL     OW23527   2.206   1.384   0.428
 7543SOL    HW123528   2.217   1.295   0.473
 7543SOL    HW223529   2.108   1.405   0.421
 7544SOL     OW23530   6.426   1.226   4.448
 7544SOL    HW123531   6.411   1.324   4.436
 7544SOL    HW223532   6.409   1.201   4.543
 7545SOL     OW23533   1.885   5.358   5.577
 7545SOL    HW123534   1.814   5.324   5.516
 7545SOL    HW223535   1.853   5.352   5.672
 7546SOL     OW23536   2.263   2.622   1.905
 7546SOL    HW123537   2.241   2.712   1.941
 7546SOL    HW223538   2.316   2.631   1.821
 7547SOL     OW23539   4.106   7.020   1.875
 7547SOL    HW123540   4.087   6.955   1.949
 7547SOL    HW223541   4.033   0.068   1.871
 7548SOL     OW23542   2.790   2.510   6.420
 7548SOL    HW123543   2.692   2.498   6.434
 7548SOL    HW223544   2.806   2.555   6.332
 7549SOL     OW23545   5.078   0.679   4.609
 7549SOL    HW123546   4.988   0.637   4.626
 7549SOL    HW223547   5.069   0.749   4.539
 7550SOL     OW23548   2.764   5.801   4.297
 7550SOL    HW123549   2.795   5.731   4.361
 7550SOL    HW223550   2.666   5.816   4.308
 7551SOL     OW23551   6.332   2.840   6.420
 7551SOL    HW123552   6.403   2.862   6.487
 7551SOL    HW223553   6.367   2.773   6.354
 7552SOL     OW23554   2.521   6.350   4.770
 7552SOL    HW123555   2.579   6.276   4.805
 7552SOL    HW223556   2.428   6.315   4.755
 7553SOL     OW23557   6.604   6.324   5.885
 7553SOL    HW123558   6.515   6.286   5.909
 7553SOL    HW223559   6.595   6.381   5.803
 7554SOL     OW23560   4.661   1.515   0.720
 7554SOL    HW123561   4.602   1.551   0.648
 7554SOL    HW223562   4.606   1.460   0.784
 7555SOL     OW23563   4.449   4.874   4.193
 7555SOL    HW123564   4.467   4.861   4.096
 7555SOL    HW223565   4.517   4.825   4.247
 7556SOL     OW23566   1.257   6.141   1.572
 7556SOL    HW123567   1.311   6.128   1.656
 7556SOL    HW223568   1.168   6.178   1.596
 7557SOL     OW23569   4.534   6.750   1.379
 7557SOL    HW123570   4.562   6.817   1.309
 7557SOL    HW223571   4.590   6.668   1.370
 7558SOL     OW23572   0.592   1.852   3.184
 7558SOL    HW123573   0.595   1.952   3.179
 7558SOL    HW223574   0.497   1.821   3.183
 7559SOL     OW23575   3.019   1.029   5.034
 7559SOL    HW123576   3.061   1.038   5.125
 7559SOL    HW223577   2.979   0.938   5.025
 7560SOL     OW23578   1.061   1.115   5.850
 7560SOL    HW123579   1.128   1.189   5.842
 7560SOL    HW223580   0.998   1.136   5.925
 7561SOL     OW23581   5.358   0.973   5.244
 7561SOL    HW123582   5.304   1.016   5.172
 7561SOL    HW223583   5.309   0.979   5.331
 7562SOL     OW23584   2.243   5.460   3.100
 7562SOL    HW123585   2.316   5.391   3.093
 7562SOL    HW223586   2.225   5.498   3.009
 7563SOL     OW23587   3.383   5.920   2.842
 7563SOL    HW123588   3.437   5.950   2.764
 7563SOL    HW223589   3.378   5.994   2.909
 7564SOL     OW23590   4.677   1.940   5.351
 7564SOL    HW123591   4.733   1.862   5.323
 7564SOL    HW223592   4.676   2.008   5.277
 7565SOL     OW23593   6.799   2.901   5.842
 7565SOL    HW123594   6.714   2.909   5.894
 7565SOL    HW223595   6.784   2.935   5.749
 7566SOL     OW23596   5.075   4.468   1.829
 7566SOL    HW123597   5.019   4.552   1.825
 7566SOL    HW223598   5.147   4.481   1.897
 7567SOL     OW23599   1.114   6.967   4.544
 7567SOL    HW123600   1.202   6.926   4.520
 7567SOL    HW223601   1.070   6.913   4.616
 7568SOL     OW23602   6.153   4.098   1.498
 7568SOL    HW123603   6.105   4.033   1.440
 7568SOL    HW223604   6.251   4.076   1.499
 7569SOL     OW23605   4.742   3.796   0.505
 7569SOL    HW123606   4.673   3.868   0.513
 7569SOL    HW223607   4.738   3.756   0.413
 7570SOL     OW23608   0.954   3.337   1.809
 7570SOL    HW123609   1.014   3.259   1.789
 7570SOL    HW223610   0.890   3.312   1.881
 7571SOL     OW23611   4.499   1.471   2.643
 7571SOL    HW123612   4.438   1.543   2.675
 7571SOL    HW223613   4.471   1.383   2.681
 7572SOL     OW23614   4.801   6.815   4.090
 7572SOL    HW123615   4.892   6.808   4.130
 7572SOL    HW223616   4.733   6.777   4.152
 7573SOL     OW23617   4.224   6.751   6.266
 7573SOL    HW123618   4.304   6.729   6.320
 7573SOL    HW223619   4.183   6.667   6.229
 7574SOL     OW23620   0.600   2.508   4.047
 7574SOL    HW123621   0.602   2.440   3.974
 7574SOL    HW223622   0.543   2.585   4.019
 7575SOL     OW23623   6.782   6.657   1.362
 7575SOL    HW123624   6.702   6.690   1.413
 7575SOL    HW223625   6.782   6.557   1.362
 7576SOL     OW23626   4.838   2.429   6.757
 7576SOL    HW123627   4.934   2.459   6.759
 7576SOL    HW223628   4.835   2.329   6.757
 7577SOL     OW23629   0.814   0.292   6.932
 7577SOL    HW123630   0.826   0.301   6.833
 7577SOL    HW223631   0.821   0.382   6.975
 7578SOL     OW23632   6.523   6.454   3.324
 7578SOL    HW123633   6.452   6.464   3.393
 7578SOL    HW223634   6.481   6.433   3.235
 7579SOL     OW23635   0.586   1.937   6.793
 7579SOL    HW123636   0.617   1.853   6.838
 7579SOL    HW223637   0.508   1.974   6.842
 7580SOL     OW23638   2.596   5.445   3.085
 7580SOL    HW123639   2.689   5.417   3.060
 7580SOL    HW223640   2.537   5.437   3.005
 7581SOL     OW23641   6.811   6.829   1.596
 7581SOL    HW123642   6.845   6.781   1.515
 7581SOL    HW223643   6.864   6.913   1.610
 7582SOL     OW23644   2.222   1.702   6.149
 7582SOL    HW123645   2.151   1.642   6.184
 7582SOL    HW223646   2.267   1.748   6.225
 7583SOL     OW23647   5.833   3.512   2.271
 7583SOL    HW123648   5.843   3.591   2.331
 7583SOL    HW223649   5.794   3.540   2.183
 7584SOL     OW23650   0.554   1.279   3.578
 7584SOL    HW123651   0.478   1.259   3.640
 7584SOL    HW223652   0.612   1.199   3.568
 7585SOL     OW23653   1.206   1.711   6.052
 7585SOL    HW123654   1.179   1.643   5.984
 7585SOL    HW223655   1.176   1.682   6.143
 7586SOL     OW23656   1.961   6.513   3.981
 7586SOL    HW123657   2.027   6.513   3.907
 7586SOL    HW223658   1.893   6.441   3.966
 7587SOL     OW23659   4.779   0.223   1.570
 7587SOL    HW123660   4.854   0.190   1.627
 7587SOL    HW223661   4.730   0.297   1.617
 7588SOL     OW23662   2.100   3.049   4.458
 7588SOL    HW123663   2.161   2.989   4.406
 7588SOL    HW223664   2.082   3.132   4.404
 7589SOL     OW23665   0.191   0.377   2.786
 7589SOL    HW123666   0.275   0.336   2.749
 7589SOL    HW223667   0.112   0.325   2.755
 7590SOL     OW23668   6.227   1.049   0.563
 7590SOL    HW123669   6.325   1.036   0.550
 7590SOL    HW223670   6.181   1.047   0.474
 7591SOL     OW23671   3.007   3.819   4.613
 7591SOL    HW123672   2.909   3.833   4.625
 7591SOL    HW223673   3.030   3.823   4.516
 7592SOL     OW23674   0.429   6.419   3.682
 7592SOL    HW123675   0.350   6.481   3.685
 7592SOL    HW223676   0.509   6.467   3.718
 7593SOL     OW23677   6.660   1.116   6.190
 7593SOL    HW123678   6.714   1.116   6.274
 7593SOL    HW223679   6.575   1.066   6.204
 7594SOL     OW23680   6.901   3.705   6.196
 7594SOL    HW123681   6.972   3.660   6.142
 7594SOL    HW223682   6.919   3.803   6.199
 7595SOL     OW23683   0.348   3.381   6.602
 7595SOL    HW123684   0.405   3.376   6.521
 7595SOL    HW223685   0.353   3.473   6.641
 7596SOL     OW23686   2.627   1.378   0.444
 7596SOL    HW123687   2.593   1.455   0.389
 7596SOL    HW223688   2.682   1.318   0.387
 7597SOL     OW23689   2.395   5.061   1.026
 7597SOL    HW123690   2.368   5.151   1.061
 7597SOL    HW223691   2.330   5.031   0.957
 7598SOL     OW23692   5.829   1.014   2.021
 7598SOL    HW123693   5.880   0.972   1.946
 7598SOL    HW223694   5.794   1.103   1.993
 7599SOL     OW23695   2.985   3.383   0.579
 7599SOL    HW123696   2.941   3.459   0.531
 7599SOL    HW223697   3.044   3.420   0.651
 7600SOL     OW23698   0.753   6.952   4.014
 7600SOL    HW123699   0.775   6.859   3.986
 7600SOL    HW223700   0.760   6.959   4.114
 7601SOL     OW23701   3.057   6.654   1.552
 7601SOL    HW123702   2.988   6.638   1.623
 7601SOL    HW223703   3.024   6.617   1.465
 7602SOL     OW23704   1.027   1.591   0.613
 7602SOL    HW123705   0.938   1.547   0.629
 7602SOL    HW223706   1.063   1.626   0.699
 7603SOL     OW23707   4.208   1.021   5.990
 7603SOL    HW123708   4.249   1.094   6.046
 7603SOL    HW223709   4.165   1.062   5.909
 7604SOL     OW23710   1.978   2.386   4.778
 7604SOL    HW123711   1.898   2.446   4.770
 7604SOL    HW223712   2.062   2.440   4.770
 7605SOL     OW23713   2.647   6.271   7.007
 7605SOL    HW123714   2.672   6.361   0.023
 7605SOL    HW223715   2.625   6.280   6.910
 7606SOL     OW23716   0.295   0.663   3.360
 7606SOL    HW123717   0.300   0.700   3.268
 7606SOL    HW223718   0.312   0.565   3.357
 7607SOL     OW23719   1.760   6.029   5.587
 7607SOL    HW123720   1.664   6.001   5.579
 7607SOL    HW223721   1.776   6.065   5.679
 7608SOL     OW23722   0.231   2.148   6.434
 7608SOL    HW123723   0.263   2.226   6.488
 7608SOL    HW223724   0.306   2.113   6.378
 7609SOL     OW23725   3.241   1.140   4.914
 7609SOL    HW123726   3.322   1.081   4.920
 7609SOL    HW223727   3.164   1.095   4.958
 7610SOL     OW23728   4.070   4.836   4.629
 7610SOL    HW123729   4.048   4.746   4.665
 7610SOL    HW223730   4.103   4.827   4.535
 7611SOL     OW23731   4.672   2.583   0.304
 7611SOL    HW123732   4.673   2.682   0.317
 7611SOL    HW223733   4.656   2.563   0.208
 7612SOL     OW23734   3.952   2.128   2.835
 7612SOL    HW123735   3.968   2.210   2.890
 7612SOL    HW223736   3.855   2.121   2.813
 7613SOL     OW23737   0.836   0.463   0.125
 7613SOL    HW123738   0.903   0.525   0.165
 7613SOL    HW223739   0.798   0.404   0.196
 7614SOL     OW23740   5.649   4.595   0.699
 7614SOL    HW123741   5.623   4.688   0.674
 7614SOL    HW223742   5.688   4.549   0.619
 7615SOL     OW23743   6.296   3.220   5.617
 7615SOL    HW123744   6.344   3.282   5.555
 7615SOL    HW223745   6.312   3.250   5.712
 7616SOL     OW23746   0.103   6.541   2.511
 7616SOL    HW123747   0.195   6.503   2.523
 7616SOL    HW223748   0.036   6.484   2.559
 7617SOL     OW23749   6.551   4.155   2.569
 7617SOL    HW123750   6.594   4.191   2.487
 7617SOL    HW223751   6.461   4.119   2.547
 7618SOL     OW23752   2.530   2.634   0.393
 7618SOL    HW123753   2.606   2.674   0.445
 7618SOL    HW223754   2.547   2.536   0.380
 7619SOL     OW23755   1.248   1.093   4.705
 7619SOL    HW123756   1.293   1.006   4.681
 7619SOL    HW223757   1.203   1.083   4.794
 7620SOL     OW23758   3.302   3.404   0.727
 7620SOL    HW123759   3.311   3.351   0.812
 7620SOL    HW223760   3.390   3.406   0.680
 7621SOL     OW23761   5.834   4.633   6.639
 7621SOL    HW123762   5.793   4.704   6.696
 7621SOL    HW223763   5.932   4.648   6.631
 7622SOL     OW23764   3.367   3.601   1.779
 7622SOL    HW123765   3.291   3.590   1.843
 7622SOL    HW223766   3.331   3.614   1.686
 7623SOL     OW23767   5.153   4.222   1.769
 7623SOL    HW123768   5.114   4.313   1.782
 7623SOL    HW223769   5.174   4.182   1.858
 7624SOL     OW23770   0.682   3.534   2.290
 7624SOL    HW123771   0.602   3.522   2.348
 7624SOL    HW223772   0.764   3.542   2.347
 7625SOL     OW23773   5.278   0.452   2.008
 7625SOL    HW123774   5.198   0.512   2.021
 7625SOL    HW223775   5.268   0.370   2.065
 7626SOL     OW23776   4.458   0.212   0.369
 7626SOL    HW123777   4.404   0.150   0.427
 7626SOL    HW223778   4.415   0.219   0.279
 7627SOL     OW23779   4.119   2.773   6.066
 7627SOL    HW123780   4.209   2.811   6.090
 7627SOL    HW223781   4.123   2.674   6.072
 7628SOL     OW23782   2.892   3.180   0.437
 7628SOL    HW123783   2.948   3.241   0.493
 7628SOL    HW223784   2.796   3.196   0.455
 7629SOL     OW23785   6.169   2.546   3.514
 7629SOL    HW123786   6.269   2.551   3.506
 7629SOL    HW223787   6.141   2.591   3.599
 7630SOL     OW23788   1.163   6.191   4.027
 7630SOL    HW123789   1.196   6.117   3.969
 7630SOL    HW223790   1.085   6.235   3.983
 7631SOL     OW23791   1.063   0.794   5.812
 7631SOL    HW123792   0.990   0.827   5.754
 7631SOL    HW223793   1.150   0.832   5.781
 7632SOL     OW23794   4.617   5.466   1.315
 7632SOL    HW123795   4.530   5.503   1.348
 7632SOL    HW223796   4.666   5.425   1.392
 7633SOL     OW23797   5.572   0.959   1.455
 7633SOL    HW123798   5.516   0.910   1.522
 7633SOL    HW223799   5.658   0.908   1.440
 7634SOL     OW23800   0.301   2.073   6.890
 7634SOL    HW123801   0.245   2.034   6.963
 7634SOL    HW223802   0.276   2.032   6.802
 7635SOL     OW23803   1.782   3.176   5.324
 7635SOL    HW123804   1.849   3.143   5.390
 7635SOL    HW223805   1.729   3.099   5.289
 7636SOL     OW23806   0.172   3.676   3.698
 7636SOL    HW123807   0.086   3.715   3.665
 7636SOL    HW223808   0.205   3.729   3.776
 7637SOL     OW23809   0.485   4.369   4.912
 7637SOL    HW123810   0.493   4.468   4.896
 7637SOL    HW223811   0.423   4.353   4.989
 7638SOL     OW23812   0.396   6.013   1.222
 7638SOL    HW123813   0.314   5.973   1.181
 7638SOL    HW223814   0.432   5.951   1.292
 7639SOL     OW23815   2.161   6.997   0.650
 7639SOL    HW123816   2.062   7.010   0.646
 7639SOL    HW223817   2.181   6.914   0.701
 7640SOL     OW23818   3.234   0.968   0.891
 7640SOL    HW123819   3.333   0.981   0.896
 7640SOL    HW223820   3.207   0.894   0.953
 7641SOL     OW23821   0.046   5.159   5.016
 7641SOL    HW123822   0.091   5.083   5.063
 7641SOL    HW223823   0.111   5.233   5.001
 7642SOL     OW23824   5.415   0.914   3.809
 7642SOL    HW123825   5.320   0.946   3.813
 7642SOL    HW223826   5.421   0.835   3.748
 7643SOL     OW23827   5.366   3.320   4.617
 7643SOL    HW123828   5.446   3.288   4.566
 7643SOL    HW223829   5.333   3.405   4.576
 7644SOL     OW23830   5.146   4.185   0.834
 7644SOL    HW123831   5.177   4.099   0.874
 7644SOL    HW223832   5.176   4.190   0.739
 7645SOL     OW23833   4.616   4.924   0.288
 7645SOL    HW123834   4.534   4.981   0.283
 7645SOL    HW223835   4.662   4.923   0.200
 7646SOL     OW23836   6.935   2.081   1.073
 7646SOL    HW123837   6.888   2.012   1.128
 7646SOL    HW223838   7.007   2.123   1.127
 7647SOL     OW23839   0.209   2.189   3.871
 7647SOL    HW123840   0.255   2.261   3.819
 7647SOL    HW223841   0.142   2.230   3.933
 7648SOL     OW23842   2.029   2.499   1.766
 7648SOL    HW123843   2.002   2.427   1.702
 7648SOL    HW223844   2.122   2.483   1.797
 7649SOL     OW23845   4.151   0.501   0.210
 7649SOL    HW123846   4.211   0.467   0.284
 7649SOL    HW223847   4.120   0.593   0.232
 7650SOL     OW23848   3.792   2.872   0.021
 7650SOL    HW123849   3.870   2.833   6.993
 7650SOL    HW223850   3.707   2.839   7.000
 7651SOL     OW23851   3.494   5.544   6.081
 7651SOL    HW123852   3.430   5.524   6.008
 7651SOL    HW223853   3.523   5.639   6.076
 7652SOL     OW23854   1.096   0.816   5.132
 7652SOL    HW123855   1.049   0.896   5.169
 7652SOL    HW223856   1.189   0.842   5.105
 7653SOL     OW23857   2.095   6.665   0.166
 7653SOL    HW123858   2.091   6.608   0.084
 7653SOL    HW223859   2.100   6.761   0.140
 7654SOL     OW23860   6.787   2.263   5.866
 7654SOL    HW123861   6.815   2.270   5.770
 7654SOL    HW223862   6.768   2.168   5.888
 7655SOL     OW23863   3.486   1.824   5.004
 7655SOL    HW123864   3.406   1.867   4.961
 7655SOL    HW223865   3.502   1.866   5.093
 7656SOL     OW23866   5.688   3.917   6.803
 7656SOL    HW123867   5.675   3.833   6.857
 7656SOL    HW223868   5.624   3.986   6.834
 7657SOL     OW23869   0.885   3.803   4.887
 7657SOL    HW123870   0.824   3.729   4.915
 7657SOL    HW223871   0.959   3.765   4.832
 7658SOL     OW23872   2.653   0.860   1.221
 7658SOL    HW123873   2.611   0.835   1.308
 7658SOL    HW223874   2.731   0.800   1.203
 7659SOL     OW23875   5.152   5.061   5.766
 7659SOL    HW123876   5.148   5.111   5.679
 7659SOL    HW223877   5.189   5.121   5.837
 7660SOL     OW23878   6.584   6.507   5.652
 7660SOL    HW123879   6.498   6.543   5.616
 7660SOL    HW223880   6.654   6.510   5.581
 7661SOL     OW23881   3.137   1.073   5.283
 7661SOL    HW123882   3.237   1.082   5.282
 7661SOL    HW223883   3.099   1.133   5.353
 7662SOL     OW23884   0.058   5.740   1.241
 7662SOL    HW123885   0.077   5.667   1.175
 7662SOL    HW223886   6.984   5.732   1.273
 7663SOL     OW23887   0.980   5.588   4.398
 7663SOL    HW123888   0.954   5.591   4.495
 7663SOL    HW223889   1.074   5.555   4.390
 7664SOL     OW23890   4.820   2.450   2.501
 7664SOL    HW123891   4.844   2.364   2.457
 7664SOL    HW223892   4.766   2.431   2.583
 7665SOL     OW23893   3.251   0.918   5.613
 7665SOL    HW123894   3.182   0.955   5.675
 7665SOL    HW223895   3.207   0.860   5.544
 7666SOL     OW23896   5.329   5.377   3.841
 7666SOL    HW123897   5.428   5.368   3.855
 7666SOL    HW223898   5.282   5.367   3.928
 7667SOL     OW23899   4.047   6.066   2.135
 7667SOL    HW123900   4.042   6.044   2.037
 7667SOL    HW223901   4.125   6.020   2.176
 7668SOL     OW23902   1.621   5.873   0.311
 7668SOL    HW123903   1.523   5.886   0.325
 7668SOL    HW223904   1.648   5.914   0.224
 7669SOL     OW23905   2.577   1.687   6.755
 7669SOL    HW123906   2.543   1.643   6.838
 7669SOL    HW223907   2.653   1.747   6.779
 7670SOL     OW23908   0.891   0.459   0.821
 7670SOL    HW123909   0.901   0.392   0.894
 7670SOL    HW223910   0.909   0.551   0.856
 7671SOL     OW23911   3.018   0.029   1.740
 7671SOL    HW123912   2.953   0.073   1.678
 7671SOL    HW223913   3.040   0.091   1.815
 7672SOL     OW23914   5.563   3.632   2.137
 7672SOL    HW123915   5.475   3.604   2.100
 7672SOL    HW223916   5.574   3.595   2.229
 7673SOL     OW23917   1.703   6.773   4.625
 7673SOL    HW123918   1.796   6.739   4.615
 7673SOL    HW223919   1.656   6.721   4.697
 7674SOL     OW23920   3.714   5.684   4.573
 7674SOL    HW123921   3.773   5.729   4.506
 7674SOL    HW223922   3.711   5.738   4.657
 7675SOL     OW23923   4.497   6.395   3.338
 7675SOL    HW123924   4.503   6.479   3.392
 7675SOL    HW223925   4.588   6.355   3.330
 7676SOL     OW23926   3.525   3.124   4.678
 7676SOL    HW123927   3.578   3.164   4.753
 7676SOL    HW223928   3.587   3.075   4.617
 7677SOL     OW23929   0.014   5.357   6.896
 7677SOL    HW123930   0.104   5.366   6.853
 7677SOL    HW223931   0.005   5.266   6.936
 7678SOL     OW23932   3.812   1.368   5.625
 7678SOL    HW123933   3.863   1.309   5.563
 7678SOL    HW223934   3.727   1.397   5.581
 7679SOL     OW23935   2.880   5.162   4.531
 7679SOL    HW123936   2.844   5.203   4.447
 7679SOL    HW223937   2.957   5.102   4.507
 7680SOL     OW23938   2.201   0.075   4.147
 7680SOL    HW123939   2.130   0.023   4.195
 7680SOL    HW223940   2.215   0.037   4.056
 7681SOL     OW23941   2.006   2.363   5.341
 7681SOL    HW123942   2.083   2.300   5.339
 7681SOL    HW223943   2.039   2.457   5.338
 7682SOL     OW23944   3.315   0.929   2.370
 7682SOL    HW123945   3.311   0.908   2.273
 7682SOL    HW223946   3.298   0.845   2.423
 7683SOL     OW23947   0.604   4.463   4.524
 7683SOL    HW123948   0.633   4.557   4.543
 7683SOL    HW223949   0.643   4.402   4.593
 7684SOL     OW23950   5.033   2.945   1.405
 7684SOL    HW123951   5.004   2.964   1.498
 7684SOL    HW223952   4.972   2.879   1.363
 7685SOL     OW23953   2.735   0.299   0.636
 7685SOL    HW123954   2.817   0.331   0.588
 7685SOL    HW223955   2.754   0.210   0.678
 7686SOL     OW23956   7.013   0.247   4.263
 7686SOL    HW123957   0.050   0.264   4.183
 7686SOL    HW223958   0.050   0.233   4.343
 7687SOL     OW23959   5.022   3.366   6.211
 7687SOL    HW123960   5.047   3.278   6.170
 7687SOL    HW223961   4.993   3.352   6.305
 7688SOL     OW23962   5.771   2.722   0.131
 7688SOL    HW123963   5.815   2.652   0.075
 7688SOL    HW223964   5.678   2.693   0.154
 7689SOL     OW23965   5.692   0.459   2.468
 7689SOL    HW123966   5.633   0.475   2.388
 7689SOL    HW223967   5.730   0.546   2.499
 7690SOL     OW23968   5.322   4.881   1.985
 7690SOL    HW123969   5.406   4.923   2.021
 7690SOL    HW223970   5.299   4.922   1.897
 7691SOL     OW23971   5.188   2.989   4.082
 7691SOL    HW123972   5.139   2.938   4.153
 7691SOL    HW223973   5.172   2.947   3.993
 7692SOL     OW23974   2.636   6.633   2.031
 7692SOL    HW123975   2.555   6.584   2.063
 7692SOL    HW223976   2.609   6.703   1.964
 7693SOL     OW23977   2.878   1.399   1.796
 7693SOL    HW123978   2.933   1.483   1.790
 7693SOL    HW223979   2.806   1.403   1.727
 7694SOL     OW23980   3.980   2.548   6.899
 7694SOL    HW123981   4.004   2.506   6.987
 7694SOL    HW223982   4.005   2.645   6.900
 7695SOL     OW23983   5.255   6.855   3.666
 7695SOL    HW123984   5.344   6.858   3.620
 7695SOL    HW223985   5.200   6.933   3.636
 7696SOL     OW23986   2.825   2.320   5.507
 7696SOL    HW123987   2.914   2.362   5.488
 7696SOL    HW223988   2.753   2.372   5.460
 7697SOL     OW23989   5.759   6.440   2.832
 7697SOL    HW123990   5.855   6.454   2.807
 7697SOL    HW223991   5.708   6.525   2.819
 7698SOL     OW23992   6.623   2.502   1.249
 7698SOL    HW123993   6.598   2.458   1.335
 7698SOL    HW223994   6.555   2.572   1.226
 7699SOL     OW23995   4.060   6.814   5.746
 7699SOL    HW123996   3.966   6.793   5.774
 7699SOL    HW223997   4.058   6.859   5.656
 7700SOL     OW23998   6.210   5.451   1.677
 7700SOL    HW123999   6.307   5.429   1.669
 7700SOL    HW224000   6.200   5.547   1.704
 7701SOL     OW24001   2.203   1.500   6.629
 7701SOL    HW124002   2.128   1.468   6.687
 7701SOL    HW224003   2.212   1.441   6.550
 7702SOL     OW24004   5.485   6.610   5.579
 7702SOL    HW124005   5.440   6.538   5.527
 7702SOL    HW224006   5.529   6.674   5.516
 7703SOL     OW24007   0.077   6.323   5.736
 7703SOL    HW124008   0.147   6.281   5.793
 7703SOL    HW224009   0.099   6.420   5.722
 7704SOL     OW24010   1.685   1.905   4.646
 7704SOL    HW124011   1.596   1.866   4.671
 7704SOL    HW224012   1.677   2.005   4.644
 7705SOL     OW24013   0.281   4.231   6.884
 7705SOL    HW124014   0.365   4.200   6.841
 7705SOL    HW224015   0.230   4.288   6.820
 7706SOL     OW24016   2.972   3.631   2.287
 7706SOL    HW124017   3.067   3.627   2.317
 7706SOL    HW224018   2.912   3.598   2.360
 7707SOL     OW24019   0.011   4.342   6.323
 7707SOL    HW124020   0.057   4.417   6.274
 7707SOL    HW224021   6.969   4.380   6.391
 7708SOL     OW24022   0.737   6.758   4.616
 7708SOL    HW124023   0.638   6.752   4.621
 7708SOL    HW224024   0.774   6.671   4.581
 7709SOL     OW24025   6.664   4.400   0.854
 7709SOL    HW124026   6.617   4.466   0.914
 7709SOL    HW224027   6.607   4.382   0.774
 7710SOL     OW24028   6.266   3.057   2.027
 7710SOL    HW124029   6.277   3.150   2.061
 7710SOL    HW224030   6.311   3.048   1.938
 7711SOL     OW24031   1.132   4.494   3.679
 7711SOL    HW124032   1.152   4.489   3.581
 7711SOL    HW224033   1.112   4.589   3.704
 7712SOL     OW24034   0.765   4.782   4.375
 7712SOL    HW124035   0.724   4.704   4.329
 7712SOL    HW224036   0.720   4.866   4.344
 7713SOL     OW24037   0.909   4.979   0.675
 7713SOL    HW124038   0.874   4.906   0.734
 7713SOL    HW224039   0.877   5.068   0.709
 7714SOL     OW24040   6.071   1.654   5.451
 7714SOL    HW124041   6.113   1.695   5.532
 7714SOL    HW224042   6.046   1.559   5.472
 7715SOL     OW24043   3.688   2.935   6.678
 7715SOL    HW124044   3.647   2.964   6.765
 7715SOL    HW224045   3.787   2.942   6.685
 7716SOL     OW24046   1.138   0.142   6.174
 7716SOL    HW124047   1.114   0.052   6.208
 7716SOL    HW224048   1.068   0.208   6.202
 7717SOL     OW24049   0.752   1.511   6.113
 7717SOL    HW124050   0.664   1.483   6.152
 7717SOL    HW224051   0.740   1.598   6.065
 7718SOL     OW24052   0.211   3.374   2.714
 7718SOL    HW124053   0.231   3.297   2.654
 7718SOL    HW224054   0.151   3.344   2.788
 7719SOL     OW24055   2.043   5.732   5.101
 7719SOL    HW124056   2.072   5.827   5.097
 7719SOL    HW224057   1.943   5.727   5.104
 7720SOL     OW24058   4.551   1.505   6.774
 7720SOL    HW124059   4.455   1.510   6.802
 7720SOL    HW224060   4.604   1.575   6.823
 7721SOL     OW24061   5.813   5.573   2.223
 7721SOL    HW124062   5.911   5.589   2.215
 7721SOL    HW224063   5.796   5.494   2.282
 7722SOL     OW24064   0.842   5.958   4.481
 7722SOL    HW124065   0.870   6.017   4.405
 7722SOL    HW224066   0.908   5.966   4.556
 7723SOL     OW24067   4.066   4.345   6.878
 7723SOL    HW124068   4.089   4.420   6.939
 7723SOL    HW224069   3.970   4.320   6.890
 7724SOL     OW24070   1.122   3.580   0.193
 7724SOL    HW124071   1.159   3.488   0.208
 7724SOL    HW224072   1.189   3.635   0.143
 7725SOL     OW24073   5.688   3.884   4.289
 7725SOL    HW124074   5.680   3.935   4.375
 7725SOL    HW224075   5.684   3.786   4.307
 7726SOL     OW24076   2.083   3.190   6.905
 7726SOL    HW124077   2.125   3.233   6.985
 7726SOL    HW224078   2.011   3.249   6.870
 7727SOL     OW24079   5.552   0.662   2.704
 7727SOL    HW124080   5.478   0.698   2.761
 7727SOL    HW224081   5.637   0.660   2.758
 7728SOL     OW24082   2.023   3.444   4.706
 7728SOL    HW124083   2.054   3.472   4.797
 7728SOL    HW224084   2.046   3.348   4.690
 7729SOL     OW24085   0.173   1.243   2.712
 7729SOL    HW124086   0.119   1.226   2.795
 7729SOL    HW224087   0.192   1.156   2.667
 7730SOL     OW24088   5.984   4.566   5.454
 7730SOL    HW124089   5.950   4.477   5.423
 7730SOL    HW224090   5.909   4.619   5.493
 7731SOL     OW24091   6.913   0.233   5.741
 7731SOL    HW124092   6.935   0.327   5.716
 7731SOL    HW224093   6.823   0.208   5.705
 7732SOL     OW24094   4.871   0.933   0.192
 7732SOL    HW124095   4.839   0.995   0.121
 7732SOL    HW224096   4.971   0.939   0.200
 7733SOL     OW24097   6.824   5.617   1.130
 7733SOL    HW124098   6.784   5.666   1.208
 7733SOL    HW224099   6.778   5.645   1.046
 7734SOL     OW24100   4.047   3.849   3.309
 7734SOL    HW124101   3.992   3.784   3.257
 7734SOL    HW224102   4.143   3.820   3.309
 7735SOL     OW24103   1.141   5.864   0.937
 7735SOL    HW124104   1.200   5.885   1.014
 7735SOL    HW224105   1.172   5.914   0.856
 7736SOL     OW24106   1.825   1.869   0.401
 7736SOL    HW124107   1.879   1.786   0.384
 7736SOL    HW224108   1.865   1.946   0.351
 7737SOL     OW24109   4.322   4.383   6.732
 7737SOL    HW124110   4.231   4.380   6.773
 7737SOL    HW224111   4.382   4.319   6.779
 7738SOL     OW24112   1.600   0.967   5.630
 7738SOL    HW124113   1.604   0.868   5.643
 7738SOL    HW224114   1.549   1.009   5.706
 7739SOL     OW24115   1.784   2.565   0.703
 7739SOL    HW124116   1.846   2.487   0.691
 7739SOL    HW224117   1.799   2.631   0.629
 7740SOL     OW24118   2.793   0.761   4.118
 7740SOL    HW124119   2.800   0.680   4.059
 7740SOL    HW224120   2.862   0.755   4.191
 7741SOL     OW24121   6.815   3.957   5.993
 7741SOL    HW124122   6.874   3.881   5.964
 7741SOL    HW224123   6.833   3.978   6.089
 7742SOL     OW24124   4.322   2.320   3.726
 7742SOL    HW124125   4.346   2.297   3.632
 7742SOL    HW224126   4.373   2.402   3.754
 7743SOL     OW24127   3.571   1.244   6.247
 7743SOL    HW124128   3.616   1.330   6.221
 7743SOL    HW224129   3.477   1.262   6.276
 7744SOL     OW24130   0.478   6.812   4.636
 7744SOL    HW124131   0.418   6.784   4.711
 7744SOL    HW224132   0.476   6.743   4.564
 7745SOL     OW24133   2.900   0.040   0.903
 7745SOL    HW124134   2.828   0.109   0.896
 7745SOL    HW224135   2.867   6.974   0.865
 7746SOL     OW24136   0.130   6.412   1.081
 7746SOL    HW124137   0.037   6.423   1.047
 7746SOL    HW224138   0.181   6.497   1.068
 7747SOL     OW24139   0.308   5.271   1.325
 7747SOL    HW124140   0.284   5.208   1.252
 7747SOL    HW224141   0.403   5.301   1.314
 7748SOL     OW24142   4.522   0.977   6.172
 7748SOL    HW124143   4.473   0.894   6.142
 7748SOL    HW224144   4.484   1.056   6.124
 7749SOL     OW24145   3.499   3.136   2.970
 7749SOL    HW124146   3.416   3.081   2.983
 7749SOL    HW224147   3.482   3.205   2.900
 7750SOL     OW24148   5.056   4.993   6.141
 7750SOL    HW124149   5.136   5.049   6.162
 7750SOL    HW224150   4.998   5.040   6.074
 7751SOL     OW24151   7.012   0.807   4.666
 7751SOL    HW124152   0.019   0.838   4.575
 7751SOL    HW224153   7.013   0.885   4.729
 7752SOL     OW24154   6.409   4.825   5.083
 7752SOL    HW124155   6.390   4.773   5.166
 7752SOL    HW224156   6.495   4.875   5.094
 7753SOL     OW24157   3.006   0.750   5.001
 7753SOL    HW124158   3.037   0.656   5.012
 7753SOL    HW224159   2.970   0.762   4.908
 7754SOL     OW24160   6.013   0.803   0.914
 7754SOL    HW124161   5.992   0.891   0.956
 7754SOL    HW224162   6.109   0.779   0.932
 7755SOL     OW24163   1.512   6.193   5.437
 7755SOL    HW124164   1.524   6.287   5.472
 7755SOL    HW224165   1.601   6.150   5.427
 7756SOL     OW24166   4.023   5.685   3.229
 7756SOL    HW124167   4.120   5.673   3.208
 7756SOL    HW224168   3.974   5.600   3.210
 7757SOL     OW24169   3.539   0.461   5.989
 7757SOL    HW124170   3.508   0.461   6.084
 7757SOL    HW224171   3.537   0.555   5.953
 7758SOL     OW24172   2.786   2.662   6.190
 7758SOL    HW124173   2.687   2.654   6.178
 7758SOL    HW224174   2.819   2.740   6.136
 7759SOL     OW24175   1.514   0.697   4.775
 7759SOL    HW124176   1.451   0.626   4.806
 7759SOL    HW224177   1.472   0.750   4.702
 7760SOL     OW24178   5.106   2.445   3.399
 7760SOL    HW124179   5.009   2.471   3.402
 7760SOL    HW224180   5.143   2.464   3.308
 7761SOL     OW24181   4.729   0.790   7.014
 7761SOL    HW124182   4.650   0.847   6.992
 7761SOL    HW224183   4.781   0.832   0.068
 7762SOL     OW24184   1.577   2.685   0.250
 7762SOL    HW124185   1.509   2.756   0.268
 7762SOL    HW224186   1.532   2.596   0.245
 7763SOL     OW24187   2.272   2.357   1.618
 7763SOL    HW124188   2.317   2.444   1.599
 7763SOL    HW224189   2.318   2.312   1.695
 7764SOL     OW24190   3.887   3.401   2.288
 7764SOL    HW124191   3.796   3.361   2.300
 7764SOL    HW224192   3.879   3.498   2.267
 7765SOL     OW24193   6.827   1.563   2.097
 7765SOL    HW124194   6.783   1.559   2.007
 7765SOL    HW224195   6.829   1.658   2.128
 7766SOL     OW24196   6.811   2.990   6.701
 7766SOL    HW124197   6.804   3.075   6.753
 7766SOL    HW224198   6.870   3.005   6.621
 7767SOL     OW24199   5.526   4.037   5.168
 7767SOL    HW124200   5.610   4.016   5.218
 7767SOL    HW224201   5.455   4.064   5.232
 7768SOL     OW24202   3.994   5.294   1.696
 7768SOL    HW124203   4.018   5.238   1.617
 7768SOL    HW224204   3.899   5.325   1.687
 7769SOL     OW24205   5.750   2.136   2.908
 7769SOL    HW124206   5.651   2.125   2.908
 7769SOL    HW224207   5.780   2.165   2.999
 7770SOL     OW24208   3.516   6.158   1.286
 7770SOL    HW124209   3.472   6.116   1.365
 7770SOL    HW224210   3.614   6.168   1.303
 7771SOL     OW24211   1.882   1.320   4.207
 7771SOL    HW124212   1.918   1.334   4.299
 7771SOL    HW224213   1.847   1.407   4.172
 7772SOL     OW24214   5.982   0.643   5.410
 7772SOL    HW124215   5.986   0.558   5.462
 7772SOL    HW224216   5.945   0.625   5.319
 7773SOL     OW24217   3.671   4.610   6.234
 7773SOL    HW124218   3.688   4.601   6.332
 7773SOL    HW224219   3.758   4.610   6.185
 7774SOL     OW24220   5.018   1.848   6.815
 7774SOL    HW124221   5.023   1.748   6.819
 7774SOL    HW224222   5.079   1.888   6.884
 7775SOL     OW24223   1.703   6.892   2.155
 7775SOL    HW124224   1.769   6.846   2.095
 7775SOL    HW224225   1.751   6.957   2.213
 7776SOL     OW24226   3.406   3.591   0.967
 7776SOL    HW124227   3.342   3.517   0.947
 7776SOL    HW224228   3.421   3.596   1.066
 7777SOL     OW24229   0.994   0.024   6.618
 7777SOL    HW124230   1.062   6.977   6.647
 7777SOL    HW224231   1.033   0.116   6.622
 7778SOL     OW24232   4.949   1.866   1.548
 7778SOL    HW124233   4.874   1.800   1.549
 7778SOL    HW224234   4.928   1.942   1.610
 7779SOL     OW24235   4.127   2.763   0.258
 7779SOL    HW124236   4.183   2.836   0.218
 7779SOL    HW224237   4.166   2.735   0.346
 7780SOL     OW24238   1.104   0.179   4.897
 7780SOL    HW124239   1.029   0.182   4.831
 7780SOL    HW224240   1.148   0.089   4.892
 7781SOL     OW24241   1.991   4.808   5.493
 7781SOL    HW124242   1.931   4.728   5.496
 7781SOL    HW224243   2.053   4.805   5.572
 7782SOL     OW24244   4.664   4.560   0.147
 7782SOL    HW124245   4.714   4.628   0.093
 7782SOL    HW224246   4.611   4.606   0.218
 7783SOL     OW24247   2.233   6.106   0.210
 7783SOL    HW124248   2.330   6.091   0.193
 7783SOL    HW224249   2.220   6.139   0.304
 7784SOL     OW24250   6.642   3.600   0.672
 7784SOL    HW124251   6.654   3.670   0.742
 7784SOL    HW224252   6.555   3.616   0.623
 7785SOL     OW24253   1.638   5.473   6.371
 7785SOL    HW124254   1.693   5.523   6.304
 7785SOL    HW224255   1.612   5.535   6.445
 7786SOL     OW24256   3.610   4.210   4.876
 7786SOL    HW124257   3.628   4.112   4.887
 7786SOL    HW224258   3.685   4.252   4.826
 7787SOL     OW24259   2.957   2.500   5.310
 7787SOL    HW124260   3.036   2.439   5.318
 7787SOL    HW224261   2.876   2.448   5.285
 7788SOL     OW24262   0.068   2.253   0.879
 7788SOL    HW124263   0.152   2.274   0.929
 7788SOL    HW224264   0.053   2.154   0.878
 7789SOL     OW24265   2.291   0.045   1.636
 7789SOL    HW124266   2.355   0.096   1.579
 7789SOL    HW224267   2.308   0.066   1.733
 7790SOL     OW24268   6.432   3.402   2.785
 7790SOL    HW124269   6.439   3.445   2.695
 7790SOL    HW224270   6.386   3.465   2.848
 7791SOL     OW24271   0.259   4.966   5.439
 7791SOL    HW124272   0.223   4.956   5.346
 7791SOL    HW224273   0.235   4.885   5.493
 7792SOL     OW24274   1.779   5.646   6.701
 7792SOL    HW124275   1.848   5.577   6.722
 7792SOL    HW224276   1.757   5.697   6.784
 7793SOL     OW24277   1.940   1.048   6.463
 7793SOL    HW124278   2.040   1.041   6.471
 7793SOL    HW224279   1.916   1.083   6.372
 7794SOL     OW24280   5.228   5.531   2.754
 7794SOL    HW124281   5.222   5.435   2.781
 7794SOL    HW224282   5.185   5.544   2.665
 7795SOL     OW24283   1.410   4.237   6.417
 7795SOL    HW124284   1.453   4.242   6.327
 7795SOL    HW224285   1.481   4.236   6.488
 7796SOL     OW24286   3.981   3.906   4.895
 7796SOL    HW124287   4.015   3.813   4.889
 7796SOL    HW224288   4.054   3.967   4.928
 7797SOL     OW24289   1.159   0.006   3.012
 7797SOL    HW124290   1.107   0.070   3.069
 7797SOL    HW224291   1.193   6.952   3.069
 7798SOL     OW24292   3.976   6.160   6.007
 7798SOL    HW124293   4.048   6.215   6.049
 7798SOL    HW224294   3.936   6.211   5.931
 7799SOL     OW24295   6.393   5.293   1.302
 7799SOL    HW124296   6.458   5.307   1.227
 7799SOL    HW224297   6.336   5.375   1.312
 7800SOL     OW24298   0.717   6.388   2.115
 7800SOL    HW124299   0.729   6.365   2.018
 7800SOL    HW224300   0.662   6.317   2.159
 7801SOL     OW24301   4.155   2.122   5.263
 7801SOL    HW124302   4.226   2.067   5.220
 7801SOL    HW224303   4.065   2.085   5.240
 7802SOL     OW24304   5.500   2.315   0.283
 7802SOL    HW124305   5.509   2.299   0.382
 7802SOL    HW224306   5.556   2.248   0.234
 7803SOL     OW24307   3.171   3.937   5.444
 7803SOL    HW124308   3.181   4.037   5.452
 7803SOL    HW224309   3.135   3.914   5.354
 7804SOL     OW24310   4.900   0.841   6.431
 7804SOL    HW124311   4.854   0.901   6.366
 7804SOL    HW224312   4.866   0.747   6.420
 7805SOL     OW24313   5.140   2.634   1.578
 7805SOL    HW124314   5.065   2.669   1.522
 7805SOL    HW224315   5.217   2.697   1.574
 7806SOL     OW24316   4.741   3.245   6.822
 7806SOL    HW124317   4.643   3.262   6.826
 7806SOL    HW224318   4.759   3.147   6.819
 7807SOL     OW24319   0.429   2.979   0.337
 7807SOL    HW124320   0.391   2.944   0.252
 7807SOL    HW224321   0.512   3.031   0.318
 7808SOL     OW24322   0.755   0.682   5.146
 7808SOL    HW124323   0.811   0.616   5.196
 7808SOL    HW224324   0.758   0.770   5.194
 7809SOL     OW24325   1.111   5.551   5.596
 7809SOL    HW124326   1.058   5.555   5.681
 7809SOL    HW224327   1.063   5.493   5.530
 7810SOL     OW24328   2.731   1.299   6.819
 7810SOL    HW124329   2.644   1.321   6.774
 7810SOL    HW224330   2.720   1.309   6.918
 7811SOL     OW24331   0.233   4.717   4.813
 7811SOL    HW124332   0.158   4.708   4.879
 7811SOL    HW224333   0.261   4.812   4.808
 7812SOL     OW24334   0.509   1.943   3.458
 7812SOL    HW124335   0.433   1.889   3.494
 7812SOL    HW224336   0.555   1.891   3.385
 7813SOL     OW24337   6.297   2.526   0.919
 7813SOL    HW124338   6.276   2.428   0.919
 7813SOL    HW224339   6.395   2.539   0.908
 7814SOL     OW24340   1.818   3.122   4.622
 7814SOL    HW124341   1.819   3.088   4.528
 7814SOL    HW224342   1.912   3.123   4.658
 7815SOL     OW24343   0.062   1.707   5.355
 7815SOL    HW124344   0.082   1.803   5.336
 7815SOL    HW224345   0.130   1.649   5.310
 7816SOL     OW24346   1.099   4.720   5.199
 7816SOL    HW124347   1.006   4.709   5.234
 7816SOL    HW224348   1.164   4.719   5.275
 7817SOL     OW24349   5.596   3.499   5.822
 7817SOL    HW124350   5.516   3.452   5.859
 7817SOL    HW224351   5.630   3.451   5.741
 7818SOL     OW24352   5.194   4.172   2.829
 7818SOL    HW124353   5.249   4.159   2.747
 7818SOL    HW224354   5.098   4.160   2.807
 7819SOL     OW24355   0.868   1.284   0.778
 7819SOL    HW124356   0.936   1.295   0.851
 7819SOL    HW224357   0.777   1.276   0.818
 7820SOL     OW24358   2.729   0.212   6.499
 7820SOL    HW124359   2.765   0.169   6.582
 7820SOL    HW224360   2.652   0.271   6.523
 7821SOL     OW24361   3.118   5.082   0.608
 7821SOL    HW124362   3.151   5.034   0.526
 7821SOL    HW224363   3.127   5.180   0.595
 7822SOL     OW24364   2.080   6.378   6.057
 7822SOL    HW124365   2.042   6.410   5.971
 7822SOL    HW224366   2.179   6.395   6.058
 7823SOL     OW24367   1.881   3.867   5.016
 7823SOL    HW124368   1.960   3.915   5.056
 7823SOL    HW224369   1.877   3.774   5.053
 7824SOL     OW24370   0.780   3.412   5.332
 7824SOL    HW124371   0.712   3.342   5.308
 7824SOL    HW224372   0.871   3.371   5.332
 7825SOL     OW24373   3.226   0.804   6.925
 7825SOL    HW124374   3.146   0.851   6.962
 7825SOL    HW224375   3.276   0.758   6.999
 7826SOL     OW24376   0.756   3.599   5.705
 7826SOL    HW124377   0.702   3.515   5.698
 7826SOL    HW224378   0.853   3.577   5.693
 7827SOL     OW24379   5.841   5.357   4.289
 7827SOL    HW124380   5.783   5.282   4.257
 7827SOL    HW224381   5.937   5.328   4.286
 7828SOL     OW24382   0.822   5.035   6.564
 7828SOL    HW124383   0.858   4.952   6.607
 7828SOL    HW224384   0.724   5.041   6.581
 7829SOL     OW24385   4.347   4.913   0.734
 7829SOL    HW124386   4.404   4.986   0.773
 7829SOL    HW224387   4.379   4.824   0.767
 7830SOL     OW24388   2.335   5.618   3.523
 7830SOL    HW124389   2.294   5.705   3.497
 7830SOL    HW224390   2.408   5.594   3.458
 7831SOL     OW24391   1.701   0.422   5.795
 7831SOL    HW124392   1.789   0.401   5.754
 7831SOL    HW224393   1.702   0.398   5.892
 7832SOL     OW24394   6.572   0.913   5.499
 7832SOL    HW124395   6.523   0.999   5.506
 7832SOL    HW224396   6.548   0.853   5.576
 7833SOL     OW24397   0.716   0.393   2.767
 7833SOL    HW124398   0.756   0.327   2.703
 7833SOL    HW224399   0.653   0.453   2.719
 7834SOL     OW24400   6.720   3.354   4.741
 7834SOL    HW124401   6.746   3.258   4.754
 7834SOL    HW224402   6.729   3.379   4.645
 7835SOL     OW24403   4.316   2.295   5.797
 7835SOL    HW124404   4.304   2.352   5.715
 7835SOL    HW224405   4.232   2.243   5.815
 7836SOL     OW24406   3.288   3.874   4.797
 7836SOL    HW124407   3.277   3.960   4.846
 7836SOL    HW224408   3.213   3.861   4.734
 7837SOL     OW24409   0.965   5.303   6.842
 7837SOL    HW124410   1.032   5.228   6.838
 7837SOL    HW224411   1.008   5.388   6.812
 7838SOL     OW24412   4.300   5.274   2.149
 7838SOL    HW124413   4.377   5.335   2.165
 7838SOL    HW224414   4.270   5.283   2.054
 7839SOL     OW24415   6.305   4.511   4.355
 7839SOL    HW124416   6.290   4.559   4.441
 7839SOL    HW224417   6.374   4.440   4.368
 7840SOL     OW24418   2.255   2.684   3.692
 7840SOL    HW124419   2.208   2.649   3.773
 7840SOL    HW224420   2.272   2.782   3.703
 7841SOL     OW24421   3.972   1.925   5.855
 7841SOL    HW124422   3.893   1.886   5.901
 7841SOL    HW224423   4.053   1.870   5.875
 7842SOL     OW24424   0.982   0.662   1.018
 7842SOL    HW124425   1.071   0.692   0.983
 7842SOL    HW224426   0.948   0.728   1.085
 7843SOL     OW24427   6.854   6.686   1.890
 7843SOL    HW124428   6.862   6.656   1.795
 7843SOL    HW224429   6.763   6.664   1.926
 7844SOL     OW24430   4.319   0.229   2.521
 7844SOL    HW124431   4.263   0.146   2.530
 7844SOL    HW224432   4.345   0.261   2.612
 7845SOL     OW24433   6.003   3.230   1.046
 7845SOL    HW124434   5.996   3.296   1.121
 7845SOL    HW224435   5.915   3.184   1.035
 7846SOL     OW24436   0.967   1.039   0.604
 7846SOL    HW124437   1.020   1.098   0.543
 7846SOL    HW224438   0.929   1.095   0.678
 7847SOL     OW24439   5.440   4.377   6.104
 7847SOL    HW124440   5.404   4.293   6.063
 7847SOL    HW224441   5.533   4.360   6.138
 7848SOL     OW24442   3.961   4.649   0.277
 7848SOL    HW124443   3.914   4.579   0.330
 7848SOL    HW224444   4.060   4.644   0.294
 7849SOL     OW24445   4.271   5.269   6.814
 7849SOL    HW124446   4.187   5.246   6.864
 7849SOL    HW224447   4.342   5.202   6.837
 7850SOL     OW24448   0.214   0.493   3.793
 7850SOL    HW124449   0.114   0.501   3.802
 7850SOL    HW224450   0.257   0.505   3.882
 7851SOL     OW24451   0.304   5.092   1.068
 7851SOL    HW124452   0.369   5.100   0.992
 7851SOL    HW224453   0.301   4.997   1.099
 7852SOL     OW24454   1.095   3.287   5.863
 7852SOL    HW124455   1.065   3.342   5.785
 7852SOL    HW224456   1.115   3.346   5.941
 7853SOL     OW24457   3.981   2.947   1.659
 7853SOL    HW124458   3.914   2.888   1.615
 7853SOL    HW224459   3.981   3.036   1.614
 7854SOL     OW24460   4.349   1.356   1.182
 7854SOL    HW124461   4.275   1.402   1.230
 7854SOL    HW224462   4.433   1.410   1.188
 7855SOL     OW24463   5.529   6.494   3.859
 7855SOL    HW124464   5.541   6.592   3.868
 7855SOL    HW224465   5.531   6.451   3.949
 7856SOL     OW24466   2.081   6.358   5.760
 7856SOL    HW124467   2.096   6.259   5.765
 7856SOL    HW224468   2.107   6.391   5.670
 7857SOL     OW24469   6.796   4.813   0.860
 7857SOL    HW124470   6.807   4.767   0.772
 7857SOL    HW224471   6.729   4.887   0.850
 7858SOL     OW24472   0.373   4.005   5.872
 7858SOL    HW124473   0.322   3.996   5.787
 7858SOL    HW224474   0.357   3.924   5.929
 7859SOL     OW24475   4.947   2.268   0.921
 7859SOL    HW124476   4.896   2.191   0.880
 7859SOL    HW224477   4.889   2.314   0.988
 7860SOL     OW24478   2.346   1.453   3.521
 7860SOL    HW124479   2.429   1.410   3.556
 7860SOL    HW224480   2.363   1.551   3.507
 7861SOL     OW24481   1.781   5.933   1.014
 7861SOL    HW124482   1.855   5.984   1.057
 7861SOL    HW224483   1.808   5.838   1.002
 7862SOL     OW24484   1.561   6.694   6.901
 7862SOL    HW124485   1.522   6.766   6.960
 7862SOL    HW224486   1.630   6.643   6.952
 7863SOL     OW24487   1.182   4.243   4.371
 7863SOL    HW124488   1.176   4.151   4.410
 7863SOL    HW224489   1.095   4.291   4.386
 7864SOL     OW24490   2.730   5.898   5.083
 7864SOL    HW124491   2.636   5.932   5.078
 7864SOL    HW224492   2.730   5.805   5.120
 7865SOL     OW24493   5.770   4.759   3.626
 7865SOL    HW124494   5.761   4.660   3.611
 7865SOL    HW224495   5.860   4.779   3.663
 7866SOL     OW24496   1.222   0.965   5.532
 7866SOL    HW124497   1.212   1.060   5.562
 7866SOL    HW224498   1.253   0.908   5.608
 7867SOL     OW24499   3.981   4.801   3.830
 7867SOL    HW124500   3.897   4.840   3.867
 7867SOL    HW224501   4.043   4.778   3.905
 7868SOL     OW24502   3.535   6.364   1.607
 7868SOL    HW124503   3.606   6.425   1.573
 7868SOL    HW224504   3.447   6.412   1.606
 7869SOL     OW24505   5.716   5.029   0.098
 7869SOL    HW124506   5.711   4.944   0.046
 7869SOL    HW224507   5.806   5.071   0.085
 7870SOL     OW24508   6.145   6.823   3.722
 7870SOL    HW124509   6.129   6.725   3.735
 7870SOL    HW224510   6.172   6.840   3.627
 7871SOL     OW24511   4.365   1.295   0.610
 7871SOL    HW124512   4.447   1.260   0.565
 7871SOL    HW224513   4.301   1.329   0.541
 7872SOL     OW24514   0.030   5.211   3.012
 7872SOL    HW124515   0.079   5.281   2.960
 7872SOL    HW224516   6.955   5.238   3.023
 7873SOL     OW24517   4.465   2.328   6.634
 7873SOL    HW124518   4.380   2.360   6.676
 7873SOL    HW224519   4.489   2.239   6.672
 7874SOL     OW24520   6.099   2.509   0.037
 7874SOL    HW124521   6.140   2.600   0.038
 7874SOL    HW224522   6.160   2.445   0.085
 7875SOL     OW24523   6.492   4.694   6.647
 7875SOL    HW124524   6.502   4.685   6.548
 7875SOL    HW224525   6.536   4.778   6.678
 7876SOL     OW24526   1.291   6.139   3.215
 7876SOL    HW124527   1.234   6.164   3.293
 7876SOL    HW224528   1.353   6.214   3.194
 7877SOL     OW24529   0.115   3.136   2.553
 7877SOL    HW124530   0.083   3.110   2.645
 7877SOL    HW224531   0.154   3.056   2.508
 7878SOL     OW24532   3.862   6.982   2.568
 7878SOL    HW124533   3.774   0.003   2.544
 7878SOL    HW224534   3.898   0.005   2.650
 7879SOL     OW24535   3.045   5.563   2.731
 7879SOL    HW124536   2.980   5.490   2.755
 7879SOL    HW224537   2.995   5.648   2.715
 7880SOL     OW24538   0.854   4.940   1.935
 7880SOL    HW124539   0.873   5.034   1.965
 7880SOL    HW224540   0.755   4.925   1.936
 7881SOL     OW24541   4.929   3.525   3.882
 7881SOL    HW124542   5.027   3.526   3.860
 7881SOL    HW224543   4.909   3.447   3.940
 7882SOL     OW24544   0.188   2.587   6.628
 7882SOL    HW124545   0.152   2.665   6.680
 7882SOL    HW224546   0.143   2.583   6.539
 7883SOL     OW24547   0.622   0.036   4.542
 7883SOL    HW124548   0.533   7.013   4.556
 7883SOL    HW224549   0.681   6.995   4.489
 7884SOL     OW24550   1.283   3.139   4.136
 7884SOL    HW124551   1.214   3.152   4.208
 7884SOL    HW224552   1.337   3.057   4.155
 7885SOL     OW24553   0.003   5.802   0.018
 7885SOL    HW124554   6.986   5.769   6.952
 7885SOL    HW224555   0.012   5.726   0.082
 7886SOL     OW24556   4.805   3.862   0.781
 7886SOL    HW124557   4.824   3.933   0.712
 7886SOL    HW224558   4.706   3.848   0.787
 7887SOL     OW24559   4.527   2.778   6.050
 7887SOL    HW124560   4.592   2.735   6.112
 7887SOL    HW224561   4.462   2.709   6.018
 7888SOL     OW24562   4.635   5.933   4.753
 7888SOL    HW124563   4.593   5.972   4.672
 7888SOL    HW224564   4.565   5.915   4.822
 7889SOL     OW24565   6.686   5.052   3.028
 7889SOL    HW124566   6.719   4.959   3.015
 7889SOL    HW224567   6.748   5.101   3.090
 7890SOL     OW24568   1.651   3.200   2.855
 7890SOL    HW124569   1.649   3.137   2.777
 7890SOL    HW224570   1.724   3.172   2.918
 7891SOL     OW24571   0.882   4.483   3.005
 7891SOL    HW124572   0.834   4.400   3.034
 7891SOL    HW224573   0.941   4.514   3.080
 7892SOL     OW24574   2.347   1.948   4.739
 7892SOL    HW124575   2.358   2.012   4.663
 7892SOL    HW224576   2.318   1.859   4.705
 7893SOL     OW24577   5.600   6.539   1.028
 7893SOL    HW124578   5.680   6.580   1.070
 7893SOL    HW224579   5.517   6.574   1.072
 7894SOL     OW24580   2.536   0.450   2.275
 7894SOL    HW124581   2.562   0.357   2.252
 7894SOL    HW224582   2.618   0.507   2.281
 7895SOL     OW24583   0.398   1.060   3.353
 7895SOL    HW124584   0.369   1.119   3.427
 7895SOL    HW224585   0.459   0.989   3.388
 7896SOL     OW24586   3.866   1.716   6.174
 7896SOL    HW124587   3.807   1.635   6.183
 7896SOL    HW224588   3.811   1.798   6.187
 7897SOL     OW24589   3.210   2.953   6.634
 7897SOL    HW124590   3.117   2.990   6.646
 7897SOL    HW224591   3.222   2.926   6.539
 7898SOL     OW24592   5.285   1.186   4.254
 7898SOL    HW124593   5.280   1.088   4.272
 7898SOL    HW224594   5.220   1.234   4.313
 7899SOL     OW24595   4.799   1.090   2.027
 7899SOL    HW124596   4.756   1.088   2.118
 7899SOL    HW224597   4.898   1.098   2.037
 7900SOL     OW24598   1.186   5.871   1.540
 7900SOL    HW124599   1.247   5.815   1.485
 7900SOL    HW224600   1.221   5.965   1.546
 7901SOL     OW24601   5.995   5.132   0.686
 7901SOL    HW124602   6.037   5.188   0.757
 7901SOL    HW224603   5.934   5.065   0.728
 7902SOL     OW24604   5.131   4.750   5.637
 7902SOL    HW124605   5.155   4.847   5.645
 7902SOL    HW224606   5.111   4.729   5.541
 7903SOL     OW24607   0.205   3.363   1.261
 7903SOL    HW124608   0.176   3.309   1.182
 7903SOL    HW224609   0.284   3.320   1.304
 7904SOL     OW24610   5.888   2.282   2.724
 7904SOL    HW124611   5.971   2.309   2.772
 7904SOL    HW224612   5.843   2.209   2.774
 7905SOL     OW24613   1.853   1.381   1.952
 7905SOL    HW124614   1.890   1.326   2.026
 7905SOL    HW224615   1.841   1.475   1.982
 7906SOL     OW24616   0.536   4.209   6.772
 7906SOL    HW124617   0.617   4.269   6.771
 7906SOL    HW224618   0.498   4.204   6.680
 7907SOL     OW24619   6.945   2.930   3.103
 7907SOL    HW124620   7.017   2.902   3.039
 7907SOL    HW224621   6.885   2.997   3.058
 7908SOL     OW24622   0.250   1.849   2.724
 7908SOL    HW124623   0.323   1.894   2.777
 7908SOL    HW224624   0.199   1.787   2.783
 7909SOL     OW24625   4.119   6.571   4.695
 7909SOL    HW124626   4.130   6.496   4.630
 7909SOL    HW224627   4.123   6.534   4.788
 7910SOL     OW24628   6.779   2.564   5.604
 7910SOL    HW124629   6.827   2.583   5.689
 7910SOL    HW224630   6.686   2.534   5.623
 7911SOL     OW24631   0.321   5.391   6.794
 7911SOL    HW124632   0.323   5.407   6.695
 7911SOL    HW224633   0.360   5.469   6.842
 7912SOL     OW24634   6.985   5.161   5.410
 7912SOL    HW124635   0.013   5.074   5.398
 7912SOL    HW224636   6.912   5.149   5.477
 7913SOL     OW24637   1.506   6.238   6.535
 7913SOL    HW124638   1.427   6.203   6.484
 7913SOL    HW224639   1.474   6.293   6.612
 7914SOL     OW24640   6.275   4.453   0.985
 7914SOL    HW124641   6.182   4.488   0.972
 7914SOL    HW224642   6.322   4.448   0.897
 7915SOL     OW24643   2.984   1.006   2.594
 7915SOL    HW124644   2.987   1.078   2.663
 7915SOL    HW224645   2.953   0.921   2.637
 7916SOL     OW24646   4.402   4.001   5.783
 7916SOL    HW124647   4.480   4.022   5.842
 7916SOL    HW224648   4.393   4.070   5.712
 7917SOL     OW24649   3.922   3.786   3.538
 7917SOL    HW124650   3.965   3.826   3.457
 7917SOL    HW224651   3.963   3.697   3.557
 7918SOL     OW24652   6.177   1.998   2.668
 7918SOL    HW124653   6.115   1.937   2.716
 7918SOL    HW224654   6.249   1.945   2.624
 7919SOL     OW24655   5.481   3.978   1.917
 7919SOL    HW124656   5.478   4.072   1.884
 7919SOL    HW224657   5.511   3.918   1.842
 7920SOL     OW24658   0.209   6.630   1.786
 7920SOL    HW124659   0.170   6.582   1.865
 7920SOL    HW224660   0.294   6.676   1.814
 7921SOL     OW24661   2.699   5.939   2.028
 7921SOL    HW124662   2.787   5.936   1.979
 7921SOL    HW224663   2.710   5.993   2.112
 7922SOL     OW24664   0.928   4.916   5.348
 7922SOL    HW124665   0.988   4.916   5.428
 7922SOL    HW224666   0.865   4.839   5.354
 7923SOL     OW24667   1.015   1.869   2.855
 7923SOL    HW124668   1.031   1.780   2.812
 7923SOL    HW224669   0.939   1.861   2.919
 7924SOL     OW24670   2.089   0.738   3.222
 7924SOL    HW124671   2.053   0.696   3.139
 7924SOL    HW224672   2.187   0.753   3.212
 7925SOL     OW24673   0.596   1.275   6.961
 7925SOL    HW124674   0.599   1.222   6.876
 7925SOL    HW224675   0.664   1.239   0.005
 7926SOL     OW24676   3.353   0.264   2.106
 7926SOL    HW124677   3.351   0.329   2.030
 7926SOL    HW224678   3.351   0.171   2.070
 7927SOL     OW24679   4.419   4.590   4.448
 7927SOL    HW124680   4.348   4.536   4.403
 7927SOL    HW224681   4.456   4.657   4.383
 7928SOL     OW24682   0.399   4.415   6.368
 7928SOL    HW124683   0.323   4.480   6.360
 7928SOL    HW224684   0.378   4.349   6.439
 7929SOL     OW24685   3.873   3.935   4.631
 7929SOL    HW124686   3.917   3.886   4.556
 7929SOL    HW224687   3.904   3.897   4.719
 7930SOL     OW24688   4.333   6.773   2.971
 7930SOL    HW124689   4.328   6.688   3.024
 7930SOL    HW224690   4.273   6.841   3.014
 7931SOL     OW24691   2.979   3.742   6.337
 7931SOL    HW124692   2.904   3.806   6.354
 7931SOL    HW224693   3.004   3.744   6.241
 7932SOL     OW24694   3.058   0.253   0.662
 7932SOL    HW124695   3.092   0.347   0.662
 7932SOL    HW224696   3.008   0.235   0.577
 7933SOL     OW24697   1.861   1.176   6.132
 7933SOL    HW124698   1.872   1.077   6.131
 7933SOL    HW224699   1.950   1.219   6.146
 7934SOL     OW24700   3.930   2.454   5.895
 7934SOL    HW124701   3.936   2.516   5.817
 7934SOL    HW224702   3.947   2.360   5.864
 7935SOL     OW24703   4.842   5.735   2.210
 7935SOL    HW124704   4.794   5.817   2.241
 7935SOL    HW224705   4.857   5.739   2.112
 7936SOL     OW24706   4.305   6.184   2.021
 7936SOL    HW124707   4.260   6.134   2.095
 7936SOL    HW224708   4.401   6.199   2.045
 7937SOL     OW24709   6.141   1.712   6.040
 7937SOL    HW124710   6.087   1.711   6.124
 7937SOL    HW224711   6.121   1.795   5.988
 7938SOL     OW24712   6.535   5.055   4.396
 7938SOL    HW124713   6.594   4.983   4.431
 7938SOL    HW224714   6.581   5.144   4.407
 7939SOL     OW24715   0.364   6.518   4.214
 7939SOL    HW124716   0.402   6.435   4.252
 7939SOL    HW224717   0.438   6.572   4.172
 7940SOL     OW24718   1.346   5.896   0.688
 7940SOL    HW124719   1.409   5.880   0.764
 7940SOL    HW224720   1.360   5.988   0.653
 7941SOL     OW24721   0.630   0.592   1.055
 7941SOL    HW124722   0.729   0.605   1.059
 7941SOL    HW224723   0.607   0.506   1.100
 7942SOL     OW24724   1.258   0.930   1.700
 7942SOL    HW124725   1.343   0.953   1.652
 7942SOL    HW224726   1.274   0.851   1.759
 7943SOL     OW24727   6.379   1.968   0.310
 7943SOL    HW124728   6.468   1.979   0.355
 7943SOL    HW224729   6.307   1.985   0.377
 7944SOL     OW24730   6.966   3.910   1.910
 7944SOL    HW124731   0.038   3.947   1.918
 7944SOL    HW224732   6.908   3.950   1.980
 7945SOL     OW24733   5.540   0.467   0.509
 7945SOL    HW124734   5.621   0.438   0.560
 7945SOL    HW224735   5.562   0.548   0.454
 7946SOL     OW24736   2.105   1.739   5.559
 7946SOL    HW124737   2.050   1.773   5.482
 7946SOL    HW224738   2.054   1.750   5.644
 7947SOL     OW24739   4.431   5.557   6.181
 7947SOL    HW124740   4.504   5.546   6.113
 7947SOL    HW224741   4.410   5.654   6.191
 7948SOL     OW24742   0.899   5.199   6.136
 7948SOL    HW124743   0.888   5.131   6.064
 7948SOL    HW224744   0.980   5.255   6.117
 7949SOL     OW24745   6.957   4.002   3.746
 7949SOL    HW124746   6.909   3.918   3.720
 7949SOL    HW224747   6.979   3.998   3.844
 7950SOL     OW24748   3.775   4.940   3.995
 7950SOL    HW124749   3.733   4.922   4.084
 7950SOL    HW224750   3.868   4.975   4.008
 7951SOL     OW24751   2.202   3.683   0.774
 7951SOL    HW124752   2.173   3.725   0.860
 7951SOL    HW224753   2.291   3.640   0.786
 7952SOL     OW24754   5.879   4.732   0.535
 7952SOL    HW124755   5.836   4.796   0.598
 7952SOL    HW224756   5.809   4.677   0.490
 7953SOL     OW24757   1.804   3.385   2.730
 7953SOL    HW124758   1.747   3.318   2.778
 7953SOL    HW224759   1.756   3.473   2.728
 7954SOL     OW24760   5.088   5.166   4.385
 7954SOL    HW124761   5.182   5.162   4.352
 7954SOL    HW224762   5.078   5.104   4.463
 7955SOL     OW24763   2.232   6.182   6.421
 7955SOL    HW124764   2.196   6.121   6.351
 7955SOL    HW224765   2.159   6.241   6.456
 7956SOL     OW24766   6.025   6.489   2.670
 7956SOL    HW124767   6.043   6.570   2.613
 7956SOL    HW224768   5.967   6.425   2.619
 7957SOL     OW24769   1.490   2.265   1.146
 7957SOL    HW124770   1.451   2.240   1.057
 7957SOL    HW224771   1.436   2.340   1.186
 7958SOL     OW24772   2.505   5.816   3.300
 7958SOL    HW124773   2.533   5.820   3.204
 7958SOL    HW224774   2.455   5.899   3.324
 7959SOL     OW24775   5.142   5.382   1.649
 7959SOL    HW124776   5.154   5.478   1.674
 7959SOL    HW224777   5.177   5.324   1.723
 7960SOL     OW24778   1.411   2.664   1.465
 7960SOL    HW124779   1.489   2.678   1.405
 7960SOL    HW224780   1.431   2.701   1.556
 7961SOL     OW24781   0.797   6.197   0.216
 7961SOL    HW124782   0.860   6.129   0.255
 7961SOL    HW224783   0.713   6.151   0.188
 7962SOL     OW24784   1.809   6.502   2.603
 7962SOL    HW124785   1.786   6.595   2.576
 7962SOL    HW224786   1.738   6.439   2.569
 7963SOL     OW24787   0.989   6.450   5.046
 7963SOL    HW124788   0.950   6.541   5.061
 7963SOL    HW224789   0.918   6.380   5.059
 7964SOL     OW24790   6.435   5.572   3.730
 7964SOL    HW124791   6.421   5.631   3.809
 7964SOL    HW224792   6.346   5.545   3.692
 7965SOL     OW24793   4.206   1.824   0.573
 7965SOL    HW124794   4.156   1.783   0.497
 7965SOL    HW224795   4.252   1.752   0.625
 7966SOL     OW24796   6.929   6.895   3.549
 7966SOL    HW124797   6.961   6.845   3.468
 7966SOL    HW224798   7.004   6.949   3.586
 7967SOL     OW24799   3.133   0.316   3.672
 7967SOL    HW124800   3.147   0.415   3.670
 7967SOL    HW224801   3.040   0.296   3.703
 7968SOL     OW24802   2.627   1.090   1.411
 7968SOL    HW124803   2.644   1.060   1.318
 7968SOL    HW224804   2.680   1.173   1.430
 7969SOL     OW24805   3.733   1.285   3.502
 7969SOL    HW124806   3.647   1.253   3.461
 7969SOL    HW224807   3.745   1.241   3.591
 7970SOL     OW24808   0.306   5.017   3.812
 7970SOL    HW124809   0.221   4.989   3.767
 7970SOL    HW224810   0.355   4.936   3.845
 7971SOL     OW24811   3.355   1.720   2.139
 7971SOL    HW124812   3.363   1.819   2.129
 7971SOL    HW224813   3.272   1.689   2.093
 7972SOL     OW24814   6.225   5.525   1.323
 7972SOL    HW124815   6.273   5.612   1.331
 7972SOL    HW224816   6.142   5.527   1.380
 7973SOL     OW24817   5.172   2.042   3.088
 7973SOL    HW124818   5.110   1.993   3.027
 7973SOL    HW224819   5.165   2.003   3.180
 7974SOL     OW24820   5.653   6.148   4.025
 7974SOL    HW124821   5.608   6.153   3.936
 7974SOL    HW224822   5.663   6.240   4.063
 7975SOL     OW24823   1.869   1.146   2.439
 7975SOL    HW124824   1.917   1.060   2.423
 7975SOL    HW224825   1.935   1.216   2.468
 7976SOL     OW24826   1.365   6.858   6.296
 7976SOL    HW124827   1.336   6.909   6.215
 7976SOL    HW224828   1.465   6.863   6.304
 7977SOL     OW24829   5.270   6.353   1.267
 7977SOL    HW124830   5.256   6.266   1.219
 7977SOL    HW224831   5.183   6.387   1.301
 7978SOL     OW24832   3.308   1.748   5.574
 7978SOL    HW124833   3.230   1.804   5.546
 7978SOL    HW224834   3.376   1.747   5.500
 7979SOL     OW24835   4.768   6.203   4.019
 7979SOL    HW124836   4.675   6.240   4.020
 7979SOL    HW224837   4.764   6.104   4.002
 7980SOL     OW24838   2.925   0.593   2.863
 7980SOL    HW124839   2.966   0.660   2.924
 7980SOL    HW224840   2.989   0.570   2.790
 7981SOL     OW24841   0.967   5.923   2.432
 7981SOL    HW124842   0.930   6.007   2.393
 7981SOL    HW224843   0.998   5.940   2.526
 7982SOL     OW24844   6.900   2.320   0.568
 7982SOL    HW124845   6.989   2.363   0.553
 7982SOL    HW224846   6.848   2.319   0.483
 7983SOL     OW24847   4.991   2.589   1.850
 7983SOL    HW124848   5.039   2.554   1.770
 7983SOL    HW224849   5.003   2.526   1.927
 7984SOL     OW24850   6.672   0.837   0.291
 7984SOL    HW124851   6.683   0.880   0.380
 7984SOL    HW224852   6.759   0.798   0.261
 7985SOL     OW24853   1.342   1.385   0.823
 7985SOL    HW124854   1.277   1.324   0.867
 7985SOL    HW224855   1.309   1.410   0.732
 7986SOL     OW24856   4.927   3.484   0.402
 7986SOL    HW124857   4.992   3.551   0.437
 7986SOL    HW224858   4.849   3.530   0.361
 7987SOL     OW24859   1.050   2.746   4.809
 7987SOL    HW124860   1.132   2.722   4.757
 7987SOL    HW224861   1.070   2.745   4.907
 7988SOL     OW24862   3.006   1.350   5.204
 7988SOL    HW124863   2.997   1.318   5.298
 7988SOL    HW224864   3.100   1.381   5.188
 7989SOL     OW24865   3.757   3.609   6.321
 7989SOL    HW124866   3.838   3.638   6.270
 7989SOL    HW224867   3.708   3.539   6.268
 7990SOL     OW24868   1.979   2.938   4.780
 7990SOL    HW124869   1.885   2.948   4.811
 7990SOL    HW224870   2.035   2.901   4.854
 7991SOL     OW24871   2.353   2.411   5.877
 7991SOL    HW124872   2.363   2.413   5.777
 7991SOL    HW224873   2.266   2.454   5.903
 7992SOL     OW24874   3.006   1.658   1.257
 7992SOL    HW124875   2.969   1.744   1.222
 7992SOL    HW224876   3.024   1.596   1.181
 7993SOL     OW24877   2.870   5.682   6.196
 7993SOL    HW124878   2.914   5.615   6.135
 7993SOL    HW224879   2.794   5.725   6.147
 7994SOL     OW24880   5.887   0.872   4.603
 7994SOL    HW124881   5.830   0.911   4.676
 7994SOL    HW224882   5.833   0.866   4.519
 7995SOL     OW24883   4.008   5.301   2.907
 7995SOL    HW124884   4.106   5.318   2.911
 7995SOL    HW224885   3.985   5.256   2.820
 7996SOL     OW24886   4.118   1.362   5.161
 7996SOL    HW124887   4.217   1.347   5.159
 7996SOL    HW224888   4.072   1.286   5.115
 7997SOL     OW24889   5.277   2.529   1.328
 7997SOL    HW124890   5.266   2.521   1.427
 7997SOL    HW224891   5.233   2.452   1.283
 7998SOL     OW24892   6.536   4.617   6.385
 7998SOL    HW124893   6.528   4.518   6.371
 7998SOL    HW224894   6.455   4.662   6.347
 7999SOL     OW24895   2.178   1.320   5.489
 7999SOL    HW124896   2.191   1.372   5.405
 7999SOL    HW224897   2.080   1.310   5.508
 8000SOL     OW24898   5.185   0.690   5.725
 8000SOL    HW124899   5.161   0.599   5.759
 8000SOL    HW224900   5.167   0.694   5.627
 8001SOL     OW24901   2.454   5.592   1.029
 8001SOL    HW124902   2.441   5.539   0.946
 8001SOL    HW224903   2.531   5.655   1.018
 8002SOL     OW24904   4.925   2.366   5.707
 8002SOL    HW124905   4.855   2.389   5.774
 8002SOL    HW224906   4.916   2.270   5.680
 8003SOL     OW24907   4.116   5.570   3.607
 8003SOL    HW124908   4.141   5.515   3.527
 8003SOL    HW224909   4.040   5.526   3.654
 8004SOL     OW24910   1.565   4.230   3.162
 8004SOL    HW124911   1.632   4.233   3.237
 8004SOL    HW224912   1.488   4.172   3.189
 8005SOL     OW24913   2.186   0.592   2.844
 8005SOL    HW124914   2.279   0.565   2.817
 8005SOL    HW224915   2.191   0.675   2.899
 8006SOL     OW24916   3.874   6.342   1.782
 8006SOL    HW124917   3.954   6.381   1.827
 8006SOL    HW224918   3.809   6.309   1.850
 8007SOL     OW24919   0.204   1.148   4.148
 8007SOL    HW124920   0.275   1.181   4.211
 8007SOL    HW224921   0.236   1.157   4.054
 8008SOL     OW24922   6.030   5.261   0.936
 8008SOL    HW124923   5.966   5.214   0.997
 8008SOL    HW224924   6.086   5.324   0.989
 8009SOL     OW24925   6.959   6.604   3.650
 8009SOL    HW124926   6.876   6.564   3.613
 8009SOL    HW224927   6.943   6.700   3.673
 8010SOL     OW24928   1.975   2.222   6.952
 8010SOL    HW124929   2.010   2.132   6.923
 8010SOL    HW224930   1.918   2.260   6.879
 8011SOL     OW24931   2.371   3.008   0.233
 8011SOL    HW124932   2.366   3.077   0.161
 8011SOL    HW224933   2.368   2.916   0.193
 8012SOL     OW24934   2.726   6.820   2.962
 8012SOL    HW124935   2.801   6.779   3.014
 8012SOL    HW224936   2.639   6.805   3.011
 8013SOL     OW24937   6.042   5.549   4.854
 8013SOL    HW124938   6.128   5.504   4.829
 8013SOL    HW224939   5.966   5.485   4.840
 8014SOL     OW24940   2.465   6.683   6.481
 8014SOL    HW124941   2.423   6.707   6.568
 8014SOL    HW224942   2.443   6.752   6.412
 8015SOL     OW24943   1.628   2.377   6.423
 8015SOL    HW124944   1.727   2.382   6.438
 8015SOL    HW224945   1.610   2.325   6.339
 8016SOL     OW24946   4.586   6.009   2.071
 8016SOL    HW124947   4.572   6.108   2.071
 8016SOL    HW224948   4.636   5.983   2.153
 8017SOL     OW24949   6.711   3.587   5.927
 8017SOL    HW124950   6.780   3.598   5.998
 8017SOL    HW224951   6.703   3.490   5.903
 8018SOL     OW24952   5.628   2.878   4.268
 8018SOL    HW124953   5.642   2.781   4.249
 8018SOL    HW224954   5.585   2.922   4.188
 8019SOL     OW24955   2.839   4.938   1.199
 8019SOL    HW124956   2.813   4.842   1.211
 8019SOL    HW224957   2.871   4.952   1.106
 8020SOL     OW24958   5.297   6.660   6.603
 8020SOL    HW124959   5.290   6.723   6.681
 8020SOL    HW224960   5.223   6.680   6.539
 8021SOL     OW24961   6.761   1.016   0.467
 8021SOL    HW124962   6.687   1.058   0.520
 8021SOL    HW224963   6.795   1.081   0.400
 8022SOL     OW24964   4.412   5.222   3.494
 8022SOL    HW124965   4.366   5.293   3.439
 8022SOL    HW224966   4.359   5.137   3.490
 8023SOL     OW24967   6.880   6.127   3.007
 8023SOL    HW124968   6.979   6.141   3.001
 8023SOL    HW224969   6.861   6.028   3.012
 8024SOL     OW24970   4.724   5.485   4.875
 8024SOL    HW124971   4.641   5.540   4.884
 8024SOL    HW224972   4.730   5.449   4.782
 8025SOL     OW24973   3.326   5.988   0.723
 8025SOL    HW124974   3.366   5.933   0.650
 8025SOL    HW224975   3.340   5.941   0.811
 8026SOL     OW24976   2.524   2.415   6.460
 8026SOL    HW124977   2.477   2.476   6.524
 8026SOL    HW224978   2.494   2.321   6.476
 8027SOL     OW24979   4.592   3.304   5.696
 8027SOL    HW124980   4.660   3.352   5.751
 8027SOL    HW224981   4.524   3.370   5.662
 8028SOL     OW24982   5.330   5.310   0.370
 8028SOL    HW124983   5.409   5.268   0.327
 8028SOL    HW224984   5.251   5.303   0.308
 8029SOL     OW24985   2.867   4.570   6.780
 8029SOL    HW124986   2.788   4.567   6.843
 8029SOL    HW224987   2.929   4.494   6.801
 8030SOL     OW24988   6.225   3.369   0.616
 8030SOL    HW124989   6.212   3.460   0.655
 8030SOL    HW224990   6.173   3.301   0.669
 8031SOL     OW24991   3.655   6.569   1.124
 8031SOL    HW124992   3.743   6.581   1.170
 8031SOL    HW224993   3.648   6.634   1.048
 8032SOL     OW24994   4.725   4.047   5.611
 8032SOL    HW124995   4.673   4.078   5.691
 8032SOL    HW224996   4.664   4.038   5.533
 8033SOL     OW24997   5.911   1.898   1.483
 8033SOL    HW124998   5.986   1.960   1.459
 8033SOL    HW224999   5.893   1.905   1.581
 8034SOL     OW25000   6.583   1.965   5.730
 8034SOL    HW125001   6.498   1.915   5.719
 8034SOL    HW225002   6.654   1.926   5.671
 8035SOL     OW25003   5.444   5.701   6.225
 8035SOL    HW125004   5.495   5.743   6.299
 8035SOL    HW225005   5.360   5.660   6.261
 8036SOL     OW25006   1.202   4.543   1.836
 8036SOL    HW125007   1.164   4.620   1.888
 8036SOL    HW225008   1.246   4.479   1.900
 8037SOL     OW25009   2.143   3.216   2.028
 8037SOL    HW125010   2.160   3.313   2.014
 8037SOL    HW225011   2.228   3.165   2.011
 8038SOL     OW25012   5.566   1.582   4.224
 8038SOL    HW125013   5.531   1.676   4.234
 8038SOL    HW225014   5.570   1.539   4.314
 8039SOL     OW25015   2.438   6.027   4.046
 8039SOL    HW125016   2.521   5.978   4.019
 8039SOL    HW225017   2.458   6.125   4.055
 8040SOL     OW25018   5.662   6.052   0.511
 8040SOL    HW125019   5.601   6.028   0.435
 8040SOL    HW225020   5.757   6.031   0.485
 8041SOL     OW25021   3.422   1.752   1.357
 8041SOL    HW125022   3.385   1.832   1.310
 8041SOL    HW225023   3.352   1.682   1.365
 8042SOL     OW25024   2.443   5.208   0.581
 8042SOL    HW125025   2.390   5.240   0.502
 8042SOL    HW225026   2.408   5.119   0.611
 8043SOL     OW25027   2.912   0.669   1.606
 8043SOL    HW125028   2.938   0.764   1.593
 8043SOL    HW225029   2.992   0.610   1.589
 8044SOL     OW25030   3.052   3.318   2.150
 8044SOL    HW125031   3.091   3.323   2.058
 8044SOL    HW225032   2.955   3.342   2.146
 8045SOL     OW25033   6.383   2.788   3.897
 8045SOL    HW125034   6.365   2.703   3.945
 8045SOL    HW225035   6.307   2.852   3.911
 8046SOL     OW25036   0.213   5.236   5.242
 8046SOL    HW125037   0.273   5.156   5.243
 8046SOL    HW225038   0.120   5.208   5.267
 8047SOL     OW25039   2.604   0.157   4.634
 8047SOL    HW125040   2.601   0.254   4.610
 8047SOL    HW225041   2.633   0.147   4.729
 8048SOL     OW25042   5.926   0.743   5.761
 8048SOL    HW125043   5.832   0.710   5.751
 8048SOL    HW225044   5.935   0.832   5.716
 8049SOL     OW25045   1.570   7.011   0.584
 8049SOL    HW125046   1.532   6.926   0.621
 8049SOL    HW225047   1.507   0.066   0.601
 8050SOL     OW25048   0.049   3.324   1.627
 8050SOL    HW125049   0.090   3.383   1.557
 8050SOL    HW225050   0.088   3.232   1.620
 8051SOL     OW25051   2.787   1.630   3.401
 8051SOL    HW125052   2.735   1.568   3.459
 8051SOL    HW225053   2.865   1.666   3.452
 8052SOL     OW25054   3.581   1.832   3.105
 8052SOL    HW125055   3.554   1.761   3.040
 8052SOL    HW225056   3.667   1.872   3.075
 8053SOL     OW25057   4.334   3.429   1.684
 8053SOL    HW125058   4.247   3.478   1.687
 8053SOL    HW225059   4.317   3.332   1.699
 8054SOL     OW25060   4.749   6.452   4.411
 8054SOL    HW125061   4.810   6.426   4.336
 8054SOL    HW225062   4.784   6.535   4.455
 8055SOL     OW25063   0.691   0.103   5.486
 8055SOL    HW125064   0.780   0.082   5.524
 8055SOL    HW225065   0.659   0.026   5.430
 8056SOL     OW25066   4.474   1.377   2.387
 8056SOL    HW125067   4.497   1.414   2.477
 8056SOL    HW225068   4.381   1.340   2.389
 8057SOL     OW25069   3.291   0.193   3.951
 8057SOL    HW125070   3.293   0.225   3.856
 8057SOL    HW225071   3.385   0.185   3.985
 8058SOL     OW25072   2.071   6.811   3.680
 8058SOL    HW125073   2.154   6.766   3.714
 8058SOL    HW225074   2.089   6.849   3.589
 8059SOL     OW25075   2.534   1.123   3.620
 8059SOL    HW125076   2.447   1.085   3.590
 8059SOL    HW225077   2.530   1.143   3.718
 8060SOL     OW25078   0.636   2.773   5.016
 8060SOL    HW125079   0.650   2.696   5.078
 8060SOL    HW225080   0.578   2.841   5.059
 8061SOL     OW25081   6.359   6.320   2.732
 8061SOL    HW125082   6.276   6.370   2.757
 8061SOL    HW225083   6.439   6.376   2.754
 8062SOL     OW25084   1.617   3.657   1.873
 8062SOL    HW125085   1.662   3.699   1.952
 8062SOL    HW225086   1.677   3.588   1.834
 8063SOL     OW25087   2.360   3.023   6.184
 8063SOL    HW125088   2.346   3.076   6.100
 8063SOL    HW225089   2.456   2.993   6.189
 8064SOL     OW25090   6.823   2.454   6.364
 8064SOL    HW125091   6.856   2.366   6.398
 8064SOL    HW225092   6.744   2.438   6.304
 8065SOL     OW25093   4.651   0.013   6.404
 8065SOL    HW125094   4.591   7.019   6.325
 8065SOL    HW225095   4.630   0.102   6.445
 8066SOL     OW25096   2.159   6.827   1.603
 8066SOL    HW125097   2.183   6.916   1.641
 8066SOL    HW225098   2.153   6.760   1.677
 8067SOL     OW25099   4.623   2.517   2.291
 8067SOL    HW125100   4.668   2.431   2.317
 8067SOL    HW225101   4.650   2.589   2.354
 8068SOL     OW25102   6.652   4.876   4.568
 8068SOL    HW125103   6.750   4.887   4.581
 8068SOL    HW225104   6.631   4.779   4.552
 8069SOL     OW25105   1.093   6.315   2.159
 8069SOL    HW125106   1.134   6.392   2.208
 8069SOL    HW225107   1.138   6.230   2.188
 8070SOL     OW25108   3.829   0.503   2.671
 8070SOL    HW125109   3.730   0.490   2.669
 8070SOL    HW225110   3.862   0.523   2.579
 8071SOL     OW25111   4.906   5.772   0.248
 8071SOL    HW125112   4.824   5.823   0.275
 8071SOL    HW225113   4.886   5.717   0.167
 8072SOL     OW25114   4.262   0.670   3.002
 8072SOL    HW125115   4.333   0.725   2.958
 8072SOL    HW225116   4.229   0.718   3.084
 8073SOL     OW25117   4.776   0.672   6.018
 8073SOL    HW125118   4.779   0.769   5.994
 8073SOL    HW225119   4.866   0.642   6.050
 8074SOL     OW25120   3.101   4.060   6.572
 8074SOL    HW125121   3.191   4.069   6.615
 8074SOL    HW225122   3.111   4.058   6.473
 8075SOL     OW25123   5.895   2.608   3.715
 8075SOL    HW125124   5.993   2.620   3.732
 8075SOL    HW225125   5.869   2.654   3.630
 8076SOL     OW25126   4.886   2.980   6.238
 8076SOL    HW125127   4.805   3.009   6.290
 8076SOL    HW225128   4.862   2.902   6.180
 8077SOL     OW25129   1.075   0.002   0.416
 8077SOL    HW125130   1.160   0.035   0.374
 8077SOL    HW225131   1.033   0.076   0.468
 8078SOL     OW25132   5.780   2.830   0.927
 8078SOL    HW125133   5.733   2.851   1.013
 8078SOL    HW225134   5.758   2.737   0.898
 8079SOL     OW25135   1.176   2.473   1.672
 8079SOL    HW125136   1.254   2.415   1.695
 8079SOL    HW225137   1.144   2.453   1.580
 8080SOL     OW25138   3.872   5.060   0.499
 8080SOL    HW125139   3.892   5.021   0.409
 8080SOL    HW225140   3.896   5.157   0.500
 8081SOL     OW25141   5.691   2.246   4.794
 8081SOL    HW125142   5.634   2.184   4.742
 8081SOL    HW225143   5.709   2.329   4.740
 8082SOL     OW25144   5.950   3.656   4.478
 8082SOL    HW125145   5.952   3.584   4.548
 8082SOL    HW225146   5.995   3.738   4.514
 8083SOL     OW25147   5.975   1.908   5.038
 8083SOL    HW125148   5.954   1.869   5.128
 8083SOL    HW225149   5.897   1.895   4.978
 8084SOL     OW25150   6.153   6.870   0.386
 8084SOL    HW125151   6.138   6.780   0.428
 8084SOL    HW225152   6.209   6.926   0.447
 8085SOL     OW25153   5.395   2.585   0.902
 8085SOL    HW125154   5.311   2.538   0.877
 8085SOL    HW225155   5.397   2.604   1.000
 8086SOL     OW25156   2.460   5.633   5.914
 8086SOL    HW125157   2.398   5.709   5.893
 8086SOL    HW225158   2.496   5.595   5.829
 8087SOL     OW25159   2.865   4.246   0.491
 8087SOL    HW125160   2.892   4.252   0.587
 8087SOL    HW225161   2.934   4.291   0.434
 8088SOL     OW25162   4.441   0.920   3.079
 8088SOL    HW125163   4.514   0.901   3.144
 8088SOL    HW225164   4.358   0.870   3.105
 8089SOL     OW25165   6.462   2.996   0.617
 8089SOL    HW125166   6.468   3.015   0.518
 8089SOL    HW225167   6.515   2.914   0.638
 8090SOL     OW25168   4.588   2.243   5.151
 8090SOL    HW125169   4.639   2.163   5.120
 8090SOL    HW225170   4.546   2.288   5.072
 8091SOL     OW25171   1.917   4.154   5.305
 8091SOL    HW125172   1.981   4.086   5.269
 8091SOL    HW225173   1.913   4.232   5.242
 8092SOL     OW25174   6.673   1.729   4.408
 8092SOL    HW125175   6.622   1.738   4.493
 8092SOL    HW225176   6.769   1.752   4.424
 8093SOL     OW25177   5.596   5.295   0.616
 8093SOL    HW125178   5.573   5.199   0.600
 8093SOL    HW225179   5.580   5.348   0.533
 8094SOL     OW25180   0.475   3.991   4.124
 8094SOL    HW125181   0.420   4.033   4.053
 8094SOL    HW225182   0.446   4.025   4.214
 8095SOL     OW25183   6.469   3.389   4.818
 8095SOL    HW125184   6.559   3.413   4.780
 8095SOL    HW225185   6.427   3.319   4.760
 8096SOL     OW25186   4.673   0.083   0.628
 8096SOL    HW125187   4.631   0.171   0.647
 8096SOL    HW225188   4.615   0.010   0.664
 8097SOL     OW25189   4.679   1.634   4.309
 8097SOL    HW125190   4.665   1.714   4.250
 8097SOL    HW225191   4.682   1.664   4.404
 8098SOL     OW25192   2.179   1.458   4.045
 8098SOL    HW125193   2.171   1.465   4.145
 8098SOL    HW225194   2.196   1.548   4.006
 8099SOL     OW25195   3.673   6.576   4.985
 8099SOL    HW125196   3.698   6.606   5.077
 8099SOL    HW225197   3.731   6.622   4.918
 8100SOL     OW25198   6.375   6.142   1.224
 8100SOL    HW125199   6.439   6.069   1.248
 8100SOL    HW225200   6.285   6.102   1.205
 8101SOL     OW25201   0.102   5.016   2.012
 8101SOL    HW125202   0.052   5.077   2.073
 8101SOL    HW225203   0.131   5.067   1.931
 8102SOL     OW25204   6.864   0.512   5.757
 8102SOL    HW125205   6.815   0.504   5.844
 8102SOL    HW225206   6.930   0.588   5.763
 8103SOL     OW25207   2.670   2.344   2.486
 8103SOL    HW125208   2.624   2.422   2.528
 8103SOL    HW225209   2.601   2.277   2.455
 8104SOL     OW25210   3.095   0.118   6.069
 8104SOL    HW125211   3.053   0.132   5.980
 8104SOL    HW225212   3.117   0.206   6.110
 8105SOL     OW25213   1.875   2.772   3.335
 8105SOL    HW125214   1.958   2.747   3.383
 8105SOL    HW225215   1.837   2.691   3.290
 8106SOL     OW25216   0.242   3.773   5.335
 8106SOL    HW125217   0.238   3.752   5.237
 8106SOL    HW225218   0.310   3.844   5.351
 8107SOL     OW25219   1.470   5.487   6.886
 8107SOL    HW125220   1.508   5.567   6.932
 8107SOL    HW225221   1.395   5.451   6.942
 8108SOL     OW25222   2.214   3.218   5.466
 8108SOL    HW125223   2.314   3.212   5.460
 8108SOL    HW225224   2.173   3.179   5.384
 8109SOL     OW25225   0.654   4.939   5.781
 8109SOL    HW125226   0.735   4.967   5.833
 8109SOL    HW225227   0.606   5.020   5.748
 8110SOL     OW25228   1.318   4.836   0.543
 8110SOL    HW125229   1.242   4.902   0.550
 8110SOL    HW225230   1.377   4.861   0.467
 8111SOL     OW25231   3.159   6.124   4.142
 8111SOL    HW125232   3.100   6.064   4.197
 8111SOL    HW225233   3.203   6.191   4.201
 8112SOL     OW25234   4.250   0.826   3.994
 8112SOL    HW125235   4.188   0.899   4.023
 8112SOL    HW225236   4.215   0.738   4.024
 8113SOL     OW25237   3.006   2.961   5.627
 8113SOL    HW125238   2.917   3.002   5.650
 8113SOL    HW225239   3.072   2.984   5.698
 8114SOL     OW25240   2.840   3.432   1.800
 8114SOL    HW125241   2.753   3.404   1.760
 8114SOL    HW225242   2.897   3.474   1.729
 8115SOL     OW25243   3.151   3.058   0.868
 8115SOL    HW125244   3.236   3.032   0.915
 8115SOL    HW225245   3.075   3.054   0.933
 8116SOL     OW25246   5.436   1.365   5.665
 8116SOL    HW125247   5.509   1.316   5.712
 8116SOL    HW225248   5.436   1.340   5.568
 8117SOL     OW25249   3.170   2.246   5.865
 8117SOL    HW125250   3.161   2.334   5.818
 8117SOL    HW225251   3.162   2.171   5.798
 8118SOL     OW25252   1.605   2.038   3.816
 8118SOL    HW125253   1.615   1.938   3.810
 8118SOL    HW225254   1.666   2.081   3.750
 8119SOL     OW25255   1.192   6.497   2.306
 8119SOL    HW125256   1.245   6.553   2.241
 8119SOL    HW225257   1.181   6.547   2.392
 8120SOL     OW25258   4.557   4.423   2.503
 8120SOL    HW125259   4.525   4.499   2.559
 8120SOL    HW225260   4.571   4.453   2.409
 8121SOL     OW25261   6.592   6.163   2.990
 8121SOL    HW125262   6.684   6.146   3.023
 8121SOL    HW225263   6.582   6.260   2.966
 8122SOL     OW25264   6.843   5.715   1.624
 8122SOL    HW125265   6.824   5.684   1.717
 8122SOL    HW225266   6.941   5.709   1.606
 8123SOL     OW25267   1.276   5.389   0.030
 8123SOL    HW125268   1.267   5.291   0.048
 8123SOL    HW225269   1.185   5.428   0.015
 8124SOL     OW25270   1.462   6.327   3.168
 8124SOL    HW125271   1.444   6.385   3.089
 8124SOL    HW225272   1.560   6.329   3.189
 8125SOL     OW25273   5.385   4.996   2.909
 8125SOL    HW125274   5.344   4.907   2.890
 8125SOL    HW225275   5.484   4.989   2.902
 8126SOL     OW25276   6.945   4.876   2.461
 8126SOL    HW125277   6.959   4.777   2.474
 8126SOL    HW225278   6.943   4.897   2.364
 8127SOL     OW25279   4.561   5.179   1.165
 8127SOL    HW125280   4.571   5.250   1.234
 8127SOL    HW225281   4.465   5.150   1.160
 8128SOL     OW25282   3.741   1.839   5.493
 8128SOL    HW125283   3.773   1.791   5.575
 8128SOL    HW225284   3.699   1.925   5.519
 8129SOL     OW25285   4.722   6.231   6.358
 8129SOL    HW125286   4.780   6.289   6.300
 8129SOL    HW225287   4.708   6.275   6.446
 8130SOL     OW25288   0.534   0.107   6.911
 8130SOL    HW125289   0.622   0.126   6.869
 8130SOL    HW225290   0.522   0.008   6.921
 8131SOL     OW25291   2.337   1.400   1.390
 8131SOL    HW125292   2.270   1.447   1.448
 8131SOL    HW225293   2.352   1.308   1.424
 8132SOL     OW25294   5.487   4.573   3.432
 8132SOL    HW125295   5.469   4.548   3.527
 8132SOL    HW225296   5.400   4.582   3.383
 8133SOL     OW25297   0.320   5.652   1.803
 8133SOL    HW125298   0.361   5.727   1.751
 8133SOL    HW225299   0.263   5.689   1.876
 8134SOL     OW25300   2.004   2.574   2.072
 8134SOL    HW125301   2.061   2.567   1.990
 8134SOL    HW225302   1.976   2.669   2.085
 8135SOL     OW25303   3.943   6.407   2.547
 8135SOL    HW125304   4.010   6.397   2.473
 8135SOL    HW225305   3.937   6.503   2.574
 8136SOL     OW25306   2.102   6.063   1.733
 8136SOL    HW125307   2.049   6.139   1.695
 8136SOL    HW225308   2.076   5.978   1.686
 8137SOL     OW25309   3.164   3.518   4.851
 8137SOL    HW125310   3.226   3.487   4.779
 8137SOL    HW225311   3.075   3.473   4.840
 8138SOL     OW25312   4.359   1.305   3.670
 8138SOL    HW125313   4.421   1.229   3.691
 8138SOL    HW225314   4.399   1.391   3.704
 8139SOL     OW25315   1.556   3.142   5.822
 8139SOL    HW125316   1.497   3.211   5.780
 8139SOL    HW225317   1.652   3.170   5.812
 8140SOL     OW25318   4.619   1.460   1.024
 8140SOL    HW125319   4.610   1.363   1.003
 8140SOL    HW225320   4.544   1.510   0.980
 8141SOL     OW25321   6.198   0.853   5.351
 8141SOL    HW125322   6.270   0.850   5.280
 8141SOL    HW225323   6.128   0.785   5.330
 8142SOL     OW25324   3.213   5.712   0.660
 8142SOL    HW125325   3.301   5.700   0.705
 8142SOL    HW225326   3.226   5.757   0.572
 8143SOL     OW25327   5.821   4.823   6.951
 8143SOL    HW125328   5.919   4.814   6.964
 8143SOL    HW225329   5.778   4.732   6.955
 8144SOL     OW25330   1.875   5.177   6.962
 8144SOL    HW125331   1.811   5.223   0.003
 8144SOL    HW225332   1.834   5.166   6.872
 8145SOL     OW25333   5.426   5.734   5.951
 8145SOL    HW125334   5.441   5.705   6.046
 8145SOL    HW225335   5.369   5.665   5.905
 8146SOL     OW25336   6.556   6.448   4.982
 8146SOL    HW125337   6.542   6.472   5.078
 8146SOL    HW225338   6.538   6.527   4.924
 8147SOL     OW25339   2.384   0.622   5.451
 8147SOL    HW125340   2.410   0.653   5.359
 8147SOL    HW225341   2.298   0.570   5.445
 8148SOL     OW25342   5.125   4.870   6.693
 8148SOL    HW125343   5.041   4.889   6.643
 8148SOL    HW225344   5.162   4.781   6.664
 8149SOL     OW25345   1.479   6.830   5.794
 8149SOL    HW125346   1.518   6.906   5.847
 8149SOL    HW225347   1.492   6.847   5.697
 8150SOL     OW25348   0.789   3.979   0.159
 8150SOL    HW125349   0.819   3.904   0.218
 8150SOL    HW225350   0.858   4.051   0.158
 8151SOL     OW25351   5.953   4.762   2.580
 8151SOL    HW125352   5.940   4.664   2.595
 8151SOL    HW225353   5.977   4.807   2.666
 8152SOL     OW25354   5.872   2.184   3.697
 8152SOL    HW125355   5.906   2.146   3.784
 8152SOL    HW225356   5.814   2.263   3.716
 8153SOL     OW25357   0.287   1.455   1.481
 8153SOL    HW125358   0.284   1.526   1.552
 8153SOL    HW225359   0.237   1.486   1.401
 8154SOL     OW25360   1.021   0.525   3.212
 8154SOL    HW125361   0.951   0.472   3.260
 8154SOL    HW225362   0.983   0.612   3.181
 8155SOL     OW25363   1.505   4.772   4.693
 8155SOL    HW125364   1.582   4.804   4.638
 8155SOL    HW225365   1.511   4.812   4.785
 8156SOL     OW25366   1.313   3.934   0.502
 8156SOL    HW125367   1.260   3.998   0.445
 8156SOL    HW225368   1.260   3.911   0.583
 8157SOL     OW25369   6.200   4.897   4.591
 8157SOL    HW125370   6.160   4.895   4.500
 8157SOL    HW225371   6.147   4.958   4.650
 8158SOL     OW25372   5.880   5.224   6.086
 8158SOL    HW125373   5.889   5.317   6.049
 8158SOL    HW225374   5.960   5.170   6.060
 8159SOL     OW25375   2.680   0.097   4.929
 8159SOL    HW125376   2.630   0.011   4.943
 8159SOL    HW225377   2.691   0.143   5.017
 8160SOL     OW25378   5.767   2.569   2.885
 8160SOL    HW125379   5.821   2.558   2.969
 8160SOL    HW225380   5.681   2.518   2.894
 8161SOL     OW25381   6.599   2.501   2.073
 8161SOL    HW125382   6.584   2.442   1.994
 8161SOL    HW225383   6.692   2.537   2.071
 8162SOL     OW25384   1.085   5.992   5.652
 8162SOL    HW125385   1.006   6.053   5.650
 8162SOL    HW225386   1.068   5.913   5.593
 8163SOL     OW25387   3.838   4.563   5.352
 8163SOL    HW125388   3.828   4.581   5.450
 8163SOL    HW225389   3.755   4.519   5.318
 8164SOL     OW25390   5.097   1.838   0.549
 8164SOL    HW125391   5.177   1.889   0.517
 8164SOL    HW225392   5.029   1.901   0.584
 8165SOL     OW25393   0.757   2.034   6.285
 8165SOL    HW125394   0.714   2.099   6.221
 8165SOL    HW225395   0.698   1.953   6.294
 8166SOL     OW25396   2.381   2.132   4.545
 8166SOL    HW125397   2.285   2.141   4.573
 8166SOL    HW225398   2.430   2.216   4.569
 8167SOL     OW25399   1.875   2.372   3.330
 8167SOL    HW125400   1.868   2.288   3.384
 8167SOL    HW225401   1.962   2.417   3.349
 8168SOL     OW25402   1.625   6.164   2.853
 8168SOL    HW125403   1.652   6.260   2.853
 8168SOL    HW225404   1.698   6.108   2.814
 8169SOL     OW25405   4.835   4.212   0.223
 8169SOL    HW125406   4.752   4.220   0.278
 8169SOL    HW225407   4.835   4.282   0.152
 8170SOL     OW25408   0.152   4.419   2.573
 8170SOL    HW125409   0.213   4.453   2.645
 8170SOL    HW225410   0.105   4.337   2.606
 8171SOL     OW25411   2.134   1.954   1.758
 8171SOL    HW125412   2.133   1.934   1.856
 8171SOL    HW225413   2.043   1.982   1.728
 8172SOL     OW25414   1.280   4.157   0.344
 8172SOL    HW125415   1.297   4.253   0.318
 8172SOL    HW225416   1.182   4.137   0.336
 8173SOL     OW25417   5.848   0.018   1.509
 8173SOL    HW125418   5.873   0.060   1.595
 8173SOL    HW225419   5.851   6.939   1.518
 8174SOL     OW25420   2.275   6.571   4.085
 8174SOL    HW125421   2.367   6.602   4.109
 8174SOL    HW225422   2.279   6.516   4.001
 8175SOL     OW25423   0.820   2.351   5.538
 8175SOL    HW125424   0.866   2.262   5.532
 8175SOL    HW225425   0.887   2.423   5.555
 8176SOL     OW25426   2.872   5.242   0.394
 8176SOL    HW125427   2.843   5.187   0.473
 8176SOL    HW225428   2.797   5.303   0.367
 8177SOL     OW25429   2.977   1.133   2.838
 8177SOL    HW125430   3.041   1.185   2.782
 8177SOL    HW225431   2.921   1.196   2.893
 8178SOL     OW25432   2.277   6.346   1.085
 8178SOL    HW125433   2.197   6.325   1.028
 8178SOL    HW225434   2.284   6.278   1.158
 8179SOL     OW25435   6.240   0.074   3.524
 8179SOL    HW125436   6.301   0.016   3.577
 8179SOL    HW225437   6.182   0.127   3.585
 8180SOL     OW25438   4.975   5.283   0.686
 8180SOL    HW125439   4.883   5.243   0.680
 8180SOL    HW225440   4.973   5.363   0.745
 8181SOL     OW25441   6.042   0.718   6.274
 8181SOL    HW125442   5.970   0.776   6.235
 8181SOL    HW225443   6.120   0.715   6.211
 8182SOL     OW25444   3.450   3.596   3.302
 8182SOL    HW125445   3.514   3.559   3.368
 8182SOL    HW225446   3.360   3.605   3.344
 8183SOL     OW25447   0.115   0.103   5.642
 8183SOL    HW125448   0.135   0.038   5.715
 8183SOL    HW225449   0.036   0.159   5.668
 8184SOL     OW25450   0.395   6.107   5.438
 8184SOL    HW125451   0.309   6.137   5.398
 8184SOL    HW225452   0.378   6.065   5.527
 8185SOL     OW25453   0.555   6.180   5.207
 8185SOL    HW125454   0.491   6.158   5.281
 8185SOL    HW225455   0.629   6.114   5.207
 8186SOL     OW25456   1.465   5.683   0.474
 8186SOL    HW125457   1.509   5.713   0.559
 8186SOL    HW225458   1.366   5.691   0.484
 8187SOL     OW25459   1.814   6.389   4.766
 8187SOL    HW125460   1.722   6.418   4.738
 8187SOL    HW225461   1.813   6.292   4.789
 8188SOL     OW25462   1.982   2.847   2.619
 8188SOL    HW125463   2.019   2.836   2.711
 8188SOL    HW225464   1.978   2.757   2.574
 8189SOL     OW25465   6.264   5.003   3.892
 8189SOL    HW125466   6.359   5.012   3.862
 8189SOL    HW225467   6.242   4.906   3.905
 8190SOL     OW25468   6.250   3.934   2.679
 8190SOL    HW125469   6.272   4.010   2.618
 8190SOL    HW225470   6.150   3.924   2.684
 8191SOL     OW25471   4.284   5.594   1.008
 8191SOL    HW125472   4.310   5.574   0.914
 8191SOL    HW225473   4.202   5.542   1.031
 8192SOL     OW25474   0.549   6.264   3.263
 8192SOL    HW125475   0.568   6.170   3.234
 8192SOL    HW225476   0.632   6.319   3.254
 8193SOL     OW25477   0.473   4.759   3.712
 8193SOL    HW125478   0.536   4.690   3.677
 8193SOL    HW225479   0.398   4.772   3.647
 8194SOL     OW25480   5.083   0.393   1.743
 8194SOL    HW125481   5.025   0.385   1.824
 8194SOL    HW225482   5.123   0.484   1.740
 8195SOL     OW25483   6.494   6.661   3.699
 8195SOL    HW125484   6.507   6.700   3.790
 8195SOL    HW225485   6.407   6.693   3.661
 8196SOL     OW25486   4.925   0.349   2.469
 8196SOL    HW125487   4.958   0.264   2.509
 8196SOL    HW225488   4.827   0.344   2.453
 8197SOL     OW25489   4.555   1.573   3.443
 8197SOL    HW125490   4.465   1.551   3.405
 8197SOL    HW225491   4.594   1.650   3.394
 8198SOL     OW25492   1.708   5.679   1.052
 8198SOL    HW125493   1.782   5.620   1.085
 8198SOL    HW225494   1.627   5.625   1.034
 8199SOL     OW25495   5.493   2.231   0.574
 8199SOL    HW125496   5.450   2.287   0.644
 8199SOL    HW225497   5.486   2.134   0.599
 8200SOL     OW25498   5.480   4.416   0.815
 8200SOL    HW125499   5.504   4.504   0.773
 8200SOL    HW225500   5.476   4.426   0.914
 8201SOL     OW25501   5.698   0.023   5.289
 8201SOL    HW125502   5.705   0.027   5.389
 8201SOL    HW225503   5.789   0.029   5.248
 8202SOL     OW25504   1.182   6.072   2.255
 8202SOL    HW125505   1.225   6.003   2.198
 8202SOL    HW225506   1.095   6.037   2.290
 8203SOL     OW25507   1.840   3.431   1.102
 8203SOL    HW125508   1.791   3.462   1.184
 8203SOL    HW225509   1.938   3.430   1.120
 8204SOL     OW25510   1.750   3.270   0.869
 8204SOL    HW125511   1.700   3.348   0.832
 8204SOL    HW225512   1.819   3.303   0.934
 8205SOL     OW25513   0.188   3.637   6.443
 8205SOL    HW125514   0.131   3.561   6.471
 8205SOL    HW225515   0.234   3.676   6.523
 8206SOL     OW25516   3.526   1.065   1.462
 8206SOL    HW125517   3.556   1.104   1.549
 8206SOL    HW225518   3.426   1.064   1.459
 8207SOL     OW25519   4.065   3.766   3.971
 8207SOL    HW125520   3.979   3.814   3.985
 8207SOL    HW225521   4.080   3.699   4.044
 8208SOL     OW25522   2.166   0.239   6.885
 8208SOL    HW125523   2.101   0.187   6.829
 8208SOL    HW225524   2.162   0.336   6.860
 8209SOL     OW25525   5.890   2.359   4.479
 8209SOL    HW125526   5.853   2.450   4.460
 8209SOL    HW225527   5.829   2.290   4.441
 8210SOL     OW25528   2.228   2.796   5.969
 8210SOL    HW125529   2.262   2.781   6.061
 8210SOL    HW225530   2.139   2.841   5.974
 8211SOL     OW25531   4.277   4.471   1.469
 8211SOL    HW125532   4.207   4.424   1.416
 8211SOL    HW225533   4.252   4.470   1.566
 8212SOL     OW25534   2.200   2.389   2.879
 8212SOL    HW125535   2.156   2.421   2.962
 8212SOL    HW225536   2.295   2.421   2.877
 8213SOL     OW25537   6.489   4.414   0.642
 8213SOL    HW125538   6.396   4.424   0.604
 8213SOL    HW225539   6.539   4.499   0.629
 8214SOL     OW25540   5.040   3.615   2.972
 8214SOL    HW125541   4.986   3.584   2.893
 8214SOL    HW225542   5.049   3.715   2.968
 8215SOL     OW25543   3.286   5.085   1.980
 8215SOL    HW125544   3.287   5.145   2.060
 8215SOL    HW225545   3.304   5.140   1.898
 8216SOL     OW25546   5.464   3.649   3.232
 8216SOL    HW125547   5.421   3.586   3.167
 8216SOL    HW225548   5.405   3.729   3.244
 8217SOL     OW25549   2.086   5.688   0.591
 8217SOL    HW125550   2.128   5.778   0.596
 8217SOL    HW225551   2.139   5.630   0.528
 8218SOL     OW25552   5.188   2.197   0.279
 8218SOL    HW125553   5.233   2.109   0.296
 8218SOL    HW225554   5.256   2.263   0.246
 8219SOL     OW25555   5.307   1.925   6.930
 8219SOL    HW125556   5.388   1.897   6.879
 8219SOL    HW225557   5.263   1.844   6.969
 8220SOL     OW25558   4.417   3.775   1.670
 8220SOL    HW125559   4.400   3.680   1.642
 8220SOL    HW225560   4.340   3.806   1.726
 8221SOL     OW25561   5.423   4.414   2.992
 8221SOL    HW125562   5.500   4.467   3.029
 8221SOL    HW225563   5.456   4.357   2.916
 8222SOL     OW25564   6.219   1.311   3.089
 8222SOL    HW125565   6.227   1.404   3.125
 8222SOL    HW225566   6.310   1.271   3.082
 8223SOL     OW25567   0.206   5.117   6.186
 8223SOL    HW125568   0.163   5.027   6.198
 8223SOL    HW225569   0.297   5.105   6.148
 8224SOL     OW25570   0.733   3.646   2.813
 8224SOL    HW125571   0.678   3.679   2.737
 8224SOL    HW225572   0.686   3.666   2.899
 8225SOL     OW25573   4.682   1.204   0.867
 8225SOL    HW125574   4.727   1.128   0.914
 8225SOL    HW225575   4.739   1.234   0.791
 8226SOL     OW25576   3.836   0.285   0.257
 8226SOL    HW125577   3.890   0.242   0.185
 8226SOL    HW225578   3.740   0.262   0.246
 8227SOL     OW25579   6.010   4.062   3.338
 8227SOL    HW125580   6.079   4.111   3.284
 8227SOL    HW225581   5.920   4.079   3.300
 8228SOL     OW25582   6.980   1.702   4.167
 8228SOL    HW125583   6.998   1.726   4.072
 8228SOL    HW225584   6.963   1.786   4.220
 8229SOL     OW25585   4.827   5.855   0.651
 8229SOL    HW125586   4.803   5.807   0.567
 8229SOL    HW225587   4.927   5.853   0.663
 8230SOL     OW25588   5.179   0.076   3.527
 8230SOL    HW125589   5.150   0.149   3.589
 8230SOL    HW225590   5.270   0.098   3.490
 8231SOL     OW25591   3.992   5.758   1.423
 8231SOL    HW125592   3.910   5.754   1.366
 8231SOL    HW225593   4.054   5.827   1.387
 8232SOL     OW25594   2.566   1.842   0.147
 8232SOL    HW125595   2.486   1.816   0.094
 8232SOL    HW225596   2.548   1.930   0.192
 8233SOL     OW25597   0.168   5.392   6.204
 8233SOL    HW125598   0.189   5.298   6.179
 8233SOL    HW225599   0.127   5.394   6.296
 8234SOL     OW25600   2.818   3.148   7.016
 8234SOL    HW125601   2.896   3.176   0.051
 8234SOL    HW225602   2.821   3.049   7.002
 8235SOL     OW25603   4.572   2.551   6.780
 8235SOL    HW125604   4.651   2.491   6.770
 8235SOL    HW225605   4.540   2.580   6.690
 8236SOL     OW25606   6.058   2.741   1.256
 8236SOL    HW125607   6.126   2.781   1.195
 8236SOL    HW225608   6.089   2.650   1.286
 8237SOL     OW25609   3.547   6.560   5.685
 8237SOL    HW125610   3.554   6.468   5.646
 8237SOL    HW225611   3.451   6.585   5.697
 8238SOL     OW25612   1.833   0.693   0.050
 8238SOL    HW125613   1.927   0.660   0.056
 8238SOL    HW225614   1.774   0.637   0.108
 8239SOL     OW25615   5.786   1.208   7.018
 8239SOL    HW125616   5.856   1.150   6.977
 8239SOL    HW225617   5.773   1.182   0.093
 8240SOL     OW25618   4.127   3.330   3.074
 8240SOL    HW125619   4.117   3.371   2.983
 8240SOL    HW225620   4.223   3.319   3.096
 8241SOL     OW25621   4.703   6.256   1.540
 8241SOL    HW125622   4.749   6.181   1.491
 8241SOL    HW225623   4.608   6.232   1.556
 8242SOL     OW25624   0.962   3.973   5.356
 8242SOL    HW125625   0.971   3.882   5.315
 8242SOL    HW225626   0.948   3.964   5.454
 8243SOL     OW25627   0.492   3.404   5.032
 8243SOL    HW125628   0.428   3.328   5.044
 8243SOL    HW225629   0.525   3.435   5.121
 8244SOL     OW25630   2.384   5.353   4.580
 8244SOL    HW125631   2.287   5.370   4.560
 8244SOL    HW225632   2.398   5.359   4.679
 8245SOL     OW25633   4.110   3.720   0.684
 8245SOL    HW125634   4.073   3.718   0.777
 8245SOL    HW225635   4.126   3.815   0.657
 8246SOL     OW25636   4.904   4.075   5.189
 8246SOL    HW125637   4.827   4.130   5.158
 8246SOL    HW225638   4.869   3.991   5.231
 8247SOL     OW25639   1.044   6.540   0.376
 8247SOL    HW125640   1.051   6.444   0.349
 8247SOL    HW225641   0.970   6.551   0.442
 8248SOL     OW25642   0.361   4.752   3.080
 8248SOL    HW125643   0.304   4.670   3.082
 8248SOL    HW225644   0.303   4.833   3.070
 8249SOL     OW25645   0.854   5.489   2.821
 8249SOL    HW125646   0.838   5.486   2.920
 8249SOL    HW225647   0.821   5.404   2.779
 8250SOL     OW25648   3.563   3.709   2.108
 8250SOL    HW125649   3.477   3.705   2.160
 8250SOL    HW225650   3.558   3.783   2.041
 8251SOL     OW25651   5.898   1.330   4.655
 8251SOL    HW125652   5.933   1.253   4.602
 8251SOL    HW225653   5.865   1.297   4.744
 8252SOL     OW25654   1.521   3.736   4.284
 8252SOL    HW125655   1.506   3.753   4.381
 8252SOL    HW225656   1.435   3.745   4.234
 8253SOL     OW25657   2.517   3.016   5.654
 8253SOL    HW125658   2.509   2.922   5.620
 8253SOL    HW225659   2.515   3.079   5.577
 8254SOL     OW25660   4.480   5.868   3.153
 8254SOL    HW125661   4.413   5.941   3.162
 8254SOL    HW225662   4.538   5.865   3.235
 8255SOL     OW25663   3.980   4.855   3.573
 8255SOL    HW125664   3.991   4.821   3.667
 8255SOL    HW225665   3.883   4.857   3.550
 8256SOL     OW25666   5.792   2.728   4.088
 8256SOL    HW125667   5.811   2.630   4.089
 8256SOL    HW225668   5.722   2.747   4.018
 8257SOL     OW25669   6.100   4.931   4.267
 8257SOL    HW125670   6.078   5.003   4.332
 8257SOL    HW225671   6.192   4.947   4.230
 8258SOL     OW25672   5.170   1.725   0.017
 8258SOL    HW125673   5.213   1.636   0.006
 8258SOL    HW225674   5.073   1.713   0.039
 8259SOL     OW25675   4.320   1.098   1.201
 8259SOL    HW125676   4.402   1.069   1.251
 8259SOL    HW225677   4.318   1.197   1.194
 8260SOL     OW25678   3.011   5.700   6.765
 8260SOL    HW125679   2.970   5.745   6.845
 8260SOL    HW225680   3.033   5.769   6.696
 8261SOL     OW25681   5.309   1.203   1.774
 8261SOL    HW125682   5.400   1.164   1.758
 8261SOL    HW225683   5.251   1.187   1.695
 8262SOL     OW25684   0.120   2.222   1.258
 8262SOL    HW125685   0.220   2.222   1.250
 8262SOL    HW225686   0.087   2.316   1.270
 8263SOL     OW25687   5.432   1.510   0.955
 8263SOL    HW125688   5.530   1.490   0.956
 8263SOL    HW225689   5.410   1.568   1.033
 8264SOL     OW25690   1.356   4.408   2.001
 8264SOL    HW125691   1.316   4.476   2.061
 8264SOL    HW225692   1.444   4.378   2.037
 8265SOL     OW25693   1.808   0.753   2.488
 8265SOL    HW125694   1.905   0.764   2.512
 8265SOL    HW225695   1.751   0.770   2.568
 8266SOL     OW25696   2.906   0.632   3.305
 8266SOL    HW125697   2.886   0.667   3.397
 8266SOL    HW225698   2.842   0.673   3.240
 8267SOL     OW25699   0.034   3.814   0.733
 8267SOL    HW125700   7.001   3.826   0.649
 8267SOL    HW225701   6.997   3.768   0.802
 8268SOL     OW25702   3.551   5.786   6.299
 8268SOL    HW125703   3.453   5.776   6.282
 8268SOL    HW225704   3.600   5.792   6.211
 8269SOL     OW25705   5.929   2.265   0.903
 8269SOL    HW125706   5.909   2.336   0.970
 8269SOL    HW225707   5.998   2.298   0.838
 8270SOL     OW25708   2.957   6.635   4.279
 8270SOL    HW125709   2.937   6.587   4.193
 8270SOL    HW225710   3.030   6.702   4.264
 8271SOL     OW25711   6.244   2.258   2.814
 8271SOL    HW125712   6.245   2.160   2.796
 8271SOL    HW225713   6.259   2.308   2.728
 8272SOL     OW25714   3.962   0.995   4.261
 8272SOL    HW125715   3.936   1.065   4.194
 8272SOL    HW225716   3.885   0.978   4.323
 8273SOL     OW25717   2.067   6.587   1.786
 8273SOL    HW125718   2.106   6.527   1.856
 8273SOL    HW225719   2.084   6.547   1.695
 8274SOL     OW25720   5.351   4.161   3.317
 8274SOL    HW125721   5.275   4.176   3.379
 8274SOL    HW225722   5.325   4.188   3.225
 8275SOL     OW25723   5.348   2.237   6.988
 8275SOL    HW125724   5.436   2.282   6.972
 8275SOL    HW225725   5.363   2.138   6.998
 8276SOL     OW25726   0.294   1.988   2.971
 8276SOL    HW125727   0.375   2.041   2.943
 8276SOL    HW225728   0.292   1.982   3.071
 8277SOL     OW25729   6.902   1.024   6.697
 8277SOL    HW125730   6.923   1.092   6.768
 8277SOL    HW225731   6.808   1.039   6.665
 8278SOL     OW25732   1.579   2.248   6.917
 8278SOL    HW125733   1.520   2.302   6.976
 8278SOL    HW225734   1.649   2.307   6.876
 8279SOL     OW25735   0.067   6.017   3.685
 8279SOL    HW125736   0.110   5.928   3.671
 8279SOL    HW225737   0.070   6.069   3.599
 8280SOL     OW25738   3.125   2.395   5.510
 8280SOL    HW125739   3.201   2.413   5.447
 8280SOL    HW225740   3.104   2.297   5.509
 8281SOL     OW25741   4.703   5.712   2.629
 8281SOL    HW125742   4.696   5.623   2.676
 8281SOL    HW225743   4.788   5.757   2.655
 8282SOL     OW25744   5.667   2.492   6.206
 8282SOL    HW125745   5.601   2.419   6.191
 8282SOL    HW225746   5.671   2.551   6.126
 8283SOL     OW25747   2.018   2.143   5.875
 8283SOL    HW125748   1.981   2.228   5.912
 8283SOL    HW225749   1.989   2.133   5.780
 8284SOL     OW25750   6.624   4.143   1.697
 8284SOL    HW125751   6.719   4.168   1.677
 8284SOL    HW225752   6.621   4.062   1.755
 8285SOL     OW25753   4.093   3.204   4.016
 8285SOL    HW125754   4.053   3.207   3.924
 8285SOL    HW225755   4.178   3.256   4.016
 8286SOL     OW25756   0.408   1.840   6.138
 8286SOL    HW125757   0.315   1.804   6.127
 8286SOL    HW225758   0.465   1.810   6.062
 8287SOL     OW25759   1.604   6.388   4.204
 8287SOL    HW125760   1.636   6.294   4.214
 8287SOL    HW225761   1.530   6.392   4.137
 8288SOL     OW25762   3.425   1.540   3.483
 8288SOL    HW125763   3.327   1.532   3.502
 8288SOL    HW225764   3.441   1.620   3.426
 8289SOL     OW25765   6.852   5.684   6.836
 8289SOL    HW125766   6.802   5.603   6.868
 8289SOL    HW225767   6.788   5.750   6.797
 8290SOL     OW25768   6.428   2.309   0.470
 8290SOL    HW125769   6.461   2.267   0.385
 8290SOL    HW225770   6.407   2.237   0.536
 8291SOL     OW25771   4.168   0.389   0.681
 8291SOL    HW125772   4.213   0.302   0.701
 8291SOL    HW225773   4.106   0.413   0.756
 8292SOL     OW25774   3.052   0.440   6.169
 8292SOL    HW125775   3.069   0.538   6.182
 8292SOL    HW225776   3.138   0.394   6.147
 8293SOL     OW25777   5.849   5.351   4.769
 8293SOL    HW125778   5.764   5.315   4.810
 8293SOL    HW225779   5.829   5.390   4.680
 8294SOL     OW25780   5.654   3.040   0.232
 8294SOL    HW125781   5.679   2.968   0.297
 8294SOL    HW225782   5.637   2.999   0.143
 8295SOL     OW25783   4.590   3.615   6.977
 8295SOL    HW125784   4.544   3.697   7.011
 8295SOL    HW225785   4.648   3.639   6.899
 8296SOL     OW25786   1.201   4.969   6.320
 8296SOL    HW125787   1.218   5.045   6.256
 8296SOL    HW225788   1.110   4.932   6.305
 8297SOL     OW25789   1.189   2.758   3.921
 8297SOL    HW125790   1.235   2.686   3.972
 8297SOL    HW225791   1.118   2.718   3.863
 8298SOL     OW25792   5.327   1.520   2.393
 8298SOL    HW125793   5.319   1.568   2.306
 8298SOL    HW225794   5.282   1.431   2.386
 8299SOL     OW25795   6.391   2.255   1.441
 8299SOL    HW125796   6.339   2.225   1.521
 8299SOL    HW225797   6.426   2.347   1.457
 8300SOL     OW25798   0.579   5.193   2.992
 8300SOL    HW125799   0.557   5.278   3.040
 8300SOL    HW225800   0.561   5.115   3.052
 8301SOL     OW25801   2.966   2.685   6.559
 8301SOL    HW125802   2.944   2.778   6.528
 8301SOL    HW225803   2.900   2.621   6.520
 8302SOL     OW25804   5.970   5.799   5.553
 8302SOL    HW125805   5.966   5.862   5.475
 8302SOL    HW225806   5.907   5.723   5.538
 8303SOL     OW25807   0.050   0.197   6.140
 8303SOL    HW125808   6.973   0.184   6.161
 8303SOL    HW225809   0.062   0.274   6.078
 8304SOL     OW25810   6.888   3.349   0.717
 8304SOL    HW125811   6.895   3.382   0.623
 8304SOL    HW225812   6.965   3.288   0.737
 8305SOL     OW25813   3.561   5.152   3.430
 8305SOL    HW125814   3.485   5.155   3.494
 8305SOL    HW225815   3.553   5.072   3.372
 8306SOL     OW25816   1.088   3.179   4.335
 8306SOL    HW125817   1.005   3.175   4.280
 8306SOL    HW225818   1.088   3.263   4.389
 8307SOL     OW25819   3.568   5.298   0.865
 8307SOL    HW125820   3.487   5.265   0.913
 8307SOL    HW225821   3.629   5.342   0.931
 8308SOL     OW25822   3.495   0.557   2.869
 8308SOL    HW125823   3.523   0.600   2.783
 8308SOL    HW225824   3.492   0.625   2.942
 8309SOL     OW25825   5.891   6.811   2.313
 8309SOL    HW125826   5.804   6.853   2.339
 8309SOL    HW225827   5.920   6.847   2.224
 8310SOL     OW25828   6.369   4.169   6.600
 8310SOL    HW125829   6.388   4.072   6.614
 8310SOL    HW225830   6.293   4.179   6.536
 8311SOL     OW25831   6.702   0.892   6.536
 8311SOL    HW125832   6.628   0.883   6.602
 8311SOL    HW225833   6.684   0.831   6.458
 8312SOL     OW25834   5.336   6.607   1.139
 8312SOL    HW125835   5.302   6.533   1.197
 8312SOL    HW225836   5.272   6.623   1.064
 8313SOL     OW25837   3.571   1.161   2.409
 8313SOL    HW125838   3.526   1.165   2.319
 8313SOL    HW225839   3.667   1.187   2.399
 8314SOL     OW25840   0.146   6.077   3.210
 8314SOL    HW125841   0.070   6.026   3.251
 8314SOL    HW225842   0.110   6.155   3.159
 8315SOL     OW25843   4.691   4.714   6.613
 8315SOL    HW125844   4.787   4.688   6.612
 8315SOL    HW225845   4.662   4.743   6.522
 8316SOL     OW25846   3.037   5.943   6.608
 8316SOL    HW125847   3.060   5.996   6.526
 8316SOL    HW225848   3.048   6.000   6.689
 8317SOL     OW25849   2.320   4.296   2.159
 8317SOL    HW125850   2.315   4.197   2.151
 8317SOL    HW225851   2.233   4.337   2.134
 8318SOL     OW25852   3.607   1.176   5.747
 8318SOL    HW125853   3.598   1.269   5.710
 8318SOL    HW225854   3.689   1.171   5.805
 8319SOL     OW25855   3.555   0.575   5.057
 8319SOL    HW125856   3.636   0.564   5.115
 8319SOL    HW225857   3.473   0.551   5.109
 8320SOL     OW25858   4.233   4.896   1.290
 8320SOL    HW125859   4.175   4.912   1.370
 8320SOL    HW225860   4.210   4.807   1.250
 8321SOL     OW25861   0.109   0.989   1.316
 8321SOL    HW125862   0.064   0.905   1.346
 8321SOL    HW225863   0.151   0.974   1.226
 8322SOL     OW25864   5.681   6.585   6.752
 8322SOL    HW125865   5.744   6.662   6.759
 8322SOL    HW225866   5.608   6.607   6.687
 8323SOL     OW25867   1.610   1.149   1.963
 8323SOL    HW125868   1.652   1.178   1.877
 8323SOL    HW225869   1.644   1.206   2.038
 8324SOL     OW25870   6.773   1.394   2.310
 8324SOL    HW125871   6.678   1.365   2.321
 8324SOL    HW225872   6.779   1.460   2.236
 8325SOL     OW25873   3.556   4.167   4.303
 8325SOL    HW125874   3.488   4.160   4.376
 8325SOL    HW225875   3.515   4.137   4.217
 8326SOL     OW25876   4.062   2.771   6.438
 8326SOL    HW125877   4.013   2.689   6.409
 8326SOL    HW225878   4.057   2.841   6.366
 8327SOL     OW25879   5.237   2.262   6.334
 8327SOL    HW125880   5.225   2.224   6.242
 8327SOL    HW225881   5.147   2.280   6.375
 8328SOL     OW25882   2.427   2.674   4.258
 8328SOL    HW125883   2.500   2.641   4.318
 8328SOL    HW225884   2.449   2.653   4.163
 8329SOL     OW25885   0.312   2.347   4.715
 8329SOL    HW125886   0.319   2.253   4.681
 8329SOL    HW225887   0.238   2.354   4.781
 8330SOL     OW25888   2.572   6.628   0.925
 8330SOL    HW125889   2.538   6.722   0.917
 8330SOL    HW225890   2.596   6.610   1.020
 8331SOL     OW25891   3.063   6.919   1.113
 8331SOL    HW125892   3.004   6.974   1.054
 8331SOL    HW225893   3.064   6.825   1.079
 8332SOL     OW25894   4.889   5.943   3.230
 8332SOL    HW125895   4.836   5.993   3.299
 8332SOL    HW225896   4.843   5.856   3.210
 8333SOL     OW25897   1.271   5.159   6.146
 8333SOL    HW125898   1.261   5.256   6.125
 8333SOL    HW225899   1.360   5.142   6.187
 8334SOL     OW25900   6.119   0.343   3.934
 8334SOL    HW125901   6.118   0.441   3.913
 8334SOL    HW225902   6.206   0.319   3.976
 8335SOL     OW25903   6.160   6.707   5.278
 8335SOL    HW125904   6.197   6.788   5.323
 8335SOL    HW225905   6.126   6.643   5.347
 8336SOL     OW25906   0.632   2.176   2.448
 8336SOL    HW125907   0.565   2.109   2.478
 8336SOL    HW225908   0.724   2.137   2.455
 8337SOL     OW25909   0.203   6.031   1.733
 8337SOL    HW125910   0.200   6.099   1.660
 8337SOL    HW225911   0.112   5.992   1.746
 8338SOL     OW25912   2.032   4.738   0.872
 8338SOL    HW125913   1.948   4.695   0.907
 8338SOL    HW225914   2.088   4.669   0.826
 8339SOL     OW25915   5.872   0.699   3.255
 8339SOL    HW125916   5.822   0.784   3.269
 8339SOL    HW225917   5.864   0.641   3.336
 8340SOL     OW25918   4.768   3.436   1.357
 8340SOL    HW125919   4.702   3.383   1.304
 8340SOL    HW225920   4.743   3.433   1.454
 8341SOL     OW25921   2.531   6.888   0.904
 8341SOL    HW125922   2.472   6.924   0.831
 8341SOL    HW225923   2.551   6.960   0.970
 8342SOL     OW25924   4.863   0.163   1.065
 8342SOL    HW125925   4.887   0.187   1.159
 8342SOL    HW225926   4.879   0.065   1.050
 8343SOL     OW25927   1.376   5.319   5.827
 8343SOL    HW125928   1.410   5.319   5.921
 8343SOL    HW225929   1.353   5.226   5.800
 8344SOL     OW25930   3.818   0.117   5.377
 8344SOL    HW125931   3.760   0.036   5.387
 8344SOL    HW225932   3.895   0.096   5.318
 8345SOL     OW25933   5.976   1.716   2.989
 8345SOL    HW125934   5.974   1.627   2.943
 8345SOL    HW225935   6.070   1.748   2.994
 8346SOL     OW25936   3.594   5.408   1.527
 8346SOL    HW125937   3.530   5.483   1.509
 8346SOL    HW225938   3.559   5.323   1.489
 8347SOL     OW25939   3.554   5.206   4.182
 8347SOL    HW125940   3.522   5.296   4.212
 8347SOL    HW225941   3.560   5.204   4.083
 8348SOL     OW25942   1.665   0.581   0.753
 8348SOL    HW125943   1.720   0.627   0.824
 8348SOL    HW225944   1.569   0.608   0.763
 8349SOL     OW25945   6.013   5.413   1.492
 8349SOL    HW125946   6.092   5.428   1.551
 8349SOL    HW225947   5.931   5.407   1.547
 8350SOL     OW25948   6.643   0.430   4.799
 8350SOL    HW125949   6.561   0.377   4.777
 8350SOL    HW225950   6.695   0.447   4.715
 8351SOL     OW25951   2.695   6.688   2.332
 8351SOL    HW125952   2.705   6.642   2.244
 8351SOL    HW225953   2.678   6.620   2.404
 8352SOL     OW25954   6.450   6.025   1.690
 8352SOL    HW125955   6.518   5.976   1.744
 8352SOL    HW225956   6.490   6.055   1.604
 8353SOL     OW25957   0.719   3.936   2.476
 8353SOL    HW125958   0.779   4.016   2.485
 8353SOL    HW225959   0.689   3.928   2.381
 8354SOL     OW25960   2.663   0.556   0.745
 8354SOL    HW125961   2.731   0.609   0.694
 8354SOL    HW225962   2.659   0.463   0.708
 8355SOL     OW25963   3.342   1.353   0.514
 8355SOL    HW125964   3.360   1.448   0.488
 8355SOL    HW225965   3.361   1.293   0.436
 8356SOL     OW25966   2.653   5.679   0.585
 8356SOL    HW125967   2.686   5.769   0.614
 8356SOL    HW225968   2.645   5.619   0.665
 8357SOL     OW25969   4.738   6.124   3.412
 8357SOL    HW125970   4.798   6.195   3.376
 8357SOL    HW225971   4.773   6.090   3.499
 8358SOL     OW25972   3.035   2.166   4.834
 8358SOL    HW125973   2.935   2.174   4.828
 8358SOL    HW225974   3.069   2.224   4.908
 8359SOL     OW25975   4.229   4.996   3.863
 8359SOL    HW125976   4.239   4.905   3.821
 8359SOL    HW225977   4.222   5.065   3.791
 8360SOL     OW25978   4.531   0.527   3.217
 8360SOL    HW125979   4.545   0.441   3.267
 8360SOL    HW225980   4.615   0.552   3.169
 8361SOL     OW25981   1.599   0.555   2.864
 8361SOL    HW125982   1.513   0.529   2.821
 8361SOL    HW225983   1.646   0.474   2.898
 8362SOL     OW25984   2.269   3.106   0.463
 8362SOL    HW125985   2.324   3.073   0.387
 8362SOL    HW225986   2.323   3.102   0.548
 8363SOL     OW25987   6.988   3.451   1.076
 8363SOL    HW125988   0.028   3.422   1.150
 8363SOL    HW225989   6.896   3.414   1.091
 8364SOL     OW25990   6.884   4.539   4.605
 8364SOL    HW125991   6.970   4.588   4.594
 8364SOL    HW225992   6.858   4.539   4.702
 8365SOL     OW25993   1.001   3.808   5.850
 8365SOL    HW125994   1.036   3.892   5.891
 8365SOL    HW225995   1.073   3.739   5.847
 8366SOL     OW25996   2.601   0.067   3.158
 8366SOL    HW125997   2.654   0.010   3.220
 8366SOL    HW225998   2.513   0.090   3.201
 8367SOL     OW25999   5.057   5.690   3.953
 8367SOL    HW126000   5.025   5.643   4.035
 8367SOL    HW226001   5.093   5.623   3.888
 8368SOL     OW26002   3.190   5.491   6.257
 8368SOL    HW126003   3.101   5.491   6.301
 8368SOL    HW226004   3.258   5.531   6.319
 8369SOL     OW26005   2.841   1.501   1.438
 8369SOL    HW126006   2.884   1.571   1.381
 8369SOL    HW226007   2.742   1.508   1.431
 8370SOL     OW26008   1.677   1.538   0.043
 8370SOL    HW126009   1.613   1.496   0.108
 8370SOL    HW226010   1.703   1.470   6.995
 8371SOL     OW26011   2.104   2.652   6.988
 8371SOL    HW126012   2.049   2.604   0.036
 8371SOL    HW226013   2.200   2.631   7.001
 8372SOL     OW26014   6.603   0.566   0.967
 8372SOL    HW126015   6.590   0.467   0.961
 8372SOL    HW226016   6.553   0.601   1.046
 8373SOL     OW26017   1.576   6.425   4.628
 8373SOL    HW126018   1.484   6.461   4.643
 8373SOL    HW226019   1.570   6.330   4.597
 8374SOL     OW26020   6.647   0.749   6.313
 8374SOL    HW126021   6.700   0.796   6.243
 8374SOL    HW226022   6.549   0.764   6.296
 8375SOL     OW26023   4.035   0.807   6.011
 8375SOL    HW126024   4.101   0.883   6.015
 8375SOL    HW226025   3.947   0.839   6.046
 8376SOL     OW26026   4.615   0.405   4.538
 8376SOL    HW126027   4.590   0.358   4.623
 8376SOL    HW226028   4.711   0.387   4.517
 8377SOL     OW26029   5.938   4.855   1.118
 8377SOL    HW126030   6.026   4.810   1.107
 8377SOL    HW226031   5.908   4.848   1.213
 8378SOL     OW26032   5.173   3.488   3.771
 8378SOL    HW126033   5.210   3.521   3.685
 8378SOL    HW226034   5.242   3.434   3.819
 8379SOL     OW26035   4.961   2.656   2.153
 8379SOL    HW126036   4.941   2.564   2.118
 8379SOL    HW226037   4.877   2.697   2.187
 8380SOL     OW26038   5.949   2.066   3.974
 8380SOL    HW126039   5.876   2.005   4.005
 8380SOL    HW226040   6.021   2.012   3.930
 8381SOL     OW26041   2.368   5.334   4.202
 8381SOL    HW126042   2.271   5.348   4.224
 8381SOL    HW226043   2.377   5.317   4.104
 8382SOL     OW26044   1.019   4.087   2.809
 8382SOL    HW126045   0.996   3.992   2.832
 8382SOL    HW226046   1.080   4.089   2.730
 8383SOL     OW26047   3.212   1.295   5.703
 8383SOL    HW126048   3.156   1.212   5.698
 8383SOL    HW226049   3.237   1.324   5.611
 8384SOL     OW26050   0.971   6.767   2.049
 8384SOL    HW126051   0.881   6.784   2.008
 8384SOL    HW226052   1.040   6.759   1.977
 8385SOL     OW26053   4.856   2.503   1.050
 8385SOL    HW126054   4.901   2.547   0.972
 8385SOL    HW226055   4.777   2.558   1.078
 8386SOL     OW26056   0.661   4.023   2.878
 8386SOL    HW126057   0.652   3.997   2.974
 8386SOL    HW226058   0.740   3.977   2.839
 8387SOL     OW26059   0.906   2.002   0.758
 8387SOL    HW126060   1.001   1.996   0.729
 8387SOL    HW226061   0.865   2.084   0.719
 8388SOL     OW26062   1.057   6.501   3.247
 8388SOL    HW126063   1.063   6.427   3.179
 8388SOL    HW226064   1.134   6.563   3.235
 8389SOL     OW26065   5.843   2.738   3.493
 8389SOL    HW126066   5.833   2.677   3.414
 8389SOL    HW226067   5.761   2.794   3.502
 8390SOL     OW26068   5.913   1.366   6.188
 8390SOL    HW126069   5.847   1.405   6.124
 8390SOL    HW226070   5.988   1.322   6.137
 8391SOL     OW26071   6.450   6.842   1.122
 8391SOL    HW126072   6.420   6.903   1.195
 8391SOL    HW226073   6.469   6.896   1.040
 8392SOL     OW26074   3.767   3.126   5.617
 8392SOL    HW126075   3.833   3.133   5.692
 8392SOL    HW226076   3.693   3.063   5.644
 8393SOL     OW26077   5.596   0.189   1.257
 8393SOL    HW126078   5.546   0.120   1.204
 8393SOL    HW226079   5.565   0.280   1.229
 8394SOL     OW26080   5.792   2.641   2.263
 8394SOL    HW126081   5.697   2.660   2.238
 8394SOL    HW226082   5.825   2.713   2.325
 8395SOL     OW26083   2.369   1.110   5.151
 8395SOL    HW126084   2.347   1.012   5.148
 8395SOL    HW226085   2.467   1.122   5.166
 8396SOL     OW26086   5.166   5.454   4.419
 8396SOL    HW126087   5.263   5.437   4.435
 8396SOL    HW226088   5.118   5.367   4.412
 8397SOL     OW26089   6.573   0.410   2.972
 8397SOL    HW126090   6.528   0.403   2.883
 8397SOL    HW226091   6.553   0.329   3.026
 8398SOL     OW26092   5.677   1.898   5.968
 8398SOL    HW126093   5.670   1.997   5.984
 8398SOL    HW226094   5.741   1.882   5.893
 8399SOL     OW26095   0.219   4.439   1.599
 8399SOL    HW126096   0.284   4.439   1.522
 8399SOL    HW226097   0.128   4.418   1.564
 8400SOL     OW26098   1.337   1.331   4.618
 8400SOL    HW126099   1.319   1.239   4.654
 8400SOL    HW226100   1.308   1.335   4.523
 8401SOL     OW26101   2.165   0.536   5.600
 8401SOL    HW126102   2.218   0.522   5.684
 8401SOL    HW226103   2.085   0.592   5.621
 8402SOL     OW26104   3.470   0.655   6.627
 8402SOL    HW126105   3.534   0.657   6.550
 8402SOL    HW226106   3.463   0.746   6.668
 8403SOL     OW26107   5.467   4.821   5.088
 8403SOL    HW126108   5.528   4.753   5.047
 8403SOL    HW226109   5.515   4.908   5.098
 8404SOL     OW26110   0.968   1.412   6.566
 8404SOL    HW126111   0.944   1.492   6.511
 8404SOL    HW226112   1.006   1.442   6.654
 8405SOL     OW26113   4.118   6.963   5.431
 8405SOL    HW126114   4.183   6.895   5.463
 8405SOL    HW226115   4.150   7.001   5.344
 8406SOL     OW26116   5.847   0.380   5.845
 8406SOL    HW126117   5.890   0.468   5.829
 8406SOL    HW226118   5.852   0.357   5.943
 8407SOL     OW26119   4.186   0.318   4.511
 8407SOL    HW126120   4.106   0.343   4.458
 8407SOL    HW226121   4.165   0.325   4.609
 8408SOL     OW26122   4.005   1.668   1.269
 8408SOL    HW126123   3.993   1.573   1.299
 8408SOL    HW226124   4.102   1.690   1.266
 8409SOL     OW26125   4.178   2.210   2.183
 8409SOL    HW126126   4.145   2.232   2.275
 8409SOL    HW226127   4.099   2.189   2.125
 8410SOL     OW26128   0.395   1.767   1.611
 8410SOL    HW126129   0.476   1.796   1.561
 8410SOL    HW226130   0.313   1.784   1.556
 8411SOL     OW26131   0.799   6.564   1.372
 8411SOL    HW126132   0.871   6.545   1.438
 8411SOL    HW226133   0.715   6.587   1.421
 8412SOL     OW26134   2.734   2.186   0.018
 8412SOL    HW126135   2.799   2.240   0.072
 8412SOL    HW226136   2.739   2.090   0.047
 8413SOL     OW26137   3.891   5.429   4.648
 8413SOL    HW126138   3.906   5.389   4.739
 8413SOL    HW226139   3.855   5.522   4.659
 8414SOL     OW26140   1.631   0.035   1.101
 8414SOL    HW126141   1.630   0.123   1.053
 8414SOL    HW226142   1.648   0.051   1.198
 8415SOL     OW26143   3.194   1.660   6.053
 8415SOL    HW126144   3.140   1.660   6.137
 8415SOL    HW226145   3.178   1.575   6.003
 8416SOL     OW26146   0.165   2.423   5.374
 8416SOL    HW126147   0.235   2.493   5.391
 8416SOL    HW226148   0.152   2.368   5.456
 8417SOL     OW26149   2.066   3.730   6.074
 8417SOL    HW126150   2.085   3.675   5.992
 8417SOL    HW226151   2.052   3.825   6.046
 8418SOL     OW26152   0.548   5.841   2.167
 8418SOL    HW126153   0.625   5.897   2.198
 8418SOL    HW226154   0.550   5.833   2.068
 8419SOL     OW26155   4.010   1.785   4.468
 8419SOL    HW126156   3.940   1.732   4.420
 8419SOL    HW226157   4.033   1.865   4.413
 8420SOL     OW26158   3.887   0.908   1.880
 8420SOL    HW126159   3.868   0.853   1.962
 8420SOL    HW226160   3.802   0.953   1.851
 8421SOL     OW26161   4.537   6.894   6.593
 8421SOL    HW126162   4.580   6.953   6.525
 8421SOL    HW226163   4.487   6.950   6.659
 8422SOL     OW26164   5.466   2.970   4.037
 8422SOL    HW126165   5.382   2.985   4.089
 8422SOL    HW226166   5.443   2.929   3.948
 8423SOL     OW26167   6.420   5.414   0.325
 8423SOL    HW126168   6.416   5.488   0.258
 8423SOL    HW226169   6.451   5.451   0.413
 8424SOL     OW26170   3.353   0.434   4.930
 8424SOL    HW126171   3.444   0.457   4.895
 8424SOL    HW226172   3.297   0.398   4.855
 8425SOL     OW26173   3.492   4.166   2.385
 8425SOL    HW126174   3.460   4.254   2.422
 8425SOL    HW226175   3.522   4.107   2.460
 8426SOL     OW26176   3.931   3.071   1.897
 8426SOL    HW126177   3.956   3.016   1.817
 8426SOL    HW226178   3.867   3.142   1.869
 8427SOL     OW26179   4.119   3.573   3.219
 8427SOL    HW126180   4.155   3.565   3.312
 8427SOL    HW226181   4.088   3.483   3.188
 8428SOL     OW26182   5.891   0.183   2.200
 8428SOL    HW126183   5.954   0.194   2.277
 8428SOL    HW226184   5.941   0.193   2.114
 8429SOL     OW26185   2.858   5.894   5.400
 8429SOL    HW126186   2.919   5.972   5.385
 8429SOL    HW226187   2.832   5.854   5.312
 8430SOL     OW26188   5.115   6.769   5.335
 8430SOL    HW126189   5.177   6.699   5.297
 8430SOL    HW226190   5.162   6.857   5.335
 8431SOL     OW26191   1.863   3.388   5.650
 8431SOL    HW126192   1.796   3.439   5.704
 8431SOL    HW226193   1.848   3.290   5.662
 8432SOL     OW26194   6.150   5.016   6.069
 8432SOL    HW126195   6.245   4.988   6.081
 8432SOL    HW226196   6.095   4.937   6.043
 8433SOL     OW26197   5.659   2.134   1.139
 8433SOL    HW126198   5.709   2.161   1.056
 8433SOL    HW226199   5.663   2.035   1.150
 8434SOL     OW26200   2.444   6.165   4.957
 8434SOL    HW126201   2.450   6.157   5.056
 8434SOL    HW226202   2.439   6.074   4.916
 8435SOL     OW26203   5.659   1.939   3.547
 8435SOL    HW126204   5.738   1.939   3.609
 8435SOL    HW226205   5.587   1.996   3.584
 8436SOL     OW26206   2.306   6.035   2.174
 8436SOL    HW126207   2.375   5.966   2.150
 8436SOL    HW226208   2.242   6.046   2.098
 8437SOL     OW26209   0.770   5.664   1.098
 8437SOL    HW126210   0.737   5.649   1.005
 8437SOL    HW226211   0.866   5.694   1.095
 8438SOL     OW26212   0.762   3.942   1.925
 8438SOL    HW126213   0.744   3.844   1.934
 8438SOL    HW226214   0.856   3.962   1.953
 8439SOL     OW26215   6.219   4.587   2.703
 8439SOL    HW126216   6.177   4.503   2.737
 8439SOL    HW226217   6.260   4.570   2.613
 8440SOL     OW26218   1.596   2.002   2.823
 8440SOL    HW126219   1.661   1.928   2.808
 8440SOL    HW226220   1.509   1.965   2.857
 8441SOL     OW26221   0.159   2.378   5.648
 8441SOL    HW126222   0.061   2.363   5.648
 8441SOL    HW226223   0.184   2.441   5.721
 8442SOL     OW26224   3.886   2.255   6.905
 8442SOL    HW126225   3.862   2.350   6.885
 8442SOL    HW226226   3.914   2.246   7.000
 8443SOL     OW26227   1.881   4.588   2.712
 8443SOL    HW126228   1.831   4.668   2.743
 8443SOL    HW226229   1.931   4.548   2.789
 8444SOL     OW26230   5.607   5.238   4.867
 8444SOL    HW126231   5.575   5.184   4.945
 8444SOL    HW226232   5.529   5.260   4.808
 8445SOL     OW26233   4.749   6.613   6.684
 8445SOL    HW126234   4.700   6.700   6.672
 8445SOL    HW226235   4.794   6.588   6.599
 8446SOL     OW26236   0.003   5.485   5.103
 8446SOL    HW126237   0.081   5.519   5.050
 8446SOL    HW226238   6.951   5.457   5.040
 8447SOL     OW26239   3.863   1.176   4.086
 8447SOL    HW126240   3.843   1.098   4.028
 8447SOL    HW226241   3.778   1.223   4.110
 8448SOL     OW26242   3.265   5.806   3.365
 8448SOL    HW126243   3.166   5.791   3.358
 8448SOL    HW226244   3.285   5.903   3.354
 8449SOL     OW26245   1.765   1.717   3.880
 8449SOL    HW126246   1.667   1.699   3.883
 8449SOL    HW226247   1.816   1.632   3.893
 8450SOL     OW26248   6.677   0.445   0.092
 8450SOL    HW126249   6.712   0.512   0.027
 8450SOL    HW226250   6.587   0.413   0.063
 8451SOL     OW26251   4.004   2.586   1.341
 8451SOL    HW126252   4.041   2.504   1.298
 8451SOL    HW226253   4.060   2.665   1.318
 8452SOL     OW26254   4.963   1.266   6.175
 8452SOL    HW126255   5.005   1.215   6.249
 8452SOL    HW226256   4.878   1.221   6.147
 8453SOL     OW26257   6.594   0.001   6.928
 8453SOL    HW126258   6.601   0.049   7.016
 8453SOL    HW226259   6.500   6.992   6.914
 8454SOL     OW26260   5.964   4.716   6.347
 8454SOL    HW126261   5.878   4.746   6.388
 8454SOL    HW226262   5.946   4.675   6.257
 8455SOL     OW26263   6.395   1.095   2.539
 8455SOL    HW126264   6.377   1.193   2.549
 8455SOL    HW226265   6.397   1.052   2.629
 8456SOL     OW26266   0.006   0.240   2.620
 8456SOL    HW126267   7.007   0.158   2.674
 8456SOL    HW226268   0.075   0.219   2.551
 8457SOL     OW26269   6.828   6.565   5.173
 8457SOL    HW126270   6.862   6.658   5.165
 8457SOL    HW226271   6.840   6.517   5.085
 8458SOL     OW26272   1.112   6.569   6.647
 8458SOL    HW126273   1.048   6.494   6.630
 8458SOL    HW226274   1.079   6.624   6.723
 8459SOL     OW26275   1.077   5.844   3.485
 8459SOL    HW126276   1.040   5.867   3.395
 8459SOL    HW226277   1.031   5.900   3.554
 8460SOL     OW26278   4.077   3.729   2.812
 8460SOL    HW126279   4.100   3.721   2.716
 8460SOL    HW226280   3.996   3.787   2.823
 8461SOL     OW26281   6.090   3.528   3.729
 8461SOL    HW126282   6.037   3.602   3.685
 8461SOL    HW226283   6.144   3.481   3.660
 8462SOL     OW26284   2.423   2.622   1.640
 8462SOL    HW126285   2.519   2.594   1.637
 8462SOL    HW226286   2.398   2.665   1.554
 8463SOL     OW26287   6.012   0.612   2.126
 8463SOL    HW126288   6.056   0.622   2.037
 8463SOL    HW226289   5.925   0.661   2.126
 8464SOL     OW26290   6.646   1.616   4.839
 8464SOL    HW126291   6.607   1.705   4.815
 8464SOL    HW226292   6.607   1.546   4.779
 8465SOL     OW26293   1.522   1.776   0.107
 8465SOL    HW126294   1.575   1.707   0.059
 8465SOL    HW226295   1.487   1.843   0.042
 8466SOL     OW26296   0.509   0.116   4.254
 8466SOL    HW126297   0.593   0.091   4.302
 8466SOL    HW226298   0.450   0.035   4.246
 8467SOL     OW26299   4.046   5.418   0.988
 8467SOL    HW126300   4.014   5.360   1.063
 8467SOL    HW226301   4.088   5.360   0.918
 8468SOL     OW26302   3.924   2.175   0.170
 8468SOL    HW126303   3.961   2.225   0.248
 8468SOL    HW226304   3.984   2.098   0.148
 8469SOL     OW26305   3.869   2.138   6.045
 8469SOL    HW126306   3.870   2.166   5.949
 8469SOL    HW226307   3.963   2.131   6.078
 8470SOL     OW26308   1.426   3.012   6.890
 8470SOL    HW126309   1.494   3.075   6.853
 8470SOL    HW226310   1.472   2.927   6.918
 8471SOL     OW26311   3.998   1.881   4.111
 8471SOL    HW126312   4.045   1.938   4.179
 8471SOL    HW226313   4.060   1.809   4.080
 8472SOL     OW26314   1.323   6.584   3.176
 8472SOL    HW126315   1.302   6.499   3.225
 8472SOL    HW226316   1.380   6.563   3.097
 8473SOL     OW26317   6.308   5.762   6.321
 8473SOL    HW126318   6.276   5.804   6.236
 8473SOL    HW226319   6.312   5.662   6.309
 8474SOL     OW26320   3.654   5.395   0.629
 8474SOL    HW126321   3.737   5.448   0.643
 8474SOL    HW226322   3.630   5.348   0.715
 8475SOL     OW26323   4.733   2.284   3.312
 8475SOL    HW126324   4.640   2.307   3.342
 8475SOL    HW226325   4.735   2.271   3.213
 8476SOL     OW26326   4.571   0.377   2.129
 8476SOL    HW126327   4.543   0.294   2.177
 8476SOL    HW226328   4.491   0.423   2.091
 8477SOL     OW26329   2.323   0.149   2.446
 8477SOL    HW126330   2.268   0.233   2.450
 8477SOL    HW226331   2.296   0.088   2.520
 8478SOL     OW26332   1.688   0.719   5.851
 8478SOL    HW126333   1.771   0.771   5.829
 8478SOL    HW226334   1.709   0.622   5.852
 8479SOL     OW26335   5.237   1.050   2.741
 8479SOL    HW126336   5.171   0.975   2.736
 8479SOL    HW226337   5.262   1.078   2.648
 8480SOL     OW26338   2.036   1.667   1.425
 8480SOL    HW126339   2.038   1.631   1.331
 8480SOL    HW226340   2.115   1.725   1.440
 8481SOL     OW26341   4.422   0.195   6.016
 8481SOL    HW126342   4.480   0.205   5.935
 8481SOL    HW226343   4.347   0.261   6.012
 8482SOL     OW26344   0.661   0.464   2.044
 8482SOL    HW126345   0.616   0.552   2.059
 8482SOL    HW226346   0.593   0.393   2.030
 8483SOL     OW26347   5.514   6.590   1.649
 8483SOL    HW126348   5.522   6.495   1.680
 8483SOL    HW226349   5.429   6.630   1.683
 8484SOL     OW26350   6.931   4.319   5.093
 8484SOL    HW126351   6.961   4.225   5.108
 8484SOL    HW226352   6.837   4.330   5.123
 8485SOL     OW26353   2.170   3.236   5.763
 8485SOL    HW126354   2.267   3.213   5.766
 8485SOL    HW226355   2.145   3.260   5.669
 8486SOL     OW26356   4.532   0.816   2.751
 8486SOL    HW126357   4.548   0.884   2.680
 8486SOL    HW226358   4.464   0.750   2.719
 8487SOL     OW26359   4.385   1.410   0.862
 8487SOL    HW126360   4.381   1.354   0.779
 8487SOL    HW226361   4.337   1.363   0.936
 8488SOL     OW26362   5.570   3.614   4.658
 8488SOL    HW126363   5.621   3.620   4.572
 8488SOL    HW226364   5.581   3.523   4.698
 8489SOL     OW26365   3.418   6.371   2.801
 8489SOL    HW126366   3.477   6.340   2.727
 8489SOL    HW226367   3.410   6.471   2.799
 8490SOL     OW26368   3.740   5.380   2.608
 8490SOL    HW126369   3.720   5.283   2.594
 8490SOL    HW226370   3.661   5.435   2.581
 8491SOL     OW26371   0.969   1.255   1.631
 8491SOL    HW126372   1.027   1.324   1.587
 8491SOL    HW226373   1.023   1.206   1.699
 8492SOL     OW26374   5.827   4.423   4.271
 8492SOL    HW126375   5.916   4.465   4.255
 8492SOL    HW226376   5.771   4.484   4.327
 8493SOL     OW26377   3.436   2.688   1.030
 8493SOL    HW126378   3.511   2.642   1.076
 8493SOL    HW226379   3.354   2.632   1.035
 8494SOL     OW26380   3.805   5.942   6.674
 8494SOL    HW126381   3.902   5.921   6.684
 8494SOL    HW226382   3.757   5.918   6.758
 8495SOL     OW26383   0.757   2.486   0.277
 8495SOL    HW126384   0.736   2.581   0.254
 8495SOL    HW226385   0.673   2.435   0.293
 8496SOL     OW26386   0.351   2.100   3.253
 8496SOL    HW126387   0.382   2.055   3.337
 8496SOL    HW226388   0.264   2.147   3.270
 8497SOL     OW26389   5.928   4.480   3.439
 8497SOL    HW126390   6.026   4.475   3.421
 8497SOL    HW226391   5.884   4.533   3.366
 8498SOL     OW26392   6.257   0.911   1.442
 8498SOL    HW126393   6.282   0.824   1.486
 8498SOL    HW226394   6.288   0.987   1.499
 8499SOL     OW26395   1.103   3.757   6.680
 8499SOL    HW126396   1.127   3.691   6.751
 8499SOL    HW226397   1.112   3.715   6.590
 8500SOL     OW26398   3.284   0.414   5.725
 8500SOL    HW126399   3.372   0.388   5.685
 8500SOL    HW226400   3.218   0.431   5.652
 8501SOL     OW26401   3.105   4.414   5.909
 8501SOL    HW126402   3.094   4.431   5.811
 8501SOL    HW226403   3.027   4.453   5.958
 8502SOL     OW26404   1.152   6.804   1.845
 8502SOL    HW126405   1.243   6.818   1.806
 8502SOL    HW226406   1.087   6.782   1.772
 8503SOL     OW26407   3.372   5.798   3.623
 8503SOL    HW126408   3.361   5.769   3.528
 8503SOL    HW226409   3.350   5.722   3.684
 8504SOL     OW26410   1.320   5.432   3.312
 8504SOL    HW126411   1.294   5.523   3.347
 8504SOL    HW226412   1.238   5.386   3.277
 8505SOL     OW26413   4.544   2.505   4.011
 8505SOL    HW126414   4.552   2.603   4.031
 8505SOL    HW226415   4.470   2.466   4.066
 8506SOL     OW26416   1.094   6.272   6.829
 8506SOL    HW126417   1.041   6.302   6.749
 8506SOL    HW226418   1.056   6.314   6.911
 8507SOL     OW26419   1.783   0.102   5.181
 8507SOL    HW126420   1.730   0.018   5.193
 8507SOL    HW226421   1.744   0.153   5.104
 8508SOL     OW26422   0.587   2.914   5.419
 8508SOL    HW126423   0.539   2.898   5.332
 8508SOL    HW226424   0.628   3.005   5.418
 8509SOL     OW26425   6.076   1.564   4.581
 8509SOL    HW126426   6.064   1.575   4.482
 8509SOL    HW226427   6.045   1.473   4.608
 8510SOL     OW26428   5.160   0.044   2.348
 8510SOL    HW126429   5.128   0.084   2.433
 8510SOL    HW226430   5.096   6.994   2.318
 8511SOL     OW26431   6.527   5.727   1.603
 8511SOL    HW126432   6.604   5.757   1.660
 8511SOL    HW226433   6.441   5.753   1.647
 8512SOL     OW26434   3.386   2.865   0.625
 8512SOL    HW126435   3.330   2.942   0.657
 8512SOL    HW226436   3.433   2.891   0.541
 8513SOL     OW26437   1.036   3.225   0.808
 8513SOL    HW126438   0.948   3.267   0.785
 8513SOL    HW226439   1.106   3.297   0.816
 8514SOL     OW26440   2.420   2.731   5.015
 8514SOL    HW126441   2.411   2.830   5.026
 8514SOL    HW226442   2.514   2.703   5.038
 8515SOL     OW26443   2.690   0.243   0.931
 8515SOL    HW126444   2.625   0.277   0.863
 8515SOL    HW226445   2.732   0.321   0.978
 8516SOL     OW26446   5.860   3.121   4.229
 8516SOL    HW126447   5.779   3.069   4.257
 8516SOL    HW226448   5.932   3.109   4.297
 8517SOL     OW26449   1.759   1.693   6.329
 8517SOL    HW126450   1.711   1.780   6.328
 8517SOL    HW226451   1.823   1.690   6.406
 8518SOL     OW26452   5.048   5.187   6.632
 8518SOL    HW126453   5.041   5.280   6.669
 8518SOL    HW226454   5.126   5.141   6.674
 8519SOL     OW26455   0.644   3.333   0.503
 8519SOL    HW126456   0.733   3.376   0.488
 8519SOL    HW226457   0.589   3.391   0.564
 8520SOL     OW26458   3.253   4.060   5.879
 8520SOL    HW126459   3.226   3.976   5.833
 8520SOL    HW226460   3.173   4.102   5.922
 8521SOL     OW26461   1.649   6.858   5.214
 8521SOL    HW126462   1.593   6.833   5.292
 8521SOL    HW226463   1.656   6.780   5.151
 8522SOL     OW26464   1.287   6.519   0.069
 8522SOL    HW126465   1.214   6.587   0.060
 8522SOL    HW226466   1.349   6.547   0.143
 8523SOL     OW26467   3.646   1.850   0.693
 8523SOL    HW126468   3.663   1.931   0.750
 8523SOL    HW226469   3.554   1.855   0.655
 8524SOL     OW26470   2.271   5.664   5.537
 8524SOL    HW126471   2.291   5.620   5.449
 8524SOL    HW226472   2.354   5.668   5.591
 8525SOL     OW26473   6.334   3.301   2.098
 8525SOL    HW126474   6.300   3.393   2.082
 8525SOL    HW226475   6.419   3.306   2.151
 8526SOL     OW26476   0.109   4.307   6.651
 8526SOL    HW126477   0.116   4.384   6.588
 8526SOL    HW226478   0.022   4.311   6.700
 8527SOL     OW26479   2.590   1.205   6.008
 8527SOL    HW126480   2.522   1.222   5.937
 8527SOL    HW226481   2.563   1.252   6.092
 8528SOL     OW26482   5.618   0.801   0.802
 8528SOL    HW126483   5.692   0.740   0.832
 8528SOL    HW226484   5.531   0.770   0.841
 8529SOL     OW26485   0.725   6.205   6.857
 8529SOL    HW126486   0.634   6.233   6.888
 8529SOL    HW226487   0.795   6.252   6.910
 8530SOL     OW26488   3.809   3.890   2.826
 8530SOL    HW126489   3.765   3.824   2.886
 8530SOL    HW226490   3.819   3.850   2.735
 8531SOL     OW26491   6.298   5.295   3.578
 8531SOL    HW126492   6.259   5.259   3.493
 8531SOL    HW226493   6.397   5.306   3.567
 8532SOL     OW26494   3.255   5.595   6.796
 8532SOL    HW126495   3.162   5.631   6.790
 8532SOL    HW226496   3.293   5.616   6.886
 8533SOL     OW26497   2.028   6.549   4.697
 8533SOL    HW126498   1.946   6.509   4.738
 8533SOL    HW226499   2.044   6.639   4.737
 8534SOL     OW26500   1.782   2.205   2.767
 8534SOL    HW126501   1.811   2.253   2.850
 8534SOL    HW226502   1.716   2.133   2.792
 8535SOL     OW26503   5.527   0.446   2.256
 8535SOL    HW126504   5.476   0.506   2.318
 8535SOL    HW226505   5.558   0.499   2.177
 8536SOL     OW26506   1.392   0.982   3.775
 8536SOL    HW126507   1.367   0.928   3.855
 8536SOL    HW226508   1.458   1.052   3.801
 8537SOL     OW26509   6.068   1.530   3.405
 8537SOL    HW126510   6.115   1.541   3.317
 8537SOL    HW226511   5.994   1.597   3.412
 8538SOL     OW26512   1.115   2.402   0.552
 8538SOL    HW126513   1.126   2.457   0.469
 8538SOL    HW226514   1.175   2.438   0.623
 8539SOL     OW26515   5.426   3.154   1.802
 8539SOL    HW126516   5.521   3.151   1.833
 8539SOL    HW226517   5.404   3.069   1.755
 8540SOL     OW26518   4.126   0.714   1.381
 8540SOL    HW126519   4.167   0.633   1.340
 8540SOL    HW226520   4.067   0.688   1.457
 8541SOL     OW26521   2.083   2.629   3.885
 8541SOL    HW126522   2.150   2.618   3.959
 8541SOL    HW226523   1.991   2.617   3.922
 8542SOL     OW26524   3.184   4.663   0.510
 8542SOL    HW126525   3.188   4.763   0.508
 8542SOL    HW226526   3.097   4.632   0.473
 8543SOL     OW26527   2.978   1.646   6.531
 8543SOL    HW126528   2.995   1.557   6.490
 8543SOL    HW226529   3.016   1.718   6.472
 8544SOL     OW26530   6.290   1.716   4.635
 8544SOL    HW126531   6.275   1.815   4.628
 8544SOL    HW226532   6.213   1.667   4.593
 8545SOL     OW26533   4.362   6.487   5.136
 8545SOL    HW126534   4.413   6.572   5.150
 8545SOL    HW226535   4.285   6.504   5.075
 8546SOL     OW26536   4.328   2.779   6.928
 8546SOL    HW126537   4.324   2.679   6.938
 8546SOL    HW226538   4.390   2.802   6.853
 8547SOL     OW26539   1.513   4.814   1.772
 8547SOL    HW126540   1.469   4.812   1.862
 8547SOL    HW226541   1.540   4.721   1.746
 8548SOL     OW26542   6.405   2.287   5.471
 8548SOL    HW126543   6.315   2.268   5.430
 8548SOL    HW226544   6.413   2.238   5.558
 8549SOL     OW26545   5.070   3.445   5.508
 8549SOL    HW126546   5.160   3.416   5.474
 8549SOL    HW226547   5.083   3.511   5.582
 8550SOL     OW26548   1.072   4.370   5.699
 8550SOL    HW126549   1.017   4.439   5.746
 8550SOL    HW226550   1.119   4.313   5.766
 8551SOL     OW26551   2.385   4.255   0.819
 8551SOL    HW126552   2.460   4.318   0.800
 8551SOL    HW226553   2.309   4.274   0.757
 8552SOL     OW26554   3.150   6.679   4.656
 8552SOL    HW126555   3.214   6.622   4.708
 8552SOL    HW226556   3.199   6.758   4.619
 8553SOL     OW26557   5.982   5.259   6.933
 8553SOL    HW126558   6.001   5.178   6.990
 8553SOL    HW226559   6.003   5.342   6.986
 8554SOL     OW26560   5.619   3.685   6.960
 8554SOL    HW126561   5.697   3.648   7.010
 8554SOL    HW226562   5.597   3.623   6.884
 8555SOL     OW26563   2.044   6.885   4.265
 8555SOL    HW126564   1.996   6.865   4.180
 8555SOL    HW226565   2.005   6.830   4.339
 8556SOL     OW26566   6.091   6.945   4.210
 8556SOL    HW126567   6.150   6.903   4.141
 8556SOL    HW226568   6.125   6.922   4.301
 8557SOL     OW26569   0.049   1.198   0.500
 8557SOL    HW126570   6.983   1.237   0.532
 8557SOL    HW226571   0.087   1.138   0.571
 8558SOL     OW26572   1.010   4.685   1.972
 8558SOL    HW126573   0.962   4.772   1.964
 8558SOL    HW226574   0.944   4.612   1.989
 8559SOL     OW26575   0.483   1.663   5.667
 8559SOL    HW126576   0.434   1.597   5.725
 8559SOL    HW226577   0.430   1.747   5.660
 8560SOL     OW26578   6.452   2.413   6.550
 8560SOL    HW126579   6.398   2.329   6.562
 8560SOL    HW226580   6.392   2.487   6.520
 8561SOL     OW26581   4.217   6.311   5.768
 8561SOL    HW126582   4.175   6.247   5.832
 8561SOL    HW226583   4.244   6.263   5.685
 8562SOL     OW26584   3.713   0.386   4.881
 8562SOL    HW126585   3.670   0.395   4.791
 8562SOL    HW226586   3.673   0.452   4.944
 8563SOL     OW26587   2.862   2.929   6.471
 8563SOL    HW126588   2.936   2.914   6.404
 8563SOL    HW226589   2.881   3.012   6.523
 8564SOL     OW26590   0.635   6.345   2.881
 8564SOL    HW126591   0.681   6.430   2.905
 8564SOL    HW226592   0.537   6.361   2.874
 8565SOL     OW26593   3.828   0.615   1.355
 8565SOL    HW126594   3.835   0.569   1.266
 8565SOL    HW226595   3.820   0.713   1.341
 8566SOL     OW26596   1.610   3.953   3.737
 8566SOL    HW126597   1.606   3.870   3.794
 8566SOL    HW226598   1.649   4.028   3.790
 8567SOL     OW26599   5.042   5.866   6.471
 8567SOL    HW126600   4.943   5.863   6.455
 8567SOL    HW226601   5.069   5.958   6.499
 8568SOL     OW26602   5.080   0.434   7.007
 8568SOL    HW126603   4.992   0.429   6.960
 8568SOL    HW226604   5.101   0.346   0.029
 8569SOL     OW26605   4.078   1.018   5.293
 8569SOL    HW126606   4.035   1.104   5.320
 8569SOL    HW226607   4.018   0.942   5.319
 8570SOL     OW26608   0.271   3.072   6.375
 8570SOL    HW126609   0.356   3.113   6.340
 8570SOL    HW226610   0.294   2.992   6.430
 8571SOL     OW26611   0.011   4.762   5.032
 8571SOL    HW126612   6.935   4.781   5.011
 8571SOL    HW226613   0.023   4.664   5.049
 8572SOL     OW26614   2.725   4.894   5.568
 8572SOL    HW126615   2.696   4.873   5.661
 8572SOL    HW226616   2.813   4.848   5.549
 8573SOL     OW26617   3.447   6.087   4.354
 8573SOL    HW126618   3.462   5.990   4.375
 8573SOL    HW226619   3.521   6.141   4.394
 8574SOL     OW26620   0.441   4.321   4.140
 8574SOL    HW126621   0.516   4.376   4.103
 8574SOL    HW226622   0.476   4.230   4.163
 8575SOL     OW26623   2.950   3.576   6.557
 8575SOL    HW126624   2.973   3.610   6.466
 8575SOL    HW226625   2.919   3.481   6.550
 8576SOL     OW26626   2.152   0.317   0.737
 8576SOL    HW126627   2.097   0.400   0.734
 8576SOL    HW226628   2.107   0.245   0.685
 8577SOL     OW26629   6.223   5.723   4.426
 8577SOL    HW126630   6.228   5.736   4.327
 8577SOL    HW226631   6.213   5.626   4.447
 8578SOL     OW26632   4.866   0.495   3.301
 8578SOL    HW126633   4.819   0.407   3.313
 8578SOL    HW226634   4.810   0.557   3.247
 8579SOL     OW26635   0.381   5.180   2.779
 8579SOL    HW126636   0.447   5.204   2.850
 8579SOL    HW226637   0.419   5.205   2.689
 8580SOL     OW26638   2.667   4.995   6.063
 8580SOL    HW126639   2.760   5.020   6.089
 8580SOL    HW226640   2.640   5.046   5.982
 8581SOL     OW26641   3.068   2.879   0.181
 8581SOL    HW126642   3.033   2.973   0.187
 8581SOL    HW226643   3.115   2.867   0.094
 8582SOL     OW26644   4.054   4.542   0.833
 8582SOL    HW126645   4.085   4.531   0.928
 8582SOL    HW226646   4.061   4.638   0.806
 8583SOL     OW26647   5.589   6.663   5.160
 8583SOL    HW126648   5.647   6.597   5.113
 8583SOL    HW226649   5.568   6.739   5.097
 8584SOL     OW26650   0.572   5.621   6.682
 8584SOL    HW126651   0.620   5.536   6.663
 8584SOL    HW226652   0.534   5.657   6.597
 8585SOL     OW26653   1.375   1.893   0.910
 8585SOL    HW126654   1.308   1.963   0.882
 8585SOL    HW226655   1.467   1.925   0.888
 8586SOL     OW26656   4.073   5.273   4.530
 8586SOL    HW126657   3.995   5.324   4.565
 8586SOL    HW226658   4.102   5.205   4.598
 8587SOL     OW26659   6.577   1.649   1.604
 8587SOL    HW126660   6.513   1.712   1.648
 8587SOL    HW226661   6.541   1.556   1.609
 8588SOL     OW26662   3.652   2.364   6.430
 8588SOL    HW126663   3.579   2.396   6.369
 8588SOL    HW226664   3.644   2.410   6.518
 8589SOL     OW26665   2.810   1.659   4.903
 8589SOL    HW126666   2.804   1.716   4.820
 8589SOL    HW226667   2.801   1.717   4.984
 8590SOL     OW26668   5.839   5.222   5.171
 8590SOL    HW126669   5.853   5.299   5.108
 8590SOL    HW226670   5.894   5.235   5.253
 8591SOL     OW26671   0.380   2.574   0.830
 8591SOL    HW126672   0.437   2.642   0.876
 8591SOL    HW226673   0.284   2.593   0.848
 8592SOL     OW26674   6.313   5.843   6.579
 8592SOL    HW126675   6.411   5.829   6.587
 8592SOL    HW226676   6.283   5.816   6.488
 8593SOL     OW26677   0.362   6.023   3.013
 8593SOL    HW126678   0.290   6.048   3.078
 8593SOL    HW226679   0.451   6.045   3.053
 8594SOL     OW26680   3.670   4.126   3.218
 8594SOL    HW126681   3.764   4.117   3.185
 8594SOL    HW226682   3.659   4.076   3.303
 8595SOL     OW26683   1.311   3.085   1.621
 8595SOL    HW126684   1.248   3.160   1.602
 8595SOL    HW226685   1.260   3.000   1.632
 8596SOL     OW26686   6.682   4.221   2.077
 8596SOL    HW126687   6.600   4.270   2.105
 8596SOL    HW226688   6.763   4.274   2.101
 8597SOL     OW26689   2.700   1.929   0.562
 8597SOL    HW126690   2.763   1.973   0.498
 8597SOL    HW226691   2.706   1.975   0.651
 8598SOL     OW26692   5.777   3.421   1.799
 8598SOL    HW126693   5.745   3.326   1.803
 8598SOL    HW226694   5.870   3.426   1.834
 8599SOL     OW26695   0.401   3.189   0.750
 8599SOL    HW126696   0.303   3.186   0.730
 8599SOL    HW226697   0.437   3.278   0.724
 8600SOL     OW26698   6.662   2.565   6.568
 8600SOL    HW126699   6.724   2.521   6.503
 8600SOL    HW226700   6.581   2.509   6.581
 8601SOL     OW26701   0.501   0.304   5.341
 8601SOL    HW126702   0.459   0.224   5.298
 8601SOL    HW226703   0.589   0.277   5.380
 8602SOL     OW26704   1.708   6.433   1.535
 8602SOL    HW126705   1.618   6.468   1.560
 8602SOL    HW226706   1.708   6.333   1.541
 8603SOL     OW26707   5.007   3.351   1.264
 8603SOL    HW126708   5.054   3.332   1.350
 8603SOL    HW226709   4.912   3.376   1.283
 8604SOL     OW26710   5.935   2.519   3.108
 8604SOL    HW126711   5.859   2.571   3.149
 8604SOL    HW226712   5.995   2.486   3.180
 8605SOL     OW26713   3.180   5.845   1.755
 8605SOL    HW126714   3.159   5.758   1.711
 8605SOL    HW226715   3.227   5.829   1.841
 8606SOL     OW26716   3.502   5.446   5.178
 8606SOL    HW126717   3.465   5.528   5.223
 8606SOL    HW226718   3.601   5.455   5.168
 8607SOL     OW26719   3.101   6.141   0.870
 8607SOL    HW126720   3.032   6.173   0.935
 8607SOL    HW226721   3.149   6.062   0.909
 8608SOL     OW26722   6.102   6.976   2.153
 8608SOL    HW126723   6.024   0.003   2.113
 8608SOL    HW226724   6.114   6.887   2.109
 8609SOL     OW26725   4.573   0.620   6.206
 8609SOL    HW126726   4.479   0.647   6.186
 8609SOL    HW226727   4.631   0.645   6.129
 8610SOL     OW26728   0.273   6.743   5.910
 8610SOL    HW126729   0.207   6.794   5.854
 8610SOL    HW226730   0.291   6.655   5.867
 8611SOL     OW26731   1.612   1.784   3.067
 8611SOL    HW126732   1.622   1.697   3.018
 8611SOL    HW226733   1.685   1.846   3.039
 8612SOL     OW26734   5.150   3.305   4.451
 8612SOL    HW126735   5.181   3.300   4.546
 8612SOL    HW226736   5.073   3.244   4.438
 8613SOL     OW26737   1.403   0.882   0.629
 8613SOL    HW126738   1.497   0.880   0.596
 8613SOL    HW226739   1.343   0.918   0.558
 8614SOL     OW26740   1.613   1.712   3.457
 8614SOL    HW126741   1.539   1.776   3.475
 8614SOL    HW226742   1.687   1.758   3.407
 8615SOL     OW26743   4.657   1.930   5.620
 8615SOL    HW126744   4.628   2.013   5.668
 8615SOL    HW226745   4.658   1.947   5.522
 8616SOL     OW26746   0.962   2.861   0.204
 8616SOL    HW126747   1.007   2.831   0.120
 8616SOL    HW226748   1.031   2.878   0.274
 8617SOL     OW26749   5.557   2.369   0.803
 8617SOL    HW126750   5.489   2.431   0.843
 8617SOL    HW226751   5.649   2.407   0.816
 8618SOL     OW26752   4.117   1.245   2.777
 8618SOL    HW126753   4.160   1.293   2.853
 8618SOL    HW226754   4.064   1.168   2.811
 8619SOL     OW26755   3.649   6.417   0.871
 8619SOL    HW126756   3.695   6.347   0.926
 8619SOL    HW226757   3.711   6.495   0.858
 8620SOL     OW26758   6.275   5.914   3.639
 8620SOL    HW126759   6.246   5.845   3.573
 8620SOL    HW226760   6.313   5.993   3.591
 8621SOL     OW26761   5.154   0.882   4.028
 8621SOL    HW126762   5.185   0.899   4.122
 8621SOL    HW226763   5.092   0.956   4.000
 8622SOL     OW26764   4.657   5.191   6.463
 8622SOL    HW126765   4.648   5.224   6.369
 8622SOL    HW226766   4.738   5.132   6.469
 8623SOL     OW26767   6.547   2.360   4.058
 8623SOL    HW126768   6.507   2.389   4.145
 8623SOL    HW226769   6.639   2.323   4.075
 8624SOL     OW26770   6.582   3.478   3.857
 8624SOL    HW126771   6.486   3.508   3.857
 8624SOL    HW226772   6.615   3.471   3.763
 8625SOL     OW26773   3.737   1.681   6.679
 8625SOL    HW126774   3.803   1.647   6.613
 8625SOL    HW226775   3.700   1.769   6.648
 8626SOL     OW26776   2.918   3.430   2.456
 8626SOL    HW126777   2.859   3.365   2.408
 8626SOL    HW226778   2.992   3.381   2.502
 8627SOL     OW26779   2.442   0.505   0.194
 8627SOL    HW126780   2.454   0.599   0.163
 8627SOL    HW226781   2.350   0.474   0.171
 8628SOL     OW26782   6.200   1.483   0.994
 8628SOL    HW126783   6.218   1.385   0.997
 8628SOL    HW226784   6.285   1.534   1.009
 8629SOL     OW26785   1.442   5.540   3.582
 8629SOL    HW126786   1.438   5.441   3.569
 8629SOL    HW226787   1.535   5.573   3.564
 8630SOL     OW26788   5.386   5.012   4.045
 8630SOL    HW126789   5.362   5.107   4.065
 8630SOL    HW226790   5.477   5.009   4.002
 8631SOL     OW26791   4.482   6.223   3.878
 8631SOL    HW126792   4.436   6.134   3.881
 8631SOL    HW226793   4.524   6.236   3.788
 8632SOL     OW26794   3.529   0.258   3.184
 8632SOL    HW126795   3.453   0.289   3.241
 8632SOL    HW226796   3.600   0.328   3.182
 8633SOL     OW26797   6.735   6.562   2.804
 8633SOL    HW126798   6.661   6.522   2.857
 8633SOL    HW226799   6.789   6.489   2.762
 8634SOL     OW26800   6.203   6.129   1.765
 8634SOL    HW126801   6.284   6.090   1.721
 8634SOL    HW226802   6.222   6.146   1.861
 8635SOL     OW26803   6.394   3.408   5.420
 8635SOL    HW126804   6.359   3.445   5.334
 8635SOL    HW226805   6.362   3.465   5.496
 8636SOL     OW26806   5.358   4.965   0.558
 8636SOL    HW126807   5.321   5.004   0.642
 8636SOL    HW226808   5.363   5.035   0.487
 8637SOL     OW26809   1.479   1.054   1.552
 8637SOL    HW126810   1.440   0.992   1.485
 8637SOL    HW226811   1.495   1.143   1.510
 8638SOL     OW26812   5.595   4.914   1.255
 8638SOL    HW126813   5.507   4.927   1.210
 8638SOL    HW226814   5.632   5.003   1.281
 8639SOL     OW26815   6.240   2.408   2.102
 8639SOL    HW126816   6.280   2.495   2.073
 8639SOL    HW226817   6.185   2.371   2.027
 8640SOL     OW26818   4.955   6.445   1.607
 8640SOL    HW126819   4.931   6.359   1.652
 8640SOL    HW226820   4.917   6.521   1.659
 8641SOL     OW26821   4.971   4.423   3.705
 8641SOL    HW126822   5.042   4.367   3.748
 8641SOL    HW226823   4.926   4.369   3.633
 8642SOL     OW26824   4.261   1.844   1.827
 8642SOL    HW126825   4.215   1.798   1.751
 8642SOL    HW226826   4.303   1.776   1.887
 8643SOL     OW26827   4.657   0.277   0.209
 8643SOL    HW126828   4.593   0.255   0.283
 8643SOL    HW226829   4.718   0.351   0.239
 8644SOL     OW26830   6.864   3.362   5.113
 8644SOL    HW126831   6.773   3.344   5.076
 8644SOL    HW226832   6.901   3.445   5.071
 8645SOL     OW26833   6.402   3.595   1.620
 8645SOL    HW126834   6.326   3.576   1.558
 8645SOL    HW226835   6.408   3.694   1.636
 8646SOL     OW26836   4.793   5.952   0.927
 8646SOL    HW126837   4.812   5.893   0.849
 8646SOL    HW226838   4.817   5.904   1.012
 8647SOL     OW26839   4.276   4.618   2.203
 8647SOL    HW126840   4.363   4.627   2.156
 8647SOL    HW226841   4.250   4.521   2.209
 8648SOL     OW26842   5.974   1.260   4.168
 8648SOL    HW126843   5.904   1.311   4.119
 8648SOL    HW226844   6.064   1.282   4.129
 8649SOL     OW26845   6.496   4.677   5.800
 8649SOL    HW126846   6.510   4.588   5.843
 8649SOL    HW226847   6.584   4.722   5.786
 8650SOL     OW26848   0.247   5.082   1.753
 8650SOL    HW126849   0.333   5.125   1.727
 8650SOL    HW226850   0.264   4.986   1.776
 8651SOL     OW26851   4.143   3.338   1.052
 8651SOL    HW126852   4.071   3.328   1.121
 8651SOL    HW226853   4.185   3.249   1.035
 8652SOL     OW26854   1.024   3.290   3.976
 8652SOL    HW126855   1.116   3.271   3.941
 8652SOL    HW226856   1.027   3.372   4.034
 8653SOL     OW26857   5.055   2.960   6.459
 8653SOL    HW126858   5.133   3.021   6.469
 8653SOL    HW226859   4.995   2.994   6.387
 8654SOL     OW26860   0.967   5.455   1.378
 8654SOL    HW126861   1.021   5.398   1.440
 8654SOL    HW226862   0.876   5.468   1.416
 8655SOL     OW26863   6.516   6.743   2.321
 8655SOL    HW126864   6.492   6.668   2.382
 8655SOL    HW226865   6.481   6.829   2.359
 8656SOL     OW26866   6.802   1.943   1.265
 8656SOL    HW126867   6.736   2.015   1.284
 8656SOL    HW226868   6.759   1.873   1.207
 8657SOL     OW26869   2.751   4.670   0.868
 8657SOL    HW126870   2.771   4.689   0.964
 8657SOL    HW226871   2.837   4.667   0.817
 8658SOL     OW26872   1.061   5.389   6.009
 8658SOL    HW126873   1.055   5.383   5.909
 8658SOL    HW226874   1.083   5.483   6.035
 8659SOL     OW26875   4.022   6.943   4.058
 8659SOL    HW126876   4.063   0.013   4.055
 8659SOL    HW226877   4.055   6.894   4.138
 8660SOL     OW26878   5.666   4.576   0.169
 8660SOL    HW126879   5.622   4.488   0.155
 8660SOL    HW226880   5.675   4.623   0.081
 8661SOL     OW26881   6.602   3.369   1.802
 8661SOL    HW126882   6.518   3.326   1.767
 8661SOL    HW226883   6.681   3.333   1.752
 8662SOL     OW26884   0.777   0.340   0.379
 8662SOL    HW126885   0.815   0.257   0.339
 8662SOL    HW226886   0.839   0.375   0.449
 8663SOL     OW26887   2.557   5.810   1.268
 8663SOL    HW126888   2.483   5.829   1.203
 8663SOL    HW226889   2.584   5.894   1.313
 8664SOL     OW26890   4.471   5.033   1.899
 8664SOL    HW126891   4.391   5.073   1.855
 8664SOL    HW226892   4.493   4.946   1.856
 8665SOL     OW26893   5.028   5.632   4.583
 8665SOL    HW126894   5.050   5.596   4.673
 8665SOL    HW226895   5.063   5.570   4.513
 8666SOL     OW26896   6.586   4.546   4.025
 8666SOL    HW126897   6.656   4.553   4.096
 8666SOL    HW226898   6.501   4.587   4.058
 8667SOL     OW26899   5.705   2.622   3.271
 8667SOL    HW126900   5.667   2.530   3.268
 8667SOL    HW226901   5.672   2.675   3.193
 8668SOL     OW26902   3.510   0.678   4.614
 8668SOL    HW126903   3.481   0.671   4.709
 8668SOL    HW226904   3.434   0.714   4.559
 8669SOL     OW26905   4.316   6.875   5.843
 8669SOL    HW126906   4.290   6.971   5.859
 8669SOL    HW226907   4.242   6.829   5.794
 8670SOL     OW26908   4.397   4.630   2.652
 8670SOL    HW126909   4.407   4.596   2.745
 8670SOL    HW226910   4.483   4.672   2.622
 8671SOL     OW26911   6.223   6.118   2.612
 8671SOL    HW126912   6.269   6.198   2.651
 8671SOL    HW226913   6.230   6.041   2.675
 8672SOL     OW26914   3.487   5.018   5.724
 8672SOL    HW126915   3.398   5.031   5.767
 8672SOL    HW226916   3.484   4.939   5.662
 8673SOL     OW26917   4.888   2.312   0.060
 8673SOL    HW126918   4.954   2.373   0.104
 8673SOL    HW226919   4.812   2.366   0.024
 8674SOL     OW26920   0.770   7.020   3.032
 8674SOL    HW126921   0.791   6.927   3.061
 8674SOL    HW226922   0.828   0.025   2.955
 8675SOL     OW26923   2.135   2.304   2.623
 8675SOL    HW126924   2.158   2.354   2.707
 8675SOL    HW226925   2.124   2.368   2.548
 8676SOL     OW26926   4.450   0.853   4.357
 8676SOL    HW126927   4.492   0.768   4.389
 8676SOL    HW226928   4.351   0.850   4.375
 8677SOL     OW26929   1.686   3.778   5.648
 8677SOL    HW126930   1.610   3.792   5.584
 8677SOL    HW226931   1.688   3.683   5.677
 8678SOL     OW26932   1.477   0.992   6.324
 8678SOL    HW126933   1.521   1.069   6.370
 8678SOL    HW226934   1.429   1.026   6.242
 8679SOL     OW26935   5.991   1.600   4.314
 8679SOL    HW126936   5.985   1.694   4.282
 8679SOL    HW226937   6.075   1.558   4.279
 8680SOL     OW26938   0.806   3.588   0.665
 8680SOL    HW126939   0.723   3.634   0.635
 8680SOL    HW226940   0.871   3.655   0.700
 8681SOL     OW26941   4.171   3.623   1.434
 8681SOL    HW126942   4.148   3.600   1.528
 8681SOL    HW226943   4.247   3.565   1.403
 8682SOL     OW26944   1.204   5.431   2.805
 8682SOL    HW126945   1.151   5.513   2.782
 8682SOL    HW226946   1.189   5.362   2.734
 8683SOL     OW26947   5.194   2.612   6.090
 8683SOL    HW126948   5.273   2.673   6.094
 8683SOL    HW226949   5.160   2.595   6.182
 8684SOL     OW26950   0.055   2.587   4.175
 8684SOL    HW126951   6.992   2.642   4.176
 8684SOL    HW226952   0.091   2.582   4.081
 8685SOL     OW26953   0.434   1.282   5.618
 8685SOL    HW126954   0.462   1.273   5.523
 8685SOL    HW226955   0.336   1.301   5.622
 8686SOL     OW26956   6.410   1.888   3.621
 8686SOL    HW126957   6.346   1.812   3.614
 8686SOL    HW226958   6.372   1.959   3.681
 8687SOL     OW26959   4.028   0.754   2.495
 8687SOL    HW126960   4.027   0.734   2.593
 8687SOL    HW226961   3.942   0.795   2.468
 8688SOL     OW26962   1.283   0.273   2.118
 8688SOL    HW126963   1.348   0.202   2.142
 8688SOL    HW226964   1.192   0.248   2.151
 8689SOL     OW26965   4.932   4.795   0.712
 8689SOL    HW126966   4.992   4.874   0.728
 8689SOL    HW226967   4.977   4.712   0.745
 8690SOL     OW26968   1.248   0.765   3.143
 8690SOL    HW126969   1.233   0.811   3.231
 8690SOL    HW226970   1.345   0.744   3.133
 8691SOL     OW26971   5.589   1.745   0.490
 8691SOL    HW126972   5.537   1.731   0.406
 8691SOL    HW226973   5.542   1.701   0.566
 8692SOL     OW26974   1.654   1.396   3.711
 8692SOL    HW126975   1.723   1.389   3.639
 8692SOL    HW226976   1.575   1.446   3.677
 8693SOL     OW26977   5.701   2.290   6.918
 8693SOL    HW126978   5.735   2.352   6.988
 8693SOL    HW226979   5.765   2.287   6.841
 8694SOL     OW26980   3.769   6.584   6.944
 8694SOL    HW126981   3.834   6.631   6.884
 8694SOL    HW226982   3.750   6.641   0.003
 8695SOL     OW26983   4.615   4.239   5.324
 8695SOL    HW126984   4.606   4.146   5.359
 8695SOL    HW226985   4.541   4.296   5.360
 8696SOL     OW26986   1.925   5.207   1.077
 8696SOL    HW126987   1.833   5.176   1.102
 8696SOL    HW226988   1.981   5.211   1.159
 8697SOL     OW26989   4.901   5.030   6.468
 8697SOL    HW126990   4.942   5.103   6.523
 8697SOL    HW226991   4.973   4.986   6.413
 8698SOL     OW26992   6.260   6.168   4.462
 8698SOL    HW126993   6.207   6.093   4.501
 8698SOL    HW226994   6.233   6.254   4.506
 8699SOL     OW26995   1.291   1.739   5.168
 8699SOL    HW126996   1.359   1.813   5.172
 8699SOL    HW226997   1.305   1.685   5.086
 8700SOL     OW26998   2.864   2.231   5.926
 8700SOL    HW126999   2.932   2.305   5.921
 8700SOL    HW227000   2.792   2.257   5.991
 8701SOL     OW27001   1.179   1.557   3.472
 8701SOL    HW127002   1.131   1.639   3.503
 8701SOL    HW227003   1.134   1.476   3.507
 8702SOL     OW27004   5.402   5.801   6.628
 8702SOL    HW127005   5.372   5.736   6.558
 8702SOL    HW227006   5.448   5.750   6.702
 8703SOL     OW27007   1.211   5.544   1.265
 8703SOL    HW127008   1.261   5.629   1.277
 8703SOL    HW227009   1.131   5.543   1.326
 8704SOL     OW27010   0.339   4.255   2.086
 8704SOL    HW127011   0.386   4.287   2.004
 8704SOL    HW227012   0.403   4.249   2.162
 8705SOL     OW27013   5.020   6.751   4.386
 8705SOL    HW127014   5.084   6.819   4.423
 8705SOL    HW227015   4.927   6.775   4.415
 8706SOL     OW27016   5.224   1.722   5.911
 8706SOL    HW127017   5.266   1.686   5.828
 8706SOL    HW227018   5.128   1.695   5.914
 8707SOL     OW27019   4.770   2.007   6.093
 8707SOL    HW127020   4.823   2.063   6.029
 8707SOL    HW227021   4.722   2.066   6.157
 8708SOL     OW27022   4.031   1.811   0.859
 8708SOL    HW127023   4.128   1.832   0.854
 8708SOL    HW227024   3.987   1.872   0.925
 8709SOL     OW27025   6.144   3.224   0.351
 8709SOL    HW127026   6.225   3.251   0.403
 8709SOL    HW227027   6.167   3.216   0.254
 8710SOL     OW27028   6.261   3.048   3.984
 8710SOL    HW127029   6.263   3.057   3.884
 8710SOL    HW227030   6.214   3.127   4.023
 8711SOL     OW27031   0.846   1.739   4.214
 8711SOL    HW127032   0.797   1.814   4.171
 8711SOL    HW227033   0.783   1.689   4.275
 8712SOL     OW27034   3.993   1.123   6.523
 8712SOL    HW127035   3.934   1.048   6.553
 8712SOL    HW227036   3.938   1.205   6.507
 8713SOL     OW27037   5.907   4.783   2.864
 8713SOL    HW127038   5.890   4.687   2.885
 8713SOL    HW227039   5.979   4.818   2.923
 8714SOL     OW27040   1.735   1.602   4.447
 8714SOL    HW127041   1.809   1.606   4.514
 8714SOL    HW227042   1.648   1.588   4.494
 8715SOL     OW27043   6.011   1.055   2.690
 8715SOL    HW127044   6.059   1.130   2.644
 8715SOL    HW227045   5.920   1.044   2.648
 8716SOL     OW27046   0.657   0.957   1.803
 8716SOL    HW127047   0.656   1.052   1.834
 8716SOL    HW227048   0.650   0.897   1.882
 8717SOL     OW27049   4.254   3.571   0.498
 8717SOL    HW127050   4.221   3.495   0.553
 8717SOL    HW227051   4.309   3.632   0.555
 8718SOL     OW27052   0.269   2.763   5.888
 8718SOL    HW127053   0.190   2.810   5.928
 8718SOL    HW227054   0.257   2.664   5.900
 8719SOL     OW27055   6.209   0.988   5.859
 8719SOL    HW127056   6.280   0.920   5.877
 8719SOL    HW227057   6.161   0.965   5.774
 8720SOL     OW27058   4.820   3.262   5.853
 8720SOL    HW127059   4.779   3.214   5.931
 8720SOL    HW227060   4.880   3.335   5.888
 8721SOL     OW27061   6.991   0.821   4.978
 8721SOL    HW127062   6.963   0.734   4.938
 8721SOL    HW227063   6.977   0.819   5.077
 8722SOL     OW27064   2.969   2.925   1.220
 8722SOL    HW127065   2.891   2.909   1.281
 8722SOL    HW227066   2.937   2.927   1.126
 8723SOL     OW27067   0.408   5.258   0.142
 8723SOL    HW127068   0.347   5.291   0.214
 8723SOL    HW227069   0.353   5.215   0.070
 8724SOL     OW27070   5.447   6.080   6.190
 8724SOL    HW127071   5.439   6.036   6.280
 8724SOL    HW227072   5.428   6.177   6.199
 8725SOL     OW27073   1.971   6.245   1.579
 8725SOL    HW127074   1.984   6.183   1.501
 8725SOL    HW227075   1.998   6.337   1.553
 8726SOL     OW27076   6.477   0.205   1.573
 8726SOL    HW127077   6.503   0.296   1.541
 8726SOL    HW227078   6.387   0.181   1.536
 8727SOL     OW27079   6.086   6.514   1.287
 8727SOL    HW127080   6.124   6.576   1.219
 8727SOL    HW227081   5.997   6.549   1.319
 8728SOL     OW27082   2.159   6.447   5.510
 8728SOL    HW127083   2.087   6.427   5.444
 8728SOL    HW227084   2.198   6.537   5.491
 8729SOL     OW27085   5.365   6.223   4.667
 8729SOL    HW127086   5.287   6.162   4.649
 8729SOL    HW227087   5.343   6.315   4.637
 8730SOL     OW27088   6.589   6.298   1.042
 8730SOL    HW127089   6.501   6.258   1.068
 8730SOL    HW227090   6.575   6.393   1.016
 8731SOL     OW27091   0.577   1.814   2.270
 8731SOL    HW127092   0.526   1.861   2.342
 8731SOL    HW227093   0.655   1.766   2.310
 8732SOL     OW27094   6.349   5.738   1.990
 8732SOL    HW127095   6.349   5.741   1.890
 8732SOL    HW227096   6.378   5.827   2.025
 8733SOL     OW27097   6.612   0.050   1.285
 8733SOL    HW127098   6.586   7.013   1.363
 8733SOL    HW227099   6.676   7.020   1.227
 8734SOL     OW27100   0.042   5.842   0.402
 8734SOL    HW127101   0.084   5.855   0.492
 8734SOL    HW227102   0.073   5.755   0.363
 8735SOL     OW27103   0.033   2.609   6.396
 8735SOL    HW127104   6.992   2.530   6.395
 8735SOL    HW227105   7.000   2.693   6.385
 8736SOL     OW27106   0.019   4.636   5.814
 8736SOL    HW127107   0.026   4.540   5.841
 8736SOL    HW227108   0.092   4.688   5.857
 8737SOL     OW27109   3.748   6.222   6.694
 8737SOL    HW127110   3.759   6.126   6.718
 8737SOL    HW227111   3.801   6.243   6.612
 8738SOL     OW27112   0.700   3.902   5.350
 8738SOL    HW127113   0.652   3.904   5.438
 8738SOL    HW227114   0.797   3.922   5.364
 8739SOL     OW27115   1.040   3.490   5.644
 8739SOL    HW127116   1.077   3.568   5.694
 8739SOL    HW227117   1.113   3.448   5.591
 8740SOL     OW27118   1.227   6.528   1.391
 8740SOL    HW127119   1.217   6.627   1.392
 8740SOL    HW227120   1.232   6.496   1.296
 8741SOL     OW27121   1.780   3.929   2.005
 8741SOL    HW127122   1.738   4.016   1.979
 8741SOL    HW227123   1.872   3.924   1.967
 8742SOL     OW27124   4.849   6.259   2.134
 8742SOL    HW127125   4.923   6.313   2.173
 8742SOL    HW227126   4.883   6.167   2.113
 8743SOL     OW27127   2.308   4.972   3.234
 8743SOL    HW127128   2.231   4.908   3.236
 8743SOL    HW227129   2.361   4.963   3.319
 8744SOL     OW27130   3.291   3.525   5.588
 8744SOL    HW127131   3.333   3.616   5.585
 8744SOL    HW227132   3.305   3.479   5.501
 8745SOL     OW27133   6.479   1.483   6.904
 8745SOL    HW127134   6.556   1.420   6.896
 8745SOL    HW227135   6.403   1.451   6.847
 8746SOL     OW27136   5.271   4.087   4.869
 8746SOL    HW127137   5.358   4.039   4.856
 8746SOL    HW227138   5.227   4.101   4.781
 8747SOL     OW27139   1.042   2.366   4.304
 8747SOL    HW127140   0.985   2.406   4.375
 8747SOL    HW227141   1.024   2.412   4.217
 8748SOL     OW27142   2.831   0.014   0.573
 8748SOL    HW127143   2.908   0.016   0.509
 8748SOL    HW227144   2.847   6.964   0.642
 8749SOL     OW27145   3.938   1.746   3.701
 8749SOL    HW127146   3.973   1.653   3.696
 8749SOL    HW227147   4.012   1.808   3.726
 8750SOL     OW27148   1.886   0.669   5.523
 8750SOL    HW127149   1.903   0.754   5.572
 8750SOL    HW227150   1.792   0.639   5.539
 8751SOL     OW27151   2.091   6.877   3.396
 8751SOL    HW127152   2.054   6.969   3.408
 8751SOL    HW227153   2.029   6.822   3.341
 8752SOL     OW27154   2.372   1.783   5.845
 8752SOL    HW127155   2.466   1.751   5.832
 8752SOL    HW227156   2.357   1.806   5.941
 8753SOL     OW27157   6.147   1.191   4.869
 8753SOL    HW127158   6.048   1.199   4.883
 8753SOL    HW227159   6.193   1.189   4.958
 8754SOL     OW27160   2.045   1.073   5.237
 8754SOL    HW127161   2.044   1.052   5.335
 8754SOL    HW227162   2.082   0.995   5.187
 8755SOL     OW27163   2.244   2.330   0.879
 8755SOL    HW127164   2.266   2.320   0.976
 8755SOL    HW227165   2.172   2.398   0.868
 8756SOL     OW27166   1.954   3.823   4.337
 8756SOL    HW127167   2.026   3.812   4.404
 8756SOL    HW227168   1.906   3.910   4.354
 8757SOL     OW27169   3.821   6.155   4.109
 8757SOL    HW127170   3.773   6.088   4.167
 8757SOL    HW227171   3.796   6.140   4.014
 8758SOL     OW27172   5.033   6.446   2.299
 8758SOL    HW127173   4.945   6.493   2.297
 8758SOL    HW227174   5.065   6.439   2.393
 8759SOL     OW27175   5.148   1.004   5.524
 8759SOL    HW127176   5.091   1.086   5.532
 8759SOL    HW227177   5.131   0.944   5.603
 8760SOL     OW27178   1.836   3.175   3.734
 8760SOL    HW127179   1.811   3.208   3.825
 8760SOL    HW227180   1.804   3.241   3.665
 8761SOL     OW27181   5.380   6.004   1.601
 8761SOL    HW127182   5.351   5.911   1.577
 8761SOL    HW227183   5.468   6.023   1.557
 8762SOL     OW27184   0.912   4.120   0.605
 8762SOL    HW127185   1.002   4.162   0.610
 8762SOL    HW227186   0.895   4.067   0.689
 8763SOL     OW27187   6.732   5.971   6.562
 8763SOL    HW127188   6.654   5.971   6.500
 8763SOL    HW227189   6.705   6.011   6.650
 8764SOL     OW27190   3.892   2.127   5.520
 8764SOL    HW127191   3.934   2.059   5.460
 8764SOL    HW227192   3.804   2.092   5.553
 8765SOL     OW27193   6.878   0.273   4.985
 8765SOL    HW127194   6.902   0.269   5.082
 8765SOL    HW227195   6.794   0.325   4.974
 8766SOL     OW27196   2.107   4.590   2.361
 8766SOL    HW127197   2.167   4.623   2.433
 8766SOL    HW227198   2.047   4.664   2.330
 8767SOL     OW27199   5.087   1.348   5.818
 8767SOL    HW127200   5.043   1.329   5.906
 8767SOL    HW227201   5.179   1.309   5.818
 8768SOL     OW27202   0.786   3.823   6.968
 8768SOL    HW127203   0.812   3.740   7.018
 8768SOL    HW227204   0.774   3.898   0.012
 8769SOL     OW27205   1.801   0.975   5.910
 8769SOL    HW127206   1.813   0.929   5.998
 8769SOL    HW227207   1.714   1.024   5.909
 8770SOL     OW27208   5.508   1.187   3.167
 8770SOL    HW127209   5.529   1.285   3.162
 8770SOL    HW227210   5.537   1.152   3.256
 8771SOL     OW27211   2.600   2.557   5.361
 8771SOL    HW127212   2.629   2.653   5.358
 8771SOL    HW227213   2.620   2.514   5.273
 8772SOL     OW27214   5.887   6.285   6.915
 8772SOL    HW127215   5.798   6.311   6.954
 8772SOL    HW227216   5.928   6.214   6.972
 8773SOL     OW27217   2.953   1.693   2.913
 8773SOL    HW127218   3.021   1.621   2.899
 8773SOL    HW227219   2.884   1.688   2.840
 8774SOL     OW27220   1.522   0.571   0.463
 8774SOL    HW127221   1.547   0.590   0.558
 8774SOL    HW227222   1.461   0.643   0.429
 8775SOL     OW27223   6.227   6.191   3.941
 8775SOL    HW127224   6.174   6.199   3.857
 8775SOL    HW227225   6.261   6.281   3.968
 8776SOL     OW27226   3.398   3.676   4.664
 8776SOL    HW127227   3.493   3.669   4.694
 8776SOL    HW227228   3.351   3.747   4.716
 8777SOL     OW27229   6.301   5.677   2.575
 8777SOL    HW127230   6.338   5.604   2.632
 8777SOL    HW227231   6.339   5.670   2.483
 8778SOL     OW27232   1.484   2.650   2.940
 8778SOL    HW127233   1.464   2.586   2.865
 8778SOL    HW227234   1.407   2.651   3.004
 8779SOL     OW27235   1.578   4.560   0.731
 8779SOL    HW127236   1.533   4.635   0.682
 8779SOL    HW227237   1.580   4.479   0.672
 8780SOL     OW27238   2.235   5.762   4.428
 8780SOL    HW127239   2.252   5.854   4.393
 8780SOL    HW227240   2.173   5.714   4.366
 8781SOL     OW27241   0.905   2.251   2.776
 8781SOL    HW127242   0.983   2.283   2.830
 8781SOL    HW227243   0.926   2.261   2.679
 8782SOL     OW27244   5.037   1.393   3.279
 8782SOL    HW127245   4.965   1.403   3.348
 8782SOL    HW227246   5.007   1.433   3.193
 8783SOL     OW27247   6.166   2.905   5.845
 8783SOL    HW127248   6.183   2.958   5.761
 8783SOL    HW227249   6.181   2.808   5.826
 8784SOL     OW27250   5.591   4.545   5.700
 8784SOL    HW127251   5.542   4.619   5.744
 8784SOL    HW227252   5.631   4.577   5.614
 8785SOL     OW27253   5.169   4.246   6.161
 8785SOL    HW127254   5.154   4.342   6.136
 8785SOL    HW227255   5.184   4.240   6.260
 8786SOL     OW27256   1.564   6.478   0.502
 8786SOL    HW127257   1.626   6.551   0.531
 8786SOL    HW227258   1.553   6.413   0.577
 8787SOL     OW27259   1.228   2.583   0.108
 8787SOL    HW127260   1.133   2.550   0.110
 8787SOL    HW227261   1.245   2.629   0.021
 8788SOL     OW27262   1.518   1.812   5.483
 8788SOL    HW127263   1.437   1.754   5.484
 8788SOL    HW227264   1.509   1.882   5.412
 8789SOL     OW27265   0.813   0.807   0.284
 8789SOL    HW127266   0.724   0.792   0.326
 8789SOL    HW227267   0.806   0.878   0.215
 8790SOL     OW27268   4.275   1.909   6.765
 8790SOL    HW127269   4.221   1.870   6.840
 8790SOL    HW227270   4.372   1.902   6.787
 8791SOL     OW27271   4.878   6.000   5.526
 8791SOL    HW127272   4.958   5.966   5.476
 8791SOL    HW227273   4.816   6.047   5.463
 8792SOL     OW27274   5.661   6.722   2.673
 8792SOL    HW127275   5.720   6.798   2.700
 8792SOL    HW227276   5.711   6.663   2.609
 8793SOL     OW27277   1.202   4.498   3.425
 8793SOL    HW127278   1.217   4.427   3.355
 8793SOL    HW227279   1.137   4.565   3.390
 8794SOL     OW27280   2.759   5.815   2.821
 8794SOL    HW127281   2.723   5.722   2.816
 8794SOL    HW227282   2.816   5.833   2.740
 8795SOL     OW27283   2.427   5.891   5.037
 8795SOL    HW127284   2.383   5.815   4.989
 8795SOL    HW227285   2.373   5.914   5.118
 8796SOL     OW27286   5.635   2.448   5.524
 8796SOL    HW127287   5.734   2.443   5.534
 8796SOL    HW227288   5.591   2.416   5.608
 8797SOL     OW27289   0.754   5.956   6.745
 8797SOL    HW127290   0.771   6.047   6.782
 8797SOL    HW227291   0.665   5.955   6.699
 8798SOL     OW27292   3.400   3.216   5.537
 8798SOL    HW127293   3.456   3.248   5.613
 8798SOL    HW227294   3.459   3.194   5.459
 8799SOL     OW27295   3.261   0.373   3.239
 8799SOL    HW127296   3.197   0.447   3.261
 8799SOL    HW227297   3.226   0.319   3.163
 8800SOL     OW27298   4.673   4.455   0.577
 8800SOL    HW127299   4.578   4.425   0.584
 8800SOL    HW227300   4.680   4.552   0.603
 8801SOL     OW27301   3.149   6.559   6.003
 8801SOL    HW127302   3.155   6.500   6.084
 8801SOL    HW227303   3.074   6.526   5.945
 8802SOL     OW27304   2.342   6.175   1.792
 8802SOL    HW127305   2.357   6.164   1.890
 8802SOL    HW227306   2.266   6.116   1.763
 8803SOL     OW27307   4.154   6.129   1.209
 8803SOL    HW127308   4.202   6.059   1.261
 8803SOL    HW227309   4.159   6.216   1.257
 8804SOL     OW27310   2.795   1.292   1.272
 8804SOL    HW127311   2.790   1.367   1.337
 8804SOL    HW227312   2.734   1.310   1.195
 8805SOL     OW27313   0.289   0.397   3.319
 8805SOL    HW127314   0.346   0.322   3.352
 8805SOL    HW227315   0.251   0.374   3.230
 8806SOL     OW27316   1.760   5.096   0.355
 8806SOL    HW127317   1.802   5.140   0.435
 8806SOL    HW227318   1.805   5.009   0.337
 8807SOL     OW27319   2.107   5.699   6.564
 8807SOL    HW127320   2.144   5.686   6.473
 8807SOL    HW227321   2.065   5.614   6.595
 8808SOL     OW27322   5.647   1.856   0.853
 8808SOL    HW127323   5.604   1.946   0.865
 8808SOL    HW227324   5.715   1.862   0.780
 8809SOL     OW27325   6.206   4.407   0.304
 8809SOL    HW127326   6.114   4.439   0.325
 8809SOL    HW227327   6.255   4.476   0.251
 8810SOL     OW27328   5.283   1.660   3.995
 8810SOL    HW127329   5.294   1.584   3.931
 8810SOL    HW227330   5.268   1.624   4.087
 8811SOL     OW27331   1.604   1.186   3.360
 8811SOL    HW127332   1.682   1.201   3.420
 8811SOL    HW227333   1.596   1.262   3.295
 8812SOL     OW27334   2.400   1.310   0.157
 8812SOL    HW127335   2.355   1.340   0.241
 8812SOL    HW227336   2.336   1.257   0.101
 8813SOL     OW27337   1.367   5.851   1.150
 8813SOL    HW127338   1.348   5.935   1.200
 8813SOL    HW227339   1.413   5.786   1.211
 8814SOL     OW27340   5.247   6.766   6.220
 8814SOL    HW127341   5.226   6.778   6.317
 8814SOL    HW227342   5.290   6.849   6.184
 8815SOL     OW27343   6.124   5.761   3.201
 8815SOL    HW127344   6.154   5.761   3.296
 8815SOL    HW227345   6.053   5.831   3.188
 8816SOL     OW27346   0.681   5.547   1.905
 8816SOL    HW127347   0.720   5.635   1.933
 8816SOL    HW227348   0.590   5.536   1.946
 8817SOL     OW27349   2.236   4.173   5.316
 8817SOL    HW127350   2.284   4.132   5.239
 8817SOL    HW227351   2.141   4.192   5.291
 8818SOL     OW27352   6.772   4.584   4.840
 8818SOL    HW127353   6.802   4.678   4.857
 8818SOL    HW227354   6.723   4.551   4.921
 8819SOL     OW27355   6.372   0.272   4.000
 8819SOL    HW127356   6.443   0.338   4.028
 8819SOL    HW227357   6.416   0.188   3.968
 8820SOL     OW27358   0.481   2.786   3.262
 8820SOL    HW127359   0.389   2.756   3.289
 8820SOL    HW227360   0.477   2.827   3.171
 8821SOL     OW27361   1.510   0.116   6.185
 8821SOL    HW127362   1.582   0.083   6.246
 8821SOL    HW227363   1.446   0.173   6.236
 8822SOL     OW27364   0.820   2.367   3.587
 8822SOL    HW127365   0.861   2.328   3.670
 8822SOL    HW227366   0.888   2.420   3.537
 8823SOL     OW27367   2.063   4.824   1.916
 8823SOL    HW127368   1.964   4.836   1.909
 8823SOL    HW227369   2.101   4.804   1.826
 8824SOL     OW27370   4.400   4.213   0.878
 8824SOL    HW127371   4.302   4.232   0.878
 8824SOL    HW227372   4.429   4.187   0.970
 8825SOL     OW27373   2.029   2.759   0.865
 8825SOL    HW127374   1.935   2.786   0.888
 8825SOL    HW227375   2.093   2.820   0.912
 8826SOL     OW27376   5.788   0.467   0.620
 8826SOL    HW127377   5.781   0.529   0.699
 8826SOL    HW227378   5.884   0.440   0.608
 8827SOL     OW27379   6.580   1.758   3.134
 8827SOL    HW127380   6.515   1.768   3.058
 8827SOL    HW227381   6.530   1.761   3.221
 8828SOL     OW27382   1.387   6.251   3.552
 8828SOL    HW127383   1.443   6.174   3.521
 8828SOL    HW227384   1.291   6.233   3.530
 8829SOL     OW27385   1.611   0.984   1.265
 8829SOL    HW127386   1.528   1.039   1.275
 8829SOL    HW227387   1.621   0.923   1.343
 8830SOL     OW27388   1.381   1.207   0.118
 8830SOL    HW127389   1.457   1.192   0.182
 8830SOL    HW227390   1.407   1.175   0.027
 8831SOL     OW27391   0.278   1.263   1.915
 8831SOL    HW127392   0.217   1.335   1.949
 8831SOL    HW227393   0.362   1.304   1.879
 8832SOL     OW27394   6.617   0.993   2.165
 8832SOL    HW127395   6.622   0.950   2.256
 8832SOL    HW227396   6.591   0.924   2.098
 8833SOL     OW27397   1.154   5.072   2.664
 8833SOL    HW127398   1.156   5.162   2.620
 8833SOL    HW227399   1.160   5.083   2.763
 8834SOL     OW27400   6.209   4.163   3.769
 8834SOL    HW127401   6.193   4.194   3.675
 8834SOL    HW227402   6.201   4.241   3.832
 8835SOL     OW27403   0.323   0.732   0.079
 8835SOL    HW127404   0.362   0.657   0.132
 8835SOL    HW227405   0.390   0.806   0.070
 8836SOL     OW27406   4.800   2.242   2.319
 8836SOL    HW127407   4.707   2.207   2.311
 8836SOL    HW227408   4.859   2.172   2.358
 8837SOL     OW27409   0.334   2.473   2.083
 8837SOL    HW127410   0.318   2.566   2.048
 8837SOL    HW227411   0.247   2.425   2.093
 8838SOL     OW27412   1.574   6.046   3.912
 8838SOL    HW127413   1.617   6.082   3.995
 8838SOL    HW227414   1.635   5.978   3.870
 8839SOL     OW27415   5.271   6.146   3.951
 8839SOL    HW127416   5.270   6.221   4.017
 8839SOL    HW227417   5.309   6.064   3.994
 8840SOL     OW27418   4.325   0.478   2.089
 8840SOL    HW127419   4.254   0.430   2.039
 8840SOL    HW227420   4.313   0.577   2.079
 8841SOL     OW27421   2.806   6.970   4.343
 8841SOL    HW127422   2.847   6.946   4.255
 8841SOL    HW227423   2.710   6.992   4.329
 8842SOL     OW27424   1.391   2.418   1.888
 8842SOL    HW127425   1.335   2.499   1.904
 8842SOL    HW227426   1.488   2.445   1.886
 8843SOL     OW27427   0.287   3.191   4.166
 8843SOL    HW127428   0.259   3.248   4.088
 8843SOL    HW227429   0.343   3.115   4.134
 8844SOL     OW27430   6.006   1.680   6.283
 8844SOL    HW127431   5.943   1.603   6.292
 8844SOL    HW227432   5.976   1.755   6.342
 8845SOL     OW27433   5.267   3.007   0.011
 8845SOL    HW127434   5.303   3.025   6.939
 8845SOL    HW227435   5.202   2.931   0.007
 8846SOL     OW27436   3.269   4.928   3.636
 8846SOL    HW127437   3.194   4.928   3.703
 8846SOL    HW227438   3.232   4.908   3.545
 8847SOL     OW27439   0.881   1.043   2.973
 8847SOL    HW127440   0.922   1.091   2.895
 8847SOL    HW227441   0.879   1.105   3.052
 8848SOL     OW27442   0.880   1.135   3.419
 8848SOL    HW127443   0.976   1.142   3.447
 8848SOL    HW227444   0.837   1.059   3.469
 8849SOL     OW27445   2.805   6.660   1.720
 8849SOL    HW127446   2.788   6.757   1.701
 8849SOL    HW227447   2.835   6.650   1.815
 8850SOL     OW27448   3.020   2.592   6.864
 8850SOL    HW127449   3.049   2.533   6.789
 8850SOL    HW227450   2.928   2.567   6.894
 8851SOL     OW27451   1.836   3.695   2.267
 8851SOL    HW127452   1.809   3.731   2.177
 8851SOL    HW227453   1.929   3.661   2.263
 8852SOL     OW27454   0.439   1.990   4.826
 8852SOL    HW127455   0.505   2.061   4.852
 8852SOL    HW227456   0.399   2.014   4.737
 8853SOL     OW27457   4.551   0.359   1.653
 8853SOL    HW127458   4.579   0.309   1.735
 8853SOL    HW227459   4.453   0.377   1.658
 8854SOL     OW27460   0.514   2.770   4.748
 8854SOL    HW127461   0.545   2.734   4.836
 8854SOL    HW227462   0.484   2.694   4.689
 8855SOL     OW27463   5.251   4.691   1.335
 8855SOL    HW127464   5.258   4.662   1.430
 8855SOL    HW227465   5.190   4.629   1.286
 8856SOL     OW27466   6.232   0.645   6.071
 8856SOL    HW127467   6.320   0.656   6.023
 8856SOL    HW227468   6.191   0.558   6.045
 8857SOL     OW27469   6.863   1.942   6.713
 8857SOL    HW127470   6.816   1.943   6.801
 8857SOL    HW227471   6.934   1.872   6.714
 8858SOL     OW27472   6.361   5.722   4.748
 8858SOL    HW127473   6.451   5.751   4.781
 8858SOL    HW227474   6.330   5.785   4.677
 8859SOL     OW27475   0.847   5.911   3.031
 8859SOL    HW127476   0.921   5.947   2.975
 8859SOL    HW227477   0.884   5.885   3.121
 8860SOL     OW27478   6.758   3.170   2.370
 8860SOL    HW127479   6.840   3.213   2.331
 8860SOL    HW227480   6.744   3.080   2.327
 8861SOL     OW27481   3.331   2.576   1.732
 8861SOL    HW127482   3.384   2.660   1.723
 8861SOL    HW227483   3.235   2.599   1.750
 8862SOL     OW27484   4.349   4.680   4.744
 8862SOL    HW127485   4.332   4.608   4.812
 8862SOL    HW227486   4.370   4.638   4.656
 8863SOL     OW27487   1.175   4.047   2.192
 8863SOL    HW127488   1.230   4.093   2.262
 8863SOL    HW227489   1.222   3.963   2.163
 8864SOL     OW27490   6.308   1.972   5.324
 8864SOL    HW127491   6.286   1.935   5.234
 8864SOL    HW227492   6.397   2.017   5.321
 8865SOL     OW27493   3.082   1.769   0.739
 8865SOL    HW127494   2.996   1.777   0.791
 8865SOL    HW227495   3.061   1.742   0.645
 8866SOL     OW27496   5.830   6.965   2.072
 8866SOL    HW127497   5.814   0.019   2.137
 8866SOL    HW227498   5.754   6.961   2.007
 8867SOL     OW27499   6.038   3.085   2.979
 8867SOL    HW127500   6.051   3.184   2.973
 8867SOL    HW227501   5.963   3.057   2.919
 8868SOL     OW27502   0.105   3.178   3.743
 8868SOL    HW127503   0.022   3.227   3.717
 8868SOL    HW227504   0.105   3.086   3.702
 8869SOL     OW27505   4.778   0.096   3.598
 8869SOL    HW127506   4.810   0.071   3.689
 8869SOL    HW227507   4.722   0.179   3.603
 8870SOL     OW27508   1.022   0.778   1.758
 8870SOL    HW127509   1.082   0.829   1.695
 8870SOL    HW227510   0.930   0.771   1.719
 8871SOL     OW27511   7.003   6.972   1.322
 8871SOL    HW127512   0.037   6.893   1.348
 8871SOL    HW227513   6.929   6.943   1.260
 8872SOL     OW27514   0.039   4.332   3.711
 8872SOL    HW127515   0.088   4.327   3.624
 8872SOL    HW227516   6.963   4.315   3.696
 8873SOL     OW27517   2.177   1.193   3.061
 8873SOL    HW127518   2.120   1.274   3.046
 8873SOL    HW227519   2.273   1.221   3.063
 8874SOL     OW27520   3.004   5.914   0.728
 8874SOL    HW127521   3.067   5.844   0.696
 8874SOL    HW227522   3.054   5.998   0.748
 8875SOL     OW27523   5.941   3.420   4.750
 8875SOL    HW127524   5.853   3.404   4.705
 8875SOL    HW227525   6.005   3.347   4.727
 8876SOL     OW27526   4.245   1.013   0.702
 8876SOL    HW127527   4.213   1.046   0.791
 8876SOL    HW227528   4.291   1.086   0.653
 8877SOL     OW27529   0.767   4.787   1.138
 8877SOL    HW127530   0.749   4.753   1.231
 8877SOL    HW227531   0.686   4.833   1.103
 8878SOL     OW27532   5.186   3.218   1.732
 8878SOL    HW127533   5.280   3.201   1.761
 8878SOL    HW227534   5.134   3.133   1.736
 8879SOL     OW27535   6.800   4.267   3.696
 8879SOL    HW127536   6.710   4.302   3.670
 8879SOL    HW227537   6.788   4.183   3.749
 8880SOL     OW27538   4.220   2.247   3.066
 8880SOL    HW127539   4.259   2.305   2.994
 8880SOL    HW227540   4.203   2.303   3.148
 8881SOL     OW27541   3.515   5.010   2.498
 8881SOL    HW127542   3.420   4.983   2.510
 8881SOL    HW227543   3.521   5.078   2.424
 8882SOL     OW27544   4.113   0.802   0.259
 8882SOL    HW127545   4.087   0.868   0.188
 8882SOL    HW227546   4.210   0.778   0.248
 8883SOL     OW27547   6.959   6.426   2.670
 8883SOL    HW127548   7.016   6.480   2.732
 8883SOL    HW227549   6.958   6.331   2.700
 8884SOL     OW27550   3.949   2.630   5.663
 8884SOL    HW127551   3.946   2.612   5.564
 8884SOL    HW227552   3.990   2.720   5.678
 8885SOL     OW27553   5.550   5.489   0.813
 8885SOL    HW127554   5.576   5.416   0.750
 8885SOL    HW227555   5.455   5.475   0.842
 8886SOL     OW27556   4.887   6.527   0.004
 8886SOL    HW127557   4.936   6.534   6.937
 8886SOL    HW227558   4.793   6.497   7.007
 8887SOL     OW27559   3.872   0.079   1.428
 8887SOL    HW127560   3.829   0.154   1.378
 8887SOL    HW227561   3.964   0.106   1.457
 8888SOL     OW27562   3.582   2.054   2.463
 8888SOL    HW127563   3.488   2.087   2.451
 8888SOL    HW227564   3.592   1.966   2.417
 8889SOL     OW27565   1.495   4.868   0.160
 8889SOL    HW127566   1.544   4.924   0.092
 8889SOL    HW227567   1.488   4.919   0.245
 8890SOL     OW27568   1.390   5.938   0.002
 8890SOL    HW127569   1.412   6.005   0.073
 8890SOL    HW227570   1.392   5.982   6.933
 8891SOL     OW27571   6.282   3.712   5.312
 8891SOL    HW127572   6.223   3.637   5.284
 8891SOL    HW227573   6.273   3.727   5.410
 8892SOL     OW27574   2.450   5.053   4.526
 8892SOL    HW127575   2.444   5.033   4.428
 8892SOL    HW227576   2.433   5.150   4.542
 8893SOL     OW27577   0.478   4.673   5.589
 8893SOL    HW127578   0.544   4.727   5.537
 8893SOL    HW227579   0.415   4.734   5.636
 8894SOL     OW27580   5.029   2.201   1.886
 8894SOL    HW127581   5.100   2.267   1.909
 8894SOL    HW227582   5.008   2.206   1.789
 8895SOL     OW27583   6.576   3.738   0.907
 8895SOL    HW127584   6.485   3.708   0.879
 8895SOL    HW227585   6.579   3.838   0.908
 8896SOL     OW27586   1.109   1.293   3.519
 8896SOL    HW127587   1.163   1.237   3.456
 8896SOL    HW227588   1.109   1.251   3.610
 8897SOL     OW27589   1.643   5.239   4.229
 8897SOL    HW127590   1.707   5.247   4.152
 8897SOL    HW227591   1.673   5.164   4.289
 8898SOL     OW27592   5.607   4.121   2.146
 8898SOL    HW127593   5.558   4.061   2.083
 8898SOL    HW227594   5.561   4.210   2.150
 8899SOL     OW27595   1.975   3.875   2.511
 8899SOL    HW127596   1.957   3.803   2.578
 8899SOL    HW227597   2.031   3.838   2.437
 8900SOL     OW27598   4.233   1.625   4.460
 8900SOL    HW127599   4.181   1.710   4.448
 8900SOL    HW227600   4.279   1.602   4.374
 8901SOL     OW27601   1.523   5.403   4.841
 8901SOL    HW127602   1.464   5.462   4.896
 8901SOL    HW227603   1.479   5.384   4.753
 8902SOL     OW27604   0.640   4.913   6.860
 8902SOL    HW127605   0.715   4.973   6.889
 8902SOL    HW227606   0.578   4.964   6.800
 8903SOL     OW27607   1.053   0.424   5.011
 8903SOL    HW127608   1.067   0.337   4.963
 8903SOL    HW227609   1.131   0.443   5.070
 8904SOL     OW27610   0.569   0.814   3.386
 8904SOL    HW127611   0.622   0.791   3.304
 8904SOL    HW227612   0.502   0.743   3.404
 8905SOL     OW27613   1.906   4.260   1.876
 8905SOL    HW127614   1.860   4.345   1.900
 8905SOL    HW227615   2.004   4.277   1.862
 8906SOL     OW27616   6.115   0.385   6.758
 8906SOL    HW127617   6.042   0.319   6.745
 8906SOL    HW227618   6.098   0.438   6.841
 8907SOL     OW27619   2.966   3.290   5.090
 8907SOL    HW127620   3.038   3.228   5.060
 8907SOL    HW227621   2.900   3.240   5.147
 8908SOL     OW27622   1.676   5.117   6.077
 8908SOL    HW127623   1.637   5.058   6.148
 8908SOL    HW227624   1.650   5.083   5.987
 8909SOL     OW27625   2.115   5.723   1.892
 8909SOL    HW127626   2.069   5.642   1.929
 8909SOL    HW227627   2.212   5.703   1.879
 8910SOL     OW27628   1.021   1.120   3.724
 8910SOL    HW127629   1.087   1.116   3.799
 8910SOL    HW227630   1.013   1.030   3.681
 8911SOL     OW27631   5.401   2.761   4.685
 8911SOL    HW127632   5.459   2.737   4.608
 8911SOL    HW227633   5.310   2.788   4.653
 8912SOL     OW27634   3.529   2.872   3.586
 8912SOL    HW127635   3.598   2.906   3.523
 8912SOL    HW227636   3.544   2.912   3.676
 8913SOL     OW27637   5.356   5.761   1.303
 8913SOL    HW127638   5.324   5.674   1.342
 8913SOL    HW227639   5.357   5.755   1.204
 8914SOL     OW27640   4.895   5.631   5.410
 8914SOL    HW127641   4.846   5.641   5.497
 8914SOL    HW227642   4.946   5.715   5.391
 8915SOL     OW27643   2.302   0.995   3.526
 8915SOL    HW127644   2.284   1.011   3.429
 8915SOL    HW227645   2.216   0.973   3.573
 8916SOL     OW27646   5.814   1.107   2.300
 8916SOL    HW127647   5.804   1.051   2.382
 8916SOL    HW227648   5.769   1.062   2.223
 8917SOL     OW27649   5.283   1.963   0.370
 8917SOL    HW127650   5.245   1.876   0.337
 8917SOL    HW227651   5.380   1.969   0.343
 8918SOL     OW27652   1.096   3.490   2.239
 8918SOL    HW127653   1.048   3.527   2.160
 8918SOL    HW227654   1.033   3.478   2.315
 8919SOL     OW27655   6.373   2.657   2.507
 8919SOL    HW127656   6.302   2.726   2.516
 8919SOL    HW227657   6.431   2.678   2.429
 8920SOL     OW27658   1.206   1.748   0.220
 8920SOL    HW127659   1.214   1.701   0.308
 8920SOL    HW227660   1.294   1.746   0.173
 8921SOL     OW27661   0.943   3.170   1.452
 8921SOL    HW127662   1.015   3.212   1.507
 8921SOL    HW227663   0.854   3.196   1.487
 8922SOL     OW27664   3.115   4.967   3.407
 8922SOL    HW127665   3.045   4.923   3.351
 8922SOL    HW227666   3.079   5.054   3.444
 8923SOL     OW27667   2.581   1.194   3.346
 8923SOL    HW127668   2.671   1.239   3.344
 8923SOL    HW227669   2.556   1.175   3.440
 8924SOL     OW27670   6.040   5.140   4.438
 8924SOL    HW127671   6.108   5.213   4.443
 8924SOL    HW227672   5.978   5.146   4.517
 8925SOL     OW27673   0.364   6.936   3.828
 8925SOL    HW127674   0.430   7.009   3.816
 8925SOL    HW227675   0.367   6.875   3.749
 8926SOL     OW27676   5.977   1.486   0.193
 8926SOL    HW127677   5.947   1.453   0.104
 8926SOL    HW227678   5.941   1.427   0.265
 8927SOL     OW27679   1.334   0.897   6.521
 8927SOL    HW127680   1.307   0.800   6.517
 8927SOL    HW227681   1.379   0.922   6.436
 8928SOL     OW27682   1.685   0.061   5.665
 8928SOL    HW127683   1.759   0.021   5.718
 8928SOL    HW227684   1.606   0.077   5.725
 8929SOL     OW27685   0.167   1.625   3.646
 8929SOL    HW127686   0.161   1.569   3.563
 8929SOL    HW227687   0.075   1.650   3.676
 8930SOL     OW27688   2.074   5.170   3.705
 8930SOL    HW127689   1.975   5.168   3.695
 8930SOL    HW227690   2.101   5.118   3.786
 8931SOL     OW27691   4.420   3.538   0.284
 8931SOL    HW127692   4.363   3.548   0.366
 8931SOL    HW227693   4.362   3.514   0.206
 8932SOL     OW27694   1.010   3.979   3.417
 8932SOL    HW127695   1.028   3.999   3.320
 8932SOL    HW227696   0.997   3.881   3.429
 8933SOL     OW27697   4.581   1.870   6.648
 8933SOL    HW127698   4.587   1.867   6.549
 8933SOL    HW227699   4.553   1.961   6.678
 8934SOL     OW27700   2.383   5.714   2.850
 8934SOL    HW127701   2.418   5.775   2.920
 8934SOL    HW227702   2.370   5.764   2.765
 8935SOL     OW27703   6.667   5.125   0.127
 8935SOL    HW127704   6.716   5.092   0.208
 8935SOL    HW227705   6.677   5.224   0.120
 8936SOL     OW27706   3.803   2.904   0.928
 8936SOL    HW127707   3.762   2.930   1.015
 8936SOL    HW227708   3.903   2.901   0.938
 8937SOL     OW27709   0.842   0.479   6.009
 8937SOL    HW127710   0.871   0.550   6.072
 8937SOL    HW227711   0.786   0.519   5.936
 8938SOL     OW27712   4.643   6.091   1.791
 8938SOL    HW127713   4.595   6.047   1.867
 8938SOL    HW227714   4.667   6.023   1.723
 8939SOL     OW27715   5.387   2.173   4.889
 8939SOL    HW127716   5.435   2.260   4.883
 8939SOL    HW227717   5.347   2.163   4.980
 8940SOL     OW27718   6.068   0.064   2.587
 8940SOL    HW127719   6.003   0.111   2.646
 8940SOL    HW227720   6.082   0.116   2.503
 8941SOL     OW27721   4.071   1.539   6.744
 8941SOL    HW127722   4.052   1.617   6.804
 8941SOL    HW227723   3.997   1.473   6.751
 8942SOL     OW27724   1.113   2.166   5.189
 8942SOL    HW127725   1.150   2.127   5.105
 8942SOL    HW227726   1.048   2.238   5.166
 8943SOL     OW27727   5.181   3.727   0.801
 8943SOL    HW127728   5.269   3.710   0.756
 8943SOL    HW227729   5.182   3.817   0.843
 8944SOL     OW27730   4.273   5.926   1.342
 8944SOL    HW127731   4.306   5.931   1.437
 8944SOL    HW227732   4.300   5.839   1.302
 8945SOL     OW27733   2.051   1.304   3.857
 8945SOL    HW127734   2.087   1.370   3.923
 8945SOL    HW227735   2.061   1.211   3.893
 8946SOL     OW27736   4.365   0.541   4.398
 8946SOL    HW127737   4.283   0.537   4.455
 8946SOL    HW227738   4.439   0.490   4.443
 8947SOL     OW27739   3.758   4.043   5.276
 8947SOL    HW127740   3.780   4.094   5.359
 8947SOL    HW227741   3.709   4.102   5.212
 8948SOL     OW27742   5.837   5.158   3.033
 8948SOL    HW127743   5.830   5.207   3.120
 8948SOL    HW227744   5.932   5.158   3.002
 8949SOL     OW27745   1.762   5.321   5.842
 8949SOL    HW127746   1.817   5.278   5.914
 8949SOL    HW227747   1.698   5.386   5.884
 8950SOL     OW27748   4.938   2.493   4.700
 8950SOL    HW127749   4.964   2.585   4.672
 8950SOL    HW227750   4.857   2.498   4.759
 8951SOL     OW27751   2.610   2.131   5.351
 8951SOL    HW127752   2.584   2.035   5.342
 8951SOL    HW227753   2.587   2.163   5.443
 8952SOL     OW27754   6.294   6.860   3.176
 8952SOL    HW127755   6.373   6.814   3.136
 8952SOL    HW227756   6.216   6.853   3.113
 8953SOL     OW27757   1.918   5.245   6.068
 8953SOL    HW127758   1.835   5.193   6.087
 8953SOL    HW227759   1.930   5.316   6.138
 8954SOL     OW27760   2.371   6.592   5.705
 8954SOL    HW127761   2.321   6.654   5.644
 8954SOL    HW227762   2.306   6.549   5.768
 8955SOL     OW27763   6.362   3.750   4.638
 8955SOL    HW127764   6.450   3.705   4.624
 8955SOL    HW227765   6.338   3.803   4.557
 8956SOL     OW27766   1.191   0.820   4.823
 8956SOL    HW127767   1.174   0.906   4.871
 8956SOL    HW227768   1.113   0.759   4.835
 8957SOL     OW27769   2.768   6.259   1.855
 8957SOL    HW127770   2.840   6.200   1.819
 8957SOL    HW227771   2.747   6.331   1.788
 8958SOL     OW27772   2.540   0.034   4.374
 8958SOL    HW127773   2.475   6.979   4.382
 8958SOL    HW227774   2.536   0.090   4.457
 8959SOL     OW27775   3.501   5.686   0.657
 8959SOL    HW127776   3.494   5.657   0.562
 8959SOL    HW227777   3.588   5.735   0.671
 8960SOL     OW27778   3.778   5.934   0.865
 8960SOL    HW127779   3.715   5.960   0.938
 8960SOL    HW227780   3.840   5.863   0.897
 8961SOL     OW27781   1.059   2.991   3.916
 8961SOL    HW127782   1.064   3.041   4.002
 8961SOL    HW227783   1.096   2.899   3.928
 8962SOL     OW27784   5.018   0.537   3.530
 8962SOL    HW127785   5.000   0.634   3.518
 8962SOL    HW227786   4.987   0.487   3.449
 8963SOL     OW27787   0.230   1.213   3.659
 8963SOL    HW127788   0.177   1.244   3.739
 8963SOL    HW227789   0.223   1.114   3.651
 8964SOL     OW27790   6.858   3.215   2.991
 8964SOL    HW127791   6.823   3.247   2.902
 8964SOL    HW227792   6.783   3.214   3.057
 8965SOL     OW27793   1.841   4.968   1.745
 8965SOL    HW127794   1.812   4.873   1.754
 8965SOL    HW227795   1.921   4.973   1.685
 8966SOL     OW27796   3.777   2.059   5.125
 8966SOL    HW127797   3.794   1.994   5.051
 8966SOL    HW227798   3.679   2.077   5.132
 8967SOL     OW27799   4.962   6.428   0.764
 8967SOL    HW127800   4.877   6.410   0.814
 8967SOL    HW227801   5.017   6.345   0.763
 8968SOL     OW27802   5.239   4.237   3.079
 8968SOL    HW127803   5.305   4.306   3.048
 8968SOL    HW227804   5.207   4.184   3.001
 8969SOL     OW27805   6.628   0.415   4.382
 8969SOL    HW127806   6.539   0.447   4.413
 8969SOL    HW227807   6.691   0.409   4.459
 8970SOL     OW27808   3.000   2.205   1.458
 8970SOL    HW127809   3.063   2.204   1.535
 8970SOL    HW227810   3.006   2.118   1.409
 8971SOL     OW27811   4.135   6.314   2.720
 8971SOL    HW127812   4.070   6.359   2.660
 8971SOL    HW227813   4.134   6.215   2.704
 8972SOL     OW27814   5.104   0.289   4.833
 8972SOL    HW127815   5.107   0.190   4.822
 8972SOL    HW227816   5.197   0.326   4.827
 8973SOL     OW27817   1.878   5.114   6.436
 8973SOL    HW127818   1.976   5.102   6.424
 8973SOL    HW227819   1.830   5.036   6.396
 8974SOL     OW27820   0.767   2.996   3.853
 8974SOL    HW127821   0.861   2.965   3.869
 8974SOL    HW227822   0.705   2.919   3.867
 8975SOL     OW27823   3.783   0.926   6.122
 8975SOL    HW127824   3.728   0.843   6.133
 8975SOL    HW227825   3.735   1.004   6.160
 8976SOL     OW27826   1.416   5.220   4.022
 8976SOL    HW127827   1.491   5.205   4.086
 8976SOL    HW227828   1.447   5.198   3.929
 8977SOL     OW27829   5.580   1.337   6.579
 8977SOL    HW127830   5.664   1.349   6.633
 8977SOL    HW227831   5.530   1.257   6.611
 8978SOL     OW27832   5.876   4.534   1.309
 8978SOL    HW127833   5.942   4.458   1.314
 8978SOL    HW227834   5.787   4.503   1.341
 8979SOL     OW27835   1.207   4.408   5.039
 8979SOL    HW127836   1.178   4.332   4.981
 8979SOL    HW227837   1.143   4.417   5.115
 8980SOL     OW27838   3.964   3.062   4.585
 8980SOL    HW127839   4.012   3.017   4.509
 8980SOL    HW227840   3.927   2.992   4.646
 8981SOL     OW27841   2.804   1.789   5.220
 8981SOL    HW127842   2.876   1.843   5.177
 8981SOL    HW227843   2.791   1.818   5.314
 8982SOL     OW27844   3.525   4.258   0.648
 8982SOL    HW127845   3.439   4.293   0.684
 8982SOL    HW227846   3.599   4.280   0.712
 8983SOL     OW27847   4.899   4.678   0.986
 8983SOL    HW127848   4.865   4.611   0.920
 8983SOL    HW227849   4.870   4.651   1.078
 8984SOL     OW27850   1.480   6.432   3.706
 8984SOL    HW127851   1.406   6.499   3.699
 8984SOL    HW227852   1.453   6.348   3.660
 8985SOL     OW27853   3.110   3.526   5.904
 8985SOL    HW127854   3.097   3.456   5.834
 8985SOL    HW227855   3.052   3.605   5.885
 8986SOL     OW27856   3.361   6.422   2.456
 8986SOL    HW127857   3.334   6.363   2.380
 8986SOL    HW227858   3.421   6.372   2.518
 8987SOL     OW27859   5.416   6.532   1.929
 8987SOL    HW127860   5.458   6.623   1.929
 8987SOL    HW227861   5.331   6.534   1.981
 8988SOL     OW27862   0.717   4.668   4.722
 8988SOL    HW127863   0.741   4.757   4.761
 8988SOL    HW227864   0.782   4.599   4.754
 8989SOL     OW27865   2.745   2.706   6.708
 8989SOL    HW127866   2.837   2.720   6.670
 8989SOL    HW227867   2.722   2.609   6.704
 8990SOL     OW27868   6.879   5.099   3.216
 8990SOL    HW127869   6.859   5.168   3.285
 8990SOL    HW227870   6.954   5.131   3.157
 8991SOL     OW27871   1.420   2.012   5.333
 8991SOL    HW127872   1.459   2.089   5.282
 8991SOL    HW227873   1.338   2.043   5.381
 8992SOL     OW27874   6.863   2.303   1.338
 8992SOL    HW127875   6.788   2.244   1.366
 8992SOL    HW227876   6.897   2.276   1.248
 8993SOL     OW27877   3.968   2.193   0.872
 8993SOL    HW127878   3.879   2.146   0.866
 8993SOL    HW227879   4.024   2.167   0.794
 8994SOL     OW27880   1.678   5.603   2.386
 8994SOL    HW127881   1.585   5.566   2.391
 8994SOL    HW227882   1.736   5.555   2.452
 8995SOL     OW27883   0.573   0.159   1.386
 8995SOL    HW127884   0.588   0.078   1.442
 8995SOL    HW227885   0.475   0.170   1.369
 8996SOL     OW27886   4.028   6.542   5.654
 8996SOL    HW127887   4.107   6.515   5.711
 8996SOL    HW227888   3.980   6.618   5.698
 8997SOL     OW27889   6.121   0.309   4.907
 8997SOL    HW127890   6.153   0.214   4.907
 8997SOL    HW227891   6.022   0.311   4.898
 8998SOL     OW27892   6.885   3.732   4.178
 8998SOL    HW127893   6.916   3.704   4.087
 8998SOL    HW227894   6.877   3.652   4.237
 8999SOL     OW27895   4.105   6.583   6.051
 8999SOL    HW127896   4.139   6.636   5.973
 8999SOL    HW227897   4.005   6.582   6.049
 9000SOL     OW27898   1.729   3.951   1.342
 9000SOL    HW127899   1.695   3.987   1.429
 9000SOL    HW227900   1.653   3.910   1.292
 9001SOL     OW27901   1.073   5.621   0.966
 9001SOL    HW127902   1.144   5.571   1.018
 9001SOL    HW227903   1.107   5.713   0.945
 9002SOL     OW27904   0.383   4.848   6.133
 9002SOL    HW127905   0.424   4.762   6.163
 9002SOL    HW227906   0.454   4.911   6.102
 9003SOL     OW27907   5.548   0.166   0.776
 9003SOL    HW127908   5.546   0.266   0.787
 9003SOL    HW227909   5.640   0.138   0.751
 9004SOL     OW27910   5.559   4.780   1.513
 9004SOL    HW127911   5.540   4.792   1.415
 9004SOL    HW227912   5.657   4.768   1.527
 9005SOL     OW27913   5.402   0.676   5.450
 9005SOL    HW127914   5.495   0.638   5.445
 9005SOL    HW227915   5.396   0.756   5.391
 9006SOL     OW27916   4.025   5.522   0.377
 9006SOL    HW127917   4.093   5.523   0.451
 9006SOL    HW227918   4.035   5.605   0.322
 9007SOL     OW27919   1.359   0.987   2.883
 9007SOL    HW127920   1.438   0.926   2.887
 9007SOL    HW227921   1.384   1.071   2.835
 9008SOL     OW27922   0.181   5.732   1.999
 9008SOL    HW127923   0.202   5.826   2.026
 9008SOL    HW227924   0.121   5.691   2.067
 9009SOL     OW27925   3.630   6.561   1.871
 9009SOL    HW127926   3.559   6.574   1.802
 9009SOL    HW227927   3.687   6.643   1.877
 9010SOL     OW27928   1.639   5.781   4.702
 9010SOL    HW127929   1.677   5.778   4.795
 9010SOL    HW227930   1.540   5.786   4.707
 9011SOL     OW27931   2.226   1.981   2.290
 9011SOL    HW127932   2.274   2.026   2.214
 9011SOL    HW227933   2.203   1.887   2.264
 9012SOL     OW27934   2.367   6.148   6.921
 9012SOL    HW127935   2.348   6.132   6.824
 9012SOL    HW227936   2.355   6.063   6.972
 9013SOL     OW27937   1.876   0.007   4.669
 9013SOL    HW127938   1.777   0.017   4.681
 9013SOL    HW227939   1.900   0.032   4.575
 9014SOL     OW27940   5.534   3.162   3.828
 9014SOL    HW127941   5.515   3.123   3.738
 9014SOL    HW227942   5.506   3.097   3.899
 9015SOL     OW27943   4.638   0.333   6.205
 9015SOL    HW127944   4.639   0.425   6.243
 9015SOL    HW227945   4.554   0.320   6.152
 9016SOL     OW27946   4.543   5.370   5.814
 9016SOL    HW127947   4.521   5.438   5.884
 9016SOL    HW227948   4.511   5.280   5.844
 9017SOL     OW27949   3.675   6.909   5.378
 9017SOL    HW127950   3.575   6.907   5.371
 9017SOL    HW227951   3.712   6.823   5.344
 9018SOL     OW27952   3.442   4.721   0.424
 9018SOL    HW127953   3.350   4.686   0.444
 9018SOL    HW227954   3.509   4.670   0.477
 9019SOL     OW27955   0.601   3.346   3.650
 9019SOL    HW127956   0.701   3.346   3.652
 9019SOL    HW227957   0.567   3.432   3.688
 9020SOL     OW27958   5.117   4.496   2.919
 9020SOL    HW127959   5.036   4.478   2.976
 9020SOL    HW227960   5.193   4.439   2.951
 9021SOL     OW27961   0.418   1.290   4.288
 9021SOL    HW127962   0.361   1.364   4.323
 9021SOL    HW227963   0.508   1.326   4.264
 9022SOL     OW27964   4.007   3.897   6.576
 9022SOL    HW127965   4.039   3.876   6.483
 9022SOL    HW227966   3.957   3.819   6.612
 9023SOL     OW27967   6.893   4.678   0.188
 9023SOL    HW127968   6.958   4.744   0.226
 9023SOL    HW227969   6.803   4.692   0.230
 9024SOL     OW27970   2.210   5.309   6.401
 9024SOL    HW127971   2.200   5.338   6.496
 9024SOL    HW227972   2.291   5.351   6.361
 9025SOL     OW27973   0.944   5.912   1.366
 9025SOL    HW127974   0.888   5.829   1.359
 9025SOL    HW227975   1.008   5.903   1.442
 9026SOL     OW27976   5.298   1.314   0.801
 9026SOL    HW127977   5.338   1.401   0.831
 9026SOL    HW227978   5.254   1.269   0.879
 9027SOL     OW27979   1.117   4.166   3.581
 9027SOL    HW127980   1.112   4.123   3.671
 9027SOL    HW227981   1.066   4.112   3.515
 9028SOL     OW27982   3.260   4.634   6.685
 9028SOL    HW127983   3.355   4.602   6.684
 9028SOL    HW227984   3.239   4.670   6.776
 9029SOL     OW27985   4.361   6.788   4.100
 9029SOL    HW127986   4.424   6.846   4.049
 9029SOL    HW227987   4.301   6.739   4.036
 9030SOL     OW27988   3.331   2.000   2.111
 9030SOL    HW127989   3.393   2.040   2.044
 9030SOL    HW227990   3.238   2.031   2.093
 9031SOL     OW27991   4.752   6.692   4.581
 9031SOL    HW127992   4.681   6.641   4.629
 9031SOL    HW227993   4.721   6.785   4.561
 9032SOL     OW27994   5.350   2.341   1.640
 9032SOL    HW127995   5.291   2.277   1.590
 9032SOL    HW227996   5.299   2.382   1.715
 9033SOL     OW27997   0.688   6.634   2.964
 9033SOL    HW127998   0.724   6.688   3.040
 9033SOL    HW227999   0.764   6.595   2.911
 9034SOL     OW28000   4.631   6.741   4.281
 9034SOL    HW128001   4.539   6.767   4.250
 9034SOL    HW228002   4.657   6.799   4.358
 9035SOL     OW28003   2.952   5.456   6.359
 9035SOL    HW128004   2.893   5.375   6.364
 9035SOL    HW228005   2.903   5.529   6.311
 9036SOL     OW28006   1.033   4.403   5.245
 9036SOL    HW128007   1.019   4.305   5.229
 9036SOL    HW228008   0.945   4.448   5.257
 9037SOL     OW28009   6.914   0.837   2.238
 9037SOL    HW128010   6.844   0.802   2.176
 9037SOL    HW228011   6.872   0.868   2.323
 9038SOL     OW28012   4.026   3.605   5.801
 9038SOL    HW128013   4.080   3.521   5.801
 9038SOL    HW228014   4.030   3.646   5.710
 9039SOL     OW28015   4.436   6.686   6.453
 9039SOL    HW128016   4.365   6.633   6.499
 9039SOL    HW228017   4.485   6.742   6.519
 9040SOL     OW28018   1.699   2.243   1.738
 9040SOL    HW128019   1.747   2.169   1.690
 9040SOL    HW228020   1.645   2.205   1.813
 9041SOL     OW28021   6.071   2.080   3.163
 9041SOL    HW128022   6.048   2.155   3.226
 9041SOL    HW228023   6.058   2.111   3.068
 9042SOL     OW28024   4.423   5.510   0.478
 9042SOL    HW128025   4.521   5.504   0.498
 9042SOL    HW228026   4.409   5.577   0.405
 9043SOL     OW28027   2.646   2.593   1.416
 9043SOL    HW128028   2.574   2.549   1.362
 9043SOL    HW228029   2.659   2.544   1.501
 9044SOL     OW28030   0.966   0.762   0.515
 9044SOL    HW128031   1.006   0.847   0.549
 9044SOL    HW228032   0.902   0.782   0.442
 9045SOL     OW28033   4.228   0.959   3.438
 9045SOL    HW128034   4.234   0.930   3.534
 9045SOL    HW228035   4.313   1.006   3.413
 9046SOL     OW28036   3.445   2.865   2.014
 9046SOL    HW128037   3.511   2.899   1.947
 9046SOL    HW228038   3.494   2.810   2.083
 9047SOL     OW28039   1.286   4.547   6.278
 9047SOL    HW128040   1.203   4.553   6.223
 9047SOL    HW228041   1.351   4.486   6.233
 9048SOL     OW28042   6.973   1.266   5.755
 9048SOL    HW128043   6.937   1.320   5.679
 9048SOL    HW228044   6.897   1.234   5.812
 9049SOL     OW28045   2.252   6.734   5.506
 9049SOL    HW128046   2.218   6.768   5.417
 9049SOL    HW228047   2.311   6.803   5.547
 9050SOL     OW28048   0.756   4.550   0.512
 9050SOL    HW128049   0.788   4.598   0.593
 9050SOL    HW228050   0.809   4.580   0.433
 9051SOL     OW28051   2.277   1.107   1.929
 9051SOL    HW128052   2.334   1.058   1.994
 9051SOL    HW228053   2.204   1.047   1.897
 9052SOL     OW28054   1.821   3.320   6.249
 9052SOL    HW128055   1.912   3.355   6.227
 9052SOL    HW228056   1.790   3.360   6.335
 9053SOL     OW28057   1.060   0.690   6.671
 9053SOL    HW128058   1.029   0.784   6.679
 9053SOL    HW228059   1.156   0.688   6.645
 9054SOL     OW28060   1.661   5.655   2.782
 9054SOL    HW128061   1.607   5.671   2.865
 9054SOL    HW228062   1.630   5.569   2.740
 9055SOL     OW28063   0.457   2.892   5.724
 9055SOL    HW128064   0.398   2.823   5.767
 9055SOL    HW228065   0.489   2.857   5.636
 9056SOL     OW28066   6.198   2.409   4.080
 9056SOL    HW128067   6.185   2.315   4.114
 9056SOL    HW228068   6.109   2.446   4.052
 9057SOL     OW28069   4.670   2.056   3.962
 9057SOL    HW128070   4.604   2.075   4.035
 9057SOL    HW228071   4.754   2.106   3.979
 9058SOL     OW28072   2.558   0.489   5.961
 9058SOL    HW128073   2.521   0.566   5.909
 9058SOL    HW228074   2.527   0.403   5.920
 9059SOL     OW28075   1.148   2.039   3.317
 9059SOL    HW128076   1.133   1.981   3.398
 9059SOL    HW228077   1.062   2.047   3.266
 9060SOL     OW28078   4.825   3.336   5.224
 9060SOL    HW128079   4.752   3.397   5.194
 9060SOL    HW228080   4.913   3.384   5.217
 9061SOL     OW28081   2.099   4.974   2.964
 9061SOL    HW128082   2.147   5.056   2.995
 9061SOL    HW228083   2.016   5.000   2.914
 9062SOL     OW28084   1.702   6.151   1.584
 9062SOL    HW128085   1.683   6.163   1.682
 9062SOL    HW228086   1.801   6.156   1.569
 9063SOL     OW28087   2.975   1.856   2.211
 9063SOL    HW128088   2.890   1.806   2.198
 9063SOL    HW228089   2.988   1.920   2.135
 9064SOL     OW28090   5.225   4.171   7.006
 9064SOL    HW128091   5.172   4.094   0.021
 9064SOL    HW228092   5.235   4.240   0.057
 9065SOL     OW28093   3.165   0.971   1.214
 9065SOL    HW128094   3.092   0.913   1.177
 9065SOL    HW228095   3.253   0.938   1.180
 9066SOL     OW28096   5.159   6.858   6.884
 9066SOL    HW128097   5.256   6.841   6.902
 9066SOL    HW228098   5.118   6.903   6.964
 9067SOL     OW28099   1.535   0.205   1.647
 9067SOL    HW128100   1.456   0.196   1.707
 9067SOL    HW228101   1.577   0.116   1.632
 9068SOL     OW28102   1.675   5.905   6.713
 9068SOL    HW128103   1.721   5.972   6.772
 9068SOL    HW228104   1.576   5.915   6.722
 9069SOL     OW28105   1.578   2.305   6.148
 9069SOL    HW128106   1.609   2.232   6.087
 9069SOL    HW228107   1.622   2.391   6.123
 9070SOL     OW28108   1.311   4.593   3.998
 9070SOL    HW128109   1.359   4.651   3.932
 9070SOL    HW228110   1.251   4.649   4.055
 9071SOL     OW28111   5.130   5.913   0.213
 9071SOL    HW128112   5.163   5.857   0.137
 9071SOL    HW228113   5.044   5.875   0.247
 9072SOL     OW28114   5.057   4.519   0.321
 9072SOL    HW128115   5.075   4.613   0.348
 9072SOL    HW228116   4.992   4.478   0.386
 9073SOL     OW28117   2.366   0.631   0.911
 9073SOL    HW128118   2.378   0.712   0.968
 9073SOL    HW228119   2.272   0.597   0.920
 9074SOL     OW28120   0.382   0.520   2.108
 9074SOL    HW128121   0.364   0.575   2.190
 9074SOL    HW228122   0.375   0.423   2.130
 9075SOL     OW28123   6.962   0.427   1.551
 9075SOL    HW128124   6.921   0.355   1.494
 9075SOL    HW228125   0.037   0.440   1.525
 9076SOL     OW28126   1.013   1.967   4.899
 9076SOL    HW128127   1.094   2.015   4.933
 9076SOL    HW228128   1.036   1.872   4.878
 9077SOL     OW28129   5.844   6.539   1.919
 9077SOL    HW128130   5.787   6.457   1.909
 9077SOL    HW228131   5.911   6.524   1.991
 9078SOL     OW28132   4.550   2.817   5.621
 9078SOL    HW128133   4.544   2.903   5.672
 9078SOL    HW228134   4.575   2.837   5.526
 9079SOL     OW28135   3.550   0.398   5.377
 9079SOL    HW128136   3.620   0.372   5.310
 9079SOL    HW228137   3.495   0.473   5.340
 9080SOL     OW28138   4.670   1.247   6.705
 9080SOL    HW128139   4.764   1.224   6.730
 9080SOL    HW228140   4.656   1.345   6.716
 9081SOL     OW28141   5.451   6.847   3.473
 9081SOL    HW128142   5.414   6.807   3.388
 9081SOL    HW228143   5.550   6.850   3.467
 9082SOL     OW28144   2.726   0.698   2.422
 9082SOL    HW128145   2.807   0.730   2.374
 9082SOL    HW228146   2.648   0.757   2.400
 9083SOL     OW28147   4.611   4.602   3.864
 9083SOL    HW128148   4.711   4.601   3.855
 9083SOL    HW228149   4.585   4.561   3.952
 9084SOL     OW28150   4.132   3.691   2.541
 9084SOL    HW128151   4.129   3.727   2.448
 9084SOL    HW228152   4.117   3.592   2.539
 9085SOL     OW28153   0.802   3.082   0.596
 9085SOL    HW128154   0.826   3.062   0.691
 9085SOL    HW228155   0.708   3.056   0.579
 9086SOL     OW28156   6.707   3.581   6.882
 9086SOL    HW128157   6.701   3.521   6.802
 9086SOL    HW228158   6.803   3.587   6.912
 9087SOL     OW28159   5.306   3.175   2.548
 9087SOL    HW128160   5.220   3.225   2.537
 9087SOL    HW228161   5.335   3.139   2.460
 9088SOL     OW28162   5.579   5.661   1.466
 9088SOL    HW128163   5.581   5.563   1.482
 9088SOL    HW228164   5.609   5.680   1.373
 9089SOL     OW28165   4.238   1.034   5.516
 9089SOL    HW128166   4.196   1.090   5.588
 9089SOL    HW228167   4.184   1.041   5.432
 9090SOL     OW28168   5.928   1.775   3.437
 9090SOL    HW128169   5.902   1.800   3.530
 9090SOL    HW228170   5.884   1.838   3.373
 9091SOL     OW28171   3.844   2.916   6.025
 9091SOL    HW128172   3.907   2.841   6.045
 9091SOL    HW228173   3.880   2.972   5.951
 9092SOL     OW28174   7.005   3.280   6.265
 9092SOL    HW128175   0.004   3.344   6.191
 9092SOL    HW228176   0.020   3.316   6.351
 9093SOL     OW28177   1.723   6.624   5.076
 9093SOL    HW128178   1.813   6.652   5.044
 9093SOL    HW228179   1.726   6.527   5.101
 9094SOL     OW28180   1.566   3.499   0.776
 9094SOL    HW128181   1.482   3.543   0.806
 9094SOL    HW228182   1.607   3.553   0.702
 9095SOL     OW28183   0.171   6.668   6.389
 9095SOL    HW128184   0.202   6.729   6.316
 9095SOL    HW228185   0.239   6.665   6.462
 9096SOL     OW28186   5.946   5.465   3.827
 9096SOL    HW128187   5.946   5.522   3.909
 9096SOL    HW228188   5.954   5.369   3.853
 9097SOL     OW28189   1.463   2.766   6.195
 9097SOL    HW128190   1.403   2.697   6.237
 9097SOL    HW228191   1.408   2.836   6.150
 9098SOL     OW28192   2.228   4.575   4.020
 9098SOL    HW128193   2.297   4.575   4.093
 9098SOL    HW228194   2.157   4.508   4.042
 9099SOL     OW28195   2.474   1.515   6.949
 9099SOL    HW128196   2.408   1.553   7.013
 9099SOL    HW228197   2.535   1.452   6.997
 9100SOL     OW28198   1.752   4.891   4.113
 9100SOL    HW128199   1.805   4.813   4.080
 9100SOL    HW228200   1.687   4.861   4.182
 9101SOL     OW28201   0.383   2.212   0.534
 9101SOL    HW128202   0.454   2.257   0.479
 9101SOL    HW228203   0.315   2.280   0.563
 9102SOL     OW28204   4.093   1.340   3.216
 9102SOL    HW128205   4.122   1.354   3.121
 9102SOL    HW228206   4.033   1.259   3.221
 9103SOL     OW28207   6.293   0.649   1.535
 9103SOL    HW128208   6.213   0.626   1.590
 9103SOL    HW228209   6.371   0.593   1.564
 9104SOL     OW28210   6.242   2.211   6.231
 9104SOL    HW128211   6.145   2.184   6.234
 9104SOL    HW228212   6.250   2.301   6.189
 9105SOL     OW28213   2.980   0.793   6.584
 9105SOL    HW128214   2.923   0.776   6.504
 9105SOL    HW228215   3.058   0.731   6.583
 9106SOL     OW28216   2.288   3.202   6.426
 9106SOL    HW128217   2.308   3.129   6.361
 9106SOL    HW228218   2.281   3.164   6.518
 9107SOL     OW28219   3.515   1.026   0.836
 9107SOL    HW128220   3.587   0.958   0.844
 9107SOL    HW228221   3.502   1.050   0.740
 9108SOL     OW28222   6.729   5.960   5.786
 9108SOL    HW128223   6.759   6.032   5.849
 9108SOL    HW228224   6.670   5.895   5.835
 9109SOL     OW28225   5.503   4.154   2.597
 9109SOL    HW128226   5.586   4.154   2.541
 9109SOL    HW228227   5.448   4.234   2.575
 9110SOL     OW28228   1.023   6.803   2.887
 9110SOL    HW128229   1.063   6.876   2.944
 9110SOL    HW228230   1.093   6.735   2.866
 9111SOL     OW28231   3.741   2.536   5.351
 9111SOL    HW128232   3.804   2.612   5.336
 9111SOL    HW228233   3.662   2.567   5.405
 9112SOL     OW28234   0.496   5.231   2.539
 9112SOL    HW128235   0.586   5.230   2.495
 9112SOL    HW228236   0.443   5.151   2.510
 9113SOL     OW28237   6.376   0.449   4.495
 9113SOL    HW128238   6.350   0.458   4.591
 9113SOL    HW228239   6.299   0.474   4.437
 9114SOL     OW28240   1.201   0.645   6.247
 9114SOL    HW128241   1.131   0.713   6.225
 9114SOL    HW228242   1.157   0.563   6.285
 9115SOL     OW28243   5.160   4.125   5.129
 9115SOL    HW128244   5.065   4.098   5.117
 9115SOL    HW228245   5.206   4.125   5.040
 9116SOL     OW28246   0.912   6.609   3.805
 9116SOL    HW128247   0.875   6.593   3.896
 9116SOL    HW228248   0.901   6.705   3.780
 9117SOL     OW28249   1.780   6.790   0.127
 9117SOL    HW128250   1.724   6.852   0.181
 9117SOL    HW228251   1.851   6.843   0.079
 9118SOL     OW28252   6.610   4.443   1.499
 9118SOL    HW128253   6.513   4.422   1.507
 9118SOL    HW228254   6.621   4.536   1.463
 9119SOL     OW28255   3.695   0.956   1.068
 9119SOL    HW128256   3.725   1.050   1.054
 9119SOL    HW228257   3.728   0.924   1.157
 9120SOL     OW28258   6.654   3.936   4.759
 9120SOL    HW128259   6.616   4.012   4.706
 9120SOL    HW228260   6.612   3.934   4.849
 9121SOL     OW28261   4.154   0.585   4.168
 9121SOL    HW128262   4.066   0.632   4.170
 9121SOL    HW228263   4.196   0.588   4.259
 9122SOL     OW28264   0.227   1.987   2.257
 9122SOL    HW128265   0.184   2.071   2.224
 9122SOL    HW228266   0.208   1.913   2.193
 9123SOL     OW28267   0.614   6.318   4.707
 9123SOL    HW128268   0.578   6.246   4.648
 9123SOL    HW228269   0.554   6.329   4.787
 9124SOL     OW28270   4.186   5.606   0.590
 9124SOL    HW128271   4.207   5.699   0.620
 9124SOL    HW228272   4.271   5.554   0.579
 9125SOL     OW28273   5.222   6.685   1.446
 9125SOL    HW128274   5.236   6.610   1.511
 9125SOL    HW228275   5.125   6.692   1.424
 9126SOL     OW28276   4.078   4.820   0.805
 9126SOL    HW128277   4.017   4.898   0.792
 9126SOL    HW228278   4.155   4.827   0.741
 9127SOL     OW28279   6.275   4.430   5.049
 9127SOL    HW128280   6.205   4.500   5.034
 9127SOL    HW228281   6.265   4.390   5.140
 9128SOL     OW28282   5.775   3.866   6.319
 9128SOL    HW128283   5.730   3.825   6.398
 9128SOL    HW228284   5.716   3.859   6.239
 9129SOL     OW28285   6.874   2.978   0.810
 9129SOL    HW128286   6.814   3.012   0.737
 9129SOL    HW228287   6.954   2.935   0.769
 9130SOL     OW28288   3.118   3.329   5.712
 9130SOL    HW128289   3.184   3.367   5.647
 9130SOL    HW228290   3.141   3.233   5.729
 9131SOL     OW28291   5.896   2.623   0.565
 9131SOL    HW128292   5.973   2.613   0.502
 9131SOL    HW228293   5.849   2.709   0.548
 9132SOL     OW28294   1.409   4.171   3.587
 9132SOL    HW128295   1.317   4.193   3.620
 9132SOL    HW228296   1.417   4.072   3.577
 9133SOL     OW28297   5.162   0.132   0.863
 9133SOL    HW128298   5.079   0.134   0.808
 9133SOL    HW228299   5.169   0.044   0.910
 9134SOL     OW28300   4.806   4.711   6.969
 9134SOL    HW128301   4.884   4.771   6.954
 9134SOL    HW228302   4.767   4.683   6.881
 9135SOL     OW28303   6.548   5.542   2.464
 9135SOL    HW128304   6.551   5.494   2.551
 9135SOL    HW228305   6.584   5.483   2.391
 9136SOL     OW28306   0.782   5.133   7.012
 9136SOL    HW128307   0.813   5.214   6.962
 9136SOL    HW228308   0.710   5.159   0.056
 9137SOL     OW28309   5.531   5.408   5.948
 9137SOL    HW128310   5.553   5.318   5.987
 9137SOL    HW228311   5.585   5.479   5.994
 9138SOL     OW28312   1.724   4.391   6.721
 9138SOL    HW128313   1.721   4.487   6.693
 9138SOL    HW228314   1.678   4.380   6.809
 9139SOL     OW28315   0.266   0.122   1.331
 9139SOL    HW128316   0.172   0.086   1.327
 9139SOL    HW228317   0.268   0.214   1.292
 9140SOL     OW28318   1.603   4.401   2.479
 9140SOL    HW128319   1.576   4.365   2.569
 9140SOL    HW228320   1.578   4.335   2.409
 9141SOL     OW28321   0.480   5.840   4.672
 9141SOL    HW128322   0.484   5.915   4.737
 9141SOL    HW228323   0.423   5.866   4.594
 9142SOL     OW28324   1.566   4.741   3.889
 9142SOL    HW128325   1.605   4.653   3.860
 9142SOL    HW228326   1.621   4.816   3.851
 9143SOL     OW28327   6.000   3.490   2.696
 9143SOL    HW128328   6.079   3.439   2.663
 9143SOL    HW228329   5.926   3.483   2.629
 9144SOL     OW28330   2.784   4.357   5.486
 9144SOL    HW128331   2.768   4.296   5.408
 9144SOL    HW228332   2.795   4.451   5.452
 9145SOL     OW28333   2.682   6.252   6.479
 9145SOL    HW128334   2.780   6.236   6.473
 9145SOL    HW228335   2.663   6.349   6.460
 9146SOL     OW28336   6.293   1.993   4.556
 9146SOL    HW128337   6.199   2.023   4.539
 9146SOL    HW228338   6.356   2.068   4.537
 9147SOL     OW28339   4.237   0.604   6.317
 9147SOL    HW128340   4.215   0.701   6.331
 9147SOL    HW228341   4.231   0.556   6.404
 9148SOL     OW28342   4.315   5.535   2.407
 9148SOL    HW128343   4.255   5.455   2.403
 9148SOL    HW228344   4.283   5.597   2.479
 9149SOL     OW28345   0.275   4.371   1.337
 9149SOL    HW128346   0.253   4.279   1.371
 9149SOL    HW228347   0.294   4.366   1.239
 9150SOL     OW28348   3.187   3.971   7.017
 9150SOL    HW128349   3.202   3.929   6.927
 9150SOL    HW228350   3.093   3.956   0.026
 9151SOL     OW28351   2.195   2.959   3.766
 9151SOL    HW128352   2.102   2.931   3.742
 9151SOL    HW228353   2.202   3.058   3.760
 9152SOL     OW28354   1.719   4.953   2.059
 9152SOL    HW128355   1.735   5.038   2.010
 9152SOL    HW228356   1.753   4.961   2.152
 9153SOL     OW28357   0.282   3.793   0.345
 9153SOL    HW128358   0.198   3.743   0.324
 9153SOL    HW228359   0.281   3.882   0.298
 9154SOL     OW28360   4.351   5.422   3.279
 9154SOL    HW128361   4.358   5.483   3.199
 9154SOL    HW228362   4.259   5.426   3.317
 9155SOL     OW28363   1.172   6.289   2.596
 9155SOL    HW128364   1.103   6.357   2.570
 9155SOL    HW228365   1.237   6.277   2.521
 9156SOL     OW28366   6.966   3.995   5.681
 9156SOL    HW128367   6.905   4.074   5.688
 9156SOL    HW228368   6.921   3.914   5.719
 9157SOL     OW28369   1.915   4.359   5.094
 9157SOL    HW128370   1.986   4.293   5.068
 9157SOL    HW228371   1.827   4.328   5.058
 9158SOL     OW28372   6.843   3.058   4.699
 9158SOL    HW128373   6.885   3.065   4.608
 9158SOL    HW228374   6.894   2.992   4.754
 9159SOL     OW28375   2.046   0.954   3.929
 9159SOL    HW128376   2.118   0.929   3.865
 9159SOL    HW228377   1.957   0.949   3.883
 9160SOL     OW28378   0.526   3.573   6.301
 9160SOL    HW128379   0.470   3.543   6.223
 9160SOL    HW228380   0.560   3.665   6.285
 9161SOL     OW28381   5.553   2.968   2.844
 9161SOL    HW128382   5.479   2.914   2.886
 9161SOL    HW228383   5.600   2.912   2.776
 9162SOL     OW28384   4.416   1.811   2.270
 9162SOL    HW128385   4.401   1.887   2.207
 9162SOL    HW228386   4.392   1.725   2.225
 9163SOL     OW28387   1.811   3.434   3.428
 9163SOL    HW128388   1.809   3.473   3.336
 9163SOL    HW228389   1.903   3.401   3.449
 9164SOL     OW28390   3.191   0.103   0.839
 9164SOL    HW128391   3.172   0.164   0.761
 9164SOL    HW228392   3.104   0.074   0.880
 9165SOL     OW28393   5.664   0.945   6.643
 9165SOL    HW128394   5.603   1.023   6.654
 9165SOL    HW228395   5.658   0.910   6.549
 9166SOL     OW28396   4.208   6.142   1.667
 9166SOL    HW128397   4.283   6.142   1.600
 9166SOL    HW228398   4.197   6.234   1.704
 9167SOL     OW28399   1.174   1.881   4.617
 9167SOL    HW128400   1.157   1.831   4.532
 9167SOL    HW228401   1.138   1.829   4.695
 9168SOL     OW28402   6.478   6.063   5.031
 9168SOL    HW128403   6.395   6.013   5.007
 9168SOL    HW228404   6.493   6.137   4.965
 9169SOL     OW28405   6.169   5.867   6.826
 9169SOL    HW128406   6.083   5.865   6.878
 9169SOL    HW228407   6.163   5.939   6.757
 9170SOL     OW28408   2.242   1.079   5.828
 9170SOL    HW128409   2.291   1.118   5.750
 9170SOL    HW228410   2.173   1.143   5.860
 9171SOL     OW28411   4.211   5.271   0.261
 9171SOL    HW128412   4.163   5.238   0.180
 9171SOL    HW228413   4.171   5.358   0.290
 9172SOL     OW28414   4.740   1.465   5.883
 9172SOL    HW128415   4.721   1.540   5.947
 9172SOL    HW228416   4.791   1.500   5.805
 9173SOL     OW28417   5.952   4.231   5.224
 9173SOL    HW128418   5.917   4.212   5.316
 9173SOL    HW228419   6.021   4.162   5.200
 9174SOL     OW28420   5.963   4.357   0.024
 9174SOL    HW128421   5.898   4.337   6.971
 9174SOL    HW228422   6.056   4.360   7.006
 9175SOL     OW28423   2.381   1.234   1.732
 9175SOL    HW128424   2.383   1.169   1.656
 9175SOL    HW228425   2.349   1.189   1.815
 9176SOL     OW28426   1.652   0.805   2.275
 9176SOL    HW128427   1.720   0.796   2.347
 9176SOL    HW228428   1.634   0.715   2.234
 9177SOL     OW28429   0.521   5.806   3.259
 9177SOL    HW128430   0.454   5.733   3.247
 9177SOL    HW228431   0.483   5.876   3.320
 9178SOL     OW28432   1.271   3.405   0.925
 9178SOL    HW128433   1.257   3.498   0.892
 9178SOL    HW228434   1.308   3.407   1.018
 9179SOL     OW28435   4.016   5.023   2.944
 9179SOL    HW128436   3.956   5.061   2.874
 9179SOL    HW228437   4.105   5.003   2.904
 9180SOL     OW28438   0.448   0.798   4.886
 9180SOL    HW128439   0.361   0.749   4.883
 9180SOL    HW228440   0.465   0.842   4.798
 9181SOL     OW28441   2.712   2.110   3.317
 9181SOL    HW128442   2.744   2.043   3.250
 9181SOL    HW228443   2.748   2.200   3.294
 9182SOL     OW28444   6.512   2.055   2.641
 9182SOL    HW128445   6.513   2.054   2.541
 9182SOL    HW228446   6.591   2.106   2.675
 9183SOL     OW28447   2.570   1.538   5.441
 9183SOL    HW128448   2.487   1.558   5.493
 9183SOL    HW228449   2.647   1.585   5.483
 9184SOL     OW28450   2.836   5.181   1.546
 9184SOL    HW128451   2.918   5.164   1.492
 9184SOL    HW228452   2.760   5.129   1.509
 9185SOL     OW28453   1.025   1.018   5.335
 9185SOL    HW128454   1.087   0.980   5.403
 9185SOL    HW228455   1.055   1.110   5.310
 9186SOL     OW28456   5.504   6.687   6.034
 9186SOL    HW128457   5.437   6.694   6.108
 9186SOL    HW228458   5.492   6.599   5.987
 9187SOL     OW28459   5.158   3.108   1.067
 9187SOL    HW128460   5.206   3.134   0.983
 9187SOL    HW228461   5.060   3.125   1.056
 9188SOL     OW28462   1.263   0.583   2.298
 9188SOL    HW128463   1.173   0.562   2.259
 9188SOL    HW228464   1.295   0.671   2.263
 9189SOL     OW28465   3.065   0.984   6.282
 9189SOL    HW128466   3.153   1.020   6.254
 9189SOL    HW228467   3.060   0.886   6.260
 9190SOL     OW28468   3.863   0.911   5.660
 9190SOL    HW128469   3.934   0.981   5.665
 9190SOL    HW228470   3.795   0.928   5.731
 9191SOL     OW28471   5.878   0.194   1.278
 9191SOL    HW128472   5.780   0.212   1.270
 9191SOL    HW228473   5.892   0.101   1.313
 9192SOL     OW28474   5.159   4.488   4.516
 9192SOL    HW128475   5.209   4.412   4.476
 9192SOL    HW228476   5.061   4.466   4.517
 9193SOL     OW28477   3.994   3.407   2.555
 9193SOL    HW128478   3.942   3.328   2.587
 9193SOL    HW228479   3.967   3.429   2.461
 9194SOL     OW28480   3.328   4.916   3.186
 9194SOL    HW128481   3.285   4.888   3.100
 9194SOL    HW228482   3.258   4.954   3.247
 9195SOL     OW28483   0.887   3.360   3.740
 9195SOL    HW128484   0.891   3.284   3.674
 9195SOL    HW228485   0.939   3.335   3.822
 9196SOL     OW28486   5.349   5.537   3.089
 9196SOL    HW128487   5.262   5.508   3.050
 9196SOL    HW228488   5.402   5.456   3.117
 9197SOL     OW28489   4.464   2.234   7.004
 9197SOL    HW128490   4.521   2.237   0.066
 9197SOL    HW228491   4.397   2.308   7.009
 9198SOL     OW28492   6.265   3.094   5.092
 9198SOL    HW128493   6.264   3.190   5.066
 9198SOL    HW228494   6.352   3.071   5.136
 9199SOL     OW28495   0.745   3.684   6.654
 9199SOL    HW128496   0.778   3.773   6.621
 9199SOL    HW228497   0.742   3.684   6.754
 9200SOL     OW28498   4.853   6.276   1.844
 9200SOL    HW128499   4.776   6.220   1.813
 9200SOL    HW228500   4.881   6.247   1.936
 9201SOL     OW28501   0.216   2.910   2.424
 9201SOL    HW128502   0.173   2.852   2.355
 9201SOL    HW228503   0.277   2.975   2.380
 9202SOL     OW28504   1.753   6.307   3.949
 9202SOL    HW128505   1.703   6.253   3.881
 9202SOL    HW228506   1.687   6.352   4.010
 9203SOL     OW28507   5.182   1.972   0.870
 9203SOL    HW128508   5.209   1.876   0.875
 9203SOL    HW228509   5.126   1.987   0.789
 9204SOL     OW28510   4.878   4.351   2.356
 9204SOL    HW128511   4.933   4.363   2.274
 9204SOL    HW228512   4.820   4.270   2.346
 9205SOL     OW28513   4.286   2.160   1.491
 9205SOL    HW128514   4.252   2.212   1.570
 9205SOL    HW228515   4.261   2.208   1.407
 9206SOL     OW28516   0.152   6.182   5.315
 9206SOL    HW128517   0.160   6.247   5.240
 9206SOL    HW228518   0.090   6.108   5.290
 9207SOL     OW28519   5.375   6.547   0.074
 9207SOL    HW128520   5.297   6.578   0.128
 9207SOL    HW228521   5.401   6.455   0.103
 9208SOL     OW28522   5.254   4.634   1.601
 9208SOL    HW128523   5.342   4.666   1.637
 9208SOL    HW228524   5.182   4.651   1.669
 9209SOL     OW28525   4.893   0.361   4.482
 9209SOL    HW128526   4.877   0.426   4.407
 9209SOL    HW228527   4.976   0.309   4.464
 9210SOL     OW28528   1.082   6.952   6.978
 9210SOL    HW128529   1.175   6.959   7.015
 9210SOL    HW228530   1.016   6.963   0.032
 9211SOL     OW28531   5.200   1.513   6.251
 9211SOL    HW128532   5.243   1.591   6.297
 9211SOL    HW228533   5.107   1.538   6.224
 9212SOL     OW28534   6.093   3.548   6.370
 9212SOL    HW128535   6.169   3.484   6.359
 9212SOL    HW228536   6.007   3.497   6.373
 9213SOL     OW28537   6.822   5.740   2.429
 9213SOL    HW128538   6.891   5.737   2.501
 9213SOL    HW228539   6.818   5.651   2.383
 9214SOL     OW28540   2.222   1.334   6.415
 9214SOL    HW128541   2.202   1.245   6.455
 9214SOL    HW228542   2.168   1.346   6.331
 9215SOL     OW28543   0.241   4.321   3.498
 9215SOL    HW128544   0.317   4.275   3.452
 9215SOL    HW228545   0.165   4.330   3.434
 9216SOL     OW28546   2.210   6.840   3.926
 9216SOL    HW128547   2.185   6.744   3.942
 9216SOL    HW228548   2.251   6.850   3.836
 9217SOL     OW28549   3.472   2.423   0.269
 9217SOL    HW128550   3.460   2.499   0.333
 9217SOL    HW228551   3.385   2.405   0.223
 9218SOL     OW28552   4.473   5.993   5.536
 9218SOL    HW128553   4.426   5.958   5.617
 9218SOL    HW228554   4.561   5.948   5.526
 9219SOL     OW28555   3.713   2.751   6.295
 9219SOL    HW128556   3.722   2.752   6.195
 9219SOL    HW228557   3.799   2.718   6.335
 9220SOL     OW28558   0.885   0.141   3.846
 9220SOL    HW128559   0.844   0.132   3.937
 9220SOL    HW228560   0.839   0.078   3.783
 9221SOL     OW28561   2.622   1.492   2.041
 9221SOL    HW128562   2.677   1.438   2.105
 9221SOL    HW228563   2.670   1.500   1.954
 9222SOL     OW28564   2.179   5.764   3.221
 9222SOL    HW128565   2.230   5.785   3.305
 9222SOL    HW228566   2.215   5.681   3.179
 9223SOL     OW28567   6.148   2.453   4.502
 9223SOL    HW128568   6.061   2.412   4.475
 9223SOL    HW228569   6.155   2.455   4.602
 9224SOL     OW28570   1.730   5.182   2.627
 9224SOL    HW128571   1.683   5.121   2.563
 9224SOL    HW228572   1.663   5.242   2.671
 9225SOL     OW28573   0.524   5.166   5.709
 9225SOL    HW128574   0.586   5.239   5.742
 9225SOL    HW228575   0.430   5.190   5.733
 9226SOL     OW28576   0.964   6.870   4.741
 9226SOL    HW128577   0.975   6.969   4.732
 9226SOL    HW228578   0.887   6.840   4.685
 9227SOL     OW28579   3.815   3.792   0.227
 9227SOL    HW128580   3.833   3.844   0.144
 9227SOL    HW228581   3.884   3.720   0.238
 9228SOL     OW28582   3.822   3.293   5.192
 9228SOL    HW128583   3.785   3.370   5.140
 9228SOL    HW228584   3.751   3.257   5.253
 9229SOL     OW28585   0.252   5.129   0.693
 9229SOL    HW128586   0.154   5.109   0.687
 9229SOL    HW228587   0.298   5.096   0.610
 9230SOL     OW28588   3.415   0.146   6.237
 9230SOL    HW128589   3.376   0.205   6.308
 9230SOL    HW228590   3.344   0.120   6.172
 9231SOL     OW28591   5.843   6.694   1.383
 9231SOL    HW128592   5.884   6.639   1.455
 9231SOL    HW228593   5.746   6.673   1.375
 9232SOL     OW28594   0.924   5.215   1.928
 9232SOL    HW128595   0.917   5.213   1.828
 9232SOL    HW228596   1.015   5.182   1.955
 9233SOL     OW28597   1.208   0.329   5.758
 9233SOL    HW128598   1.169   0.412   5.798
 9233SOL    HW228599   1.170   0.314   5.667
 9234SOL     OW28600   3.562   4.053   6.268
 9234SOL    HW128601   3.534   4.112   6.344
 9234SOL    HW228602   3.590   3.964   6.303
 9235SOL     OW28603   2.446   2.198   3.093
 9235SOL    HW128604   2.426   2.294   3.113
 9235SOL    HW228605   2.412   2.176   3.001
 9236SOL     OW28606   2.133   3.810   6.567
 9236SOL    HW128607   2.107   3.854   6.653
 9236SOL    HW228608   2.051   3.774   6.522
 9237SOL     OW28609   6.857   5.363   3.661
 9237SOL    HW128610   6.899   5.334   3.747
 9237SOL    HW228611   6.870   5.462   3.650
 9238SOL     OW28612   1.301   2.489   5.250
 9238SOL    HW128613   1.354   2.451   5.326
 9238SOL    HW228614   1.361   2.504   5.172
 9239SOL     OW28615   1.639   5.857   6.352
 9239SOL    HW128616   1.729   5.823   6.325
 9239SOL    HW228617   1.606   5.804   6.431
 9240SOL     OW28618   3.763   1.599   4.938
 9240SOL    HW128619   3.755   1.679   4.878
 9240SOL    HW228620   3.679   1.588   4.990
 9241SOL     OW28621   5.640   6.068   6.982
 9241SOL    HW128622   5.564   6.120   6.944
 9241SOL    HW228623   5.654   6.094   0.057
 9242SOL     OW28624   2.510   2.493   6.997
 9242SOL    HW128625   2.559   2.536   6.921
 9242SOL    HW228626   2.449   2.560   0.019
 9243SOL     OW28627   2.335   0.477   0.474
 9243SOL    HW128628   2.417   0.495   0.421
 9243SOL    HW228629   2.309   0.381   0.465
 9244SOL     OW28630   2.966   6.489   6.942
 9244SOL    HW128631   3.006   6.573   6.907
 9244SOL    HW228632   2.874   6.508   6.976
 9245SOL     OW28633   0.588   4.508   2.752
 9245SOL    HW128634   0.496   4.532   2.781
 9245SOL    HW228635   0.585   4.428   2.693
 9246SOL     OW28636   5.121   0.226   0.207
 9246SOL    HW128637   5.134   0.321   0.236
 9246SOL    HW228638   5.180   0.166   0.260
 9247SOL     OW28639   3.354   6.646   2.762
 9247SOL    HW128640   3.299   6.651   2.678
 9247SOL    HW228641   3.304   6.689   2.837
 9248SOL     OW28642   2.785   0.212   0.173
 9248SOL    HW128643   2.845   0.225   0.094
 9248SOL    HW228644   2.771   0.300   0.218
 9249SOL     OW28645   3.880   0.646   0.611
 9249SOL    HW128646   3.893   0.550   0.583
 9249SOL    HW228647   3.954   0.701   0.574
 9250SOL     OW28648   0.316   3.737   2.812
 9250SOL    HW128649   0.250   3.713   2.740
 9250SOL    HW228650   0.389   3.792   2.773
 9251SOL     OW28651   4.325   1.878   1.534
 9251SOL    HW128652   4.391   1.889   1.609
 9251SOL    HW228653   4.303   1.968   1.497
 9252SOL     OW28654   5.436   1.909   4.767
 9252SOL    HW128655   5.395   1.997   4.791
 9252SOL    HW228656   5.509   1.887   4.832
 9253SOL     OW28657   2.333   4.902   3.575
 9253SOL    HW128658   2.273   4.918   3.497
 9253SOL    HW228659   2.412   4.848   3.547
 9254SOL     OW28660   6.885   6.050   2.447
 9254SOL    HW128661   6.840   5.971   2.405
 9254SOL    HW228662   6.918   6.025   2.538
 9255SOL     OW28663   6.807   3.265   1.379
 9255SOL    HW128664   6.822   3.170   1.408
 9255SOL    HW228665   6.776   3.267   1.284
 9256SOL     OW28666   2.708   6.371   1.075
 9256SOL    HW128667   2.652   6.294   1.106
 9256SOL    HW228668   2.795   6.336   1.040
 9257SOL     OW28669   6.528   6.241   4.823
 9257SOL    HW128670   6.540   6.326   4.873
 9257SOL    HW228671   6.459   6.253   4.752
 9258SOL     OW28672   5.474   4.698   2.760
 9258SOL    HW128673   5.517   4.664   2.844
 9258SOL    HW228674   5.375   4.687   2.768
 9259SOL     OW28675   0.968   2.476   6.641
 9259SOL    HW128676   1.005   2.454   6.550
 9259SOL    HW228677   0.878   2.517   6.631
 9260SOL     OW28678   5.276   4.421   5.036
 9260SOL    HW128679   5.186   4.381   5.024
 9260SOL    HW228680   5.324   4.424   4.948
 9261SOL     OW28681   1.568   3.362   1.277
 9261SOL    HW128682   1.635   3.435   1.292
 9261SOL    HW228683   1.553   3.312   1.363
 9262SOL     OW28684   0.456   6.464   6.188
 9262SOL    HW128685   0.493   6.510   6.107
 9262SOL    HW228686   0.520   6.394   6.219
 9263SOL     OW28687   2.560   4.618   2.948
 9263SOL    HW128688   2.633   4.656   3.006
 9263SOL    HW228689   2.584   4.630   2.852
 9264SOL     OW28690   5.155   3.591   5.948
 9264SOL    HW128691   5.152   3.669   6.010
 9264SOL    HW228692   5.132   3.508   5.999
 9265SOL     OW28693   4.923   6.900   2.257
 9265SOL    HW128694   4.942   6.836   2.331
 9265SOL    HW228695   4.913   6.849   2.171
 9266SOL     OW28696   0.463   4.617   1.330
 9266SOL    HW128697   0.426   4.692   1.275
 9266SOL    HW228698   0.395   4.545   1.340
 9267SOL     OW28699   6.971   1.506   3.814
 9267SOL    HW128700   6.904   1.559   3.866
 9267SOL    HW228701   0.025   1.478   3.875
 9268SOL     OW28702   0.636   1.192   0.992
 9268SOL    HW128703   0.551   1.235   0.962
 9268SOL    HW228704   0.655   1.216   1.087
 9269SOL     OW28705   3.252   6.874   0.704
 9269SOL    HW128706   3.166   6.827   0.682
 9269SOL    HW228707   3.233   6.956   0.758
 9270SOL     OW28708   2.259   1.268   4.920
 9270SOL    HW128709   2.224   1.175   4.933
 9270SOL    HW228710   2.253   1.318   5.007
 9271SOL     OW28711   1.806   4.488   5.804
 9271SOL    HW128712   1.864   4.417   5.764
 9271SOL    HW228713   1.736   4.447   5.861
 9272SOL     OW28714   6.831   6.546   5.452
 9272SOL    HW128715   6.797   6.557   5.359
 9272SOL    HW228716   6.902   6.474   5.454
 9273SOL     OW28717   6.395   3.742   3.496
 9273SOL    HW128718   6.445   3.668   3.450
 9273SOL    HW228719   6.460   3.813   3.524
 9274SOL     OW28720   6.748   3.378   0.140
 9274SOL    HW128721   6.800   3.403   0.058
 9274SOL    HW228722   6.668   3.324   0.114
 9275SOL     OW28723   4.939   2.066   0.311
 9275SOL    HW128724   5.006   2.095   0.242
 9275SOL    HW228725   4.930   2.137   0.381
 9276SOL     OW28726   1.760   3.817   0.047
 9276SOL    HW128727   1.722   3.799   0.138
 9276SOL    HW228728   1.686   3.828   7.002
 9277SOL     OW28729   3.711   5.802   2.433
 9277SOL    HW128730   3.647   5.871   2.466
 9277SOL    HW228731   3.662   5.715   2.421
 9278SOL     OW28732   1.073   0.316   5.502
 9278SOL    HW128733   1.066   0.218   5.486
 9278SOL    HW228734   0.984   0.351   5.532
 9279SOL     OW28735   3.636   5.871   1.621
 9279SOL    HW128736   3.571   5.867   1.545
 9279SOL    HW228737   3.636   5.962   1.661
 9280SOL     OW28738   1.273   4.879   1.233
 9280SOL    HW128739   1.349   4.818   1.208
 9280SOL    HW228740   1.191   4.825   1.248
 9281SOL     OW28741   1.279   5.465   0.691
 9281SOL    HW128742   1.335   5.483   0.772
 9281SOL    HW228743   1.230   5.549   0.665
 9282SOL     OW28744   1.992   0.119   4.922
 9282SOL    HW128745   1.965   0.065   4.843
 9282SOL    HW228746   2.044   0.062   4.986
 9283SOL     OW28747   5.002   5.437   6.774
 9283SOL    HW128748   4.992   5.533   6.748
 9283SOL    HW228749   5.072   5.428   6.845
 9284SOL     OW28750   4.523   6.386   1.111
 9284SOL    HW128751   4.451   6.319   1.090
 9284SOL    HW228752   4.483   6.478   1.112
 9285SOL     OW28753   6.981   5.907   3.323
 9285SOL    HW128754   6.924   5.864   3.393
 9285SOL    HW228755   7.016   5.837   3.261
 9286SOL     OW28756   4.995   6.470   1.341
 9286SOL    HW128757   4.996   6.445   1.438
 9286SOL    HW228758   4.938   6.406   1.290
 9287SOL     OW28759   4.602   4.243   0.378
 9287SOL    HW128760   4.513   4.262   0.337
 9287SOL    HW228761   4.607   4.286   0.468
 9288SOL     OW28762   3.898   1.376   2.958
 9288SOL    HW128763   3.841   1.325   3.023
 9288SOL    HW228764   3.927   1.315   2.884
 9289SOL     OW28765   4.324   5.963   2.463
 9289SOL    HW128766   4.257   5.976   2.536
 9289SOL    HW228767   4.382   5.885   2.485
 9290SOL     OW28768   4.904   1.346   3.594
 9290SOL    HW128769   4.820   1.310   3.553
 9290SOL    HW228770   4.961   1.270   3.625
 9291SOL     OW28771   0.686   4.283   5.535
 9291SOL    HW128772   0.728   4.374   5.541
 9291SOL    HW228773   0.725   4.224   5.606
 9292SOL     OW28774   1.622   2.026   6.746
 9292SOL    HW128775   1.571   1.948   6.780
 9292SOL    HW228776   1.597   2.108   6.798
 9293SOL     OW28777   4.712   1.095   5.052
 9293SOL    HW128778   4.751   1.159   4.985
 9293SOL    HW228779   4.663   1.147   5.122
 9294SOL     OW28780   5.372   6.055   5.749
 9294SOL    HW128781   5.295   6.013   5.701
 9294SOL    HW228782   5.365   6.037   5.847
 9295SOL     OW28783   6.542   0.709   3.007
 9295SOL    HW128784   6.474   0.673   2.944
 9295SOL    HW228785   6.613   0.758   2.955
 9296SOL     OW28786   1.500   3.836   5.460
 9296SOL    HW128787   1.512   3.787   5.373
 9296SOL    HW228788   1.457   3.924   5.443
 9297SOL     OW28789   6.751   5.318   2.099
 9297SOL    HW128790   6.827   5.297   2.038
 9297SOL    HW228791   6.695   5.391   2.058
 9298SOL     OW28792   0.285   4.463   6.011
 9298SOL    HW128793   0.286   4.494   5.916
 9298SOL    HW228794   0.371   4.417   6.033
 9299SOL     OW28795   3.117   2.160   3.963
 9299SOL    HW128796   3.193   2.142   3.901
 9299SOL    HW228797   3.043   2.205   3.913
 9300SOL     OW28798   2.523   5.649   5.636
 9300SOL    HW128799   2.563   5.568   5.593
 9300SOL    HW228800   2.596   5.714   5.656
 9301SOL     OW28801   0.429   3.584   4.211
 9301SOL    HW128802   0.444   3.657   4.277
 9301SOL    HW228803   0.418   3.497   4.259
 9302SOL     OW28804   3.336   5.308   3.925
 9302SOL    HW128805   3.332   5.229   3.985
 9302SOL    HW228806   3.243   5.343   3.910
 9303SOL     OW28807   2.383   4.591   0.108
 9303SOL    HW128808   2.305   4.586   0.046
 9303SOL    HW228809   2.416   4.498   0.126
 9304SOL     OW28810   5.841   5.771   5.987
 9304SOL    HW128811   5.763   5.825   6.020
 9304SOL    HW228812   5.888   5.821   5.915
 9305SOL     OW28813   1.991   1.495   1.215
 9305SOL    HW128814   2.053   1.451   1.150
 9305SOL    HW228815   1.916   1.539   1.164
 9306SOL     OW28816   6.893   6.236   4.575
 9306SOL    HW128817   6.845   6.210   4.491
 9306SOL    HW228818   6.992   6.231   4.560
 9307SOL     OW28819   2.044   4.104   0.966
 9307SOL    HW128820   2.137   4.106   1.003
 9307SOL    HW228821   1.979   4.110   1.041
 9308SOL     OW28822   2.464   3.690   1.195
 9308SOL    HW128823   2.419   3.668   1.109
 9308SOL    HW228824   2.560   3.711   1.177
 9309SOL     OW28825   4.165   5.338   5.812
 9309SOL    HW128826   4.091   5.281   5.850
 9309SOL    HW228827   4.211   5.288   5.739
 9310SOL     OW28828   6.959   6.315   6.301
 9310SOL    HW128829   6.900   6.343   6.225
 9310SOL    HW228830   0.008   6.385   6.318
 9311SOL     OW28831   5.960   4.478   0.297
 9311SOL    HW128832   5.873   4.496   0.342
 9311SOL    HW228833   5.945   4.419   0.218
 9312SOL     OW28834   5.945   3.235   3.994
 9312SOL    HW128835   5.893   3.195   4.069
 9312SOL    HW228836   5.886   3.245   3.914
 9313SOL     OW28837   0.315   0.607   1.814
 9313SOL    HW128838   0.357   0.577   1.900
 9313SOL    HW228839   0.377   0.668   1.766
 9314SOL     OW28840   5.314   4.930   1.174
 9314SOL    HW128841   5.294   4.899   1.081
 9314SOL    HW228842   5.302   4.853   1.237
 9315SOL     OW28843   6.213   5.459   5.854
 9315SOL    HW128844   6.197   5.363   5.880
 9315SOL    HW228845   6.237   5.463   5.757
 9316SOL     OW28846   5.302   6.324   0.875
 9316SOL    HW128847   5.251   6.280   0.802
 9316SOL    HW228848   5.326   6.417   0.848
 9317SOL     OW28849   2.531   6.185   3.058
 9317SOL    HW128850   2.615   6.186   3.005
 9317SOL    HW228851   2.530   6.264   3.120
 9318SOL     OW28852   3.270   6.917   3.580
 9318SOL    HW128853   3.340   6.875   3.523
 9318SOL    HW228854   3.207   6.969   3.523
 9319SOL     OW28855   3.755   2.059   0.388
 9319SOL    HW128856   3.723   2.149   0.416
 9319SOL    HW228857   3.804   2.067   0.301
 9320SOL     OW28858   6.492   6.639   0.527
 9320SOL    HW128859   6.539   6.720   0.490
 9320SOL    HW228860   6.433   6.600   0.457
 9321SOL     OW28861   0.944   2.484   4.080
 9321SOL    HW128862   0.940   2.428   3.998
 9321SOL    HW228863   0.915   2.577   4.059
 9322SOL     OW28864   5.350   3.195   0.269
 9322SOL    HW128865   5.394   3.257   0.205
 9322SOL    HW228866   5.305   3.121   0.219
 9323SOL     OW28867   0.732   2.199   5.141
 9323SOL    HW128868   0.676   2.209   5.224
 9323SOL    HW228869   0.773   2.108   5.139
 9324SOL     OW28870   0.759   4.337   0.972
 9324SOL    HW128871   0.683   4.376   0.921
 9324SOL    HW228872   0.725   4.273   1.040
 9325SOL     OW28873   1.114   4.564   3.123
 9325SOL    HW128874   1.199   4.515   3.142
 9325SOL    HW228875   1.122   4.612   3.036
 9326SOL     OW28876   4.623   4.862   1.477
 9326SOL    HW128877   4.554   4.832   1.411
 9326SOL    HW228878   4.686   4.787   1.496
 9327SOL     OW28879   2.413   1.698   3.343
 9327SOL    HW128880   2.493   1.747   3.307
 9327SOL    HW228881   2.385   1.629   3.277
 9328SOL     OW28882   1.198   6.817   3.183
 9328SOL    HW128883   1.251   6.732   3.191
 9328SOL    HW228884   1.206   6.869   3.268
 9329SOL     OW28885   1.763   4.901   6.323
 9329SOL    HW128886   1.722   4.869   6.238
 9329SOL    HW228887   1.845   4.847   6.343
 9330SOL     OW28888   0.321   6.645   0.881
 9330SOL    HW128889   0.315   6.626   0.979
 9330SOL    HW228890   0.238   6.614   0.835
 9331SOL     OW28891   1.985   4.906   4.725
 9331SOL    HW128892   2.076   4.902   4.766
 9331SOL    HW228893   1.961   5.001   4.706
 9332SOL     OW28894   6.381   4.931   0.234
 9332SOL    HW128895   6.337   5.020   0.228
 9332SOL    HW228896   6.351   4.885   0.318
 9333SOL     OW28897   1.579   4.810   0.593
 9333SOL    HW128898   1.591   4.880   0.664
 9333SOL    HW228899   1.481   4.791   0.582
 9334SOL     OW28900   6.881   5.066   0.283
 9334SOL    HW128901   6.949   4.993   0.280
 9334SOL    HW228902   6.927   5.155   0.277
 9335SOL     OW28903   0.187   3.488   0.891
 9335SOL    HW128904   0.098   3.499   0.935
 9335SOL    HW228905   0.258   3.526   0.951
 9336SOL     OW28906   4.122   6.034   5.206
 9336SOL    HW128907   4.178   5.971   5.260
 9336SOL    HW228908   4.178   6.112   5.178
 9337SOL     OW28909   3.266   1.645   4.620
 9337SOL    HW128910   3.340   1.709   4.599
 9337SOL    HW228911   3.200   1.643   4.544
 9338SOL     OW28912   4.651   6.810   0.780
 9338SOL    HW128913   4.736   6.863   0.777
 9338SOL    HW228914   4.653   6.748   0.859
 9339SOL     OW28915   0.039   3.472   4.948
 9339SOL    HW128916   6.983   3.492   4.887
 9339SOL    HW228917   0.117   3.529   4.924
 9340SOL     OW28918   2.401   4.695   2.100
 9340SOL    HW128919   2.437   4.679   2.008
 9340SOL    HW228920   2.431   4.621   2.161
 9341SOL     OW28921   5.857   5.454   0.574
 9341SOL    HW128922   5.908   5.494   0.650
 9341SOL    HW228923   5.768   5.423   0.607
 9342SOL     OW28924   2.650   0.217   5.197
 9342SOL    HW128925   2.700   0.302   5.182
 9342SOL    HW228926   2.567   0.235   5.250
 9343SOL     OW28927   5.465   3.601   1.428
 9343SOL    HW128928   5.425   3.624   1.517
 9343SOL    HW228929   5.545   3.659   1.412
 9344SOL     OW28930   5.850   0.288   4.960
 9344SOL    HW128931   5.768   0.241   4.928
 9344SOL    HW228932   5.829   0.384   4.977
 9345SOL     OW28933   0.073   4.541   6.174
 9345SOL    HW128934   0.017   4.600   6.117
 9345SOL    HW228935   0.162   4.527   6.130
 9346SOL     OW28936   4.959   0.329   1.979
 9346SOL    HW128937   4.985   0.268   2.055
 9346SOL    HW228938   4.869   0.303   1.944
 9347SOL     OW28939   4.786   6.741   2.023
 9347SOL    HW128940   4.686   6.732   2.023
 9347SOL    HW228941   4.813   6.819   1.968
 9348SOL     OW28942   2.159   5.107   1.832
 9348SOL    HW128943   2.200   5.129   1.920
 9348SOL    HW228944   2.138   5.009   1.828
 9349SOL     OW28945   6.506   5.847   1.171
 9349SOL    HW128946   6.490   5.767   1.229
 9349SOL    HW228947   6.588   5.895   1.203
 9350SOL     OW28948   6.360   0.235   6.829
 9350SOL    HW128949   6.301   0.304   6.787
 9350SOL    HW228950   6.384   0.166   6.760
 9351SOL     OW28951   4.881   3.810   6.389
 9351SOL    HW128952   4.874   3.887   6.452
 9351SOL    HW228953   4.793   3.764   6.381
 9352SOL     OW28954   2.153   2.259   0.346
 9352SOL    HW128955   2.085   2.331   0.354
 9352SOL    HW228956   2.218   2.282   0.274
 9353SOL     OW28957   1.132   3.214   2.262
 9353SOL    HW128958   1.138   3.313   2.256
 9353SOL    HW228959   1.223   3.177   2.281
 9354SOL     OW28960   5.356   2.125   2.622
 9354SOL    HW128961   5.356   2.225   2.620
 9354SOL    HW228962   5.427   2.091   2.560
 9355SOL     OW28963   0.164   1.577   2.209
 9355SOL    HW128964   0.085   1.516   2.201
 9355SOL    HW228965   0.194   1.581   2.304
 9356SOL     OW28966   4.676   2.718   2.492
 9356SOL    HW128967   4.773   2.704   2.512
 9356SOL    HW228968   4.642   2.796   2.545
 9357SOL     OW28969   2.607   5.247   6.797
 9357SOL    HW128970   2.682   5.181   6.791
 9357SOL    HW228971   2.643   5.335   6.827
 9358SOL     OW28972   5.194   3.669   2.214
 9358SOL    HW128973   5.148   3.583   2.234
 9358SOL    HW228974   5.171   3.736   2.285
 9359SOL     OW28975   4.666   5.521   6.050
 9359SOL    HW128976   4.731   5.556   6.117
 9359SOL    HW228977   4.663   5.583   5.971
 9360SOL     OW28978   1.340   1.250   5.097
 9360SOL    HW128979   1.322   1.157   5.065
 9360SOL    HW228980   1.273   1.274   5.168
 9361SOL     OW28981   2.007   1.375   2.540
 9361SOL    HW128982   2.089   1.373   2.484
 9361SOL    HW228983   1.985   1.470   2.564
 9362SOL     OW28984   1.886   1.291   3.040
 9362SOL    HW128985   1.794   1.259   3.063
 9362SOL    HW228986   1.909   1.262   2.947
 9363SOL     OW28987   1.321   6.334   1.831
 9363SOL    HW128988   1.356   6.241   1.845
 9363SOL    HW228989   1.227   6.340   1.866
 9364SOL     OW28990   5.292   4.179   1.183
 9364SOL    HW128991   5.254   4.264   1.147
 9364SOL    HW228992   5.365   4.146   1.123
 9365SOL     OW28993   1.871   1.086   3.445
 9365SOL    HW128994   1.871   1.072   3.346
 9365SOL    HW228995   1.913   1.175   3.466
 9366SOL     OW28996   3.104   1.671   2.014
 9366SOL    HW128997   3.055   1.715   2.089
 9366SOL    HW228998   3.057   1.691   1.928
 9367SOL     OW28999   5.720   6.767   3.639
 9367SOL    HW129000   5.708   6.856   3.596
 9367SOL    HW229001   5.643   6.748   3.701
 9368SOL     OW29002   5.275   3.216   0.790
 9368SOL    HW129003   5.364   3.217   0.744
 9368SOL    HW229004   5.203   3.220   0.721
 9369SOL     OW29005   0.310   1.595   5.260
 9369SOL    HW129006   0.387   1.650   5.290
 9369SOL    HW229007   0.311   1.506   5.306
 9370SOL     OW29008   5.529   5.489   2.803
 9370SOL    HW129009   5.450   5.541   2.835
 9370SOL    HW229010   5.562   5.528   2.717
 9371SOL     OW29011   1.516   6.763   0.348
 9371SOL    HW129012   1.612   6.734   0.356
 9371SOL    HW229013   1.464   6.727   0.425
 9372SOL     OW29014   5.423   5.476   0.110
 9372SOL    HW129015   5.475   5.451   0.192
 9372SOL    HW229016   5.334   5.513   0.137
 9373SOL     OW29017   5.180   2.642   4.088
 9373SOL    HW129018   5.090   2.604   4.067
 9373SOL    HW229019   5.224   2.587   4.159
 9374SOL     OW29020   5.253   4.308   6.764
 9374SOL    HW129021   5.337   4.274   6.721
 9374SOL    HW229022   5.241   4.264   6.853
 9375SOL     OW29023   6.541   0.845   4.620
 9375SOL    HW129024   6.467   0.911   4.603
 9375SOL    HW229025   6.518   0.789   4.700
 9376SOL     OW29026   2.302   3.194   1.738
 9376SOL    HW129027   2.379   3.180   1.676
 9376SOL    HW229028   2.316   3.277   1.792
 9377SOL     OW29029   6.325   5.022   3.262
 9377SOL    HW129030   6.275   4.979   3.186
 9377SOL    HW229031   6.263   5.085   3.310
 9378SOL     OW29032   3.759   6.253   1.064
 9378SOL    HW129033   3.689   6.312   1.104
 9378SOL    HW229034   3.752   6.161   1.102
 9379SOL     OW29035   5.597   5.252   5.483
 9379SOL    HW129036   5.608   5.164   5.438
 9379SOL    HW229037   5.627   5.325   5.421
 9380SOL     OW29038   6.001   5.916   5.802
 9380SOL    HW129039   6.045   6.002   5.778
 9380SOL    HW229040   5.941   5.887   5.726
 9381SOL     OW29041   1.430   0.737   0.003
 9381SOL    HW129042   1.507   0.709   0.060
 9381SOL    HW229043   1.464   0.787   6.944
 9382SOL     OW29044   5.308   1.461   2.919
 9382SOL    HW129045   5.337   1.495   2.830
 9382SOL    HW229046   5.264   1.372   2.909
 9383SOL     OW29047   6.527   5.112   5.915
 9383SOL    HW129048   6.462   5.091   5.988
 9383SOL    HW229049   6.495   5.192   5.864
 9384SOL     OW29050   4.098   6.683   3.258
 9384SOL    HW129051   4.089   6.731   3.171
 9384SOL    HW229052   4.038   6.603   3.258
 9385SOL     OW29053   3.648   0.638   4.317
 9385SOL    HW129054   3.731   0.634   4.263
 9385SOL    HW229055   3.661   0.701   4.394
 9386SOL     OW29056   4.013   0.174   5.562
 9386SOL    HW129057   3.930   0.165   5.507
 9386SOL    HW229058   4.065   0.088   5.559
 9387SOL     OW29059   4.693   5.522   0.590
 9387SOL    HW129060   4.775   5.513   0.533
 9387SOL    HW229061   4.696   5.609   0.639
 9388SOL     OW29062   6.618   6.962   1.884
 9388SOL    HW129063   6.619   6.962   1.984
 9388SOL    HW229064   6.710   6.982   1.849
 9389SOL     OW29065   2.929   1.255   0.450
 9389SOL    HW129066   3.017   1.238   0.495
 9389SOL    HW229067   2.855   1.239   0.515
 9390SOL     OW29068   3.341   5.379   1.261
 9390SOL    HW129069   3.330   5.478   1.263
 9390SOL    HW229070   3.253   5.336   1.242
 9391SOL     OW29071   6.413   1.485   4.350
 9391SOL    HW129072   6.411   1.428   4.268
 9391SOL    HW229073   6.410   1.582   4.324
 9392SOL     OW29074   0.804   6.493   4.549
 9392SOL    HW129075   0.842   6.469   4.460
 9392SOL    HW229076   0.712   6.455   4.557
 9393SOL     OW29077   4.017   1.752   5.031
 9393SOL    HW129078   3.943   1.813   5.004
 9393SOL    HW229079   4.051   1.777   5.121
 9394SOL     OW29080   6.308   2.128   2.001
 9394SOL    HW129081   6.293   2.197   2.072
 9394SOL    HW229082   6.300   2.037   2.041
 9395SOL     OW29083   2.299   2.855   6.699
 9395SOL    HW129084   2.201   2.839   6.681
 9395SOL    HW229085   2.318   2.953   6.694
 9396SOL     OW29086   0.159   1.080   5.994
 9396SOL    HW129087   0.110   1.010   6.046
 9396SOL    HW229088   0.154   1.057   5.896
 9397SOL     OW29089   2.165   2.077   0.787
 9397SOL    HW129090   2.070   2.101   0.772
 9397SOL    HW229091   2.214   2.155   0.826
 9398SOL     OW29092   2.555   1.782   1.485
 9398SOL    HW129093   2.572   1.705   1.423
 9398SOL    HW229094   2.492   1.753   1.557
 9399SOL     OW29095   0.401   0.377   5.872
 9399SOL    HW129096   0.446   0.310   5.932
 9399SOL    HW229097   0.377   0.458   5.926
 9400SOL     OW29098   3.954   1.935   3.485
 9400SOL    HW129099   4.012   1.862   3.521
 9400SOL    HW229100   3.904   1.977   3.561
 9401SOL     OW29101   4.847   6.887   3.834
 9401SOL    HW129102   4.830   6.985   3.842
 9401SOL    HW229103   4.819   6.841   3.919
 9402SOL     OW29104   2.686   5.513   6.749
 9402SOL    HW129105   2.617   5.556   6.691
 9402SOL    HW229106   2.761   5.478   6.693
 9403SOL     OW29107   5.874   0.131   4.256
 9403SOL    HW129108   5.798   0.066   4.263
 9403SOL    HW229109   5.903   0.138   4.160
 9404SOL     OW29110   1.428   3.855   5.922
 9404SOL    HW129111   1.363   3.893   5.855
 9404SOL    HW229112   1.514   3.905   5.916
 9405SOL     OW29113   0.897   0.483   1.388
 9405SOL    HW129114   0.818   0.537   1.417
 9405SOL    HW229115   0.922   0.508   1.295
 9406SOL     OW29116   6.741   1.016   5.284
 9406SOL    HW129117   6.744   0.935   5.226
 9406SOL    HW229118   6.665   1.008   5.348
 9407SOL     OW29119   3.672   5.702   3.014
 9407SOL    HW129120   3.709   5.620   2.970
 9407SOL    HW229121   3.590   5.678   3.066
 9408SOL     OW29122   3.817   2.031   6.761
 9408SOL    HW129123   3.867   2.103   6.809
 9408SOL    HW229124   3.824   1.945   6.813
 9409SOL     OW29125   5.987   3.722   3.395
 9409SOL    HW129126   5.909   3.660   3.392
 9409SOL    HW229127   5.975   3.786   3.471
 9410SOL     OW29128   4.323   6.589   1.440
 9410SOL    HW129129   4.347   6.533   1.520
 9410SOL    HW229130   4.401   6.646   1.415
 9411SOL     OW29131   4.755   5.572   1.737
 9411SOL    HW129132   4.821   5.545   1.807
 9411SOL    HW229133   4.675   5.613   1.781
 9412SOL     OW29134   6.214   2.957   3.400
 9412SOL    HW129135   6.310   2.956   3.428
 9412SOL    HW229136   6.157   2.927   3.478
 9413SOL     OW29137   3.690   5.313   3.660
 9413SOL    HW129138   3.636   5.296   3.578
 9413SOL    HW229139   3.639   5.280   3.740
 9414SOL     OW29140   2.102   0.396   2.560
 9414SOL    HW129141   2.062   0.310   2.592
 9414SOL    HW229142   2.042   0.437   2.492
 9415SOL     OW29143   2.215   1.343   2.385
 9415SOL    HW129144   2.195   1.311   2.292
 9415SOL    HW229145   2.311   1.324   2.407
 9416SOL     OW29146   1.541   2.715   1.759
 9416SOL    HW129147   1.583   2.628   1.786
 9416SOL    HW229148   1.611   2.786   1.752
 9417SOL     OW29149   1.613   0.216   4.970
 9417SOL    HW129150   1.644   0.305   4.935
 9417SOL    HW229151   1.587   0.158   4.893
 9418SOL     OW29152   4.857   4.014   1.138
 9418SOL    HW129153   4.896   3.932   1.097
 9418SOL    HW229154   4.817   3.992   1.227
 9419SOL     OW29155   2.765   5.263   4.285
 9419SOL    HW129156   2.693   5.309   4.336
 9419SOL    HW229157   2.725   5.207   4.213
 9420SOL     OW29158   1.763   0.673   3.826
 9420SOL    HW129159   1.681   0.621   3.851
 9420SOL    HW229160   1.751   0.769   3.854
 9421SOL     OW29161   1.775   5.112   4.619
 9421SOL    HW129162   1.685   5.089   4.581
 9421SOL    HW229163   1.813   5.190   4.571
 9422SOL     OW29164   4.105   1.079   2.557
 9422SOL    HW129165   4.061   0.995   2.586
 9422SOL    HW229166   4.109   1.143   2.634
 9423SOL     OW29167   4.892   0.483   4.726
 9423SOL    HW129168   4.968   0.444   4.777
 9423SOL    HW229169   4.874   0.428   4.644
 9424SOL     OW29170   3.433   6.149   4.099
 9424SOL    HW129171   3.383   6.067   4.070
 9424SOL    HW229172   3.451   6.145   4.197
 9425SOL     OW29173   0.776   5.477   3.083
 9425SOL    HW129174   0.719   5.559   3.081
 9425SOL    HW229175   0.741   5.414   3.152
 9426SOL     OW29176   3.456   5.564   0.896
 9426SOL    HW129177   3.476   5.589   0.802
 9426SOL    HW229178   3.449   5.465   0.904
 9427SOL     OW29179   3.251   5.046   3.994
 9427SOL    HW129180   3.171   4.992   4.019
 9427SOL    HW229181   3.330   4.985   3.986
 9428SOL     OW29182   4.899   6.310   2.548
 9428SOL    HW129183   4.925   6.222   2.509
 9428SOL    HW229184   4.799   6.319   2.546
 9429SOL     OW29185   0.491   3.442   3.086
 9429SOL    HW129186   0.503   3.421   2.989
 9429SOL    HW229187   0.573   3.416   3.136
 9430SOL     OW29188   5.905   0.076   1.764
 9430SOL    HW129189   5.807   0.064   1.784
 9430SOL    HW229190   5.952   0.106   1.847
 9431SOL     OW29191   6.418   4.194   6.966
 9431SOL    HW129192   6.363   4.185   0.030
 9431SOL    HW229193   6.490   4.261   6.981
 9432SOL     OW29194   6.469   6.781   3.951
 9432SOL    HW129195   6.387   6.820   3.995
 9432SOL    HW229196   6.542   6.773   4.019
 9433SOL     OW29197   2.400   5.733   4.053
 9433SOL    HW129198   2.434   5.675   4.128
 9433SOL    HW229199   2.388   5.827   4.086
 9434SOL     OW29200   5.592   4.304   3.349
 9434SOL    HW129201   5.593   4.403   3.364
 9434SOL    HW229202   5.497   4.272   3.347
 9435SOL     OW29203   2.083   2.288   5.011
 9435SOL    HW129204   2.037   2.357   5.068
 9435SOL    HW229205   2.057   2.301   4.916
 9436SOL     OW29206   3.038   1.785   5.445
 9436SOL    HW129207   3.005   1.879   5.455
 9436SOL    HW229208   3.086   1.775   5.358
 9437SOL     OW29209   0.527   5.660   4.296
 9437SOL    HW129210   0.623   5.685   4.304
 9437SOL    HW229211   0.476   5.734   4.252
 9438SOL     OW29212   0.790   6.618   2.242
 9438SOL    HW129213   0.851   6.672   2.184
 9438SOL    HW229214   0.776   6.528   2.200
 9439SOL     OW29215   1.364   3.676   0.897
 9439SOL    HW129216   1.352   3.657   0.995
 9439SOL    HW229217   1.316   3.761   0.875
 9440SOL     OW29218   4.005   5.672   4.836
 9440SOL    HW129219   3.919   5.627   4.858
 9440SOL    HW229220   4.006   5.764   4.876
 9441SOL     OW29221   1.512   5.612   5.205
 9441SOL    HW129222   1.490   5.519   5.232
 9441SOL    HW229223   1.611   5.623   5.200
 9442SOL     OW29224   0.781   3.739   1.233
 9442SOL    HW129225   0.802   3.660   1.176
 9442SOL    HW229226   0.766   3.819   1.175
 9443SOL     OW29227   1.362   3.173   1.237
 9443SOL    HW129228   1.432   3.242   1.259
 9443SOL    HW229229   1.406   3.086   1.217
 9444SOL     OW29230   1.480   4.611   5.909
 9444SOL    HW129231   1.572   4.603   5.948
 9444SOL    HW229232   1.455   4.525   5.865
 9445SOL     OW29233   6.307   3.092   1.523
 9445SOL    HW129234   6.377   3.120   1.457
 9445SOL    HW229235   6.227   3.057   1.474
 9446SOL     OW29236   5.471   4.030   0.181
 9446SOL    HW129237   5.563   4.024   0.142
 9446SOL    HW229238   5.418   3.950   0.155
 9447SOL     OW29239   5.829   1.819   2.161
 9447SOL    HW129240   5.818   1.724   2.131
 9447SOL    HW229241   5.837   1.822   2.260
 9448SOL     OW29242   6.166   5.894   0.271
 9448SOL    HW129243   6.238   5.963   0.278
 9448SOL    HW229244   6.194   5.811   0.319
 9449SOL     OW29245   6.006   5.252   5.376
 9449SOL    HW129246   6.096   5.265   5.335
 9449SOL    HW229247   6.012   5.260   5.475
 9450SOL     OW29248   2.707   6.150   3.767
 9450SOL    HW129249   2.703   6.056   3.801
 9450SOL    HW229250   2.748   6.208   3.837
 9451SOL     OW29251   4.427   3.487   5.598
 9451SOL    HW129252   4.425   3.582   5.631
 9451SOL    HW229253   4.467   3.485   5.507
 9452SOL     OW29254   3.112   3.671   0.649
 9452SOL    HW129255   3.151   3.715   0.729
 9452SOL    HW229256   3.175   3.600   0.616
 9453SOL     OW29257   3.079   5.297   1.218
 9453SOL    HW129258   3.025   5.281   1.135
 9453SOL    HW229259   3.066   5.221   1.281
 9454SOL     OW29260   2.312   2.013   5.309
 9454SOL    HW129261   2.261   1.953   5.248
 9454SOL    HW229262   2.401   1.972   5.330
 9455SOL     OW29263   2.060   1.839   2.727
 9455SOL    HW129264   2.151   1.842   2.770
 9455SOL    HW229265   2.053   1.912   2.660
 9456SOL     OW29266   1.022   3.012   0.986
 9456SOL    HW129267   1.117   2.979   0.991
 9456SOL    HW229268   1.017   3.088   0.922
 9457SOL     OW29269   6.416   3.372   6.986
 9457SOL    HW129270   6.385   3.347   6.894
 9457SOL    HW229271   6.422   3.471   6.993
 9458SOL     OW29272   0.955   6.272   4.591
 9458SOL    HW129273   0.908   6.220   4.520
 9458SOL    HW229274   0.928   6.368   4.586
 9459SOL     OW29275   4.463   5.891   1.629
 9459SOL    HW129276   4.429   5.898   1.723
 9459SOL    HW229277   4.464   5.795   1.601
 9460SOL     OW29278   1.385   3.362   5.775
 9460SOL    HW129279   1.336   3.371   5.862
 9460SOL    HW229280   1.334   3.408   5.703
 9461SOL     OW29281   1.760   0.289   2.870
 9461SOL    HW129282   1.705   0.255   2.947
 9461SOL    HW229283   1.857   0.288   2.896
 9462SOL     OW29284   0.458   2.891   3.001
 9462SOL    HW129285   0.467   2.983   2.965
 9462SOL    HW229286   0.490   2.825   2.933
 9463SOL     OW29287   6.298   1.904   6.862
 9463SOL    HW129288   6.242   1.909   6.779
 9463SOL    HW229289   6.264   1.831   6.921
 9464SOL     OW29290   4.260   6.742   5.531
 9464SOL    HW129291   4.232   6.657   5.487
 9464SOL    HW229292   4.263   6.729   5.630
 9465SOL     OW29293   5.283   6.350   4.166
 9465SOL    HW129294   5.244   6.324   4.255
 9465SOL    HW229295   5.236   6.432   4.133
 9466SOL     OW29296   3.303   1.486   0.143
 9466SOL    HW129297   3.341   1.403   0.183
 9466SOL    HW229298   3.254   1.464   0.059
 9467SOL     OW29299   1.716   3.194   2.196
 9467SOL    HW129300   1.693   3.286   2.228
 9467SOL    HW229301   1.714   3.130   2.273
 9468SOL     OW29302   0.837   2.399   6.046
 9468SOL    HW129303   0.777   2.318   6.043
 9468SOL    HW229304   0.800   2.469   5.986
 9469SOL     OW29305   6.945   4.606   2.565
 9469SOL    HW129306   6.853   4.566   2.561
 9469SOL    HW229307   7.013   4.534   2.551
 9470SOL     OW29308   6.575   3.468   1.353
 9470SOL    HW129309   6.590   3.547   1.295
 9470SOL    HW229310   6.654   3.407   1.348
 9471SOL     OW29311   0.555   2.661   6.108
 9471SOL    HW129312   0.485   2.731   6.099
 9471SOL    HW229313   0.579   2.651   6.205
 9472SOL     OW29314   6.682   2.222   4.980
 9472SOL    HW129315   6.644   2.150   4.922
 9472SOL    HW229316   6.781   2.226   4.968
 9473SOL     OW29317   3.221   5.768   5.092
 9473SOL    HW129318   3.253   5.732   5.004
 9473SOL    HW229319   3.263   5.716   5.166
 9474SOL     OW29320   3.025   5.220   3.537
 9474SOL    HW129321   3.068   5.306   3.563
 9474SOL    HW229322   2.995   5.171   3.619
 9475SOL     OW29323   1.811   3.228   1.772
 9475SOL    HW129324   1.882   3.183   1.717
 9475SOL    HW229325   1.820   3.200   1.868
 9476SOL     OW29326   2.924   3.601   5.354
 9476SOL    HW129327   2.863   3.522   5.350
 9476SOL    HW229328   2.969   3.613   5.266
 9477SOL     OW29329   0.507   1.942   0.888
 9477SOL    HW129330   0.437   1.968   0.955
 9477SOL    HW229331   0.538   2.023   0.839
 9478SOL     OW29332   5.335   4.070   5.354
 9478SOL    HW129333   5.252   4.075   5.297
 9478SOL    HW229334   5.317   4.010   5.432
 9479SOL     OW29335   5.583   5.511   5.095
 9479SOL    HW129336   5.659   5.481   5.038
 9479SOL    HW229337   5.499   5.512   5.040
 9480SOL     OW29338   5.998   4.005   6.592
 9480SOL    HW129339   6.010   4.026   6.689
 9480SOL    HW229340   6.031   3.913   6.573
 9481SOL     OW29341   6.310   3.192   2.866
 9481SOL    HW129342   6.248   3.157   2.796
 9481SOL    HW229343   6.371   3.260   2.826
 9482SOL     OW29344   4.521   0.184   2.315
 9482SOL    HW129345   4.442   0.212   2.370
 9482SOL    HW229346   4.603   0.183   2.373
 9483SOL     OW29347   1.439   1.770   0.652
 9483SOL    HW129348   1.394   1.791   0.739
 9483SOL    HW229349   1.536   1.795   0.658
 9484SOL     OW29350   6.088   0.784   3.110
 9484SOL    HW129351   6.064   0.851   3.039
 9484SOL    HW229352   6.005   0.759   3.161
 9485SOL     OW29353   1.294   0.161   2.519
 9485SOL    HW129354   1.308   0.260   2.516
 9485SOL    HW229355   1.227   0.139   2.590
 9486SOL     OW29356   2.835   6.444   2.061
 9486SOL    HW129357   2.777   6.526   2.064
 9486SOL    HW229358   2.787   6.371   2.011
 9487SOL     OW29359   3.156   3.431   4.223
 9487SOL    HW129360   3.187   3.433   4.318
 9487SOL    HW229361   3.093   3.507   4.207
 9488SOL     OW29362   1.124   1.436   1.434
 9488SOL    HW129363   1.188   1.510   1.454
 9488SOL    HW229364   1.071   1.459   1.352
 9489SOL     OW29365   2.694   4.126   0.706
 9489SOL    HW129366   2.768   4.192   0.711
 9489SOL    HW229367   2.647   4.136   0.619
 9490SOL     OW29368   4.927   1.531   0.001
 9490SOL    HW129369   4.827   1.526   0.011
 9490SOL    HW229370   4.968   1.446   0.036
 9491SOL     OW29371   6.471   5.334   5.745
 9491SOL    HW129372   6.566   5.346   5.716
 9491SOL    HW229373   6.412   5.393   5.690
 9492SOL     OW29374   2.544   4.384   1.407
 9492SOL    HW129375   2.599   4.394   1.490
 9492SOL    HW229376   2.594   4.329   1.341
 9493SOL     OW29377   5.536   6.325   2.409
 9493SOL    HW129378   5.450   6.275   2.401
 9493SOL    HW229379   5.554   6.373   2.323
 9494SOL     OW29380   3.120   3.246   6.073
 9494SOL    HW129381   3.206   3.264   6.121
 9494SOL    HW229382   3.117   3.300   5.989
 9495SOL     OW29383   5.290   2.478   4.281
 9495SOL    HW129384   5.341   2.477   4.367
 9495SOL    HW229385   5.299   2.389   4.236
 9496SOL     OW29386   6.291   4.164   0.178
 9496SOL    HW129387   6.254   4.225   0.248
 9496SOL    HW229388   6.224   4.093   0.156
 9497SOL     OW29389   0.570   5.698   6.077
 9497SOL    HW129390   0.554   5.706   5.978
 9497SOL    HW229391   0.521   5.771   6.125
 9498SOL     OW29392   3.877   0.151   6.876
 9498SOL    HW129393   3.895   0.069   6.823
 9498SOL    HW229394   3.913   0.139   6.969
 9499SOL     OW29395   4.247   4.204   6.042
 9499SOL    HW129396   4.226   4.106   6.042
 9499SOL    HW229397   4.189   4.250   5.976
 9500SOL     OW29398   5.355   5.737   1.599
 9500SOL    HW129399   5.275   5.678   1.585
 9500SOL    HW229400   5.432   5.704   1.544
 9501SOL     OW29401   3.347   2.133   4.686
 9501SOL    HW129402   3.346   2.213   4.625
 9501SOL    HW229403   3.253   2.105   4.706
 9502SOL     OW29404   3.622   3.237   5.882
 9502SOL    HW129405   3.712   3.196   5.864
 9502SOL    HW229406   3.597   3.297   5.806
 9503SOL     OW29407   1.399   6.788   1.737
 9503SOL    HW129408   1.418   6.690   1.731
 9503SOL    HW229409   1.455   6.829   1.809
 9504SOL     OW29410   0.666   3.132   0.329
 9504SOL    HW129411   0.733   3.159   0.260
 9504SOL    HW229412   0.681   3.186   0.412
 9505SOL     OW29413   4.816   3.062   3.178
 9505SOL    HW129414   4.911   3.047   3.153
 9505SOL    HW229415   4.807   3.148   3.227
 9506SOL     OW29416   0.078   1.910   0.910
 9506SOL    HW129417   0.005   1.949   0.854
 9506SOL    HW229418   0.067   1.940   1.004
 9507SOL     OW29419   1.131   2.145   4.654
 9507SOL    HW129420   1.156   2.048   4.657
 9507SOL    HW229421   1.032   2.154   4.652
 9508SOL     OW29422   4.628   1.683   6.306
 9508SOL    HW129423   4.719   1.695   6.345
 9508SOL    HW229424   4.603   1.587   6.308
 9509SOL     OW29425   3.277   0.349   6.051
 9509SOL    HW129426   3.342   0.384   6.118
 9509SOL    HW229427   3.301   0.381   5.960
 9510SOL     OW29428   6.603   4.566   2.724
 9510SOL    HW129429   6.504   4.581   2.719
 9510SOL    HW229430   6.635   4.524   2.639
 9511SOL     OW29431   2.371   1.141   1.465
 9511SOL    HW129432   2.319   1.056   1.473
 9511SOL    HW229433   2.466   1.121   1.441
 9512SOL     OW29434   1.187   3.353   4.834
 9512SOL    HW129435   1.281   3.358   4.870
 9512SOL    HW229436   1.158   3.258   4.829
 9513SOL     OW29437   2.167   4.093   4.521
 9513SOL    HW129438   2.104   4.131   4.454
 9513SOL    HW229439   2.167   3.993   4.514
 9514SOL     OW29440   2.852   2.990   6.013
 9514SOL    HW129441   2.919   2.916   6.016
 9514SOL    HW229442   2.854   3.033   5.923
 9515SOL     OW29443   2.173   5.134   5.991
 9515SOL    HW129444   2.242   5.098   6.053
 9515SOL    HW229445   2.104   5.185   6.043
 9516SOL     OW29446   5.298   4.500   5.333
 9516SOL    HW129447   5.228   4.442   5.291
 9516SOL    HW229448   5.384   4.490   5.283
 9517SOL     OW29449   1.020   5.226   2.253
 9517SOL    HW129450   1.066   5.199   2.168
 9517SOL    HW229451   1.062   5.309   2.290
 9518SOL     OW29452   0.876   2.896   5.645
 9518SOL    HW129453   0.859   2.896   5.546
 9518SOL    HW229454   0.859   2.804   5.681
 9519SOL     OW29455   3.414   2.897   2.863
 9519SOL    HW129456   3.513   2.887   2.861
 9519SOL    HW229457   3.375   2.873   2.774
 9520SOL     OW29458   5.210   0.814   6.021
 9520SOL    HW129459   5.304   0.847   6.016
 9520SOL    HW229460   5.168   0.843   6.106
 9521SOL     OW29461   3.790   1.275   1.427
 9521SOL    HW129462   3.708   1.248   1.376
 9521SOL    HW229463   3.774   1.364   1.470
 9522SOL     OW29464   3.707   6.540   1.476
 9522SOL    HW129465   3.764   6.461   1.453
 9522SOL    HW229466   3.764   6.613   1.515
 9523SOL     OW29467   2.734   4.958   4.221
 9523SOL    HW129468   2.702   4.896   4.292
 9523SOL    HW229469   2.831   4.944   4.205
 9524SOL     OW29470   2.169   4.246   0.225
 9524SOL    HW129471   2.241   4.195   0.273
 9524SOL    HW229472   2.179   4.231   0.126
 9525SOL     OW29473   2.109   3.407   6.499
 9525SOL    HW129474   2.172   3.345   6.453
 9525SOL    HW229475   2.044   3.445   6.432
 9526SOL     OW29476   5.423   5.460   6.644
 9526SOL    HW129477   5.435   5.373   6.596
 9526SOL    HW229478   5.512   5.497   6.669
 9527SOL     OW29479   4.034   6.991   4.692
 9527SOL    HW129480   4.084   6.923   4.745
 9527SOL    HW229481   3.940   6.995   4.724
 9528SOL     OW29482   4.951   2.678   0.531
 9528SOL    HW129483   5.042   2.667   0.491
 9528SOL    HW229484   4.901   2.748   0.480
 9529SOL     OW29485   5.596   1.144   1.710
 9529SOL    HW129486   5.627   1.174   1.620
 9529SOL    HW229487   5.640   1.198   1.781
 9530SOL     OW29488   1.065   5.441   3.791
 9530SOL    HW129489   1.159   5.411   3.811
 9530SOL    HW229490   1.036   5.401   3.704
 9531SOL     OW29491   3.273   5.270   2.205
 9531SOL    HW129492   3.232   5.272   2.296
 9531SOL    HW229493   3.259   5.358   2.161
 9532SOL     OW29494   6.754   5.045   3.797
 9532SOL    HW129495   6.756   5.142   3.820
 9532SOL    HW229496   6.828   4.998   3.845
 9533SOL     OW29497   1.550   4.052   2.899
 9533SOL    HW129498   1.575   4.134   2.847
 9533SOL    HW229499   1.509   4.079   2.986
 9534SOL     OW29500   4.440   5.427   4.338
 9534SOL    HW129501   4.343   5.441   4.355
 9534SOL    HW229502   4.486   5.410   4.426
 9535SOL     OW29503   0.111   1.425   4.623
 9535SOL    HW129504   0.082   1.329   4.628
 9535SOL    HW229505   0.184   1.441   4.689
 9536SOL     OW29506   3.320   4.037   5.181
 9536SOL    HW129507   3.363   4.018   5.270
 9536SOL    HW229508   3.235   3.985   5.173
 9537SOL     OW29509   6.467   0.928   3.920
 9537SOL    HW129510   6.564   0.937   3.897
 9537SOL    HW229511   6.448   0.974   4.007
 9538SOL     OW29512   5.754   0.205   4.660
 9538SOL    HW129513   5.809   0.168   4.585
 9538SOL    HW229514   5.681   0.141   4.683
 9539SOL     OW29515   3.609   4.097   2.872
 9539SOL    HW129516   3.629   4.133   2.962
 9539SOL    HW229517   3.687   4.042   2.840
 9540SOL     OW29518   4.151   4.727   3.405
 9540SOL    HW129519   4.150   4.747   3.307
 9540SOL    HW229520   4.083   4.784   3.451
 9541SOL     OW29521   1.501   5.892   5.549
 9541SOL    HW129522   1.418   5.879   5.494
 9541SOL    HW229523   1.546   5.804   5.565
 9542SOL     OW29524   6.309   4.213   2.839
 9542SOL    HW129525   6.256   4.244   2.761
 9542SOL    HW229526   6.256   4.144   2.890
 9543SOL     OW29527   2.428   0.764   5.677
 9543SOL    HW129528   2.417   0.726   5.585
 9543SOL    HW229529   2.362   0.722   5.739
 9544SOL     OW29530   6.246   3.802   4.880
 9544SOL    HW129531   6.237   3.716   4.930
 9544SOL    HW229532   6.273   3.784   4.786
 9545SOL     OW29533   7.006   4.647   1.999
 9545SOL    HW129534   6.954   4.627   1.915
 9545SOL    HW229535   0.082   4.629   1.983
 9546SOL     OW29536   2.754   2.856   1.429
 9546SOL    HW129537   2.719   2.763   1.439
 9546SOL    HW229538   2.783   2.890   1.519
 9547SOL     OW29539   4.616   0.306   3.593
 9547SOL    HW129540   4.553   0.273   3.663
 9547SOL    HW229541   4.621   0.406   3.598
 9548SOL     OW29542   0.926   4.922   6.319
 9548SOL    HW129543   0.898   4.957   6.408
 9548SOL    HW229544   0.932   4.998   6.254
 9549SOL     OW29545   4.093   1.740   1.579
 9549SOL    HW129546   4.181   1.771   1.542
 9549SOL    HW229547   4.020   1.799   1.544
 9550SOL     OW29548   6.149   3.207   1.814
 9550SOL    HW129549   6.130   3.120   1.861
 9550SOL    HW229550   6.247   3.227   1.820
 9551SOL     OW29551   5.870   2.938   6.191
 9551SOL    HW129552   5.847   2.995   6.269
 9551SOL    HW229553   5.785   2.909   6.145
 9552SOL     OW29554   2.730   2.104   0.785
 9552SOL    HW129555   2.632   2.122   0.784
 9552SOL    HW229556   2.778   2.181   0.827
 9553SOL     OW29557   5.876   1.454   6.958
 9553SOL    HW129558   5.819   1.372   6.957
 9553SOL    HW229559   5.890   1.486   6.865
 9554SOL     OW29560   3.065   0.788   4.008
 9554SOL    HW129561   3.017   0.861   4.057
 9554SOL    HW229562   3.002   0.712   3.992
 9555SOL     OW29563   0.163   6.574   3.468
 9555SOL    HW129564   0.114   6.572   3.555
 9555SOL    HW229565   0.108   6.622   3.400
 9556SOL     OW29566   2.461   4.649   6.733
 9556SOL    HW129567   2.548   4.675   6.691
 9556SOL    HW229568   2.454   4.689   6.824
 9557SOL     OW29569   5.798   0.616   0.889
 9557SOL    HW129570   5.801   0.557   0.970
 9557SOL    HW229571   5.881   0.672   0.885
 9558SOL     OW29572   4.987   6.307   6.194
 9558SOL    HW129573   5.028   6.395   6.214
 9558SOL    HW229574   5.029   6.268   6.112
 9559SOL     OW29575   2.185   4.635   6.951
 9559SOL    HW129576   2.123   4.712   6.937
 9559SOL    HW229577   2.182   4.575   6.871
 9560SOL     OW29578   2.793   0.212   2.499
 9560SOL    HW129579   2.840   0.199   2.587
 9560SOL    HW229580   2.698   0.239   2.517
 9561SOL     OW29581   0.526   0.457   0.466
 9561SOL    HW129582   0.517   0.516   0.547
 9561SOL    HW229583   0.616   0.414   0.466
 9562SOL     OW29584   2.337   6.187   2.831
 9562SOL    HW129585   2.378   6.161   2.918
 9562SOL    HW229586   2.368   6.126   2.759
 9563SOL     OW29587   0.973   5.796   6.288
 9563SOL    HW129588   0.963   5.836   6.197
 9563SOL    HW229589   1.069   5.777   6.306
 9564SOL     OW29590   1.684   1.231   1.042
 9564SOL    HW129591   1.689   1.201   0.947
 9564SOL    HW229592   1.603   1.190   1.085
 9565SOL     OW29593   2.546   1.611   4.181
 9565SOL    HW129594   2.616   1.679   4.163
 9565SOL    HW229595   2.551   1.582   4.277
 9566SOL     OW29596   2.914   0.343   0.436
 9566SOL    HW129597   2.827   0.371   0.394
 9566SOL    HW229598   2.978   0.316   0.364
 9567SOL     OW29599   6.862   4.249   0.741
 9567SOL    HW129600   6.897   4.160   0.771
 9567SOL    HW229601   6.825   4.298   0.820
 9568SOL     OW29602   4.262   1.776   6.513
 9568SOL    HW129603   4.260   1.816   6.605
 9568SOL    HW229604   4.184   1.810   6.461
 9569SOL     OW29605   5.618   0.182   2.222
 9569SOL    HW129606   5.583   0.276   2.225
 9569SOL    HW229607   5.714   0.183   2.197
 9570SOL     OW29608   0.482   3.578   1.536
 9570SOL    HW129609   0.468   3.519   1.457
 9570SOL    HW229610   0.428   3.546   1.613
 9571SOL     OW29611   1.843   1.174   0.066
 9571SOL    HW129612   1.894   1.240   0.011
 9571SOL    HW229613   1.796   1.109   0.005
 9572SOL     OW29614   2.390   4.443   4.525
 9572SOL    HW129615   2.341   4.393   4.596
 9572SOL    HW229616   2.399   4.386   4.444
 9573SOL     OW29617   6.582   0.481   4.095
 9573SOL    HW129618   6.522   0.561   4.087
 9573SOL    HW229619   6.631   0.485   4.182
 9574SOL     OW29620   4.262   3.035   0.508
 9574SOL    HW129621   4.257   2.975   0.588
 9574SOL    HW229622   4.175   3.032   0.458
 9575SOL     OW29623   5.382   0.038   1.968
 9575SOL    HW129624   5.355   0.022   2.062
 9575SOL    HW229625   5.333   0.118   1.932
 9576SOL     OW29626   0.615   0.594   6.994
 9576SOL    HW129627   0.704   0.573   0.012
 9576SOL    HW229628   0.616   0.685   6.954
 9577SOL     OW29629   6.123   5.397   2.794
 9577SOL    HW129630   6.054   5.416   2.725
 9577SOL    HW229631   6.118   5.301   2.821
 9578SOL     OW29632   1.727   3.435   2.341
 9578SOL    HW129633   1.822   3.411   2.358
 9578SOL    HW229634   1.713   3.533   2.358
 9579SOL     OW29635   5.764   5.750   2.416
 9579SOL    HW129636   5.747   5.847   2.398
 9579SOL    HW229637   5.787   5.703   2.331
 9580SOL     OW29638   4.652   4.274   3.274
 9580SOL    HW129639   4.743   4.316   3.278
 9580SOL    HW229640   4.649   4.209   3.198
 9581SOL     OW29641   5.920   1.736   0.156
 9581SOL    HW129642   5.823   1.742   0.177
 9581SOL    HW229643   5.950   1.640   0.165
 9582SOL     OW29644   5.350   6.469   4.864
 9582SOL    HW129645   5.336   6.461   4.963
 9582SOL    HW229646   5.334   6.380   4.822
 9583SOL     OW29647   3.622   4.953   1.717
 9583SOL    HW129648   3.603   4.881   1.784
 9583SOL    HW229649   3.672   4.914   1.640
 9584SOL     OW29650   2.510   4.874   3.885
 9584SOL    HW129651   2.430   4.899   3.940
 9584SOL    HW229652   2.513   4.774   3.875
 9585SOL     OW29653   4.483   6.194   0.773
 9585SOL    HW129654   4.426   6.276   0.772
 9585SOL    HW229655   4.506   6.172   0.868
 9586SOL     OW29656   3.476   5.624   2.790
 9586SOL    HW129657   3.428   5.660   2.710
 9586SOL    HW229658   3.575   5.629   2.774
 9587SOL     OW29659   3.444   6.134   0.943
 9587SOL    HW129660   3.427   6.139   0.845
 9587SOL    HW229661   3.535   6.098   0.960
 9588SOL     OW29662   6.376   5.598   0.142
 9588SOL    HW129663   6.349   5.619   0.048
 9588SOL    HW229664   6.405   5.681   0.188
 9589SOL     OW29665   1.973   2.557   6.557
 9589SOL    HW129666   1.996   2.616   6.634
 9589SOL    HW229667   1.939   2.613   6.481
 9590SOL     OW29668   6.461   0.399   0.727
 9590SOL    HW129669   6.468   0.378   0.825
 9590SOL    HW229670   6.542   0.450   0.698
 9591SOL     OW29671   4.918   1.008   0.624
 9591SOL    HW129672   4.820   1.009   0.605
 9591SOL    HW229673   4.968   1.039   0.542
 9592SOL     OW29674   2.337   6.531   5.986
 9592SOL    HW129675   2.315   6.619   6.027
 9592SOL    HW229676   2.423   6.497   6.024
 9593SOL     OW29677   1.771   2.234   3.693
 9593SOL    HW129678   1.841   2.305   3.686
 9593SOL    HW229679   1.768   2.182   3.607
 9594SOL     OW29680   6.859   6.251   3.508
 9594SOL    HW129681   6.848   6.180   3.438
 9594SOL    HW229682   6.957   6.264   3.527
 9595SOL     OW29683   0.469   3.140   3.369
 9595SOL    HW129684   0.514   3.088   3.296
 9595SOL    HW229685   0.493   3.237   3.361
 9596SOL     OW29686   1.067   6.665   0.744
 9596SOL    HW129687   1.124   6.620   0.675
 9596SOL    HW229688   0.982   6.614   0.756
 9597SOL     OW29689   1.110   3.535   1.713
 9597SOL    HW129690   1.176   3.540   1.788
 9597SOL    HW229691   1.043   3.463   1.731
 9598SOL     OW29692   2.231   4.034   4.086
 9598SOL    HW129693   2.226   4.068   3.992
 9598SOL    HW229694   2.142   4.048   4.131
 9599SOL     OW29695   4.042   6.674   4.467
 9599SOL    HW129696   3.965   6.723   4.510
 9599SOL    HW229697   4.099   6.633   4.538
 9600SOL     OW29698   3.746   1.515   1.545
 9600SOL    HW129699   3.703   1.569   1.473
 9600SOL    HW229700   3.789   1.576   1.612
 9601SOL     OW29701   1.290   3.510   0.488
 9601SOL    HW129702   1.348   3.439   0.528
 9601SOL    HW229703   1.344   3.566   0.425
 9602SOL     OW29704   4.039   4.937   5.112
 9602SOL    HW129705   4.003   4.899   5.027
 9602SOL    HW229706   3.986   4.903   5.190
 9603SOL     OW29707   5.036   6.860   5.758
 9603SOL    HW129708   5.117   6.816   5.719
 9603SOL    HW229709   5.025   6.832   5.854
 9604SOL     OW29710   5.185   6.626   0.238
 9604SOL    HW129711   5.147   6.718   0.226
 9604SOL    HW229712   5.243   6.625   0.320
 9605SOL     OW29713   5.698   5.705   1.756
 9605SOL    HW129714   5.664   5.723   1.664
 9605SOL    HW229715   5.731   5.791   1.797
 9606SOL     OW29716   1.708   0.918   6.993
 9606SOL    HW129717   1.689   0.937   0.069
 9606SOL    HW229718   1.756   0.831   6.984
 9607SOL     OW29719   2.279   2.172   5.977
 9607SOL    HW129720   2.185   2.144   5.961
 9607SOL    HW229721   2.294   2.263   5.938
 9608SOL     OW29722   5.916   2.808   4.324
 9608SOL    HW129723   5.898   2.808   4.225
 9608SOL    HW229724   5.978   2.884   4.346
 9609SOL     OW29725   4.441   2.740   6.617
 9609SOL    HW129726   4.440   2.799   6.536
 9609SOL    HW229727   4.348   2.710   6.638
 9610SOL     OW29728   0.568   4.809   2.875
 9610SOL    HW129729   0.627   4.883   2.908
 9610SOL    HW229730   0.491   4.798   2.938
 9611SOL     OW29731   2.156   0.686   0.521
 9611SOL    HW129732   2.227   0.617   0.508
 9611SOL    HW229733   2.188   0.754   0.587
 9612SOL     OW29734   0.231   2.549   3.954
 9612SOL    HW129735   0.234   2.530   3.856
 9612SOL    HW229736   0.304   2.614   3.977
 9613SOL     OW29737   5.872   5.347   3.269
 9613SOL    HW129738   5.808   5.408   3.315
 9613SOL    HW229739   5.893   5.383   3.178
 9614SOL     OW29740   4.706   2.329   3.591
 9614SOL    HW129741   4.732   2.376   3.676
 9614SOL    HW229742   4.773   2.257   3.572
 9615SOL     OW29743   1.948   4.470   1.155
 9615SOL    HW129744   1.919   4.557   1.195
 9615SOL    HW229745   1.878   4.401   1.173
 9616SOL     OW29746   3.958   3.486   6.659
 9616SOL    HW129747   3.879   3.545   6.643
 9616SOL    HW229748   3.953   3.448   6.752
 9617SOL     OW29749   1.810   2.582   2.938
 9617SOL    HW129750   1.762   2.670   2.938
 9617SOL    HW229751   1.807   2.543   2.846
 9618SOL     OW29752   2.220   1.755   1.144
 9618SOL    HW129753   2.259   1.781   1.233
 9618SOL    HW229754   2.268   1.675   1.108
 9619SOL     OW29755   2.324   0.460   6.422
 9619SOL    HW129756   2.256   0.531   6.401
 9619SOL    HW229757   2.416   0.494   6.403
 9620SOL     OW29758   5.793   1.390   5.328
 9620SOL    HW129759   5.863   1.408   5.398
 9620SOL    HW229760   5.779   1.472   5.273
 9621SOL     OW29761   1.824   3.534   3.171
 9621SOL    HW129762   1.747   3.565   3.116
 9621SOL    HW229763   1.905   3.587   3.148
 9622SOL     OW29764   5.432   0.070   1.062
 9622SOL    HW129765   5.336   0.065   1.036
 9622SOL    HW229766   5.486   0.099   0.982
 9623SOL     OW29767   2.407   3.842   6.292
 9623SOL    HW129768   2.329   3.897   6.323
 9623SOL    HW229769   2.413   3.846   6.193
 9624SOL     OW29770   6.579   3.033   4.312
 9624SOL    HW129771   6.564   3.106   4.378
 9624SOL    HW229772   6.677   3.020   4.298
 9625SOL     OW29773   5.904   5.595   1.277
 9625SOL    HW129774   5.811   5.594   1.241
 9625SOL    HW229775   5.947   5.506   1.262
 9626SOL     OW29776   3.678   6.640   0.226
 9626SOL    HW129777   3.623   6.663   0.306
 9626SOL    HW229778   3.710   6.545   0.234
 9627SOL     OW29779   1.546   6.691   6.638
 9627SOL    HW129780   1.563   6.706   6.735
 9627SOL    HW229781   1.461   6.639   6.627
 9628SOL     OW29782   3.203   6.969   2.650
 9628SOL    HW129783   3.111   6.940   2.624
 9628SOL    HW229784   3.271   6.924   2.592
 9629SOL     OW29785   2.352   0.332   1.075
 9629SOL    HW129786   2.382   0.369   0.987
 9629SOL    HW229787   2.277   0.268   1.060
 9630SOL     OW29788   6.501   1.936   6.545
 9630SOL    HW129789   6.547   1.929   6.634
 9630SOL    HW229790   6.570   1.948   6.474
 9631SOL     OW29791   6.022   6.137   0.093
 9631SOL    HW129792   5.977   6.116   0.179
 9631SOL    HW229793   6.015   6.058   0.032
 9632SOL     OW29794   0.654   5.815   1.926
 9632SOL    HW129795   0.711   5.887   1.966
 9632SOL    HW229796   0.626   5.842   1.834
 9633SOL     OW29797   6.993   5.037   6.010
 9633SOL    HW129798   0.053   5.095   5.994
 9633SOL    HW229799   0.004   4.946   6.037
 9634SOL     OW29800   0.938   5.935   6.068
 9634SOL    HW129801   0.871   6.002   6.100
 9634SOL    HW229802   1.023   5.982   6.044
 9635SOL     OW29803   0.534   5.787   5.623
 9635SOL    HW129804   0.557   5.736   5.706
 9635SOL    HW229805   0.466   5.735   5.570
 9636SOL     OW29806   4.152   1.174   6.944
 9636SOL    HW129807   4.078   1.114   6.914
 9636SOL    HW229808   4.205   1.205   6.865
 9637SOL     OW29809   2.068   0.933   0.051
 9637SOL    HW129810   2.144   0.997   0.044
 9637SOL    HW229811   2.033   0.932   0.145
 9638SOL     OW29812   6.677   2.249   6.506
 9638SOL    HW129813   6.628   2.163   6.521
 9638SOL    HW229814   6.613   2.326   6.514
 9639SOL     OW29815   4.060   0.961   2.300
 9639SOL    HW129816   4.116   1.007   2.369
 9639SOL    HW229817   3.965   0.954   2.333
 9640SOL     OW29818   1.684   1.978   2.327
 9640SOL    HW129819   1.653   2.072   2.339
 9640SOL    HW229820   1.606   1.920   2.303
 9641SOL     OW29821   5.893   5.603   6.883
 9641SOL    HW129822   5.863   5.588   6.977
 9641SOL    HW229823   5.816   5.588   6.820
 9642SOL     OW29824   3.741   0.557   3.456
 9642SOL    HW129825   3.800   0.612   3.516
 9642SOL    HW229826   3.657   0.534   3.505
 9643SOL     OW29827   4.064   4.824   2.725
 9643SOL    HW129828   4.080   4.728   2.704
 9643SOL    HW229829   4.135   4.856   2.789
 9644SOL     OW29830   3.206   1.808   0.114
 9644SOL    HW129831   3.294   1.827   0.158
 9644SOL    HW229832   3.136   1.869   0.150
 9645SOL     OW29833   3.063   5.339   5.089
 9645SOL    HW129834   2.969   5.339   5.124
 9645SOL    HW229835   3.123   5.296   5.156
 9646SOL     OW29836   4.132   5.119   4.298
 9646SOL    HW129837   4.231   5.125   4.311
 9646SOL    HW229838   4.086   5.183   4.361
 9647SOL     OW29839   6.579   2.997   6.317
 9647SOL    HW129840   6.588   2.901   6.342
 9647SOL    HW229841   6.655   3.024   6.257
 9648SOL     OW29842   4.021   4.004   0.980
 9648SOL    HW129843   3.955   4.076   0.959
 9648SOL    HW229844   3.990   3.918   0.941
 9649SOL     OW29845   2.501   5.210   1.855
 9649SOL    HW129846   2.406   5.181   1.845
 9649SOL    HW229847   2.512   5.261   1.941
 9650SOL     OW29848   0.473   6.859   0.778
 9650SOL    HW129849   0.390   6.811   0.805
 9650SOL    HW229850   0.542   6.851   0.850
 9651SOL     OW29851   0.614   1.793   6.314
 9651SOL    HW129852   0.600   1.818   6.410
 9651SOL    HW229853   0.528   1.801   6.265
 9652SOL     OW29854   0.604   5.008   2.237
 9652SOL    HW129855   0.576   5.061   2.157
 9652SOL    HW229856   0.529   5.006   2.303
 9653SOL     OW29857   6.359   6.468   3.971
 9653SOL    HW129858   6.285   6.534   3.959
 9653SOL    HW229859   6.410   6.490   4.054
 9654SOL     OW29860   2.250   2.987   3.031
 9654SOL    HW129861   2.193   3.067   3.012
 9654SOL    HW229862   2.285   2.950   2.945
 9655SOL     OW29863   6.286   1.621   6.577
 9655SOL    HW129864   6.386   1.613   6.576
 9655SOL    HW229865   6.261   1.717   6.590
 9656SOL     OW29866   3.054   1.376   3.221
 9656SOL    HW129867   2.975   1.408   3.168
 9656SOL    HW229868   3.133   1.365   3.160
 9657SOL     OW29869   0.222   6.729   4.836
 9657SOL    HW129870   0.201   6.760   4.743
 9657SOL    HW229871   0.239   6.809   4.894
 9658SOL     OW29872   5.462   1.914   3.015
 9658SOL    HW129873   5.494   1.833   3.066
 9658SOL    HW229874   5.405   1.970   3.075
 9659SOL     OW29875   1.179   5.116   6.889
 9659SOL    HW129876   1.212   5.115   6.984
 9659SOL    HW229877   1.258   5.122   6.827
 9660SOL     OW29878   1.095   5.395   0.443
 9660SOL    HW129879   0.995   5.399   0.444
 9660SOL    HW229880   1.130   5.408   0.536
 9661SOL     OW29881   4.281   0.122   1.186
 9661SOL    HW129882   4.191   0.166   1.183
 9661SOL    HW229883   4.292   0.076   1.274
 9662SOL     OW29884   5.100   1.242   4.497
 9662SOL    HW129885   5.012   1.284   4.472
 9662SOL    HW229886   5.127   1.275   4.587
 9663SOL     OW29887   2.538   6.430   3.193
 9663SOL    HW129888   2.461   6.460   3.250
 9663SOL    HW229889   2.572   6.507   3.139
 9664SOL     OW29890   2.348   5.630   1.777
 9664SOL    HW129891   2.420   5.637   1.847
 9664SOL    HW229892   2.389   5.630   1.686
 9665SOL     OW29893   5.074   4.206   4.086
 9665SOL    HW129894   5.045   4.302   4.092
 9665SOL    HW229895   4.995   4.148   4.066
 9666SOL     OW29896   5.254   4.828   4.789
 9666SOL    HW129897   5.202   4.754   4.832
 9666SOL    HW229898   5.292   4.795   4.702
 9667SOL     OW29899   3.278   2.932   3.467
 9667SOL    HW129900   3.347   2.885   3.521
 9667SOL    HW229901   3.308   2.936   3.371
 9668SOL     OW29902   0.771   1.145   5.445
 9668SOL    HW129903   0.837   1.074   5.419
 9668SOL    HW229904   0.781   1.166   5.543
 9669SOL     OW29905   1.534   6.388   6.814
 9669SOL    HW129906   1.437   6.415   6.811
 9669SOL    HW229907   1.588   6.455   6.762
 9670SOL     OW29908   5.678   4.781   6.365
 9670SOL    HW129909   5.694   4.871   6.323
 9670SOL    HW229910   5.623   4.725   6.304
 9671SOL     OW29911   6.991   0.554   6.795
 9671SOL    HW129912   6.905   0.561   6.744
 9671SOL    HW229913   7.007   0.458   6.820
 9672SOL     OW29914   1.535   6.359   4.940
 9672SOL    HW129915   1.438   6.374   4.956
 9672SOL    HW229916   1.584   6.355   5.027
 9673SOL     OW29917   2.211   2.811   6.285
 9673SOL    HW129918   2.237   2.900   6.246
 9673SOL    HW229919   2.293   2.759   6.307
 9674SOL     OW29920   2.685   6.944   2.390
 9674SOL    HW129921   2.683   6.850   2.355
 9674SOL    HW229922   2.722   7.005   2.320
 9675SOL     OW29923   0.338   2.244   2.668
 9675SOL    HW129924   0.301   2.239   2.761
 9675SOL    HW229925   0.437   2.261   2.672
 9676SOL     OW29926   0.238   2.749   4.687
 9676SOL    HW129927   0.324   2.794   4.711
 9676SOL    HW229928   0.221   2.761   4.590
 9677SOL     OW29929   1.603   3.481   5.430
 9677SOL    HW129930   1.661   3.400   5.427
 9677SOL    HW229931   1.541   3.480   5.351
 9678SOL     OW29932   3.617   3.257   3.210
 9678SOL    HW129933   3.579   3.287   3.298
 9678SOL    HW229934   3.542   3.241   3.146
 9679SOL     OW29935   0.389   3.592   1.009
 9679SOL    HW129936   0.477   3.544   1.012
 9679SOL    HW229937   0.378   3.646   1.093
 9680SOL     OW29938   4.787   4.721   3.139
 9680SOL    HW129939   4.881   4.755   3.140
 9680SOL    HW229940   4.744   4.739   3.227
 9681SOL     OW29941   1.064   0.372   4.302
 9681SOL    HW129942   1.163   0.382   4.285
 9681SOL    HW229943   1.046   0.282   4.342
 9682SOL     OW29944   0.157   4.964   3.033
 9682SOL    HW129945   0.109   5.051   3.020
 9682SOL    HW229946   0.091   4.895   3.063
 9683SOL     OW29947   5.206   6.490   6.134
 9683SOL    HW129948   5.229   6.582   6.167
 9683SOL    HW229949   5.182   6.495   6.037
 9684SOL     OW29950   0.960   4.639   3.460
 9684SOL    HW129951   0.979   4.684   3.547
 9684SOL    HW229952   0.979   4.702   3.385
 9685SOL     OW29953   2.106   2.007   6.850
 9685SOL    HW129954   2.059   2.049   6.772
 9685SOL    HW229955   2.067   1.917   6.867
 9686SOL     OW29956   5.338   1.970   1.826
 9686SOL    HW129957   5.422   1.938   1.870
 9686SOL    HW229958   5.266   1.979   1.895
 9687SOL     OW29959   3.682   1.527   4.567
 9687SOL    HW129960   3.781   1.511   4.567
 9687SOL    HW229961   3.661   1.608   4.622
 9688SOL     OW29962   6.566   1.893   4.068
 9688SOL    HW129963   6.632   1.947   4.016
 9688SOL    HW229964   6.491   1.951   4.099
 9689SOL     OW29965   2.240   5.783   5.788
 9689SOL    HW129966   2.243   5.742   5.697
 9689SOL    HW229967   2.145   5.789   5.819
 9690SOL     OW29968   6.052   3.605   0.448
 9690SOL    HW129969   6.095   3.584   0.361
 9690SOL    HW229970   6.121   3.603   0.521
 9691SOL     OW29971   1.269   4.427   0.742
 9691SOL    HW129972   1.352   4.402   0.691
 9691SOL    HW229973   1.224   4.504   0.697
 9692SOL     OW29974   3.281   5.826   0.948
 9692SOL    HW129975   3.352   5.764   0.984
 9692SOL    HW229976   3.194   5.777   0.944
 9693SOL     OW29977   5.977   5.700   1.582
 9693SOL    HW129978   5.900   5.763   1.591
 9693SOL    HW229979   5.973   5.656   1.492
 9694SOL     OW29980   1.357   2.237   0.866
 9694SOL    HW129981   1.429   2.198   0.808
 9694SOL    HW229982   1.360   2.337   0.860
 9695SOL     OW29983   0.015   4.549   0.536
 9695SOL    HW129984   0.041   4.459   0.499
 9695SOL    HW229985   0.091   4.613   0.525
 9696SOL     OW29986   3.599   4.573   0.580
 9696SOL    HW129987   3.582   4.487   0.532
 9696SOL    HW229988   3.690   4.570   0.623
 9697SOL     OW29989   0.438   5.946   6.169
 9697SOL    HW129990   0.422   5.989   6.079
 9697SOL    HW229991   0.369   5.875   6.185
 9698SOL     OW29992   4.400   1.428   5.143
 9698SOL    HW129993   4.380   1.474   5.229
 9698SOL    HW229994   4.490   1.384   5.148
 9699SOL     OW29995   2.170   2.390   6.721
 9699SOL    HW129996   2.073   2.369   6.705
 9699SOL    HW229997   2.201   2.458   6.655
 9700SOL     OW29998   3.714   3.911   3.425
 9700SOL    HW129999   3.778   3.849   3.471
 9700SOL    HW230000   3.697   3.878   3.332
 9701SOL     OW30001   4.635   4.453   4.496
 9701SOL    HW130002   4.667   4.414   4.582
 9701SOL    HW230003   4.551   4.504   4.513
 9702SOL     OW30004   5.318   0.342   0.502
 9702SOL    HW130005   5.413   0.371   0.512
 9702SOL    HW230006   5.311   0.244   0.520
 9703SOL     OW30007   2.646   5.892   3.903
 9703SOL    HW130008   2.715   5.834   3.947
 9703SOL    HW230009   2.596   5.838   3.835
 9704SOL     OW30010   2.694   1.419   3.585
 9704SOL    HW130011   2.662   1.511   3.607
 9704SOL    HW230012   2.694   1.363   3.668
 9705SOL     OW30013   3.636   3.976   0.794
 9705SOL    HW130014   3.636   3.970   0.894
 9705SOL    HW230015   3.542   3.963   0.760
 9706SOL     OW30016   6.876   2.823   3.795
 9706SOL    HW130017   6.876   2.862   3.887
 9706SOL    HW230018   6.784   2.793   3.771
 9707SOL     OW30019   2.437   4.863   2.961
 9707SOL    HW130020   2.462   4.897   3.051
 9707SOL    HW230021   2.484   4.777   2.943
 9708SOL     OW30022   1.466   1.802   2.301
 9708SOL    HW130023   1.438   1.737   2.231
 9708SOL    HW230024   1.470   1.755   2.390
 9709SOL     OW30025   1.632   5.330   2.841
 9709SOL    HW130026   1.723   5.337   2.880
 9709SOL    HW230027   1.564   5.362   2.907
 9710SOL     OW30028   0.531   0.298   4.057
 9710SOL    HW130029   0.626   0.307   4.087
 9710SOL    HW230030   0.482   0.237   4.119
 9711SOL     OW30031   1.795   2.986   6.498
 9711SOL    HW130032   1.728   3.036   6.443
 9711SOL    HW230033   1.855   2.933   6.438
 9712SOL     OW30034   4.971   3.609   4.643
 9712SOL    HW130035   4.942   3.580   4.552
 9712SOL    HW230036   4.946   3.539   4.710
 9713SOL     OW30037   6.835   5.370   2.604
 9713SOL    HW130038   6.790   5.405   2.686
 9713SOL    HW230039   6.903   5.301   2.630
 9714SOL     OW30040   1.956   2.070   2.615
 9714SOL    HW130041   1.878   2.098   2.672
 9714SOL    HW230042   2.022   2.145   2.609
 9715SOL     OW30043   6.278   5.436   5.581
 9715SOL    HW130044   6.315   5.398   5.497
 9715SOL    HW230045   6.269   5.535   5.572
 9716SOL     OW30046   3.819   1.495   5.874
 9716SOL    HW130047   3.823   1.432   5.796
 9716SOL    HW230048   3.896   1.559   5.868
 9717SOL     OW30049   5.512   5.753   3.274
 9717SOL    HW130050   5.557   5.832   3.233
 9717SOL    HW230051   5.457   5.706   3.204
 9718SOL     OW30052   4.762   3.128   1.690
 9718SOL    HW130053   4.697   3.084   1.752
 9718SOL    HW230054   4.712   3.168   1.613
 9719SOL     OW30055   0.315   1.388   0.632
 9719SOL    HW130056   0.354   1.359   0.545
 9719SOL    HW230057   0.225   1.429   0.616
 9720SOL     OW30058   0.953   0.220   0.570
 9720SOL    HW130059   0.996   0.307   0.545
 9720SOL    HW230060   0.947   0.213   0.670
 9721SOL     OW30061   6.880   2.735   3.280
 9721SOL    HW130062   6.916   2.816   3.234
 9721SOL    HW230063   6.906   2.653   3.230
 9722SOL     OW30064   6.896   0.080   4.793
 9722SOL    HW130065   6.840   0.083   4.710
 9722SOL    HW230066   6.861   0.145   4.859
 9723SOL     OW30067   6.757   0.952   3.904
 9723SOL    HW130068   6.783   0.895   3.826
 9723SOL    HW230069   6.799   0.916   3.987
 9724SOL     OW30070   3.663   2.633   1.228
 9724SOL    HW130071   3.727   2.599   1.296
 9724SOL    HW230072   3.712   2.655   1.143
 9725SOL     OW30073   4.243   3.391   5.786
 9725SOL    HW130074   4.227   3.304   5.741
 9725SOL    HW230075   4.297   3.451   5.725
 9726SOL     OW30076   5.772   5.891   4.052
 9726SOL    HW130077   5.808   5.895   4.145
 9726SOL    HW230078   5.714   5.971   4.035
 9727SOL     OW30079   1.682   0.436   0.034
 9727SOL    HW130080   1.740   0.485   6.990
 9727SOL    HW230081   1.687   0.338   0.015
 9728SOL     OW30082   3.365   6.071   6.631
 9728SOL    HW130083   3.442   6.067   6.567
 9728SOL    HW230084   3.321   6.160   6.624
 9729SOL     OW30085   3.005   5.135   2.373
 9729SOL    HW130086   2.957   5.171   2.293
 9729SOL    HW230087   3.056   5.053   2.348
 9730SOL     OW30088   5.723   3.460   3.012
 9730SOL    HW130089   5.678   3.447   3.100
 9730SOL    HW230090   5.656   3.452   2.939
 9731SOL     OW30091   5.264   5.279   1.068
 9731SOL    HW130092   5.312   5.337   1.134
 9731SOL    HW230093   5.178   5.248   1.106
 9732SOL     OW30094   5.561   6.386   4.129
 9732SOL    HW130095   5.462   6.399   4.130
 9732SOL    HW230096   5.601   6.425   4.212
 9733SOL     OW30097   5.415   4.785   5.689
 9733SOL    HW130098   5.317   4.787   5.666
 9733SOL    HW230099   5.468   4.822   5.613
 9734SOL     OW30100   5.862   1.879   5.742
 9734SOL    HW130101   5.860   1.948   5.669
 9734SOL    HW230102   5.940   1.896   5.802
 9735SOL     OW30103   3.291   4.560   0.744
 9735SOL    HW130104   3.257   4.468   0.762
 9735SOL    HW230105   3.246   4.597   0.663
 9736SOL     OW30106   3.303   1.774   1.673
 9736SOL    HW130107   3.296   1.755   1.575
 9736SOL    HW230108   3.250   1.856   1.695
 9737SOL     OW30109   4.428   2.406   4.564
 9737SOL    HW130110   4.438   2.338   4.492
 9737SOL    HW230111   4.402   2.360   4.650
 9738SOL     OW30112   2.858   0.994   2.167
 9738SOL    HW130113   2.949   1.007   2.126
 9738SOL    HW230114   2.788   1.030   2.106
 9739SOL     OW30115   5.804   4.404   1.687
 9739SOL    HW130116   5.712   4.390   1.651
 9739SOL    HW230117   5.798   4.424   1.785
 9740SOL     OW30118   6.455   3.844   2.846
 9740SOL    HW130119   6.539   3.877   2.802
 9740SOL    HW230120   6.376   3.885   2.800
 9741SOL     OW30121   4.102   1.353   2.113
 9741SOL    HW130122   4.030   1.421   2.126
 9741SOL    HW230123   4.061   1.264   2.093
 9742SOL     OW30124   4.574   1.582   3.741
 9742SOL    HW130125   4.662   1.625   3.761
 9742SOL    HW230126   4.568   1.564   3.643
 9743SOL     OW30127   1.155   1.670   5.631
 9743SOL    HW130128   1.095   1.750   5.636
 9743SOL    HW230129   1.208   1.674   5.547
 9744SOL     OW30130   2.537   0.632   1.856
 9744SOL    HW130131   2.593   0.598   1.932
 9744SOL    HW230132   2.586   0.618   1.770
 9745SOL     OW30133   0.655   0.558   4.918
 9745SOL    HW130134   0.578   0.620   4.898
 9745SOL    HW230135   0.690   0.577   5.009
 9746SOL     OW30136   6.799   0.650   3.784
 9746SOL    HW130137   6.746   0.577   3.826
 9746SOL    HW230138   6.745   0.693   3.712
 9747SOL     OW30139   0.246   0.395   6.501
 9747SOL    HW130140   0.317   0.338   6.543
 9747SOL    HW230141   0.227   0.473   6.560
 9748SOL     OW30142   0.926   4.360   4.327
 9748SOL    HW130143   0.890   4.306   4.251
 9748SOL    HW230144   0.963   4.446   4.292
 9749SOL     OW30145   0.498   5.077   4.137
 9749SOL    HW130146   0.562   5.109   4.206
 9749SOL    HW230147   0.538   5.089   4.046
 9750SOL     OW30148   3.183   5.316   2.524
 9750SOL    HW130149   3.103   5.257   2.522
 9750SOL    HW230150   3.259   5.267   2.568
 9751SOL     OW30151   1.484   2.697   0.903
 9751SOL    HW130152   1.512   2.744   0.819
 9751SOL    HW230153   1.555   2.632   0.930
 9752SOL     OW30154   4.364   0.836   5.826
 9752SOL    HW130155   4.339   0.870   5.917
 9752SOL    HW230156   4.288   0.853   5.762
 9753SOL     OW30157   0.069   6.592   6.937
 9753SOL    HW130158   0.130   6.574   7.014
 9753SOL    HW230159   0.104   6.545   6.855
 9754SOL     OW30160   0.076   3.053   6.165
 9754SOL    HW130161   0.169   3.050   6.203
 9754SOL    HW230162   0.044   3.147   6.161
 9755SOL     OW30163   3.518   5.493   5.627
 9755SOL    HW130164   3.576   5.411   5.629
 9755SOL    HW230165   3.438   5.475   5.570
 9756SOL     OW30166   5.212   2.621   5.560
 9756SOL    HW130167   5.115   2.644   5.549
 9756SOL    HW230168   5.260   2.638   5.474
 9757SOL     OW30169   6.622   0.822   3.614
 9757SOL    HW130170   6.601   0.868   3.528
 9757SOL    HW230171   6.539   0.782   3.652
 9758SOL     OW30172   3.388   0.488   0.249
 9758SOL    HW130173   3.486   0.492   0.268
 9758SOL    HW230174   3.373   0.439   0.163
 9759SOL     OW30175   3.449   5.667   1.432
 9759SOL    HW130176   3.461   5.752   1.379
 9759SOL    HW230177   3.362   5.670   1.480
 9760SOL     OW30178   5.489   4.764   5.960
 9760SOL    HW130179   5.576   4.810   5.942
 9760SOL    HW230180   5.438   4.753   5.875
 9761SOL     OW30181   5.406   5.238   2.751
 9761SOL    HW130182   5.439   5.320   2.799
 9761SOL    HW230183   5.386   5.167   2.818
 9762SOL     OW30184   3.469   0.837   2.945
 9762SOL    HW130185   3.392   0.840   2.881
 9762SOL    HW230186   3.441   0.872   3.034
 9763SOL     OW30187   1.792   1.656   1.986
 9763SOL    HW130188   1.817   1.712   1.907
 9763SOL    HW230189   1.693   1.641   1.988
 9764SOL     OW30190   1.108   2.636   2.765
 9764SOL    HW130191   1.114   2.733   2.790
 9764SOL    HW230192   1.193   2.608   2.721
 9765SOL     OW30193   0.246   0.715   5.583
 9765SOL    HW130194   0.176   0.738   5.515
 9765SOL    HW230195   0.336   0.721   5.540
 9766SOL     OW30196   2.035   0.445   3.083
 9766SOL    HW130197   2.040   0.448   2.983
 9766SOL    HW230198   2.125   0.465   3.122
 9767SOL     OW30199   5.044   0.361   5.587
 9767SOL    HW130200   5.006   0.379   5.678
 9767SOL    HW230201   5.050   0.262   5.573
 9768SOL     OW30202   4.917   2.438   4.345
 9768SOL    HW130203   4.818   2.447   4.351
 9768SOL    HW230204   4.955   2.421   4.436
 9769SOL     OW30205   0.196   1.854   1.171
 9769SOL    HW130206   0.243   1.772   1.139
 9769SOL    HW230207   0.256   1.933   1.158
 9770SOL     OW30208   0.437   3.160   5.638
 9770SOL    HW130209   0.364   3.154   5.570
 9770SOL    HW230210   0.444   3.074   5.688
 9771SOL     OW30211   2.985   5.487   3.665
 9771SOL    HW130212   2.994   5.468   3.763
 9771SOL    HW230213   2.980   5.585   3.650
 9772SOL     OW30214   5.936   6.773   0.662
 9772SOL    HW130215   5.905   6.710   0.733
 9772SOL    HW230216   6.007   6.728   0.607
 9773SOL     OW30217   4.752   5.085   3.808
 9773SOL    HW130218   4.690   5.162   3.792
 9773SOL    HW230219   4.721   5.006   3.755
 9774SOL     OW30220   6.995   4.922   4.571
 9774SOL    HW130221   0.035   4.984   4.519
 9774SOL    HW230222   0.004   4.828   4.557
 9775SOL     OW30223   3.078   2.104   4.568
 9775SOL    HW130224   3.058   2.145   4.657
 9775SOL    HW230225   2.998   2.114   4.508
 9776SOL     OW30226   0.321   4.685   4.024
 9776SOL    HW130227   0.292   4.638   3.940
 9776SOL    HW230228   0.403   4.738   4.006
 9777SOL     OW30229   4.833   5.843   6.089
 9777SOL    HW130230   4.887   5.782   6.030
 9777SOL    HW230231   4.765   5.890   6.033
 9778SOL     OW30232   3.894   0.529   4.505
 9778SOL    HW130233   3.828   0.457   4.527
 9778SOL    HW230234   3.926   0.517   4.411
 9779SOL     OW30235   3.097   2.203   6.979
 9779SOL    HW130236   3.116   2.120   6.926
 9779SOL    HW230237   3.084   2.280   6.918
 9780SOL     OW30238   2.907   4.295   0.760
 9780SOL    HW130239   2.925   4.391   0.781
 9780SOL    HW230240   2.956   4.237   0.825
 9781SOL     OW30241   1.400   6.563   4.412
 9781SOL    HW130242   1.341   6.520   4.344
 9781SOL    HW230243   1.400   6.508   4.496
 9782SOL     OW30244   5.895   0.203   0.452
 9782SOL    HW130245   5.850   0.240   0.371
 9782SOL    HW230246   5.963   0.269   0.485
 9783SOL     OW30247   6.136   0.441   3.303
 9783SOL    HW130248   6.192   0.474   3.228
 9783SOL    HW230249   6.193   0.430   3.385
 9784SOL     OW30250   5.842   0.445   4.415
 9784SOL    HW130251   5.764   0.444   4.353
 9784SOL    HW230252   5.810   0.451   4.509
 9785SOL     OW30253   0.813   2.865   1.471
 9785SOL    HW130254   0.870   2.936   1.428
 9785SOL    HW230255   0.859   2.831   1.553
 9786SOL     OW30256   2.438   6.718   4.709
 9786SOL    HW130257   2.432   6.654   4.632
 9786SOL    HW230258   2.365   6.787   4.699
 9787SOL     OW30259   5.796   4.310   1.149
 9787SOL    HW130260   5.790   4.409   1.140
 9787SOL    HW230261   5.883   4.286   1.193
 9788SOL     OW30262   6.812   0.949   5.808
 9788SOL    HW130263   6.888   0.950   5.743
 9788SOL    HW230264   6.737   1.005   5.772
 9789SOL     OW30265   1.749   4.805   4.566
 9789SOL    HW130266   1.817   4.760   4.508
 9789SOL    HW230267   1.793   4.878   4.619
 9790SOL     OW30268   6.901   1.407   3.567
 9790SOL    HW130269   6.958   1.329   3.540
 9790SOL    HW230270   6.913   1.425   3.665
 9791SOL     OW30271   1.372   2.432   1.328
 9791SOL    HW130272   1.400   2.516   1.374
 9791SOL    HW230273   1.355   2.361   1.397
 9792SOL     OW30274   3.306   5.539   2.132
 9792SOL    HW130275   3.394   5.509   2.168
 9792SOL    HW230276   3.306   5.638   2.121
 9793SOL     OW30277   5.495   5.931   2.233
 9793SOL    HW130278   5.448   5.843   2.225
 9793SOL    HW230279   5.452   5.998   2.173
 9794SOL     OW30280   3.768   3.105   6.430
 9794SOL    HW130281   3.670   3.085   6.423
 9794SOL    HW230282   3.820   3.035   6.381
 9795SOL     OW30283   2.135   5.218   3.353
 9795SOL    HW130284   2.196   5.225   3.431
 9795SOL    HW230285   2.187   5.191   3.272
 9796SOL     OW30286   3.607   5.059   0.461
 9796SOL    HW130287   3.592   4.998   0.383
 9796SOL    HW230288   3.704   5.081   0.468
 9797SOL     OW30289   5.325   3.459   5.394
 9797SOL    HW130290   5.421   3.449   5.418
 9797SOL    HW230291   5.317   3.510   5.308
 9798SOL     OW30292   2.676   1.684   1.836
 9798SOL    HW130293   2.662   1.783   1.834
 9798SOL    HW230294   2.731   1.657   1.757
 9799SOL     OW30295   3.454   3.798   2.521
 9799SOL    HW130296   3.444   3.874   2.586
 9799SOL    HW230297   3.373   3.740   2.525
 9800SOL     OW30298   3.826   5.324   0.403
 9800SOL    HW130299   3.734   5.349   0.433
 9800SOL    HW230300   3.876   5.407   0.377
 9801SOL     OW30301   5.189   5.100   1.365
 9801SOL    HW130302   5.234   5.036   1.303
 9801SOL    HW230303   5.150   5.050   1.442
 9802SOL     OW30304   0.738   5.581   1.586
 9802SOL    HW130305   0.796   5.616   1.660
 9802SOL    HW230306   0.750   5.638   1.505
 9803SOL     OW30307   5.255   0.340   6.440
 9803SOL    HW130308   5.270   0.244   6.416
 9803SOL    HW230309   5.288   0.398   6.366
 9804SOL     OW30310   4.867   5.353   4.088
 9804SOL    HW130311   4.839   5.415   4.015
 9804SOL    HW230312   4.809   5.272   4.087
 9805SOL     OW30313   3.655   3.872   1.049
 9805SOL    HW130314   3.665   3.796   0.986
 9805SOL    HW230315   3.716   3.860   1.127
 9806SOL     OW30316   6.723   1.761   2.518
 9806SOL    HW130317   6.801   1.738   2.461
 9806SOL    HW230318   6.638   1.749   2.466
 9807SOL     OW30319   2.194   3.433   1.350
 9807SOL    HW130320   2.294   3.423   1.352
 9807SOL    HW230321   2.165   3.452   1.256
 9808SOL     OW30322   1.991   1.827   4.151
 9808SOL    HW130323   1.936   1.900   4.192
 9808SOL    HW230324   2.061   1.798   4.216
 9809SOL     OW30325   0.802   0.946   4.572
 9809SOL    HW130326   0.803   0.855   4.530
 9809SOL    HW230327   0.747   1.008   4.516
 9810SOL     OW30328   4.114   1.512   2.649
 9810SOL    HW130329   4.029   1.539   2.695
 9810SOL    HW230330   4.128   1.414   2.660
 9811SOL     OW30331   1.126   0.370   2.840
 9811SOL    HW130332   1.105   0.276   2.814
 9811SOL    HW230333   1.137   0.375   2.939
 9812SOL     OW30334   5.901   3.185   5.794
 9812SOL    HW130335   5.931   3.242   5.871
 9812SOL    HW230336   5.849   3.240   5.730
 9813SOL     OW30337   6.510   4.282   0.318
 9813SOL    HW130338   6.580   4.223   0.357
 9813SOL    HW230339   6.466   4.235   0.241
 9814SOL     OW30340   6.414   1.085   6.061
 9814SOL    HW130341   6.478   1.161   6.063
 9814SOL    HW230342   6.437   1.023   5.987
 9815SOL     OW30343   6.827   4.462   2.143
 9815SOL    HW130344   6.916   4.426   2.171
 9815SOL    HW230345   6.841   4.545   2.089
 9816SOL     OW30346   6.236   1.398   5.604
 9816SOL    HW130347   6.259   1.335   5.679
 9816SOL    HW230348   6.152   1.368   5.560
 9817SOL     OW30349   2.418   1.045   0.398
 9817SOL    HW130350   2.406   1.002   0.309
 9817SOL    HW230351   2.512   1.029   0.430
 9818SOL     OW30352   0.241   6.799   2.088
 9818SOL    HW130353   0.182   6.870   2.049
 9818SOL    HW230354   0.229   6.796   2.187
 9819SOL     OW30355   6.409   1.838   4.337
 9819SOL    HW130356   6.509   1.829   4.346
 9819SOL    HW230357   6.372   1.881   4.419
 9820SOL     OW30358   3.852   1.330   6.411
 9820SOL    HW130359   3.881   1.411   6.462
 9820SOL    HW230360   3.827   1.356   6.318
 9821SOL     OW30361   4.625   3.390   0.105
 9821SOL    HW130362   4.608   3.340   0.019
 9821SOL    HW230363   4.619   3.488   0.088
 9822SOL     OW30364   3.445   4.898   4.268
 9822SOL    HW130365   3.477   4.993   4.263
 9822SOL    HW230366   3.523   4.837   4.260
 9823SOL     OW30367   4.248   6.813   3.451
 9823SOL    HW130368   4.224   6.732   3.397
 9823SOL    HW230369   4.189   6.889   3.424
 9824SOL     OW30370   1.104   5.805   5.193
 9824SOL    HW130371   1.045   5.762   5.125
 9824SOL    HW230372   1.101   5.904   5.183
 9825SOL     OW30373   1.087   6.086   5.174
 9825SOL    HW130374   1.181   6.114   5.191
 9825SOL    HW230375   1.044   6.151   5.111
 9826SOL     OW30376   1.880   5.884   6.513
 9826SOL    HW130377   1.807   5.891   6.581
 9826SOL    HW230378   1.934   5.802   6.530
 9827SOL     OW30379   1.875   4.699   1.335
 9827SOL    HW130380   1.865   4.645   1.418
 9827SOL    HW230381   1.899   4.793   1.360
 9828SOL     OW30382   4.860   2.246   4.058
 9828SOL    HW130383   4.924   2.169   4.065
 9828SOL    HW230384   4.881   2.314   4.128
 9829SOL     OW30385   5.314   5.025   5.464
 9829SOL    HW130386   5.294   4.993   5.371
 9829SOL    HW230387   5.410   5.006   5.486
 9830SOL     OW30388   6.401   1.197   3.376
 9830SOL    HW130389   6.367   1.114   3.332
 9830SOL    HW230390   6.498   1.188   3.396
 9831SOL     OW30391   0.049   5.286   1.864
 9831SOL    HW130392   0.148   5.274   1.871
 9831SOL    HW230393   0.017   5.244   1.779
 9832SOL     OW30394   4.801   6.346   4.950
 9832SOL    HW130395   4.719   6.292   4.933
 9832SOL    HW230396   4.846   6.366   4.863
 9833SOL     OW30397   4.051   3.277   4.821
 9833SOL    HW130398   4.090   3.190   4.790
 9833SOL    HW230399   3.971   3.300   4.765
 9834SOL     OW30400   3.035   5.960   6.072
 9834SOL    HW130401   2.952   6.016   6.075
 9834SOL    HW230402   3.107   6.008   6.022
 9835SOL     OW30403   3.715   3.206   3.868
 9835SOL    HW130404   3.681   3.127   3.817
 9835SOL    HW230405   3.762   3.175   3.951
 9836SOL     OW30406   6.477   3.158   5.297
 9836SOL    HW130407   6.462   3.236   5.358
 9836SOL    HW230408   6.502   3.191   5.206
 9837SOL     OW30409   6.890   0.915   3.553
 9837SOL    HW130410   6.949   0.904   3.633
 9837SOL    HW230411   6.794   0.915   3.581
 9838SOL     OW30412   0.353   5.568   0.954
 9838SOL    HW130413   0.288   5.496   0.978
 9838SOL    HW230414   0.440   5.551   1.000
 9839SOL     OW30415   4.202   6.382   3.401
 9839SOL    HW130416   4.299   6.371   3.379
 9839SOL    HW230417   4.190   6.375   3.500
 9840SOL     OW30418   6.576   1.908   6.838
 9840SOL    HW130419   6.477   1.923   6.844
 9840SOL    HW230420   6.602   1.835   6.901
 9841SOL     OW30421   0.188   5.997   2.115
 9841SOL    HW130422   0.232   6.082   2.084
 9841SOL    HW230423   0.095   5.992   2.079
 9842SOL     OW30424   3.909   0.403   0.490
 9842SOL    HW130425   3.896   0.371   0.397
 9842SOL    HW230426   3.948   0.329   0.546
 9843SOL     OW30427   0.305   0.214   0.551
 9843SOL    HW130428   0.401   0.206   0.578
 9843SOL    HW230429   0.297   0.274   0.472
 9844SOL     OW30430   5.034   0.419   5.113
 9844SOL    HW130431   5.067   0.390   5.023
 9844SOL    HW230432   5.053   0.517   5.126
 9845SOL     OW30433   1.315   3.881   2.042
 9845SOL    HW130434   1.406   3.890   2.083
 9845SOL    HW230435   1.318   3.816   1.966
 9846SOL     OW30436   5.617   2.053   2.515
 9846SOL    HW130437   5.646   2.149   2.516
 9846SOL    HW230438   5.692   1.996   2.549
 9847SOL     OW30439   3.799   4.279   6.805
 9847SOL    HW130440   3.787   4.372   6.839
 9847SOL    HW230441   3.839   4.281   6.714
 9848SOL     OW30442   2.911   4.126   5.538
 9848SOL    HW130443   2.873   4.217   5.557
 9848SOL    HW230444   3.011   4.133   5.533
 9849SOL     OW30445   1.914   2.302   3.003
 9849SOL    HW130446   1.980   2.377   3.011
 9849SOL    HW230447   1.951   2.220   3.047
 9850SOL     OW30448   1.258   0.279   4.567
 9850SOL    HW130449   1.336   0.258   4.626
 9850SOL    HW230450   1.195   0.339   4.616
 9851SOL     OW30451   3.354   5.198   3.615
 9851SOL    HW130452   3.314   5.106   3.616
 9851SOL    HW230453   3.381   5.223   3.708
 9852SOL     OW30454   2.251   6.750   0.370
 9852SOL    HW130455   2.293   6.826   0.322
 9852SOL    HW230456   2.204   6.690   0.305
 9853SOL     OW30457   0.421   4.315   3.744
 9853SOL    HW130458   0.339   4.362   3.711
 9853SOL    HW230459   0.412   4.295   3.841
 9854SOL     OW30460   6.310   3.355   6.728
 9854SOL    HW130461   6.214   3.331   6.718
 9854SOL    HW230462   6.367   3.275   6.711
 9855SOL     OW30463   1.214   5.741   6.952
 9855SOL    HW130464   1.238   5.680   0.007
 9855SOL    HW230465   1.256   5.831   6.967
 9856SOL     OW30466   5.287   3.861   3.256
 9856SOL    HW130467   5.310   3.955   3.279
 9856SOL    HW230468   5.215   3.828   3.318
 9857SOL     OW30469   5.024   0.616   6.073
 9857SOL    HW130470   5.063   0.524   6.067
 9857SOL    HW230471   5.093   0.683   6.046
 9858SOL     OW30472   6.824   5.485   2.361
 9858SOL    HW130473   6.830   5.432   2.445
 9858SOL    HW230474   6.854   5.429   2.284
 9859SOL     OW30475   0.737   5.159   2.409
 9859SOL    HW130476   0.789   5.236   2.371
 9859SOL    HW230477   0.711   5.097   2.335
 9860SOL     OW30478   1.770   3.307   3.972
 9860SOL    HW130479   1.797   3.403   3.959
 9860SOL    HW230480   1.674   3.304   4.000
 9861SOL     OW30481   3.257   1.761   4.047
 9861SOL    HW130482   3.350   1.740   4.019
 9861SOL    HW230483   3.201   1.779   3.967
 9862SOL     OW30484   1.972   3.006   6.729
 9862SOL    HW130485   1.995   3.090   6.778
 9862SOL    HW230486   1.901   3.025   6.661
 9863SOL     OW30487   4.143   6.392   1.997
 9863SOL    HW130488   4.201   6.313   2.018
 9863SOL    HW230489   4.159   6.421   1.903
 9864SOL     OW30490   3.010   6.156   5.364
 9864SOL    HW130491   3.001   6.104   5.279
 9864SOL    HW230492   3.095   6.131   5.410
 9865SOL     OW30493   2.500   6.114   6.368
 9865SOL    HW130494   2.407   6.149   6.371
 9865SOL    HW230495   2.562   6.178   6.414
 9866SOL     OW30496   6.854   5.284   6.295
 9866SOL    HW130497   6.842   5.267   6.198
 9866SOL    HW230498   6.870   5.382   6.310
 9867SOL     OW30499   4.793   1.152   2.568
 9867SOL    HW130500   4.820   1.082   2.502
 9867SOL    HW230501   4.796   1.242   2.524
 9868SOL     OW30502   2.382   4.433   3.076
 9868SOL    HW130503   2.311   4.399   3.014
 9868SOL    HW230504   2.458   4.469   3.023
 9869SOL     OW30505   6.231   2.605   2.953
 9869SOL    HW130506   6.225   2.640   3.046
 9869SOL    HW230507   6.296   2.529   2.950
 9870SOL     OW30508   2.041   2.541   3.062
 9870SOL    HW130509   1.950   2.562   3.028
 9870SOL    HW230510   2.038   2.532   3.162
 9871SOL     OW30511   5.716   5.880   3.132
 9871SOL    HW130512   5.727   5.783   3.109
 9871SOL    HW230513   5.804   5.917   3.162
 9872SOL     OW30514   1.182   6.513   5.562
 9872SOL    HW130515   1.226   6.568   5.632
 9872SOL    HW230516   1.152   6.426   5.602
 9873SOL     OW30517   0.416   0.529   5.191
 9873SOL    HW130518   0.490   0.590   5.162
 9873SOL    HW230519   0.454   0.455   5.246
 9874SOL     OW30520   0.273   1.855   3.560
 9874SOL    HW130521   0.252   1.767   3.601
 9874SOL    HW230522   0.190   1.897   3.524
 9875SOL     OW30523   6.423   5.962   0.740
 9875SOL    HW130524   6.386   6.054   0.726
 9875SOL    HW230525   6.374   5.917   0.814
 9876SOL     OW30526   0.112   0.017   3.702
 9876SOL    HW130527   0.168   6.970   3.750
 9876SOL    HW230528   0.170   0.093   3.672
 9877SOL     OW30529   1.525   5.933   5.105
 9877SOL    HW130530   1.564   5.852   5.147
 9877SOL    HW230531   1.598   5.993   5.073
 9878SOL     OW30532   4.188   3.112   0.025
 9878SOL    HW130533   4.244   3.156   0.096
 9878SOL    HW230534   4.097   3.094   0.062
 9879SOL     OW30535   5.536   6.044   4.283
 9879SOL    HW130536   5.500   6.128   4.324
 9879SOL    HW230537   5.601   6.067   4.211
 9880SOL     OW30538   3.783   1.226   1.068
 9880SOL    HW130539   3.715   1.270   1.126
 9880SOL    HW230540   3.866   1.282   1.065
 9881SOL     OW30541   6.507   0.233   3.207
 9881SOL    HW130542   6.508   0.301   3.280
 9881SOL    HW230543   6.429   0.171   3.220
 9882SOL     OW30544   3.352   3.200   4.478
 9882SOL    HW130545   3.423   3.173   4.542
 9882SOL    HW230546   3.339   3.299   4.483
 9883SOL     OW30547   1.882   5.807   2.855
 9883SOL    HW130548   1.813   5.753   2.806
 9883SOL    HW230549   1.886   5.777   2.950
 9884SOL     OW30550   3.373   2.643   5.322
 9884SOL    HW130551   3.408   2.610   5.410
 9884SOL    HW230552   3.342   2.565   5.267
 9885SOL     OW30553   5.168   2.256   5.338
 9885SOL    HW130554   5.069   2.251   5.336
 9885SOL    HW230555   5.202   2.220   5.425
 9886SOL     OW30556   2.962   6.285   1.327
 9886SOL    HW130557   2.911   6.367   1.305
 9886SOL    HW230558   3.059   6.300   1.308
 9887SOL     OW30559   4.102   0.814   6.655
 9887SOL    HW130560   4.137   0.802   6.562
 9887SOL    HW230561   4.005   0.789   6.658
 9888SOL     OW30562   6.544   6.410   3.782
 9888SOL    HW130563   6.542   6.493   3.726
 9888SOL    HW230564   6.482   6.421   3.859
 9889SOL     OW30565   6.218   6.122   2.323
 9889SOL    HW130566   6.154   6.048   2.341
 9889SOL    HW230567   6.285   6.127   2.398
 9890SOL     OW30568   1.941   3.185   2.977
 9890SOL    HW130569   1.989   3.246   3.039
 9890SOL    HW230570   1.971   3.203   2.883
 9891SOL     OW30571   4.206   6.421   1.718
 9891SOL    HW130572   4.302   6.428   1.692
 9891SOL    HW230573   4.156   6.502   1.687
 9892SOL     OW30574   1.773   5.977   3.163
 9892SOL    HW130575   1.719   6.044   3.111
 9892SOL    HW230576   1.715   5.898   3.184
 9893SOL     OW30577   5.584   4.481   5.344
 9893SOL    HW130578   5.580   4.395   5.394
 9893SOL    HW230579   5.667   4.484   5.289
 9894SOL     OW30580   4.200   3.949   6.013
 9894SOL    HW130581   4.119   3.892   5.996
 9894SOL    HW230582   4.249   3.962   5.927
 9895SOL     OW30583   5.238   1.875   6.162
 9895SOL    HW130584   5.258   1.832   6.074
 9895SOL    HW230585   5.291   1.832   6.234
 9896SOL     OW30586   4.080   3.988   0.538
 9896SOL    HW130587   4.069   4.061   0.471
 9896SOL    HW230588   4.021   3.911   0.514
 9897SOL     OW30589   1.031   1.516   2.519
 9897SOL    HW130590   0.950   1.566   2.489
 9897SOL    HW230591   1.024   1.421   2.489
 9898SOL     OW30592   0.617   5.124   0.207
 9898SOL    HW130593   0.532   5.171   0.183
 9898SOL    HW230594   0.620   5.110   0.306
 9899SOL     OW30595   4.005   5.317   2.064
 9899SOL    HW130596   3.974   5.379   2.135
 9899SOL    HW230597   3.927   5.266   2.028
 9900SOL     OW30598   2.146   5.011   3.912
 9900SOL    HW130599   2.214   4.991   3.982
 9900SOL    HW230600   2.102   4.926   3.882
 9901SOL     OW30601   2.824   1.398   5.665
 9901SOL    HW130602   2.839   1.494   5.639
 9901SOL    HW230603   2.803   1.394   5.763
 9902SOL     OW30604   3.952   4.064   0.274
 9902SOL    HW130605   3.888   3.987   0.263
 9902SOL    HW230606   4.043   4.036   0.244
 9903SOL     OW30607   3.057   1.244   1.137
 9903SOL    HW130608   3.131   1.177   1.138
 9903SOL    HW230609   3.028   1.264   1.230
 9904SOL     OW30610   6.664   6.572   2.112
 9904SOL    HW130611   6.687   6.654   2.164
 9904SOL    HW230612   6.568   6.550   2.125
 9905SOL     OW30613   2.466   6.935   6.356
 9905SOL    HW130614   2.447   6.960   6.451
 9905SOL    HW230615   2.492   7.016   6.304
 9906SOL     OW30616   3.335   4.428   6.067
 9906SOL    HW130617   3.256   4.423   6.005
 9906SOL    HW230618   3.380   4.338   6.071
 9907SOL     OW30619   0.834   6.758   2.727
 9907SOL    HW130620   0.896   6.778   2.803
 9907SOL    HW230621   0.851   6.666   2.693
 9908SOL     OW30622   6.740   2.838   5.138
 9908SOL    HW130623   6.713   2.750   5.177
 9908SOL    HW230624   6.837   2.837   5.116
 9909SOL     OW30625   2.465   6.680   2.753
 9909SOL    HW130626   2.466   6.582   2.733
 9909SOL    HW230627   2.418   6.696   2.839
 9910SOL     OW30628   0.562   5.651   0.561
 9910SOL    HW130629   0.524   5.688   0.477
 9910SOL    HW230630   0.555   5.551   0.560
 9911SOL     OW30631   3.734   4.855   2.398
 9911SOL    HW130632   3.723   4.882   2.302
 9911SOL    HW230633   3.646   4.858   2.444
 9912SOL     OW30634   5.571   6.410   0.411
 9912SOL    HW130635   5.587   6.379   0.505
 9912SOL    HW230636   5.602   6.504   0.401
 9913SOL     OW30637   5.008   2.349   3.106
 9913SOL    HW130638   4.970   2.344   3.014
 9913SOL    HW230639   5.025   2.256   3.140
 9914SOL     OW30640   1.997   5.226   4.002
 9914SOL    HW130641   2.045   5.142   3.980
 9914SOL    HW230642   2.023   5.257   4.094
 9915SOL     OW30643   6.360   4.663   4.139
 9915SOL    HW130644   6.366   4.763   4.147
 9915SOL    HW230645   6.319   4.625   4.222
 9916SOL     OW30646   2.094   3.634   0.494
 9916SOL    HW130647   2.079   3.536   0.481
 9916SOL    HW230648   2.149   3.649   0.576
 9917SOL     OW30649   2.081   3.308   4.344
 9917SOL    HW130650   2.125   3.324   4.255
 9917SOL    HW230651   1.984   3.332   4.338
 9918SOL     OW30652   2.073   1.148   4.595
 9918SOL    HW130653   2.001   1.158   4.527
 9918SOL    HW230654   2.148   1.094   4.558
 9919SOL     OW30655   0.981   5.363   1.094
 9919SOL    HW130656   0.952   5.418   1.015
 9919SOL    HW230657   1.014   5.424   1.166
 9920SOL     OW30658   3.702   0.457   3.078
 9920SOL    HW130659   3.690   0.528   3.147
 9920SOL    HW230660   3.635   0.472   3.004
 9921SOL     OW30661   4.671   0.795   2.385
 9921SOL    HW130662   4.590   0.855   2.385
 9921SOL    HW230663   4.745   0.840   2.436
 9922SOL     OW30664   5.495   2.777   2.002
 9922SOL    HW130665   5.498   2.680   1.978
 9922SOL    HW230666   5.449   2.828   1.930
 9923SOL     OW30667   6.453   0.241   6.348
 9923SOL    HW130668   6.423   0.327   6.389
 9923SOL    HW230669   6.451   0.169   6.418
 9924SOL     OW30670   5.192   1.131   3.745
 9924SOL    HW130671   5.267   1.195   3.728
 9924SOL    HW230672   5.164   1.137   3.841
 9925SOL     OW30673   4.061   2.218   4.978
 9925SOL    HW130674   4.112   2.297   5.012
 9925SOL    HW230675   3.968   2.220   5.013
 9926SOL     OW30676   2.241   1.502   5.707
 9926SOL    HW130677   2.268   1.417   5.661
 9926SOL    HW230678   2.192   1.561   5.642
 9927SOL     OW30679   1.255   3.684   3.618
 9927SOL    HW130680   1.263   3.589   3.590
 9927SOL    HW230681   1.316   3.740   3.563
 9928SOL     OW30682   6.921   2.584   2.229
 9928SOL    HW130683   6.998   2.581   2.292
 9928SOL    HW230684   6.855   2.513   2.255
 9929SOL     OW30685   1.373   5.186   5.501
 9929SOL    HW130686   1.279   5.163   5.477
 9929SOL    HW230687   1.391   5.159   5.595
 9930SOL     OW30688   6.614   5.254   6.504
 9930SOL    HW130689   6.701   5.229   6.461
 9930SOL    HW230690   6.609   5.214   6.595
 9931SOL     OW30691   2.160   4.207   6.968
 9931SOL    HW130692   2.145   4.301   6.936
 9931SOL    HW230693   2.192   4.151   6.892
 9932SOL     OW30694   2.176   2.219   1.374
 9932SOL    HW130695   2.132   2.132   1.352
 9932SOL    HW230696   2.170   2.237   1.472
 9933SOL     OW30697   0.818   1.488   3.248
 9933SOL    HW130698   0.783   1.530   3.332
 9933SOL    HW230699   0.883   1.550   3.204
 9934SOL     OW30700   4.872   0.995   6.008
 9934SOL    HW130701   4.871   1.003   6.108
 9934SOL    HW230702   4.825   1.073   5.968
 9935SOL     OW30703   2.638   3.371   0.601
 9935SOL    HW130704   2.601   3.287   0.562
 9935SOL    HW230705   2.580   3.448   0.575
 9936SOL     OW30706   4.983   6.532   6.785
 9936SOL    HW130707   4.885   6.540   6.769
 9936SOL    HW230708   5.026   6.485   6.708
 9937SOL     OW30709   1.546   6.647   4.187
 9937SOL    HW130710   1.589   6.558   4.174
 9937SOL    HW230711   1.485   6.644   4.266
 9938SOL     OW30712   6.840   1.643   3.158
 9938SOL    HW130713   6.755   1.693   3.139
 9938SOL    HW230714   6.838   1.556   3.110
 9939SOL     OW30715   2.900   3.749   1.401
 9939SOL    HW130716   2.928   3.674   1.461
 9939SOL    HW230717   2.976   3.813   1.389
 9940SOL     OW30718   0.250   1.029   3.104
 9940SOL    HW130719   0.324   1.045   3.169
 9940SOL    HW230720   0.287   1.019   3.012
 9941SOL     OW30721   6.075   2.996   0.517
 9941SOL    HW130722   6.102   3.057   0.442
 9941SOL    HW230723   6.070   3.049   0.602
 9942SOL     OW30724   5.961   5.436   2.578
 9942SOL    HW130725   5.876   5.385   2.580
 9942SOL    HW230726   5.942   5.534   2.584
 9943SOL     OW30727   1.151   4.513   5.477
 9943SOL    HW130728   1.132   4.432   5.532
 9943SOL    HW230729   1.144   4.490   5.380
 9944SOL     OW30730   2.633   5.830   6.902
 9944SOL    HW130731   2.609   5.803   6.809
 9944SOL    HW230732   2.728   5.862   6.905
 9945SOL     OW30733   6.506   3.161   5.814
 9945SOL    HW130734   6.478   3.138   5.907
 9945SOL    HW230735   6.485   3.085   5.753
 9946SOL     OW30736   5.683   2.167   1.917
 9946SOL    HW130737   5.628   2.166   1.833
 9946SOL    HW230738   5.626   2.196   1.994
 9947SOL     OW30739   0.649   0.470   3.023
 9947SOL    HW130740   0.697   0.438   2.941
 9947SOL    HW230741   0.557   0.500   2.999
 9948SOL     OW30742   5.729   0.779   5.525
 9948SOL    HW130743   5.820   0.772   5.484
 9948SOL    HW230744   5.723   0.717   5.603
 9949SOL     OW30745   6.417   3.186   3.130
 9949SOL    HW130746   6.415   3.094   3.170
 9949SOL    HW230747   6.385   3.182   3.035
 9950SOL     OW30748   4.634   5.276   6.201
 9950SOL    HW130749   4.686   5.356   6.171
 9950SOL    HW230750   4.550   5.269   6.147
 9951SOL     OW30751   0.094   2.175   2.884
 9951SOL    HW130752   0.153   2.249   2.917
 9951SOL    HW230753   0.139   2.087   2.899
 9952SOL     OW30754   1.621   4.589   1.425
 9952SOL    HW130755   1.658   4.608   1.335
 9952SOL    HW230756   1.528   4.552   1.416
 9953SOL     OW30757   6.089   4.590   4.912
 9953SOL    HW130758   6.125   4.683   4.923
 9953SOL    HW230759   6.110   4.557   4.821
 9954SOL     OW30760   4.589   1.510   1.481
 9954SOL    HW130761   4.622   1.416   1.470
 9954SOL    HW230762   4.577   1.551   1.390
 9955SOL     OW30763   6.182   4.728   1.098
 9955SOL    HW130764   6.151   4.687   1.012
 9955SOL    HW230765   6.279   4.710   1.111
 9956SOL     OW30766   1.452   3.881   3.533
 9956SOL    HW130767   1.491   3.815   3.469
 9956SOL    HW230768   1.520   3.905   3.602
 9957SOL     OW30769   5.579   6.719   0.360
 9957SOL    HW130770   5.485   6.754   0.365
 9957SOL    HW230771   5.631   6.775   0.296
 9958SOL     OW30772   6.307   6.287   5.588
 9958SOL    HW130773   6.381   6.222   5.577
 9958SOL    HW230774   6.306   6.322   5.681
 9959SOL     OW30775   5.714   5.346   6.804
 9959SOL    HW130776   5.746   5.379   6.715
 9959SOL    HW230777   5.793   5.324   6.861
 9960SOL     OW30778   6.825   0.096   6.588
 9960SOL    HW130779   6.800   0.135   6.676
 9960SOL    HW230780   6.907   0.143   6.553
 9961SOL     OW30781   3.461   0.300   0.538
 9961SOL    HW130782   3.427   0.331   0.449
 9961SOL    HW230783   3.428   0.362   0.610
 9962SOL     OW30784   3.691   0.315   1.318
 9962SOL    HW130785   3.676   0.414   1.312
 9962SOL    HW230786   3.605   0.267   1.302
 9963SOL     OW30787   1.260   0.429   6.778
 9963SOL    HW130788   1.231   0.364   6.850
 9963SOL    HW230789   1.353   0.460   6.797
 9964SOL     OW30790   4.527   5.409   5.538
 9964SOL    HW130791   4.486   5.330   5.491
 9964SOL    HW230792   4.537   5.389   5.635
 9965SOL     OW30793   2.131   4.644   4.367
 9965SOL    HW130794   2.162   4.697   4.446
 9965SOL    HW230795   2.209   4.621   4.309
 9966SOL     OW30796   2.665   5.433   2.104
 9966SOL    HW130797   2.693   5.494   2.029
 9966SOL    HW230798   2.565   5.429   2.108
 9967SOL     OW30799   0.224   0.652   2.583
 9967SOL    HW130800   0.274   0.572   2.618
 9967SOL    HW230801   0.126   0.631   2.581
 9968SOL     OW30802   4.745   6.366   0.171
 9968SOL    HW130803   4.843   6.371   0.190
 9968SOL    HW230804   4.694   6.378   0.256
 9969SOL     OW30805   0.148   6.076   2.857
 9969SOL    HW130806   0.220   6.019   2.895
 9969SOL    HW230807   0.132   6.154   2.917
 9970SOL     OW30808   7.014   3.482   1.835
 9970SOL    HW130809   0.024   3.416   1.767
 9970SOL    HW230810   7.001   3.571   1.792
 9971SOL     OW30811   6.746   5.132   5.616
 9971SOL    HW130812   6.761   5.230   5.624
 9971SOL    HW230813   6.787   5.085   5.694
 9972SOL     OW30814   2.992   4.747   6.089
 9972SOL    HW130815   2.918   4.681   6.102
 9972SOL    HW230816   3.070   4.720   6.145
 9973SOL     OW30817   2.971   2.221   3.122
 9973SOL    HW130818   2.904   2.295   3.136
 9973SOL    HW230819   2.996   2.217   3.025
 9974SOL     OW30820   0.792   2.907   2.920
 9974SOL    HW130821   0.825   2.891   3.013
 9974SOL    HW230822   0.709   2.854   2.905
 9975SOL     OW30823   1.405   4.017   0.011
 9975SOL    HW130824   1.398   4.093   6.967
 9975SOL    HW230825   1.439   4.051   0.099
 9976SOL     OW30826   3.909   6.123   5.398
 9976SOL    HW130827   3.934   6.096   5.306
 9976SOL    HW230828   3.812   6.102   5.414
 9977SOL     OW30829   4.427   0.440   5.442
 9977SOL    HW130830   4.394   0.358   5.489
 9977SOL    HW230831   4.351   0.483   5.392
 9978SOL     OW30832   6.578   2.780   0.280
 9978SOL    HW130833   6.564   2.878   0.266
 9978SOL    HW230834   6.552   2.730   0.197
 9979SOL     OW30835   3.706   4.051   3.815
 9979SOL    HW130836   3.788   4.002   3.786
 9979SOL    HW230837   3.672   4.107   3.739
 9980SOL     OW30838   0.270   6.970   0.097
 9980SOL    HW130839   0.311   6.947   0.008
 9980SOL    HW230840   0.254   0.048   0.102
 9981SOL     OW30841   5.994   1.258   0.379
 9981SOL    HW130842   6.079   1.221   0.341
 9981SOL    HW230843   5.995   1.248   0.478
 9982SOL     OW30844   2.665   2.079   4.624
 9982SOL    HW130845   2.724   2.094   4.545
 9982SOL    HW230846   2.580   2.034   4.594
 9983SOL     OW30847   0.120   2.822   2.188
 9983SOL    HW130848   0.073   2.737   2.210
 9983SOL    HW230849   0.148   2.820   2.092
 9984SOL     OW30850   0.812   4.780   0.869
 9984SOL    HW130851   0.793   4.774   0.966
 9984SOL    HW230852   0.861   4.698   0.839
 9985SOL     OW30853   4.999   4.389   6.732
 9985SOL    HW130854   5.093   4.357   6.744
 9985SOL    HW230855   4.950   4.381   6.819
 9986SOL     OW30856   5.419   4.841   6.677
 9986SOL    HW130857   5.338   4.884   6.718
 9986SOL    HW230858   5.391   4.776   6.607
 9987SOL     OW30859   4.573   2.304   0.682
 9987SOL    HW130860   4.659   2.323   0.634
 9987SOL    HW230861   4.589   2.309   0.781
 9988SOL     OW30862   5.896   6.635   3.480
 9988SOL    HW130863   5.873   6.655   3.384
 9988SOL    HW230864   5.843   6.695   3.540
 9989SOL     OW30865   5.673   6.050   1.394
 9989SOL    HW130866   5.737   6.031   1.320
 9989SOL    HW230867   5.579   6.049   1.359
 9990SOL     OW30868   0.456   6.015   2.720
 9990SOL    HW130869   0.447   6.062   2.808
 9990SOL    HW230870   0.438   5.917   2.733
 9991SOL     OW30871   1.689   4.060   1.606
 9991SOL    HW130872   1.787   4.042   1.613
 9991SOL    HW230873   1.638   3.981   1.641
 9992SOL     OW30874   2.424   4.954   6.487
 9992SOL    HW130875   2.474   4.925   6.405
 9992SOL    HW230876   2.326   4.962   6.466
 9993SOL     OW30877   3.815   6.971   4.862
 9993SOL    HW130878   3.853   0.041   4.881
 9993SOL    HW230879   3.719   6.980   4.837
 9994SOL     OW30880   5.975   5.101   4.756
 9994SOL    HW130881   5.940   5.193   4.774
 9994SOL    HW230882   6.069   5.094   4.788
 9995SOL     OW30883   4.555   1.421   6.297
 9995SOL    HW130884   4.466   1.414   6.343
 9995SOL    HW230885   4.616   1.349   6.331
 9996SOL     OW30886   2.641   5.064   0.877
 9996SOL    HW130887   2.555   5.044   0.924
 9996SOL    HW230888   2.654   4.998   0.803
 9997SOL     OW30889   6.643   1.020   2.933
 9997SOL    HW130890   6.684   0.971   3.010
 9997SOL    HW230891   6.715   1.053   2.871
 9998SOL     OW30892   5.290   3.572   2.705
 9998SOL    HW130893   5.302   3.567   2.606
 9998SOL    HW230894   5.263   3.665   2.731
 9999SOL     OW30895   0.694   6.670   5.102
 9999SOL    HW130896   0.786   6.695   5.074
 9999SOL    HW230897   0.642   6.640   5.022
10000SOL     OW30898   4.643   2.677   1.057
10000SOL    HW130899   4.652   2.759   1.114
10000SOL    HW230900   4.644   2.704   0.960
10001SOL     OW30901   4.121   6.695   1.742
10001SOL    HW130902   4.186   6.729   1.810
10001SOL    HW230903   4.082   6.772   1.692
10002SOL     OW30904   2.076   6.500   2.632
10002SOL    HW130905   1.978   6.510   2.649
10002SOL    HW230906   2.101   6.403   2.639
10003SOL     OW30907   1.234   0.839   2.169
10003SOL    HW130908   1.316   0.864   2.119
10003SOL    HW230909   1.171   0.792   2.108
10004SOL     OW30910   6.873   3.256   3.724
10004SOL    HW130911   6.810   3.217   3.791
10004SOL    HW230912   6.848   3.351   3.705
10005SOL     OW30913   2.364   5.374   2.605
10005SOL    HW130914   2.444   5.378   2.545
10005SOL    HW230915   2.286   5.337   2.555
10006SOL     OW30916   5.427   2.062   5.872
10006SOL    HW130917   5.477   2.018   5.797
10006SOL    HW230918   5.484   2.064   5.954
10007SOL     OW30919   1.633   5.252   3.776
10007SOL    HW130920   1.633   5.157   3.808
10007SOL    HW230921   1.589   5.257   3.686
10008SOL     OW30922   4.499   1.006   5.442
10008SOL    HW130923   4.411   1.030   5.484
10008SOL    HW230924   4.520   0.910   5.461
10009SOL     OW30925   0.892   5.173   1.663
10009SOL    HW130926   0.970   5.203   1.607
10009SOL    HW230927   0.839   5.105   1.613
10010SOL     OW30928   2.126   4.458   0.916
10010SOL    HW130929   2.058   4.463   0.990
10010SOL    HW230930   2.093   4.395   0.846
10011SOL     OW30931   3.147   3.490   0.125
10011SOL    HW130932   3.227   3.467   0.182
10011SOL    HW230933   3.151   3.438   0.040
10012SOL     OW30934   5.490   2.363   3.624
10012SOL    HW130935   5.511   2.280   3.572
10012SOL    HW230936   5.417   2.343   3.691
10013SOL     OW30937   0.780   6.280   5.054
10013SOL    HW130938   0.824   6.222   4.985
10013SOL    HW230939   0.699   6.234   5.090
10014SOL     OW30940   1.014   0.839   3.657
10014SOL    HW130941   0.928   0.865   3.702
10014SOL    HW230942   1.071   0.789   3.722
10015SOL     OW30943   4.350   7.015   6.759
10015SOL    HW130944   4.362   0.093   6.750
10015SOL    HW230945   4.407   6.981   6.834
10016SOL     OW30946   2.809   1.127   4.534
10016SOL    HW130947   2.876   1.151   4.604
10016SOL    HW230948   2.819   1.031   4.510
10017SOL     OW30949   3.180   1.526   2.817
10017SOL    HW130950   3.215   1.510   2.725
10017SOL    HW230951   3.212   1.454   2.879
10018SOL     OW30952   6.741   4.750   5.276
10018SOL    HW130953   6.693   4.797   5.202
10018SOL    HW230954   6.708   4.784   5.364
10019SOL     OW30955   6.811   2.135   2.433
10019SOL    HW130956   6.719   2.097   2.446
10019SOL    HW230957   6.860   2.135   2.520
10020SOL     OW30958   6.208   0.932   2.172
10020SOL    HW130959   6.273   0.950   2.098
10020SOL    HW230960   6.132   0.877   2.137
10021SOL     OW30961   1.213   3.585   1.463
10021SOL    HW130962   1.148   3.645   1.416
10021SOL    HW230963   1.183   3.571   1.557
10022SOL     OW30964   1.617   6.403   5.968
10022SOL    HW130965   1.674   6.329   5.933
10022SOL    HW230966   1.592   6.385   6.063
10023SOL     OW30967   0.553   1.656   5.958
10023SOL    HW130968   0.601   1.681   5.873
10023SOL    HW230969   0.491   1.580   5.939
10024SOL     OW30970   2.167   4.600   3.524
10024SOL    HW130971   2.214   4.547   3.454
10024SOL    HW230972   2.231   4.621   3.598
10025SOL     OW30973   0.725   2.611   1.387
10025SOL    HW130974   0.757   2.696   1.429
10025SOL    HW230975   0.755   2.533   1.441
10026SOL     OW30976   6.522   1.089   4.987
10026SOL    HW130977   6.434   1.112   5.029
10026SOL    HW230978   6.541   0.992   5.002
10027SOL     OW30979   3.715   1.071   5.349
10027SOL    HW130980   3.624   1.110   5.339
10027SOL    HW230981   3.712   0.996   5.414
10028SOL     OW30982   3.937   0.227   2.343
10028SOL    HW130983   4.026   0.200   2.305
10028SOL    HW230984   3.888   0.146   2.375
10029SOL     OW30985   6.713   4.724   3.888
10029SOL    HW130986   6.663   4.662   3.948
10029SOL    HW230987   6.698   4.818   3.916
10030SOL     OW30988   2.237   0.075   4.492
10030SOL    HW130989   2.262   0.148   4.556
10030SOL    HW230990   2.144   0.091   4.459
10031SOL     OW30991   2.036   6.317   3.565
10031SOL    HW130992   2.097   6.270   3.628
10031SOL    HW230993   2.014   6.408   3.602
10032SOL     OW30994   3.130   5.736   3.979
10032SOL    HW130995   3.221   5.750   3.940
10032SOL    HW230996   3.069   5.809   3.949
10033SOL     OW30997   2.783   1.233   5.122
10033SOL    HW130998   2.710   1.293   5.155
10033SOL    HW230999   2.872   1.274   5.143
10034SOL     OW31000   2.292   0.947   2.175
10034SOL    HW131001   2.299   0.868   2.114
10034SOL    HW231002   2.197   0.956   2.205
10035SOL     OW31003   7.019   3.019   2.783
10035SOL    HW131004   0.046   2.932   2.794
10035SOL    HW231005   6.923   3.001   2.760
10036SOL     OW31006   0.648   0.863   6.905
10036SOL    HW131007   0.609   0.870   6.813
10036SOL    HW231008   0.726   0.924   6.912
10037SOL     OW31009   5.947   0.056   5.766
10037SOL    HW131010   5.871   0.068   5.830
10037SOL    HW231011   6.018   0.124   5.787
10038SOL     OW31012   5.177   6.397   6.574
10038SOL    HW131013   5.231   6.376   6.492
10038SOL    HW231014   5.230   6.456   6.635
10039SOL     OW31015   6.996   5.533   1.889
10039SOL    HW131016   0.010   5.439   1.890
10039SOL    HW231017   0.042   5.592   1.935
10040SOL     OW31018   2.564   0.232   0.452
10040SOL    HW131019   2.627   0.256   0.526
10040SOL    HW231020   2.572   0.135   0.431
10041SOL     OW31021   5.752   4.981   5.265
10041SOL    HW131022   5.782   5.070   5.230
10041SOL    HW231023   5.829   4.917   5.264
10042SOL     OW31024   6.813   0.502   5.496
10042SOL    HW131025   6.822   0.485   5.594
10042SOL    HW231026   6.899   0.481   5.450
10043SOL     OW31027   0.480   0.522   2.689
10043SOL    HW131028   0.422   0.518   2.771
10043SOL    HW231029   0.507   0.616   2.672
10044SOL     OW31030   2.978   2.039   0.108
10044SOL    HW131031   2.930   1.967   0.057
10044SOL    HW231032   3.013   2.107   0.044
10045SOL     OW31033   3.952   6.548   4.226
10045SOL    HW131034   3.977   6.610   4.300
10045SOL    HW231035   4.013   6.563   4.147
10046SOL     OW31036   6.763   2.071   1.722
10046SOL    HW131037   6.831   2.016   1.672
10046SOL    HW231038   6.781   2.168   1.705
10047SOL     OW31039   1.073   2.327   3.187
10047SOL    HW131040   1.116   2.239   3.206
10047SOL    HW231041   0.995   2.341   3.249
10048SOL     OW31042   3.682   2.497   1.673
10048SOL    HW131043   3.618   2.569   1.698
10048SOL    HW231044   3.686   2.429   1.747
10049SOL     OW31045   1.824   6.254   4.466
10049SOL    HW131046   1.745   6.225   4.520
10049SOL    HW231047   1.804   6.342   4.423
10050SOL     OW31048   5.860   1.570   4.860
10050SOL    HW131049   5.861   1.499   4.790
10050SOL    HW231050   5.953   1.582   4.896
10051SOL     OW31051   6.369   2.575   0.495
10051SOL    HW131052   6.447   2.607   0.548
10051SOL    HW231053   6.371   2.475   0.489
10052SOL     OW31054   1.585   4.952   0.846
10052SOL    HW131055   1.642   4.885   0.894
10052SOL    HW231056   1.489   4.928   0.860
10053SOL     OW31057   2.865   6.385   3.388
10053SOL    HW131058   2.870   6.329   3.470
10053SOL    HW231059   2.869   6.482   3.414
10054SOL     OW31060   4.371   5.527   3.705
10054SOL    HW131061   4.289   5.578   3.676
10054SOL    HW231062   4.354   5.486   3.795
10055SOL     OW31063   6.110   2.812   6.615
10055SOL    HW131064   6.092   2.901   6.571
10055SOL    HW231065   6.187   2.768   6.570
10056SOL     OW31066   5.717   4.477   2.362
10056SOL    HW131067   5.681   4.384   2.370
10056SOL    HW231068   5.689   4.530   2.442
10057SOL     OW31069   2.534   2.147   3.516
10057SOL    HW131070   2.588   2.227   3.542
10057SOL    HW231071   2.570   2.109   3.431
10058SOL     OW31072   0.963   5.065   3.478
10058SOL    HW131073   0.973   5.087   3.576
10058SOL    HW231074   1.040   5.009   3.448
10059SOL     OW31075   5.352   0.510   1.401
10059SOL    HW131076   5.433   0.502   1.459
10059SOL    HW231077   5.302   0.593   1.424
10060SOL     OW31078   2.342   2.362   2.416
10060SOL    HW131079   2.334   2.455   2.452
10060SOL    HW231080   2.253   2.332   2.380
10061SOL     OW31081   6.251   1.935   5.046
10061SOL    HW131082   6.276   2.015   4.992
10061SOL    HW231083   6.153   1.918   5.036
10062SOL     OW31084   5.468   5.865   2.701
10062SOL    HW131085   5.372   5.882   2.678
10062SOL    HW231086   5.527   5.921   2.642
10063SOL     OW31087   0.734   2.785   2.541
10063SOL    HW131088   0.727   2.785   2.442
10063SOL    HW231089   0.658   2.838   2.580
10064SOL     OW31090   5.301   5.750   5.470
10064SOL    HW131091   5.346   5.774   5.383
10064SOL    HW231092   5.346   5.671   5.509
10065SOL     OW31093   0.831   6.787   3.167
10065SOL    HW131094   0.773   6.722   3.216
10065SOL    HW231095   0.926   6.756   3.170
10066SOL     OW31096   0.463   0.217   3.454
10066SOL    HW131097   0.524   0.217   3.534
10066SOL    HW231098   0.508   0.169   3.379
10067SOL     OW31099   5.051   6.705   3.556
10067SOL    HW131100   5.028   6.775   3.488
10067SOL    HW231101   5.144   6.720   3.589
10068SOL     OW31102   5.132   4.064   5.735
10068SOL    HW131103   5.076   4.063   5.818
10068SOL    HW231104   5.073   4.067   5.655
10069SOL     OW31105   4.855   1.075   3.742
10069SOL    HW131106   4.877   1.021   3.823
10069SOL    HW231107   4.796   1.152   3.768
10070SOL     OW31108   1.330   6.827   4.462
10070SOL    HW131109   1.340   6.756   4.392
10070SOL    HW231110   1.375   6.798   4.546
10071SOL     OW31111   4.930   4.747   4.987
10071SOL    HW131112   5.029   4.735   4.993
10071SOL    HW231113   4.890   4.672   4.936
10072SOL     OW31114   1.279   6.747   4.182
10072SOL    HW131115   1.250   6.809   4.110
10072SOL    HW231116   1.368   6.707   4.158
10073SOL     OW31117   6.808   5.564   6.370
10073SOL    HW131118   6.721   5.556   6.419
10073SOL    HW231119   6.792   5.598   6.278
10074SOL     OW31120   2.704   0.050   5.648
10074SOL    HW131121   2.625   0.049   5.587
10074SOL    HW231122   2.772   7.004   5.616
10075SOL     OW31123   1.459   2.296   4.026
10075SOL    HW131124   1.380   2.355   4.010
10075SOL    HW231125   1.427   2.203   4.047
10076SOL     OW31126   5.904   0.169   3.981
10076SOL    HW131127   5.814   0.211   3.970
10076SOL    HW231128   5.975   0.237   3.966
10077SOL     OW31129   2.673   1.304   0.068
10077SOL    HW131130   2.725   1.361   0.133
10077SOL    HW231131   2.584   1.281   0.108
10078SOL     OW31132   5.688   6.039   5.485
10078SOL    HW131133   5.688   6.011   5.581
10078SOL    HW231134   5.766   6.099   5.469
10079SOL     OW31135   6.921   2.591   5.864
10079SOL    HW131136   6.956   2.684   5.868
10079SOL    HW231137   6.974   2.533   5.927
10080SOL     OW31138   1.423   2.632   5.566
10080SOL    HW131139   1.453   2.554   5.512
10080SOL    HW231140   1.394   2.706   5.504
10081SOL     OW31141   0.421   1.285   0.406
10081SOL    HW131142   0.511   1.306   0.368
10081SOL    HW231143   0.391   1.195   0.374
10082SOL     OW31144   0.025   0.352   0.645
10082SOL    HW131145   0.093   0.343   0.572
10082SOL    HW231146   6.964   0.299   0.621
10083SOL     OW31147   5.363   1.468   4.464
10083SOL    HW131148   5.440   1.411   4.436
10083SOL    HW231149   5.312   1.499   4.383
10084SOL     OW31150   2.380   1.124   6.739
10084SOL    HW131151   2.462   1.075   6.710
10084SOL    HW231152   2.398   1.222   6.737
10085SOL     OW31153   0.788   5.473   2.497
10085SOL    HW131154   0.769   5.502   2.403
10085SOL    HW231155   0.830   5.549   2.548
10086SOL     OW31156   6.609   3.614   2.330
10086SOL    HW131157   6.587   3.522   2.299
10086SOL    HW231158   6.703   3.616   2.363
10087SOL     OW31159   1.601   0.212   3.997
10087SOL    HW131160   1.507   0.228   4.026
10087SOL    HW231161   1.662   0.219   4.076
10088SOL     OW31162   6.743   0.665   5.108
10088SOL    HW131163   6.703   0.573   5.110
10088SOL    HW231164   6.759   0.696   5.202
10089SOL     OW31165   2.000   2.580   2.523
10089SOL    HW131166   1.948   2.522   2.586
10089SOL    HW231167   1.996   2.540   2.431
10090SOL     OW31168   6.819   4.968   1.962
10090SOL    HW131169   6.905   4.963   2.014
10090SOL    HW231170   6.743   4.946   2.023
10091SOL     OW31171   0.744   2.184   3.895
10091SOL    HW131172   0.735   2.107   3.832
10091SOL    HW231173   0.653   2.215   3.922
10092SOL     OW31174   1.669   2.998   5.141
10092SOL    HW131175   1.599   2.926   5.144
10092SOL    HW231176   1.732   2.980   5.065
10093SOL     OW31177   0.328   5.753   6.513
10093SOL    HW131178   0.290   5.760   6.605
10093SOL    HW231179   0.257   5.775   6.446
10094SOL     OW31180   1.512   1.547   1.987
10094SOL    HW131181   1.448   1.530   2.062
10094SOL    HW231182   1.524   1.464   1.934
10095SOL     OW31183   0.323   1.511   5.844
10095SOL    HW131184   0.317   1.417   5.811
10095SOL    HW231185   0.243   1.532   5.900
10096SOL     OW31186   0.292   5.515   2.258
10096SOL    HW131187   0.279   5.611   2.285
10096SOL    HW231188   0.349   5.469   2.325
10097SOL     OW31189   1.673   2.630   6.030
10097SOL    HW131190   1.617   2.584   5.960
10097SOL    HW231191   1.619   2.700   6.076
10098SOL     OW31192   3.458   5.369   6.552
10098SOL    HW131193   3.528   5.320   6.501
10098SOL    HW231194   3.437   5.455   6.506
10099SOL     OW31195   6.923   5.071   4.804
10099SOL    HW131196   6.964   5.077   4.713
10099SOL    HW231197   6.993   5.090   4.873
10100SOL     OW31198   5.412   0.950   5.554
10100SOL    HW131199   5.326   1.001   5.548
10100SOL    HW231200   5.395   0.860   5.594
10101SOL     OW31201   6.769   4.870   2.668
10101SOL    HW131202   6.673   4.857   2.644
10101SOL    HW231203   6.826   4.857   2.587
10102SOL     OW31204   3.719   0.348   4.034
10102SOL    HW131205   3.789   0.280   4.054
10102SOL    HW231206   3.694   0.397   4.117
10103SOL     OW31207   1.526   1.927   0.331
10103SOL    HW131208   1.614   1.912   0.378
10103SOL    HW231209   1.520   1.866   0.252
10104SOL     OW31210   1.562   6.100   5.872
10104SOL    HW131211   1.541   6.106   5.970
10104SOL    HW231212   1.483   6.133   5.819
10105SOL     OW31213   3.021   0.577   0.150
10105SOL    HW131214   3.043   0.496   0.204
10105SOL    HW231215   2.947   0.556   0.087
10106SOL     OW31216   5.267   5.507   1.429
10106SOL    HW131217   5.230   5.477   1.517
10106SOL    HW231218   5.329   5.437   1.393
10107SOL     OW31219   5.621   0.973   5.757
10107SOL    HW131220   5.530   0.940   5.729
10107SOL    HW231221   5.686   0.956   5.683
10108SOL     OW31222   5.807   6.300   6.636
10108SOL    HW131223   5.842   6.306   6.729
10108SOL    HW231224   5.719   6.347   6.630
10109SOL     OW31225   4.596   5.874   3.383
10109SOL    HW131226   4.545   5.957   3.403
10109SOL    HW231227   4.602   5.818   3.466
10110SOL     OW31228   3.318   1.365   5.445
10110SOL    HW131229   3.264   1.444   5.416
10110SOL    HW231230   3.324   1.300   5.369
10111SOL     OW31231   0.140   2.818   2.960
10111SOL    HW131232   0.215   2.837   3.025
10111SOL    HW231233   0.179   2.798   2.870
10112SOL     OW31234   4.320   3.714   6.135
10112SOL    HW131235   4.294   3.801   6.094
10112SOL    HW231236   4.392   3.671   6.079
10113SOL     OW31237   4.249   6.737   0.643
10113SOL    HW131238   4.259   6.653   0.697
10113SOL    HW231239   4.336   6.758   0.599
10114SOL     OW31240   4.118   1.486   1.629
10114SOL    HW131241   4.217   1.479   1.618
10114SOL    HW231242   4.090   1.582   1.623
10115SOL     OW31243   1.270   1.724   4.028
10115SOL    HW131244   1.190   1.774   4.061
10115SOL    HW231245   1.345   1.733   4.095
10116SOL     OW31246   0.635   0.543   0.720
10116SOL    HW131247   0.718   0.493   0.743
10116SOL    HW231248   0.560   0.510   0.778
10117SOL     OW31249   4.737   0.650   5.514
10117SOL    HW131250   4.645   0.672   5.482
10117SOL    HW231251   4.802   0.661   5.439
10118SOL     OW31252   5.897   4.925   2.270
10118SOL    HW131253   5.909   4.844   2.212
10118SOL    HW231254   5.945   5.003   2.229
10119SOL     OW31255   2.481   0.233   5.856
10119SOL    HW131256   2.554   0.165   5.855
10119SOL    HW231257   2.392   0.186   5.854
10120SOL     OW31258   5.763   3.259   3.752
10120SOL    HW131259   5.744   3.281   3.656
10120SOL    HW231260   5.676   3.249   3.802
10121SOL     OW31261   5.661   4.982   3.953
10121SOL    HW131262   5.724   4.908   3.973
10121SOL    HW231263   5.624   4.971   3.860
10122SOL     OW31264   5.127   3.291   6.732
10122SOL    HW131265   5.102   3.345   6.813
10122SOL    HW231266   5.112   3.194   6.751
10123SOL     OW31267   6.901   6.735   0.391
10123SOL    HW131268   6.957   6.749   0.309
10123SOL    HW231269   6.896   6.637   0.412
10124SOL     OW31270   2.992   4.467   1.080
10124SOL    HW131271   2.979   4.440   1.176
10124SOL    HW231272   2.922   4.533   1.054
10125SOL     OW31273   2.112   0.561   0.948
10125SOL    HW131274   2.054   0.550   1.029
10125SOL    HW231275   2.063   0.614   0.879
10126SOL     OW31276   5.311   5.137   6.735
10126SOL    HW131277   5.280   5.059   6.789
10126SOL    HW231278   5.378   5.189   6.788
10127SOL     OW31279   3.423   4.813   5.569
10127SOL    HW131280   3.336   4.836   5.525
10127SOL    HW231281   3.414   4.727   5.618
10128SOL     OW31282   0.081   2.134   1.523
10128SOL    HW131283   0.079   2.186   1.437
10128SOL    HW231284   0.036   2.045   1.509
10129SOL     OW31285   5.080   2.764   3.420
10129SOL    HW131286   5.123   2.723   3.340
10129SOL    HW231287   5.118   2.856   3.435
10130SOL     OW31288   6.113   6.013   1.208
10130SOL    HW131289   6.020   5.980   1.190
10130SOL    HW231290   6.116   6.053   1.300
10131SOL     OW31291   6.884   0.266   0.087
10131SOL    HW131292   6.969   0.318   0.094
10131SOL    HW231293   6.806   0.328   0.090
10132SOL     OW31294   2.225   0.032   2.667
10132SOL    HW131295   2.304   6.999   2.695
10132SOL    HW231296   2.208   0.105   2.734
10133SOL     OW31297   5.662   4.794   2.271
10133SOL    HW131298   5.596   4.851   2.221
10133SOL    HW231299   5.754   4.830   2.258
10134SOL     OW31300   0.425   1.479   1.826
10134SOL    HW131301   0.517   1.500   1.793
10134SOL    HW231302   0.402   1.541   1.901
10135SOL     OW31303   3.068   6.077   2.924
10135SOL    HW131304   2.992   6.122   2.877
10135SOL    HW231305   3.149   6.079   2.865
10136SOL     OW31306   6.855   0.153   2.324
10136SOL    HW131307   6.942   0.105   2.337
10136SOL    HW231308   6.872   0.246   2.291
10137SOL     OW31309   5.675   5.176   4.166
10137SOL    HW131310   5.628   5.129   4.241
10137SOL    HW231311   5.691   5.112   4.091
10138SOL     OW31312   5.468   2.318   6.173
10138SOL    HW131313   5.424   2.357   6.092
10138SOL    HW231314   5.401   2.305   6.246
10139SOL     OW31315   3.941   3.044   3.329
10139SOL    HW131316   3.844   3.029   3.346
10139SOL    HW231317   3.958   3.052   3.231
10140SOL     OW31318   0.772   5.318   4.547
10140SOL    HW131319   0.871   5.323   4.543
10140SOL    HW231320   0.743   5.223   4.538
10141SOL     OW31321   2.427   0.714   4.002
10141SOL    HW131322   2.466   0.693   4.091
10141SOL    HW231323   2.400   0.810   3.999
10142SOL     OW31324   5.038   6.127   4.179
10142SOL    HW131325   4.973   6.058   4.211
10142SOL    HW231326   5.057   6.112   4.082
10143SOL     OW31327   4.705   5.950   1.477
10143SOL    HW131328   4.768   5.882   1.516
10143SOL    HW231329   4.611   5.921   1.494
10144SOL     OW31330   2.811   4.755   3.033
10144SOL    HW131331   2.822   4.786   3.128
10144SOL    HW231332   2.880   4.798   2.975
10145SOL     OW31333   3.180   6.868   5.825
10145SOL    HW131334   3.113   6.838   5.894
10145SOL    HW231335   3.232   6.946   5.861
10146SOL     OW31336   5.183   4.837   4.291
10146SOL    HW131337   5.169   4.891   4.208
10146SOL    HW231338   5.184   4.740   4.268
10147SOL     OW31339   4.753   5.715   4.588
10147SOL    HW131340   4.852   5.715   4.602
10147SOL    HW231341   4.712   5.790   4.640
10148SOL     OW31342   6.048   5.062   0.085
10148SOL    HW131343   6.137   5.093   0.119
10148SOL    HW231344   6.024   4.975   0.128
10149SOL     OW31345   4.092   3.630   1.113
10149SOL    HW131346   4.152   3.551   1.100
10149SOL    HW231347   4.073   3.641   1.210
10150SOL     OW31348   5.496   4.130   0.997
10150SOL    HW131349   5.494   4.194   0.920
10150SOL    HW231350   5.589   4.098   1.013
10151SOL     OW31351   1.160   6.044   5.935
10151SOL    HW131352   1.192   5.990   5.858
10151SOL    HW231353   1.231   6.048   6.005
10152SOL     OW31354   6.949   5.600   3.900
10152SOL    HW131355   6.935   5.612   3.801
10152SOL    HW231356   6.931   5.505   3.925
10153SOL     OW31357   5.671   6.270   3.753
10153SOL    HW131358   5.721   6.315   3.678
10153SOL    HW231359   5.593   6.325   3.779
10154SOL     OW31360   6.589   5.895   5.490
10154SOL    HW131361   6.657   5.948   5.440
10154SOL    HW231362   6.546   5.952   5.559
10155SOL     OW31363   3.716   1.465   6.150
10155SOL    HW131364   3.764   1.463   6.063
10155SOL    HW231365   3.626   1.507   6.138
10156SOL     OW31366   5.428   6.994   2.272
10156SOL    HW131367   5.346   0.006   2.319
10156SOL    HW231368   5.477   0.051   2.233
10157SOL     OW31369   4.765   0.889   4.615
10157SOL    HW131370   4.773   0.828   4.694
10157SOL    HW231371   4.675   0.931   4.614
10158SOL     OW31372   4.524   3.546   5.956
10158SOL    HW131373   4.521   3.446   5.952
10158SOL    HW231374   4.611   3.578   5.919
10159SOL     OW31375   1.515   1.276   6.426
10159SOL    HW131376   1.607   1.315   6.418
10159SOL    HW231377   1.455   1.321   6.360
10160SOL     OW31378   1.026   5.848   3.209
10160SOL    HW131379   1.011   5.750   3.224
10160SOL    HW231380   1.120   5.863   3.176
10161SOL     OW31381   1.825   6.050   5.852
10161SOL    HW131382   1.731   6.079   5.866
10161SOL    HW231383   1.854   5.991   5.927
10162SOL     OW31384   3.444   2.445   6.904
10162SOL    HW131385   3.514   2.416   6.969
10162SOL    HW231386   3.360   2.467   6.954
10163SOL     OW31387   0.139   2.826   5.405
10163SOL    HW131388   0.043   2.800   5.394
10163SOL    HW231389   0.187   2.753   5.453
10164SOL     OW31390   0.898   2.422   5.091
10164SOL    HW131391   0.947   2.418   5.004
10164SOL    HW231392   0.840   2.342   5.102
10165SOL     OW31393   6.795   2.056   3.370
10165SOL    HW131394   6.854   2.106   3.307
10165SOL    HW231395   6.700   2.067   3.342
10166SOL     OW31396   0.681   1.160   2.002
10166SOL    HW131397   0.691   1.207   1.914
10166SOL    HW231398   0.632   1.220   2.066
10167SOL     OW31399   5.015   0.569   1.121
10167SOL    HW131400   4.935   0.550   1.178
10167SOL    HW231401   5.080   0.494   1.130
10168SOL     OW31402   6.620   4.164   4.610
10168SOL    HW131403   6.705   4.156   4.558
10168SOL    HW231404   6.638   4.213   4.695
10169SOL     OW31405   6.484   4.330   4.421
10169SOL    HW131406   6.483   4.274   4.338
10169SOL    HW231407   6.493   4.271   4.501
10170SOL     OW31408   1.482   3.852   4.898
10170SOL    HW131409   1.519   3.901   4.819
10170SOL    HW231410   1.388   3.880   4.913
10171SOL     OW31411   6.059   3.072   5.615
10171SOL    HW131412   6.145   3.124   5.611
10171SOL    HW231413   5.992   3.122   5.670
10172SOL     OW31414   4.556   1.119   4.309
10172SOL    HW131415   4.530   1.031   4.269
10172SOL    HW231416   4.512   1.128   4.399
10173SOL     OW31417   2.302   2.119   2.886
10173SOL    HW131418   2.253   2.205   2.872
10173SOL    HW231419   2.313   2.073   2.798
10174SOL     OW31420   6.105   4.514   0.631
10174SOL    HW131421   6.149   4.437   0.585
10174SOL    HW231422   6.025   4.543   0.580
10175SOL     OW31423   6.348   2.609   6.213
10175SOL    HW131424   6.310   2.546   6.281
10175SOL    HW231425   6.276   2.669   6.178
10176SOL     OW31426   2.114   3.691   0.181
10176SOL    HW131427   2.055   3.626   0.228
10176SOL    HW231428   2.088   3.784   0.206
10177SOL     OW31429   2.050   0.445   5.869
10177SOL    HW131430   2.019   0.384   5.796
10177SOL    HW231431   2.075   0.390   5.949
10178SOL     OW31432   5.718   2.967   5.386
10178SOL    HW131433   5.727   2.896   5.316
10178SOL    HW231434   5.679   2.926   5.469
10179SOL     OW31435   0.485   3.314   6.348
10179SOL    HW131436   0.507   3.411   6.346
10179SOL    HW231437   0.569   3.261   6.351
10180SOL     OW31438   2.611   6.515   6.042
10180SOL    HW131439   2.665   6.491   6.123
10180SOL    HW231440   2.598   6.614   6.039
10181SOL     OW31441   5.759   3.396   1.442
10181SOL    HW131442   5.783   3.463   1.372
10181SOL    HW231443   5.842   3.354   1.478
10182SOL     OW31444   4.489   1.616   0.437
10182SOL    HW131445   4.503   1.710   0.469
10182SOL    HW231446   4.573   1.582   0.395
10183SOL     OW31447   1.860   1.478   6.650
10183SOL    HW131448   1.824   1.436   6.567
10183SOL    HW231449   1.867   1.577   6.637
10184SOL     OW31450   4.896   0.386   6.770
10184SOL    HW131451   4.873   0.289   6.773
10184SOL    HW231452   4.819   0.438   6.733
10185SOL     OW31453   4.795   1.190   0.055
10185SOL    HW131454   4.772   1.155   6.985
10185SOL    HW231455   4.739   1.271   0.074
10186SOL     OW31456   4.465   2.129   3.102
10186SOL    HW131457   4.458   2.051   3.039
10186SOL    HW231458   4.377   2.175   3.109
10187SOL     OW31459   0.603   2.384   2.059
10187SOL    HW131460   0.620   2.292   2.094
10187SOL    HW231461   0.521   2.421   2.102
10188SOL     OW31462   3.868   4.606   1.116
10188SOL    HW131463   3.935   4.672   1.150
10188SOL    HW231464   3.914   4.539   1.058
10189SOL     OW31465   1.274   6.660   5.770
10189SOL    HW131466   1.339   6.730   5.800
10189SOL    HW231467   1.276   6.583   5.833
10190SOL     OW31468   4.686   2.599   0.023
10190SOL    HW131469   4.632   2.628   6.964
10190SOL    HW231470   4.765   2.659   0.033
10191SOL     OW31471   6.867   4.711   6.583
10191SOL    HW131472   6.885   4.797   6.534
10191SOL    HW231473   6.886   4.724   6.680
10192SOL     OW31474   3.709   1.419   0.365
10192SOL    HW131475   3.750   1.413   0.273
10192SOL    HW231476   3.733   1.507   0.406
10193SOL     OW31477   4.164   4.287   0.796
10193SOL    HW131478   4.127   4.379   0.782
10193SOL    HW231479   4.104   4.235   0.856
10194SOL     OW31480   5.114   2.966   5.319
10194SOL    HW131481   5.100   2.952   5.417
10194SOL    HW231482   5.172   3.046   5.304
10195SOL     OW31483   6.130   4.006   1.770
10195SOL    HW131484   6.041   3.960   1.779
10195SOL    HW231485   6.136   4.050   1.680
10196SOL     OW31486   0.351   1.543   4.839
10196SOL    HW131487   0.380   1.535   4.744
10196SOL    HW231488   0.372   1.459   4.888
10197SOL     OW31489   5.441   0.688   6.867
10197SOL    HW131490   5.366   0.684   6.933
10197SOL    HW231491   5.433   0.611   6.803
10198SOL     OW31492   4.481   6.868   3.252
10198SOL    HW131493   4.561   6.896   3.304
10198SOL    HW231494   4.404   6.853   3.315
10199SOL     OW31495   0.563   2.126   5.382
10199SOL    HW131496   0.630   2.077   5.437
10199SOL    HW231497   0.510   2.187   5.440
10200SOL     OW31498   5.213   1.838   1.628
10200SOL    HW131499   5.247   1.894   1.704
10200SOL    HW231500   5.119   1.864   1.607
10201SOL     OW31501   1.071   3.662   0.530
10201SOL    HW131502   1.083   3.732   0.600
10201SOL    HW231503   1.158   3.614   0.515
10202SOL     OW31504   4.806   0.534   4.294
10202SOL    HW131505   4.848   0.582   4.218
10202SOL    HW231506   4.742   0.595   4.341
10203SOL     OW31507   6.986   2.747   4.838
10203SOL    HW131508   0.061   2.756   4.812
10203SOL    HW231509   6.980   2.709   4.930
10204SOL     OW31510   5.610   5.103   6.497
10204SOL    HW131511   5.641   5.055   6.579
10204SOL    HW231512   5.672   5.083   6.422
10205SOL     OW31513   0.856   1.082   6.473
10205SOL    HW131514   0.947   1.123   6.485
10205SOL    HW231515   0.786   1.153   6.478
10206SOL     OW31516   1.740   0.825   4.875
10206SOL    HW131517   1.655   0.815   4.824
10206SOL    HW231518   1.724   0.886   4.953
10207SOL     OW31519   2.323   2.410   5.093
10207SOL    HW131520   2.287   2.353   5.019
10207SOL    HW231521   2.311   2.363   5.181
10208SOL     OW31522   6.984   6.321   5.454
10208SOL    HW131523   0.031   6.292   5.386
10208SOL    HW231524   7.018   6.302   5.545
10209SOL     OW31525   0.282   6.815   6.172
10209SOL    HW131526   0.270   6.803   6.073
10209SOL    HW231527   0.328   6.902   6.190
10210SOL     OW31528   3.276   0.282   1.626
10210SOL    HW131529   3.307   0.196   1.587
10210SOL    HW231530   3.282   0.354   1.557
10211SOL     OW31531   5.258   5.513   5.953
10211SOL    HW131532   5.174   5.459   5.952
10211SOL    HW231533   5.335   5.454   5.975
10212SOL     OW31534   0.685   0.580   6.551
10212SOL    HW131535   0.592   0.587   6.587
10212SOL    HW231536   0.686   0.516   6.474
10213SOL     OW31537   6.835   2.493   1.082
10213SOL    HW131538   6.807   2.449   0.996
10213SOL    HW231539   6.761   2.483   1.149
10214SOL     OW31540   1.426   2.375   0.091
10214SOL    HW131541   1.443   2.327   0.177
10214SOL    HW231542   1.334   2.414   0.093
10215SOL     OW31543   2.926   3.669   2.030
10215SOL    HW131544   2.859   3.596   2.014
10215SOL    HW231545   2.929   3.691   2.127
10216SOL     OW31546   0.682   6.319   1.857
10216SOL    HW131547   0.654   6.242   1.798
10216SOL    HW231548   0.682   6.403   1.803
10217SOL     OW31549   3.517   1.563   5.053
10217SOL    HW131550   3.423   1.528   5.062
10217SOL    HW231551   3.514   1.662   5.037
10218SOL     OW31552   0.859   3.272   2.625
10218SOL    HW131553   0.834   3.232   2.536
10218SOL    HW231554   0.948   3.236   2.654
10219SOL     OW31555   6.801   5.878   3.031
10219SOL    HW131556   6.719   5.841   3.074
10219SOL    HW231557   6.852   5.805   2.986
10220SOL     OW31558   3.499   3.340   0.492
10220SOL    HW131559   3.542   3.321   0.580
10220SOL    HW231560   3.410   3.295   0.487
10221SOL     OW31561   0.693   5.612   4.029
10221SOL    HW131562   0.715   5.564   4.114
10221SOL    HW231563   0.597   5.641   4.031
10222SOL     OW31564   3.447   3.771   3.591
10222SOL    HW131565   3.359   3.732   3.617
10222SOL    HW231566   3.438   3.819   3.504
10223SOL     OW31567   2.326   6.535   0.828
10223SOL    HW131568   2.297   6.482   0.907
10223SOL    HW231569   2.413   6.579   0.847
10224SOL     OW31570   6.592   4.242   2.844
10224SOL    HW131571   6.500   4.230   2.882
10224SOL    HW231572   6.589   4.232   2.745
10225SOL     OW31573   2.047   3.543   5.790
10225SOL    HW131574   2.137   3.550   5.748
10225SOL    HW231575   1.978   3.531   5.719
10226SOL     OW31576   5.233   4.323   0.196
10226SOL    HW131577   5.311   4.344   0.255
10226SOL    HW231578   5.152   4.371   0.229
10227SOL     OW31579   5.905   3.514   1.223
10227SOL    HW131580   5.929   3.561   1.139
10227SOL    HW231581   5.989   3.488   1.272
10228SOL     OW31582   5.170   0.485   0.672
10228SOL    HW131583   5.108   0.408   0.684
10228SOL    HW231584   5.223   0.472   0.588
10229SOL     OW31585   0.440   2.583   5.189
10229SOL    HW131586   0.425   2.570   5.090
10229SOL    HW231587   0.533   2.556   5.213
10230SOL     OW31588   6.657   6.129   1.464
10230SOL    HW131589   6.728   6.142   1.533
10230SOL    HW231590   6.693   6.076   1.388
10231SOL     OW31591   0.575   4.295   2.599
10231SOL    HW131592   0.659   4.244   2.579
10231SOL    HW231593   0.507   4.233   2.638
10232SOL     OW31594   4.964   4.401   2.712
10232SOL    HW131595   5.038   4.416   2.778
10232SOL    HW231596   4.989   4.442   2.625
10233SOL     OW31597   2.439   4.351   5.397
10233SOL    HW131598   2.520   4.293   5.382
10233SOL    HW231599   2.357   4.294   5.395
10234SOL     OW31600   0.844   1.098   2.291
10234SOL    HW131601   0.815   1.096   2.196
10234SOL    HW231602   0.916   1.031   2.306
10235SOL     OW31603   1.180   1.056   3.073
10235SOL    HW131604   1.232   1.014   2.999
10235SOL    HW231605   1.088   1.019   3.075
10236SOL     OW31606   1.520   6.800   2.436
10236SOL    HW131607   1.499   6.806   2.338
10236SOL    HW231608   1.454   6.738   2.480
10237SOL     OW31609   0.449   3.367   4.479
10237SOL    HW131610   0.439   3.361   4.578
10237SOL    HW231611   0.516   3.438   4.457
10238SOL     OW31612   2.692   6.908   1.673
10238SOL    HW131613   2.605   6.902   1.624
10238SOL    HW231614   2.744   6.987   1.640
10239SOL     OW31615   0.520   1.732   4.905
10239SOL    HW131616   0.482   1.823   4.888
10239SOL    HW231617   0.453   1.663   4.880
10240SOL     OW31618   2.057   6.302   0.929
10240SOL    HW131619   2.010   6.254   0.855
10240SOL    HW231620   2.003   6.381   0.957
10241SOL     OW31621   4.396   3.490   1.307
10241SOL    HW131622   4.363   3.398   1.328
10241SOL    HW231623   4.477   3.484   1.249
10242SOL     OW31624   6.867   3.005   0.433
10242SOL    HW131625   6.864   2.905   0.430
10242SOL    HW231626   6.774   3.041   0.438
10243SOL     OW31627   3.066   6.280   2.003
10243SOL    HW131628   2.988   6.341   2.018
10243SOL    HW231629   3.131   6.323   1.941
10244SOL     OW31630   3.058   5.361   1.927
10244SOL    HW131631   3.054   5.287   1.860
10244SOL    HW231632   3.041   5.324   2.018
10245SOL     OW31633   5.429   4.448   1.096
10245SOL    HW131634   5.333   4.471   1.109
10245SOL    HW231635   5.486   4.525   1.127
10246SOL     OW31636   3.369   3.325   4.142
10246SOL    HW131637   3.413   3.363   4.061
10246SOL    HW231638   3.284   3.375   4.159
10247SOL     OW31639   0.887   3.081   4.708
10247SOL    HW131640   0.863   3.018   4.782
10247SOL    HW231641   0.822   3.157   4.706
10248SOL     OW31642   0.841   1.027   5.129
10248SOL    HW131643   0.908   1.093   5.163
10248SOL    HW231644   0.751   1.049   5.167
10249SOL     OW31645   2.370   4.960   6.052
10249SOL    HW131646   2.349   4.908   5.969
10249SOL    HW231647   2.469   4.974   6.058
10250SOL     OW31648   3.281   2.215   0.748
10250SOL    HW131649   3.240   2.214   0.839
10250SOL    HW231650   3.265   2.127   0.703
10251SOL     OW31651   1.575   0.690   4.406
10251SOL    HW131652   1.600   0.671   4.311
10251SOL    HW231653   1.483   0.653   4.424
10252SOL     OW31654   4.488   4.648   5.777
10252SOL    HW131655   4.462   4.570   5.720
10252SOL    HW231656   4.437   4.646   5.863
10253SOL     OW31657   3.882   6.130   6.485
10253SOL    HW131658   3.981   6.137   6.476
10253SOL    HW231659   3.859   6.044   6.528
10254SOL     OW31660   6.583   1.451   5.661
10254SOL    HW131661   6.576   1.502   5.746
10254SOL    HW231662   6.521   1.491   5.593
10255SOL     OW31663   3.937   4.405   1.647
10255SOL    HW131664   3.989   4.342   1.590
10255SOL    HW231665   3.858   4.358   1.686
10256SOL     OW31666   3.571   1.278   4.591
10256SOL    HW131667   3.472   1.266   4.588
10256SOL    HW231668   3.593   1.375   4.576
10257SOL     OW31669   3.948   5.843   3.024
10257SOL    HW131670   3.965   5.818   3.120
10257SOL    HW231671   3.857   5.812   2.997
10258SOL     OW31672   2.907   1.401   2.489
10258SOL    HW131673   2.927   1.414   2.586
10258SOL    HW231674   2.866   1.311   2.475
10259SOL     OW31675   1.617   3.976   4.150
10259SOL    HW131676   1.548   4.023   4.094
10259SOL    HW231677   1.572   3.908   4.208
10260SOL     OW31678   0.234   0.115   2.904
10260SOL    HW131679   0.213   0.065   2.819
10260SOL    HW231680   0.324   0.157   2.896
10261SOL     OW31681   0.330   4.069   0.595
10261SOL    HW131682   0.267   4.009   0.645
10261SOL    HW231683   0.302   4.075   0.499
10262SOL     OW31684   3.868   0.724   6.672
10262SOL    HW131685   3.793   0.771   6.624
10262SOL    HW231686   3.843   0.628   6.687
10263SOL     OW31687   5.803   0.674   2.817
10263SOL    HW131688   5.851   0.607   2.873
10263SOL    HW231689   5.773   0.750   2.874
10264SOL     OW31690   6.661   0.334   6.206
10264SOL    HW131691   6.711   0.255   6.170
10264SOL    HW231692   6.569   0.304   6.235
10265SOL     OW31693   1.777   1.651   1.550
10265SOL    HW131694   1.864   1.665   1.502
10265SOL    HW231695   1.783   1.688   1.642
10266SOL     OW31696   2.597   3.397   1.680
10266SOL    HW131697   2.595   3.488   1.639
10266SOL    HW231698   2.519   3.387   1.742
10267SOL     OW31699   6.203   0.345   0.309
10267SOL    HW131700   6.236   0.318   0.400
10267SOL    HW231701   6.114   0.389   0.318
10268SOL     OW31702   3.615   5.904   2.102
10268SOL    HW131703   3.631   5.813   2.064
10268SOL    HW231704   3.698   5.938   2.146
10269SOL     OW31705   1.926   1.806   0.812
10269SOL    HW131706   1.998   1.846   0.868
10269SOL    HW231707   1.959   1.722   0.769
10270SOL     OW31708   2.544   0.535   3.253
10270SOL    HW131709   2.577   0.516   3.345
10270SOL    HW231710   2.596   0.610   3.213
10271SOL     OW31711   1.963   1.135   6.762
10271SOL    HW131712   2.062   1.136   6.770
10271SOL    HW231713   1.938   1.100   6.672
10272SOL     OW31714   6.347   0.203   4.380
10272SOL    HW131715   6.263   0.208   4.326
10272SOL    HW231716   6.371   0.294   4.413
10273SOL     OW31717   2.204   5.412   3.703
10273SOL    HW131718   2.259   5.452   3.629
10273SOL    HW231719   2.143   5.343   3.665
10274SOL     OW31720   0.695   4.255   4.748
10274SOL    HW131721   0.670   4.190   4.677
10274SOL    HW231722   0.613   4.284   4.797
10275SOL     OW31723   6.343   0.947   1.923
10275SOL    HW131724   6.317   0.905   1.837
10275SOL    HW231725   6.426   0.904   1.958
10276SOL     OW31726   3.008   5.588   5.158
10276SOL    HW131727   3.049   5.506   5.119
10276SOL    HW231728   3.038   5.668   5.106
10277SOL     OW31729   1.328   5.717   3.765
10277SOL    HW131730   1.350   5.647   3.698
10277SOL    HW231731   1.338   5.679   3.857
10278SOL     OW31732   6.513   0.155   4.681
10278SOL    HW131733   6.474   0.063   4.681
10278SOL    HW231734   6.558   0.173   4.594
10279SOL     OW31735   1.315   5.469   4.100
10279SOL    HW131736   1.357   5.384   4.070
10279SOL    HW231737   1.276   5.458   4.191
10280SOL     OW31738   6.557   4.670   0.523
10280SOL    HW131739   6.495   4.645   0.449
10280SOL    HW231740   6.525   4.755   0.566
10281SOL     OW31741   6.451   1.180   3.077
10281SOL    HW131742   6.525   1.215   3.134
10281SOL    HW231743   6.471   1.086   3.051
10282SOL     OW31744   5.041   3.236   3.588
10282SOL    HW131745   5.098   3.283   3.656
10282SOL    HW231746   4.988   3.303   3.537
10283SOL     OW31747   0.450   2.602   1.202
10283SOL    HW131748   0.548   2.611   1.180
10283SOL    HW231749   0.421   2.681   1.256
10284SOL     OW31750   0.299   4.154   3.943
10284SOL    HW131751   0.218   4.203   3.975
10284SOL    HW231752   0.279   4.108   3.856
10285SOL     OW31753   6.592   6.706   5.949
10285SOL    HW131754   6.667   6.722   6.013
10285SOL    HW231755   6.592   6.610   5.921
10286SOL     OW31756   2.799   1.484   3.174
10286SOL    HW131757   2.745   1.541   3.112
10286SOL    HW231758   2.800   1.525   3.265
10287SOL     OW31759   1.413   5.694   2.612
10287SOL    HW131760   1.399   5.621   2.545
10287SOL    HW231761   1.481   5.759   2.577
10288SOL     OW31762   3.731   5.598   4.918
10288SOL    HW131763   3.726   5.692   4.884
10288SOL    HW231764   3.702   5.595   5.014
10289SOL     OW31765   3.984   6.395   0.184
10289SOL    HW131766   3.949   6.487   0.205
10289SOL    HW231767   4.084   6.400   0.173
10290SOL     OW31768   3.119   3.293   1.859
10290SOL    HW131769   3.201   3.239   1.836
10290SOL    HW231770   3.129   3.386   1.825
10291SOL     OW31771   2.377   1.744   2.494
10291SOL    HW131772   2.439   1.782   2.426
10291SOL    HW231773   2.289   1.724   2.451
10292SOL     OW31774   7.015   6.857   6.173
10292SOL    HW131775   0.094   6.846   6.182
10292SOL    HW231776   6.987   6.943   6.215
10293SOL     OW31777   1.257   3.849   5.289
10293SOL    HW131778   1.348   3.854   5.249
10293SOL    HW231779   1.189   3.873   5.219
10294SOL     OW31780   3.252   0.685   2.584
10294SOL    HW131781   3.348   0.668   2.605
10294SOL    HW231782   3.233   0.661   2.489
10295SOL     OW31783   1.090   1.519   6.791
10295SOL    HW131784   1.080   1.551   6.885
10295SOL    HW231785   1.180   1.546   6.755
10296SOL     OW31786   6.407   1.802   5.878
10296SOL    HW131787   6.475   1.742   5.921
10296SOL    HW231788   6.347   1.747   5.820
10297SOL     OW31789   3.892   1.340   0.534
10297SOL    HW131790   3.847   1.306   0.617
10297SOL    HW231791   3.823   1.372   0.469
10298SOL     OW31792   0.451   2.541   2.343
10298SOL    HW131793   0.432   2.566   2.438
10298SOL    HW231794   0.473   2.444   2.337
10299SOL     OW31795   4.685   0.195   2.544
10299SOL    HW131796   4.636   0.258   2.605
10299SOL    HW231797   4.744   0.136   2.599
10300SOL     OW31798   1.191   3.759   1.126
10300SOL    HW131799   1.245   3.679   1.153
10300SOL    HW231800   1.112   3.768   1.185
10301SOL     OW31801   4.010   0.474   6.979
10301SOL    HW131802   4.043   0.448   0.049
10301SOL    HW231803   3.910   0.485   6.981
10302SOL     OW31804   2.959   6.537   4.936
10302SOL    HW131805   3.053   6.534   4.972
10302SOL    HW231806   2.900   6.481   4.994
10303SOL     OW31807   0.464   4.818   4.522
10303SOL    HW131808   0.450   4.821   4.423
10303SOL    HW231809   0.433   4.730   4.557
10304SOL     OW31810   5.559   6.323   0.908
10304SOL    HW131811   5.580   6.406   0.960
10304SOL    HW231812   5.460   6.308   0.908
10305SOL     OW31813   3.075   3.848   5.802
10305SOL    HW131814   3.068   3.789   5.721
10305SOL    HW231815   3.002   3.916   5.800
10306SOL     OW31816   4.002   0.406   0.880
10306SOL    HW131817   3.990   0.340   0.954
10306SOL    HW231818   3.995   0.499   0.917
10307SOL     OW31819   1.732   0.247   5.428
10307SOL    HW131820   1.763   0.187   5.355
10307SOL    HW231821   1.696   0.192   5.503
10308SOL     OW31822   2.968   4.666   1.607
10308SOL    HW131823   3.035   4.603   1.647
10308SOL    HW231824   2.923   4.717   1.680
10309SOL     OW31825   0.435   0.740   5.797
10309SOL    HW131826   0.361   0.714   5.734
10309SOL    HW231827   0.452   0.838   5.789
10310SOL     OW31828   2.814   3.923   5.371
10310SOL    HW131829   2.861   3.978   5.440
10310SOL    HW231830   2.811   3.828   5.401
10311SOL     OW31831   5.259   5.804   7.009
10311SOL    HW131832   5.291   5.728   6.952
10311SOL    HW231833   5.245   5.885   6.952
10312SOL     OW31834   3.553   6.619   2.173
10312SOL    HW131835   3.637   6.568   2.152
10312SOL    HW231836   3.524   6.597   2.267
10313SOL     OW31837   5.203   6.822   2.655
10313SOL    HW131838   5.223   6.919   2.662
10313SOL    HW231839   5.270   6.770   2.708
10314SOL     OW31840   0.403   0.191   0.884
10314SOL    HW131841   0.331   0.147   0.829
10314SOL    HW231842   0.489   0.143   0.870
10315SOL     OW31843   5.481   5.682   3.565
10315SOL    HW131844   5.486   5.695   3.466
10315SOL    HW231845   5.410   5.615   3.585
10316SOL     OW31846   0.705   1.722   6.904
10316SOL    HW131847   0.776   1.709   6.836
10316SOL    HW231848   0.747   1.738   6.993
10317SOL     OW31849   3.267   6.028   4.977
10317SOL    HW131850   3.336   5.997   4.912
10317SOL    HW231851   3.219   5.949   5.015
10318SOL     OW31852   6.417   0.309   0.063
10318SOL    HW131853   6.437   0.241   0.134
10318SOL    HW231854   6.411   0.265   6.994
10319SOL     OW31855   0.617   4.106   3.719
10319SOL    HW131856   0.689   4.131   3.783
10319SOL    HW231857   0.551   4.181   3.711
10320SOL     OW31858   0.102   6.951   3.053
10320SOL    HW131859   0.138   0.022   3.035
10320SOL    HW231860   0.129   6.889   2.979
10321SOL     OW31861   5.753   3.102   2.326
10321SOL    HW131862   5.679   3.042   2.295
10321SOL    HW231863   5.791   3.151   2.247
10322SOL     OW31864   4.597   4.365   4.855
10322SOL    HW131865   4.566   4.271   4.837
10322SOL    HW231866   4.517   4.423   4.872
10323SOL     OW31867   1.094   3.983   6.097
10323SOL    HW131868   1.145   4.056   6.052
10323SOL    HW231869   1.028   4.023   6.162
10324SOL     OW31870   3.080   3.014   2.426
10324SOL    HW131871   3.137   2.995   2.347
10324SOL    HW231872   2.984   2.993   2.404
10325SOL     OW31873   5.877   5.895   4.290
10325SOL    HW131874   5.837   5.838   4.362
10325SOL    HW231875   5.977   5.894   4.299
10326SOL     OW31876   5.380   3.391   6.643
10326SOL    HW131877   5.368   3.395   6.543
10326SOL    HW231878   5.291   3.378   6.687
10327SOL     OW31879   2.504   5.535   0.156
10327SOL    HW131880   2.432   5.469   0.178
10327SOL    HW231881   2.468   5.602   0.091
10328SOL     OW31882   5.462   2.319   2.118
10328SOL    HW131883   5.474   2.377   2.199
10328SOL    HW231884   5.470   2.223   2.145
10329SOL     OW31885   3.534   1.787   2.400
10329SOL    HW131886   3.475   1.736   2.463
10329SOL    HW231887   3.526   1.748   2.309
10330SOL     OW31888   5.224   0.625   1.748
10330SOL    HW131889   5.298   0.645   1.683
10330SOL    HW231890   5.240   0.675   1.833
10331SOL     OW31891   6.083   6.162   5.702
10331SOL    HW131892   6.141   6.213   5.639
10331SOL    HW231893   6.057   6.222   5.778
10332SOL     OW31894   1.563   1.578   6.167
10332SOL    HW131895   1.530   1.656   6.115
10332SOL    HW231896   1.620   1.610   6.243
10333SOL     OW31897   1.345   3.816   4.602
10333SOL    HW131898   1.362   3.718   4.609
10333SOL    HW231899   1.426   3.866   4.634
10334SOL     OW31900   3.227   1.420   4.210
10334SOL    HW131901   3.292   1.494   4.228
10334SOL    HW231902   3.249   1.377   4.122
10335SOL     OW31903   1.234   2.420   4.983
10335SOL    HW131904   1.159   2.420   4.917
10335SOL    HW231905   1.298   2.346   4.961
10336SOL     OW31906   5.598   0.020   3.062
10336SOL    HW131907   5.579   0.117   3.077
10336SOL    HW231908   5.617   0.004   2.965
10337SOL     OW31909   6.770   5.434   6.909
10337SOL    HW131910   6.736   5.408   7.000
10337SOL    HW231911   6.861   5.396   6.894
10338SOL     OW31912   1.029   6.487   1.560
10338SOL    HW131913   1.108   6.488   1.498
10338SOL    HW231914   1.027   6.401   1.611
10339SOL     OW31915   5.830   2.663   5.910
10339SOL    HW131916   5.837   2.758   5.880
10339SOL    HW231917   5.740   2.627   5.889
10340SOL     OW31918   2.195   4.071   6.091
10340SOL    HW131919   2.208   4.166   6.063
10340SOL    HW231920   2.186   4.065   6.190
10341SOL     OW31921   2.303   4.298   3.620
10341SOL    HW131922   2.288   4.354   3.538
10341SOL    HW231923   2.250   4.214   3.612
10342SOL     OW31924   0.335   0.936   3.739
10342SOL    HW131925   0.406   0.914   3.805
10342SOL    HW231926   0.317   0.855   3.681
10343SOL     OW31927   3.719   5.419   1.762
10343SOL    HW131928   3.686   5.392   1.671
10343SOL    HW231929   3.722   5.519   1.768
10344SOL     OW31930   4.443   6.696   7.003
10344SOL    HW131931   4.450   6.786   0.027
10344SOL    HW231932   4.347   6.673   6.989
10345SOL     OW31933   2.120   3.746   4.125
10345SOL    HW131934   2.212   3.779   4.146
10345SOL    HW231935   2.071   3.728   4.211
10346SOL     OW31936   6.998   6.246   0.118
10346SOL    HW131937   6.909   6.288   0.099
10346SOL    HW231938   7.019   6.180   0.046
10347SOL     OW31939   5.505   1.821   5.064
10347SOL    HW131940   5.423   1.810   5.120
10347SOL    HW231941   5.555   1.902   5.094
10348SOL     OW31942   6.577   4.983   1.164
10348SOL    HW131943   6.538   5.000   1.255
10348SOL    HW231944   6.666   5.028   1.157
10349SOL     OW31945   0.548   6.757   6.291
10349SOL    HW131946   0.535   6.851   6.259
10349SOL    HW231947   0.463   6.707   6.282
10350SOL     OW31948   3.274   1.107   6.587
10350SOL    HW131949   3.175   1.111   6.574
10350SOL    HW231950   3.299   1.017   6.622
10351SOL     OW31951   3.912   5.533   6.210
10351SOL    HW131952   3.980   5.534   6.284
10351SOL    HW231953   3.821   5.521   6.249
10352SOL     OW31954   3.759   4.032   6.553
10352SOL    HW131955   3.693   3.971   6.509
10352SOL    HW231956   3.842   3.981   6.575
10353SOL     OW31957   0.866   2.898   4.913
10353SOL    HW131958   0.932   2.831   4.879
10353SOL    HW231959   0.785   2.850   4.948
10354SOL     OW31960   5.668   1.866   1.143
10354SOL    HW131961   5.644   1.864   1.046
10354SOL    HW231962   5.624   1.789   1.189
10355SOL     OW31963   1.148   4.720   2.876
10355SOL    HW131964   1.145   4.742   2.778
10355SOL    HW231965   1.207   4.640   2.891
10356SOL     OW31966   0.261   2.107   4.605
10356SOL    HW131967   0.197   2.040   4.643
10356SOL    HW231968   0.215   2.161   4.535
10357SOL     OW31969   3.581   2.714   6.949
10357SOL    HW131970   3.527   2.741   6.870
10357SOL    HW231971   3.606   2.617   6.942
10358SOL     OW31972   0.194   1.233   2.270
10358SOL    HW131973   0.144   1.244   2.184
10358SOL    HW231974   0.157   1.154   2.319
10359SOL     OW31975   1.029   1.325   1.018
10359SOL    HW131976   1.018   1.276   1.104
10359SOL    HW231977   1.053   1.421   1.036
10360SOL     OW31978   0.005   4.750   3.058
10360SOL    HW131979   7.015   4.676   3.124
10360SOL    HW231980   0.061   4.720   2.981
10361SOL     OW31981   1.994   4.961   1.386
10361SOL    HW131982   2.076   4.903   1.384
10361SOL    HW231983   2.019   5.055   1.367
10362SOL     OW31984   1.534   4.714   5.163
10362SOL    HW131985   1.478   4.793   5.186
10362SOL    HW231986   1.622   4.745   5.126
10363SOL     OW31987   5.791   0.008   3.580
10363SOL    HW131988   5.834   7.001   3.666
10363SOL    HW231989   5.858   0.054   3.522
10364SOL     OW31990   1.681   3.963   1.012
10364SOL    HW131991   1.686   3.891   0.944
10364SOL    HW231992   1.773   3.989   1.041
10365SOL     OW31993   4.859   5.328   6.986
10365SOL    HW131994   4.791   5.259   6.963
10365SOL    HW231995   4.890   5.374   6.903
10366SOL     OW31996   3.759   6.405   3.817
10366SOL    HW131997   3.687   6.385   3.750
10366SOL    HW231998   3.720   6.399   3.909
10367SOL     OW31999   6.486   1.486   3.382
10367SOL    HW132000   6.495   1.387   3.376
10367SOL    HW232001   6.576   1.526   3.403
10368SOL     OW32002   2.400   0.536   1.239
10368SOL    HW132003   2.379   0.448   1.198
10368SOL    HW232004   2.377   0.610   1.175
10369SOL     OW32005   4.347   2.886   0.169
10369SOL    HW132006   4.348   2.986   0.177
10369SOL    HW232007   4.346   2.860   0.072
10370SOL     OW32008   3.849   1.206   4.939
10370SOL    HW132009   3.806   1.125   4.980
10370SOL    HW232010   3.799   1.288   4.968
10371SOL     OW32011   5.404   6.368   5.472
10371SOL    HW132012   5.323   6.345   5.418
10371SOL    HW232013   5.382   6.363   5.569
10372SOL     OW32014   1.200   0.555   3.470
10372SOL    HW132015   1.291   0.551   3.429
10372SOL    HW232016   1.155   0.641   3.444
10373SOL     OW32017   1.317   5.217   5.014
10373SOL    HW132018   1.355   5.134   5.054
10373SOL    HW232019   1.380   5.253   4.945
10374SOL     OW32020   3.017   1.896   3.895
10374SOL    HW132021   2.941   1.943   3.850
10374SOL    HW232022   3.103   1.926   3.854
10375SOL     OW32023   0.177   2.014   0.543
10375SOL    HW132024   0.223   1.925   0.548
10375SOL    HW232025   0.245   2.086   0.531
10376SOL     OW32026   6.555   0.370   3.464
10376SOL    HW132027   6.634   0.313   3.488
10376SOL    HW232028   6.581   0.435   3.393
10377SOL     OW32029   0.473   6.560   4.541
10377SOL    HW132030   0.452   6.491   4.471
10377SOL    HW232031   0.509   6.515   4.622
10378SOL     OW32032   6.276   6.655   5.923
10378SOL    HW132033   6.340   6.731   5.932
10378SOL    HW232034   6.182   6.688   5.932
10379SOL     OW32035   4.683   2.069   4.459
10379SOL    HW132036   4.718   2.096   4.549
10379SOL    HW232037   4.752   2.015   4.412
10380SOL     OW32038   4.028   1.002   3.818
10380SOL    HW132039   4.088   1.071   3.859
10380SOL    HW232040   4.083   0.925   3.786
10381SOL     OW32041   4.335   5.323   5.034
10381SOL    HW132042   4.262   5.382   5.002
10381SOL    HW232043   4.421   5.350   4.991
10382SOL     OW32044   1.032   5.818   0.363
10382SOL    HW132045   1.065   5.756   0.291
10382SOL    HW232046   0.940   5.792   0.390
10383SOL     OW32047   5.310   2.501   0.335
10383SOL    HW132048   5.329   2.596   0.311
10383SOL    HW232049   5.395   2.448   0.334
10384SOL     OW32050   5.897   1.071   6.791
10384SOL    HW132051   5.918   1.006   6.864
10384SOL    HW232052   5.824   1.033   6.733
10385SOL     OW32053   6.685   2.604   6.856
10385SOL    HW132054   6.700   2.572   6.762
10385SOL    HW232055   6.729   2.693   6.868
10386SOL     OW32056   6.654   1.907   6.309
10386SOL    HW132057   6.709   1.856   6.243
10386SOL    HW232058   6.572   1.942   6.265
10387SOL     OW32059   1.578   4.196   2.309
10387SOL    HW132060   1.623   4.218   2.222
10387SOL    HW232061   1.639   4.138   2.364
10388SOL     OW32062   1.874   4.730   2.464
10388SOL    HW132063   1.874   4.676   2.548
10388SOL    HW232064   1.780   4.757   2.442
10389SOL     OW32065   0.649   5.586   3.519
10389SOL    HW132066   0.614   5.557   3.608
10389SOL    HW232067   0.696   5.674   3.529
10390SOL     OW32068   2.193   3.842   3.653
10390SOL    HW132069   2.105   3.868   3.693
10390SOL    HW232070   2.242   3.783   3.717
10391SOL     OW32071   3.610   6.297   4.871
10391SOL    HW132072   3.637   6.308   4.775
10391SOL    HW232073   3.643   6.374   4.924
10392SOL     OW32074   6.082   5.327   6.437
10392SOL    HW132075   6.102   5.341   6.534
10392SOL    HW232076   6.113   5.407   6.385
10393SOL     OW32077   0.506   0.903   4.634
10393SOL    HW132078   0.437   0.970   4.610
10393SOL    HW232079   0.579   0.904   4.566
10394SOL     OW32080   3.314   6.966   1.223
10394SOL    HW132081   3.305   6.910   1.305
10394SOL    HW232082   3.224   6.979   1.181
10395SOL     OW32083   1.514   1.187   4.234
10395SOL    HW132084   1.541   1.228   4.146
10395SOL    HW232085   1.572   1.109   4.254
10396SOL     OW32086   0.596   7.011   4.865
10396SOL    HW132087   0.585   6.942   4.795
10396SOL    HW232088   0.514   0.048   4.869
10397SOL     OW32089   4.431   1.943   2.866
10397SOL    HW132090   4.444   1.934   2.767
10397SOL    HW232091   4.333   1.950   2.886
10398SOL     OW32092   6.587   3.352   2.236
10398SOL    HW132093   6.639   3.340   2.152
10398SOL    HW232094   6.625   3.294   2.308
10399SOL     OW32095   6.115   2.931   5.251
10399SOL    HW132096   6.150   2.996   5.183
10399SOL    HW232097   6.021   2.955   5.275
10400SOL     OW32098   1.254   4.939   1.847
10400SOL    HW132099   1.198   4.884   1.786
10400SOL    HW232100   1.341   4.960   1.802
10401SOL     OW32101   1.096   5.046   0.921
10401SOL    HW132102   1.142   4.958   0.917
10401SOL    HW232103   1.040   5.051   1.003
10402SOL     OW32104   0.880   2.179   4.730
10402SOL    HW132105   0.782   2.168   4.710
10402SOL    HW232106   0.912   2.102   4.784
10403SOL     OW32107   5.522   0.851   2.503
10403SOL    HW132108   5.566   0.826   2.417
10403SOL    HW232109   5.554   0.790   2.575
10404SOL     OW32110   0.065   0.459   4.649
10404SOL    HW132111   0.054   0.510   4.564
10404SOL    HW232112   0.159   0.467   4.681
10405SOL     OW32113   2.734   6.829   6.934
10405SOL    HW132114   2.640   6.830   6.901
10405SOL    HW232115   2.735   6.857   0.010
10406SOL     OW32116   1.895   5.896   5.408
10406SOL    HW132117   1.842   5.938   5.482
10406SOL    HW232118   1.993   5.908   5.425
10407SOL     OW32119   1.762   1.361   6.336
10407SOL    HW132120   1.777   1.453   6.298
10407SOL    HW232121   1.792   1.292   6.270
10408SOL     OW32122   3.976   6.785   2.993
10408SOL    HW132123   3.886   6.813   2.959
10408SOL    HW232124   4.027   6.739   2.920
10409SOL     OW32125   6.626   4.839   2.133
10409SOL    HW132126   6.570   4.769   2.089
10409SOL    HW232127   6.570   4.889   2.198
10410SOL     OW32128   4.949   5.842   1.138
10410SOL    HW132129   4.911   5.753   1.162
10410SOL    HW232130   4.963   5.895   1.221
10411SOL     OW32131   1.748   4.557   2.255
10411SOL    HW132132   1.813   4.584   2.327
10411SOL    HW232133   1.665   4.522   2.298
10412SOL     OW32134   0.538   2.134   6.486
10412SOL    HW132135   0.561   2.225   6.522
10412SOL    HW232136   0.514   2.142   6.389
10413SOL     OW32137   6.626   1.662   5.115
10413SOL    HW132138   6.628   1.760   5.132
10413SOL    HW232139   6.643   1.645   5.018
10414SOL     OW32140   5.589   6.269   5.047
10414SOL    HW132141   5.496   6.233   5.039
10414SOL    HW232142   5.626   6.244   5.136
10415SOL     OW32143   6.675   5.633   3.279
10415SOL    HW132144   6.632   5.705   3.224
10415SOL    HW232145   6.614   5.555   3.285
10416SOL     OW32146   4.871   0.598   0.699
10416SOL    HW132147   4.782   0.604   0.654
10416SOL    HW232148   4.865   0.535   0.776
10417SOL     OW32149   4.578   4.449   4.105
10417SOL    HW132150   4.628   4.398   4.035
10417SOL    HW232151   4.594   4.407   4.195
10418SOL     OW32152   6.243   3.563   0.262
10418SOL    HW132153   6.304   3.493   0.298
10418SOL    HW232154   6.229   3.548   0.164
10419SOL     OW32155   1.669   0.422   4.809
10419SOL    HW132156   1.636   0.514   4.787
10419SOL    HW232157   1.763   0.428   4.844
10420SOL     OW32158   6.348   3.909   4.420
10420SOL    HW132159   6.398   3.895   4.335
10420SOL    HW232160   6.382   3.991   4.467
10421SOL     OW32161   0.800   3.838   4.472
10421SOL    HW132162   0.886   3.796   4.500
10421SOL    HW232163   0.757   3.882   4.551
10422SOL     OW32164   5.776   3.388   5.654
10422SOL    HW132165   5.740   3.374   5.562
10422SOL    HW232166   5.853   3.452   5.651
10423SOL     OW32167   2.689   5.327   2.577
10423SOL    HW132168   2.736   5.376   2.651
10423SOL    HW232169   2.700   5.229   2.591
10424SOL     OW32170   4.359   1.008   2.053
10424SOL    HW132171   4.452   1.002   2.015
10424SOL    HW232172   4.314   1.090   2.017
10425SOL     OW32173   0.882   3.868   0.421
10425SOL    HW132174   0.944   3.793   0.440
10425SOL    HW232175   0.850   3.909   0.507
10426SOL     OW32176   6.764   2.055   6.978
10426SOL    HW132177   6.688   2.007   6.935
10426SOL    HW232178   6.741   2.151   6.990
10427SOL     OW32179   6.116   0.599   3.862
10427SOL    HW132180   6.101   0.637   3.770
10427SOL    HW232181   6.129   0.674   3.927
10428SOL     OW32182   1.728   6.515   4.419
10428SOL    HW132183   1.684   6.467   4.343
10428SOL    HW232184   1.664   6.524   4.495
10429SOL     OW32185   2.343   4.181   1.443
10429SOL    HW132186   2.365   4.273   1.410
10429SOL    HW232187   2.428   4.133   1.467
10430SOL     OW32188   3.593   0.087   4.580
10430SOL    HW132189   3.537   0.170   4.578
10430SOL    HW232190   3.689   0.112   4.592
10431SOL     OW32191   4.204   2.269   3.986
10431SOL    HW132192   4.104   2.267   3.989
10431SOL    HW232193   4.234   2.275   3.891
10432SOL     OW32194   0.597   5.053   0.475
10432SOL    HW132195   0.610   5.146   0.511
10432SOL    HW232196   0.685   5.005   0.477
10433SOL     OW32197   3.889   6.364   4.437
10433SOL    HW132198   3.910   6.401   4.347
10433SOL    HW232199   3.818   6.419   4.481
10434SOL     OW32200   4.237   1.235   6.639
10434SOL    HW132201   4.257   1.322   6.595
10434SOL    HW232202   4.162   1.189   6.591
10435SOL     OW32203   2.634   1.139   1.694
10435SOL    HW132204   2.564   1.210   1.708
10435SOL    HW232205   2.625   1.101   1.602
10436SOL     OW32206   0.970   3.658   5.329
10436SOL    HW132207   1.057   3.609   5.324
10436SOL    HW232208   0.895   3.593   5.339
10437SOL     OW32209   6.721   6.451   4.698
10437SOL    HW132210   6.800   6.395   4.670
10437SOL    HW232211   6.647   6.439   4.632
10438SOL     OW32212   6.588   5.509   6.701
10438SOL    HW132213   6.668   5.495   6.759
10438SOL    HW232214   6.506   5.484   6.752
10439SOL     OW32215   6.230   5.409   4.369
10439SOL    HW132216   6.224   5.415   4.270
10439SOL    HW232217   6.276   5.325   4.395
10440SOL     OW32218   6.166   2.462   1.209
10440SOL    HW132219   6.115   2.389   1.255
10440SOL    HW232220   6.249   2.424   1.168
10441SOL     OW32221   4.132   2.115   6.658
10441SOL    HW132222   4.182   2.034   6.690
10441SOL    HW232223   4.051   2.087   6.608
10442SOL     OW32224   2.679   0.875   4.894
10442SOL    HW132225   2.737   0.800   4.861
10442SOL    HW232226   2.721   0.963   4.871
10443SOL     OW32227   1.024   0.631   0.216
10443SOL    HW132228   1.083   0.668   0.144
10443SOL    HW232229   0.969   0.704   0.255
10444SOL     OW32230   4.211   5.209   3.693
10444SOL    HW132231   4.277   5.248   3.628
10444SOL    HW232232   4.119   5.216   3.655
10445SOL     OW32233   0.958   3.632   3.947
10445SOL    HW132234   0.914   3.629   3.857
10445SOL    HW232235   1.057   3.625   3.936
10446SOL     OW32236   2.285   4.923   4.842
10446SOL    HW132237   2.338   4.903   4.760
10446SOL    HW232238   2.321   5.006   4.885
10447SOL     OW32239   1.352   1.964   2.942
10447SOL    HW132240   1.257   1.964   2.911
10447SOL    HW232241   1.374   2.051   2.986
10448SOL     OW32242   1.007   5.606   2.630
10448SOL    HW132243   0.938   5.584   2.700
10448SOL    HW232244   1.084   5.653   2.674
10449SOL     OW32245   3.924   5.010   4.819
10449SOL    HW132246   3.957   4.959   4.739
10449SOL    HW232247   3.824   4.999   4.827
10450SOL     OW32248   0.952   2.335   3.831
10450SOL    HW132249   1.048   2.306   3.837
10450SOL    HW232250   0.894   2.267   3.876
10451SOL     OW32251   3.385   1.860   4.321
10451SOL    HW132252   3.321   1.788   4.294
10451SOL    HW232253   3.341   1.949   4.314
10452SOL     OW32254   6.835   2.784   4.593
10452SOL    HW132255   6.878   2.730   4.666
10452SOL    HW232256   6.744   2.747   4.574
10453SOL     OW32257   3.704   4.930   4.552
10453SOL    HW132258   3.755   5.015   4.535
10453SOL    HW232259   3.670   4.930   4.646
10454SOL     OW32260   6.978   1.201   6.882
10454SOL    HW132261   6.916   1.271   6.920
10454SOL    HW232262   0.042   1.245   6.850
10455SOL     OW32263   0.625   6.138   2.253
10455SOL    HW132264   0.563   6.143   2.175
10455SOL    HW232265   0.578   6.098   2.331
10456SOL     OW32266   1.577   5.344   6.645
10456SOL    HW132267   1.551   5.410   6.716
10456SOL    HW232268   1.565   5.386   6.555
10457SOL     OW32269   4.283   1.500   0.273
10457SOL    HW132270   4.355   1.541   0.328
10457SOL    HW232271   4.230   1.437   0.329
10458SOL     OW32272   1.467   6.423   0.260
10458SOL    HW132273   1.538   6.439   0.192
10458SOL    HW232274   1.496   6.461   0.348
10459SOL     OW32275   5.704   6.085   1.653
10459SOL    HW132276   5.627   6.146   1.672
10459SOL    HW232277   5.704   6.060   1.557
10460SOL     OW32278   5.853   0.717   6.715
10460SOL    HW132279   5.858   0.640   6.651
10460SOL    HW232280   5.801   0.792   6.674
10461SOL     OW32281   0.198   3.907   5.672
10461SOL    HW132282   0.173   3.816   5.638
10461SOL    HW232283   0.115   3.961   5.685
10462SOL     OW32284   4.199   4.058   6.680
10462SOL    HW132285   4.149   3.978   6.649
10462SOL    HW232286   4.272   4.031   6.743
10463SOL     OW32287   4.683   2.417   5.823
10463SOL    HW132288   4.690   2.459   5.914
10463SOL    HW232289   4.619   2.471   5.767
10464SOL     OW32290   6.395   4.278   1.745
10464SOL    HW132291   6.487   4.241   1.735
10464SOL    HW232292   6.347   4.228   1.817
10465SOL     OW32293   5.009   4.217   1.235
10465SOL    HW132294   5.035   4.189   1.328
10465SOL    HW232295   4.955   4.144   1.192
10466SOL     OW32296   5.722   3.968   5.324
10466SOL    HW132297   5.810   3.922   5.331
10466SOL    HW232298   5.666   3.945   5.404
10467SOL     OW32299   0.424   2.579   6.807
10467SOL    HW132300   0.396   2.501   6.863
10467SOL    HW232301   0.343   2.617   6.760
10468SOL     OW32302   1.603   3.695   3.862
10468SOL    HW132303   1.677   3.651   3.912
10468SOL    HW232304   1.607   3.667   3.766
10469SOL     OW32305   1.347   1.397   3.873
10469SOL    HW132306   1.306   1.483   3.842
10469SOL    HW232307   1.428   1.417   3.929
10470SOL     OW32308   2.220   3.970   2.103
10470SOL    HW132309   2.139   3.977   2.045
10470SOL    HW232310   2.265   3.882   2.086
10471SOL     OW32311   2.645   4.946   6.804
10471SOL    HW132312   2.646   4.885   6.725
10471SOL    HW232313   2.558   4.936   6.853
10472SOL     OW32314   4.139   5.518   6.009
10472SOL    HW132315   4.140   5.463   5.925
10472SOL    HW232316   4.055   5.499   6.060
10473SOL     OW32317   6.443   5.173   6.963
10473SOL    HW132318   6.378   5.107   6.925
10473SOL    HW232319   6.518   5.123   7.007
10474SOL     OW32320   6.299   6.167   5.269
10474SOL    HW132321   6.343   6.167   5.359
10474SOL    HW232322   6.363   6.135   5.200
10475SOL     OW32323   0.528   5.418   1.395
10475SOL    HW132324   0.519   5.507   1.440
10475SOL    HW232325   0.580   5.356   1.453
10476SOL     OW32326   5.255   6.981   1.251
10476SOL    HW132327   5.160   6.953   1.266
10476SOL    HW232328   5.289   0.007   1.333
10477SOL     OW32329   6.952   5.642   3.626
10477SOL    HW132330   0.026   5.675   3.613
10477SOL    HW232331   6.890   5.698   3.571
10478SOL     OW32332   0.309   0.700   6.345
10478SOL    HW132333   0.285   0.614   6.300
10478SOL    HW232334   0.402   0.726   6.320
10479SOL     OW32335   0.845   3.827   2.202
10479SOL    HW132336   0.813   3.733   2.214
10479SOL    HW232337   0.925   3.828   2.142
10480SOL     OW32338   2.308   0.478   3.113
10480SOL    HW132339   2.335   0.401   3.055
10480SOL    HW232340   2.377   0.491   3.184
10481SOL     OW32341   6.375   0.983   1.181
10481SOL    HW132342   6.304   0.977   1.250
10481SOL    HW232343   6.459   1.019   1.222
10482SOL     OW32344   5.561   3.962   4.047
10482SOL    HW132345   5.512   3.879   4.020
10482SOL    HW232346   5.619   3.943   4.127
10483SOL     OW32347   5.864   0.630   6.997
10483SOL    HW132348   5.859   0.649   6.898
10483SOL    HW232349   5.959   0.614   0.002
10484SOL     OW32350   6.102   0.727   1.881
10484SOL    HW132351   6.074   0.665   1.808
10484SOL    HW232352   6.087   0.821   1.853
10485SOL     OW32353   5.683   3.332   5.408
10485SOL    HW132354   5.700   3.429   5.388
10485SOL    HW232355   5.759   3.277   5.374
10486SOL     OW32356   5.488   2.494   2.346
10486SOL    HW132357   5.526   2.574   2.393
10486SOL    HW232358   5.403   2.519   2.299
10487SOL     OW32359   4.228   6.962   2.593
10487SOL    HW132360   4.174   6.880   2.575
10487SOL    HW232361   4.296   6.943   2.663
10488SOL     OW32362   3.853   4.299   6.542
10488SOL    HW132363   3.826   4.202   6.539
10488SOL    HW232364   3.953   4.305   6.539
10489SOL     OW32365   1.762   4.844   5.071
10489SOL    HW132366   1.801   4.770   5.016
10489SOL    HW232367   1.826   4.870   5.143
10490SOL     OW32368   6.224   0.507   4.227
10490SOL    HW132369   6.179   0.418   4.226
10490SOL    HW232370   6.249   0.533   4.134
10491SOL     OW32371   6.690   5.604   5.514
10491SOL    HW132372   6.765   5.611   5.448
10491SOL    HW232373   6.642   5.691   5.519
10492SOL     OW32374   5.137   4.544   5.850
10492SOL    HW132375   5.151   4.629   5.799
10492SOL    HW232376   5.154   4.466   5.789
10493SOL     OW32377   3.809   1.708   1.056
10493SOL    HW132378   3.884   1.708   1.123
10493SOL    HW232379   3.834   1.650   0.979
10494SOL     OW32380   5.348   1.640   5.687
10494SOL    HW132381   5.278   1.666   5.620
10494SOL    HW232382   5.384   1.549   5.664
10495SOL     OW32383   1.840   6.973   6.553
10495SOL    HW132384   1.909   6.902   6.543
10495SOL    HW232385   1.832   6.998   6.650
10496SOL     OW32386   6.448   0.154   5.406
10496SOL    HW132387   6.394   0.102   5.341
10496SOL    HW232388   6.541   0.118   5.410
10497SOL     OW32389   1.347   1.442   6.269
10497SOL    HW132390   1.320   1.484   6.356
10497SOL    HW232391   1.419   1.497   6.227
10498SOL     OW32392   3.268   4.908   6.025
10498SOL    HW132393   3.328   4.949   6.094
10498SOL    HW232394   3.242   4.816   6.055
10499SOL     OW32395   2.929   5.834   3.077
10499SOL    HW132396   2.896   5.928   3.065
10499SOL    HW232397   2.892   5.776   3.004
10500SOL     OW32398   2.579   2.119   6.836
10500SOL    HW132399   2.490   2.162   6.852
10500SOL    HW232400   2.649   2.166   6.890
10501SOL     OW32401   1.767   3.866   3.152
10501SOL    HW132402   1.719   3.948   3.184
10501SOL    HW232403   1.774   3.869   3.052
10502SOL     OW32404   3.284   5.354   4.375
10502SOL    HW132405   3.222   5.417   4.329
10502SOL    HW232406   3.353   5.406   4.425
10503SOL     OW32407   2.426   3.174   5.920
10503SOL    HW132408   2.445   3.112   5.843
10503SOL    HW232409   2.495   3.246   5.923
10504SOL     OW32410   2.253   3.942   1.178
10504SOL    HW132411   2.348   3.919   1.198
10504SOL    HW232412   2.248   4.036   1.145
10505SOL     OW32413   0.776   6.499   0.537
10505SOL    HW132414   0.747   6.587   0.574
10505SOL    HW232415   0.834   6.452   0.604
10506SOL     OW32416   6.862   4.182   5.444
10506SOL    HW132417   6.886   4.172   5.347
10506SOL    HW232418   6.805   4.104   5.472
10507SOL     OW32419   1.680   0.080   3.377
10507SOL    HW132420   1.777   0.105   3.386
10507SOL    HW232421   1.666   7.009   3.415
10508SOL     OW32422   5.917   4.133   2.821
10508SOL    HW132423   5.911   4.199   2.746
10508SOL    HW232424   5.889   4.043   2.788
10509SOL     OW32425   2.267   0.612   5.862
10509SOL    HW132426   2.192   0.551   5.887
10509SOL    HW232427   2.262   0.695   5.918
10510SOL     OW32428   5.795   0.148   0.051
10510SOL    HW132429   5.889   0.158   0.083
10510SOL    HW232430   5.750   0.238   0.051
10511SOL     OW32431   0.052   2.473   1.473
10511SOL    HW132432   6.994   2.411   1.473
10511SOL    HW232433   0.067   2.509   1.381
10512SOL     OW32434   2.553   0.532   6.228
10512SOL    HW132435   2.579   0.523   6.132
10512SOL    HW232436   2.625   0.493   6.286
10513SOL     OW32437   0.509   2.040   0.265
10513SOL    HW132438   0.457   2.119   0.235
10513SOL    HW232439   0.452   1.958   0.260
10514SOL     OW32440   0.602   3.155   1.823
10514SOL    HW132441   0.635   3.066   1.790
10514SOL    HW232442   0.636   3.170   1.916
10515SOL     OW32443   6.567   2.972   4.748
10515SOL    HW132444   6.547   2.875   4.733
10515SOL    HW232445   6.659   2.993   4.713
10516SOL     OW32446   2.851   6.555   0.851
10516SOL    HW132447   2.849   6.464   0.812
10516SOL    HW232448   2.759   6.580   0.882
10517SOL     OW32449   0.560   2.388   2.907
10517SOL    HW132450   0.644   2.357   2.951
10517SOL    HW232451   0.570   2.382   2.808
10518SOL     OW32452   0.700   6.068   2.574
10518SOL    HW132453   0.770   6.120   2.623
10518SOL    HW232454   0.624   6.049   2.636
10519SOL     OW32455   4.343   3.296   6.062
10519SOL    HW132456   4.304   3.331   5.977
10519SOL    HW232457   4.344   3.368   6.131
10520SOL     OW32458   3.351   4.858   6.444
10520SOL    HW132459   3.341   4.896   6.352
10520SOL    HW232460   3.398   4.924   6.503
10521SOL     OW32461   6.380   5.655   2.236
10521SOL    HW132462   6.381   5.685   2.141
10521SOL    HW232463   6.377   5.555   2.239
10522SOL     OW32464   0.050   0.301   2.073
10522SOL    HW132465   0.087   0.334   1.987
10522SOL    HW232466   6.970   0.302   2.069
10523SOL     OW32467   6.839   6.185   5.880
10523SOL    HW132468   6.766   6.253   5.872
10523SOL    HW232469   6.926   6.226   5.854
10524SOL     OW32470   5.024   0.972   4.537
10524SOL    HW132471   4.928   0.942   4.536
10524SOL    HW232472   5.030   1.064   4.499
10525SOL     OW32473   3.240   6.469   4.935
10525SOL    HW132474   3.326   6.500   4.894
10525SOL    HW232475   3.200   6.398   4.877
10526SOL     OW32476   4.769   6.600   2.599
10526SOL    HW132477   4.856   6.650   2.596
10526SOL    HW232478   4.760   6.555   2.688
10527SOL     OW32479   1.636   2.821   4.498
10527SOL    HW132480   1.539   2.808   4.477
10527SOL    HW232481   1.648   2.836   4.596
10528SOL     OW32482   5.843   5.016   5.569
10528SOL    HW132483   5.923   4.975   5.525
10528SOL    HW232484   5.861   5.112   5.589
10529SOL     OW32485   0.149   5.915   4.267
10529SOL    HW132486   0.114   5.834   4.220
10529SOL    HW232487   0.085   5.991   4.255
10530SOL     OW32488   1.772   1.871   5.146
10530SOL    HW132489   1.772   1.872   5.246
10530SOL    HW232490   1.814   1.786   5.114
10531SOL     OW32491   1.963   1.968   4.831
10531SOL    HW132492   1.885   2.020   4.865
10531SOL    HW232493   2.046   1.995   4.880
10532SOL     OW32494   3.145   3.133   4.986
10532SOL    HW132495   3.174   3.050   5.034
10532SOL    HW232496   3.144   3.115   4.887
10533SOL     OW32497   2.968   1.404   6.400
10533SOL    HW132498   2.953   1.326   6.339
10533SOL    HW232499   2.949   1.376   6.494
10534SOL     OW32500   5.689   5.176   1.339
10534SOL    HW132501   5.723   5.168   1.433
10534SOL    HW232502   5.766   5.178   1.276
10535SOL     OW32503   6.877   0.718   1.785
10535SOL    HW132504   6.782   0.729   1.755
10535SOL    HW232505   6.936   0.775   1.728
10536SOL     OW32506   5.360   5.863   3.014
10536SOL    HW132507   5.437   5.925   2.996
10536SOL    HW232508   5.298   5.904   3.081
10537SOL     OW32509   6.403   5.454   0.741
10537SOL    HW132510   6.413   5.517   0.664
10537SOL    HW232511   6.362   5.369   0.709
10538SOL     OW32512   4.170   3.946   0.034
10538SOL    HW132513   4.195   3.859   0.076
10538SOL    HW232514   4.072   3.946   0.012
10539SOL     OW32515   1.005   3.258   5.353
10539SOL    HW132516   1.009   3.238   5.451
10539SOL    HW232517   1.087   3.222   5.309
10540SOL     OW32518   3.735   0.554   0.044
10540SOL    HW132519   3.697   0.557   0.136
10540SOL    HW232520   3.793   0.635   0.030
10541SOL     OW32521   3.994   2.415   1.047
10541SOL    HW132522   3.931   2.491   1.028
10541SOL    HW232523   3.987   2.348   0.974
10542SOL     OW32524   1.727   2.200   0.125
10542SOL    HW132525   1.688   2.244   0.206
10542SOL    HW232526   1.659   2.198   0.052
10543SOL     OW32527   2.361   0.148   4.861
10543SOL    HW132528   2.330   0.243   4.870
10543SOL    HW232529   2.457   0.147   4.832
10544SOL     OW32530   7.005   2.320   1.756
10544SOL    HW132531   0.055   2.381   1.792
10544SOL    HW232532   0.021   2.266   1.681
10545SOL     OW32533   4.635   1.463   2.997
10545SOL    HW132534   4.577   1.407   3.055
10545SOL    HW232535   4.580   1.535   2.953
10546SOL     OW32536   4.118   1.457   5.460
10546SOL    HW132537   4.079   1.411   5.380
10546SOL    HW232538   4.206   1.498   5.435
10547SOL     OW32539   4.962   6.718   1.418
10547SOL    HW132540   4.928   6.710   1.512
10547SOL    HW232541   4.951   6.631   1.371
10548SOL     OW32542   4.437   4.435   5.356
10548SOL    HW132543   4.412   4.439   5.259
10548SOL    HW232544   4.410   4.521   5.400
10549SOL     OW32545   0.879   1.558   1.292
10549SOL    HW132546   0.820   1.603   1.226
10549SOL    HW232547   0.824   1.527   1.370
10550SOL     OW32548   4.933   6.428   4.752
10550SOL    HW132549   5.006   6.427   4.684
10550SOL    HW232550   4.900   6.522   4.764
10551SOL     OW32551   1.298   2.752   5.806
10551SOL    HW132552   1.314   2.738   5.708
10551SOL    HW232553   1.200   2.757   5.823
10552SOL     OW32554   3.275   2.002   4.989
10552SOL    HW132555   3.249   2.098   5.000
10552SOL    HW232556   3.209   1.957   4.928
10553SOL     OW32557   2.958   5.025   6.125
10553SOL    HW132558   3.011   4.943   6.105
10553SOL    HW232559   2.996   5.071   6.205
10554SOL     OW32560   6.220   4.212   5.890
10554SOL    HW132561   6.238   4.115   5.904
10554SOL    HW232562   6.143   4.223   5.828
10555SOL     OW32563   3.594   2.815   1.415
10555SOL    HW132564   3.585   2.749   1.341
10555SOL    HW232565   3.557   2.904   1.385
10556SOL     OW32566   1.383   3.411   3.650
10556SOL    HW132567   1.408   3.318   3.677
10556SOL    HW232568   1.465   3.461   3.625
10557SOL     OW32569   5.368   1.287   3.613
10557SOL    HW132570   5.459   1.245   3.611
10557SOL    HW232571   5.334   1.296   3.519
10558SOL     OW32572   5.143   6.091   5.169
10558SOL    HW132573   5.048   6.122   5.167
10558SOL    HW232574   5.146   5.994   5.192
10559SOL     OW32575   4.422   2.684   0.588
10559SOL    HW132576   4.369   2.617   0.538
10559SOL    HW232577   4.469   2.745   0.524
10560SOL     OW32578   0.061   2.270   4.385
10560SOL    HW132579   0.083   2.365   4.406
10560SOL    HW232580   6.983   2.257   4.389
10561SOL     OW32581   2.342   4.132   6.547
10561SOL    HW132582   2.359   4.213   6.603
10561SOL    HW232583   2.394   4.055   6.583
10562SOL     OW32584   3.740   1.684   0.447
10562SOL    HW132585   3.662   1.735   0.482
10562SOL    HW232586   3.781   1.734   0.370
10563SOL     OW32587   1.345   2.573   2.630
10563SOL    HW132588   1.379   2.497   2.686
10563SOL    HW232589   1.305   2.537   2.546
10564SOL     OW32590   6.931   2.123   2.197
10564SOL    HW132591   6.905   2.129   2.293
10564SOL    HW232592   6.854   2.150   2.140
10565SOL     OW32593   5.084   1.634   4.925
10565SOL    HW132594   5.079   1.547   4.974
10565SOL    HW232595   5.153   1.628   4.853
10566SOL     OW32596   4.420   5.498   6.805
10566SOL    HW132597   4.505   5.467   6.762
10566SOL    HW232598   4.360   5.419   6.820
10567SOL     OW32599   2.536   5.436   4.361
10567SOL    HW132600   2.475   5.393   4.295
10567SOL    HW232601   2.503   5.419   4.454
10568SOL     OW32602   3.915   1.097   3.238
10568SOL    HW132603   3.830   1.150   3.240
10568SOL    HW232604   3.928   1.052   3.326
10569SOL     OW32605   6.630   2.681   3.377
10569SOL    HW132606   6.722   2.718   3.363
10569SOL    HW232607   6.612   2.610   3.309
10570SOL     OW32608   1.426   4.030   0.950
10570SOL    HW132609   1.418   4.031   0.851
10570SOL    HW232610   1.520   4.006   0.976
10571SOL     OW32611   6.338   6.891   4.418
10571SOL    HW132612   6.414   6.899   4.352
10571SOL    HW232613   6.348   6.961   4.488
10572SOL     OW32614   0.024   3.629   1.504
10572SOL    HW132615   7.000   3.648   1.591
10572SOL    HW232616   6.975   3.626   1.431
10573SOL     OW32617   5.817   4.649   5.858
10573SOL    HW132618   5.835   4.667   5.761
10573SOL    HW232619   5.720   4.666   5.878
10574SOL     OW32620   0.253   2.467   3.210
10574SOL    HW132621   0.224   2.545   3.266
10574SOL    HW232622   0.351   2.472   3.194
10575SOL     OW32623   0.854   6.801   6.516
10575SOL    HW132624   0.902   6.872   6.568
10575SOL    HW232625   0.844   6.831   6.421
10576SOL     OW32626   0.994   5.593   3.119
10576SOL    HW132627   0.906   5.547   3.108
10576SOL    HW232628   1.060   5.555   3.053
10577SOL     OW32629   0.653   2.539   5.888
10577SOL    HW132630   0.593   2.459   5.879
10577SOL    HW232631   0.614   2.602   5.955
10578SOL     OW32632   5.577   1.247   5.423
10578SOL    HW132633   5.655   1.309   5.435
10578SOL    HW232634   5.609   1.157   5.395
10579SOL     OW32635   5.311   6.769   0.488
10579SOL    HW132636   5.370   6.782   0.567
10579SOL    HW232637   5.225   6.818   0.503
10580SOL     OW32638   0.668   5.965   0.346
10580SOL    HW132639   0.571   5.957   0.369
10580SOL    HW232640   0.678   5.979   0.248
10581SOL     OW32641   4.784   2.880   3.913
10581SOL    HW132642   4.837   2.800   3.886
10581SOL    HW232643   4.790   2.950   3.843
10582SOL     OW32644   2.977   4.642   0.085
10582SOL    HW132645   2.879   4.625   0.077
10582SOL    HW232646   3.027   4.555   0.083
10583SOL     OW32647   4.648   1.233   1.490
10583SOL    HW132648   4.601   1.256   1.576
10583SOL    HW232649   4.608   1.150   1.452
10584SOL     OW32650   5.884   6.619   0.878
10584SOL    HW132651   5.931   6.536   0.908
10584SOL    HW232652   5.862   6.675   0.958
10585SOL     OW32653   2.655   4.272   6.368
10585SOL    HW132654   2.565   4.247   6.333
10585SOL    HW232655   2.657   4.369   6.391
10586SOL     OW32656   5.032   2.052   1.136
10586SOL    HW132657   5.068   2.050   1.043
10586SOL    HW232658   5.061   1.970   1.185
10587SOL     OW32659   6.016   2.828   0.247
10587SOL    HW132660   5.922   2.808   0.218
10587SOL    HW232661   6.014   2.891   0.324
10588SOL     OW32662   1.429   4.986   2.974
10588SOL    HW132663   1.346   5.031   2.941
10588SOL    HW232664   1.490   5.055   3.014
10589SOL     OW32665   5.806   1.811   4.028
10589SOL    HW132666   5.790   1.782   4.123
10589SOL    HW232667   5.879   1.755   3.988
10590SOL     OW32668   1.412   0.171   5.379
10590SOL    HW132669   1.337   0.193   5.441
10590SOL    HW232670   1.447   0.255   5.338
10591SOL     OW32671   1.663   2.502   1.851
10591SOL    HW132672   1.725   2.527   1.925
10591SOL    HW232673   1.700   2.423   1.802
10592SOL     OW32674   5.984   1.281   6.444
10592SOL    HW132675   5.954   1.187   6.458
10592SOL    HW232676   5.955   1.313   6.354
10593SOL     OW32677   1.032   4.700   1.645
10593SOL    HW132678   1.077   4.642   1.712
10593SOL    HW232679   1.101   4.756   1.598
10594SOL     OW32680   1.268   1.224   4.365
10594SOL    HW132681   1.213   1.142   4.351
10594SOL    HW232682   1.357   1.214   4.320
10595SOL     OW32683   2.328   6.219   4.537
10595SOL    HW132684   2.360   6.138   4.585
10595SOL    HW232685   2.240   6.247   4.575
10596SOL     OW32686   3.295   1.108   1.840
10596SOL    HW132687   3.291   1.205   1.861
10596SOL    HW232688   3.385   1.085   1.802
10597SOL     OW32689   1.277   0.744   4.274
10597SOL    HW132690   1.238   0.700   4.355
10597SOL    HW232691   1.335   0.678   4.225
10598SOL     OW32692   2.214   0.812   0.767
10598SOL    HW132693   2.228   0.906   0.799
10598SOL    HW232694   2.290   0.755   0.796
10599SOL     OW32695   4.802   0.600   6.348
10599SOL    HW132696   4.853   0.515   6.333
10599SOL    HW232697   4.715   0.596   6.299
10600SOL     OW32698   1.430   3.000   4.872
10600SOL    HW132699   1.355   3.031   4.931
10600SOL    HW232700   1.394   2.980   4.781
10601SOL     OW32701   3.274   6.274   5.138
10601SOL    HW132702   3.275   6.182   5.100
10601SOL    HW232703   3.268   6.341   5.064
10602SOL     OW32704   4.907   1.232   1.573
10602SOL    HW132705   4.821   1.221   1.523
10602SOL    HW232706   4.893   1.295   1.649
10603SOL     OW32707   0.958   5.381   5.435
10603SOL    HW132708   0.859   5.375   5.447
10603SOL    HW232709   0.979   5.401   5.339
10604SOL     OW32710   0.438   4.260   5.659
10604SOL    HW132711   0.523   4.292   5.616
10604SOL    HW232712   0.405   4.180   5.610
10605SOL     OW32713   1.578   5.105   6.366
10605SOL    HW132714   1.649   5.037   6.344
10605SOL    HW232715   1.621   5.186   6.405
10606SOL     OW32716   0.453   1.286   2.124
10606SOL    HW132717   0.385   1.234   2.072
10606SOL    HW232718   0.419   1.302   2.217
10607SOL     OW32719   5.584   4.522   6.518
10607SOL    HW132720   5.578   4.603   6.461
10607SOL    HW232721   5.666   4.528   6.576
10608SOL     OW32722   5.577   0.059   2.797
10608SOL    HW132723   5.575   0.156   2.775
10608SOL    HW232724   5.655   0.016   2.751
10609SOL     OW32725   4.027   0.108   2.725
10609SOL    HW132726   4.094   0.039   2.697
10609SOL    HW232727   4.071   0.175   2.784
10610SOL     OW32728   1.988   4.181   4.697
10610SOL    HW132729   2.063   4.161   4.633
10610SOL    HW232730   1.962   4.277   4.688
10611SOL     OW32731   4.930   2.254   6.353
10611SOL    HW132732   4.968   2.162   6.352
10611SOL    HW232733   4.832   2.250   6.370
10612SOL     OW32734   1.858   0.260   1.133
10612SOL    HW132735   1.799   0.240   1.211
10612SOL    HW232736   1.802   0.275   1.052
10613SOL     OW32737   0.444   6.350   6.972
10613SOL    HW132738   0.414   6.376   0.043
10613SOL    HW232739   0.481   6.430   6.925
10614SOL     OW32740   0.182   0.906   2.731
10614SOL    HW132741   0.266   0.955   2.757
10614SOL    HW232742   0.207   0.821   2.684
10615SOL     OW32743   0.312   6.428   5.427
10615SOL    HW132744   0.379   6.434   5.500
10615SOL    HW232745   0.248   6.504   5.434
10616SOL     OW32746   2.977   5.806   1.436
10616SOL    HW132747   2.991   5.856   1.350
10616SOL    HW232748   2.910   5.733   1.420
10617SOL     OW32749   0.498   1.589   6.709
10617SOL    HW132750   0.585   1.618   6.748
10617SOL    HW232751   0.423   1.630   6.761
10618SOL     OW32752   6.391   3.985   0.562
10618SOL    HW132753   6.341   3.976   0.476
10618SOL    HW232754   6.488   4.000   0.542
10619SOL     OW32755   0.658   3.682   3.363
10619SOL    HW132756   0.620   3.598   3.402
10619SOL    HW232757   0.630   3.761   3.417
10620SOL     OW32758   1.583   5.015   4.448
10620SOL    HW132759   1.490   5.044   4.472
10620SOL    HW232760   1.580   4.932   4.393
10621SOL     OW32761   3.669   6.361   0.590
10621SOL    HW132762   3.671   6.389   0.686
10621SOL    HW232763   3.599   6.291   0.577
10622SOL     OW32764   3.999   1.973   1.078
10622SOL    HW132765   4.088   1.992   1.119
10622SOL    HW232766   3.952   2.059   1.060
10623SOL     OW32767   6.984   1.333   5.139
10623SOL    HW132768   6.976   1.291   5.049
10623SOL    HW232769   6.947   1.426   5.135
10624SOL     OW32770   2.996   0.990   4.147
10624SOL    HW132771   2.902   1.023   4.134
10624SOL    HW232772   3.058   1.068   4.149
10625SOL     OW32773   0.827   2.871   0.828
10625SOL    HW132774   0.904   2.916   0.873
10625SOL    HW232775   0.861   2.803   0.762
10626SOL     OW32776   6.174   2.437   2.529
10626SOL    HW132777   6.228   2.521   2.533
10626SOL    HW232778   6.080   2.460   2.501
10627SOL     OW32779   5.516   5.917   4.751
10627SOL    HW132780   5.502   5.899   4.654
10627SOL    HW232781   5.585   5.987   4.763
10628SOL     OW32782   6.989   5.695   5.678
10628SOL    HW132783   6.983   5.793   5.660
10628SOL    HW232784   6.923   5.670   5.748
10629SOL     OW32785   2.435   4.362   6.698
10629SOL    HW132786   2.426   4.461   6.693
10629SOL    HW232787   2.526   4.335   6.668
10630SOL     OW32788   5.627   0.654   2.020
10630SOL    HW132789   5.660   0.704   2.100
10630SOL    HW232790   5.622   0.716   1.942
10631SOL     OW32791   1.340   6.784   4.736
10631SOL    HW132792   1.414   6.746   4.792
10631SOL    HW232793   1.276   6.712   4.712
10632SOL     OW32794   6.940   3.067   6.472
10632SOL    HW132795   6.952   3.004   6.395
10632SOL    HW232796   7.002   3.145   6.461
10633SOL     OW32797   1.296   5.122   0.140
10633SOL    HW132798   1.218   5.071   0.176
10633SOL    HW232799   1.363   5.137   0.214
10634SOL     OW32800   3.671   6.317   2.328
10634SOL    HW132801   3.595   6.260   2.297
10634SOL    HW232802   3.756   6.263   2.325
10635SOL     OW32803   1.847   1.301   1.380
10635SOL    HW132804   1.893   1.366   1.319
10635SOL    HW232805   1.860   1.329   1.475
10636SOL     OW32806   5.073   1.500   0.929
10636SOL    HW132807   5.148   1.523   0.868
10636SOL    HW232808   4.999   1.566   0.917
10637SOL     OW32809   3.091   4.358   6.297
10637SOL    HW132810   3.167   4.404   6.250
10637SOL    HW232811   3.070   4.407   6.381
10638SOL     OW32812   6.502   0.511   5.970
10638SOL    HW132813   6.507   0.478   5.876
10638SOL    HW232814   6.594   0.520   6.007
10639SOL     OW32815   3.501   2.076   5.165
10639SOL    HW132816   3.495   2.158   5.223
10639SOL    HW232817   3.424   2.076   5.101
10640SOL     OW32818   4.615   6.435   0.663
10640SOL    HW132819   4.652   6.439   0.570
10640SOL    HW232820   4.593   6.341   0.687
10641SOL     OW32821   3.222   0.042   0.000
10641SOL    HW132822   3.208   6.976   0.049
10641SOL    HW232823   3.297   0.032   6.955
10642SOL     OW32824   0.028   4.843   0.314
10642SOL    HW132825   0.124   4.824   0.298
10642SOL    HW232826   0.005   4.822   0.410
10643SOL     OW32827   4.315   3.016   5.413
10643SOL    HW132828   4.307   3.109   5.378
10643SOL    HW232829   4.410   2.987   5.410
10644SOL     OW32830   3.879   1.480   5.177
10644SOL    HW132831   3.856   1.529   5.093
10644SOL    HW232832   3.975   1.451   5.174
10645SOL     OW32833   2.029   6.824   4.751
10645SOL    HW132834   1.957   6.887   4.723
10645SOL    HW232835   2.118   6.868   4.740
10646SOL     OW32836   6.945   5.022   6.655
10646SOL    HW132837   0.015   4.985   6.676
10646SOL    HW232838   6.917   5.084   6.729
10647SOL     OW32839   0.473   5.991   0.725
10647SOL    HW132840   0.466   6.081   0.768
10647SOL    HW232841   0.565   5.956   0.737
10648SOL     OW32842   4.978   4.718   6.178
10648SOL    HW132843   5.028   4.800   6.149
10648SOL    HW232844   5.030   4.637   6.152
10649SOL     OW32845   0.491   4.315   6.089
10649SOL    HW132846   0.477   4.224   6.130
10649SOL    HW232847   0.494   4.384   6.161
10650SOL     OW32848   2.890   0.307   5.643
10650SOL    HW132849   2.870   0.385   5.584
10650SOL    HW232850   2.810   0.249   5.650
10651SOL     OW32851   2.455   0.633   5.190
10651SOL    HW132852   2.440   0.606   5.095
10651SOL    HW232853   2.478   0.730   5.194
10652SOL     OW32854   4.055   1.584   0.605
10652SOL    HW132855   4.154   1.571   0.607
10652SOL    HW232856   4.010   1.494   0.597
10653SOL     OW32857   6.398   4.153   4.191
10653SOL    HW132858   6.469   4.085   4.177
10653SOL    HW232859   6.400   4.220   4.116
10654SOL     OW32860   4.821   0.762   2.112
10654SOL    HW132861   4.760   0.773   2.191
10654SOL    HW232862   4.769   0.779   2.028
10655SOL     OW32863   2.227   5.543   1.317
10655SOL    HW132864   2.212   5.622   1.256
10655SOL    HW232865   2.304   5.562   1.377
10656SOL     OW32866   6.556   2.964   6.962
10656SOL    HW132867   6.644   2.995   6.927
10656SOL    HW232868   6.566   2.872   7.001
10657SOL     OW32869   6.501   0.324   1.007
10657SOL    HW132870   6.530   0.230   0.991
10657SOL    HW232871   6.511   0.346   1.104
10658SOL     OW32872   0.182   6.194   4.377
10658SOL    HW132873   0.105   6.183   4.314
10658SOL    HW232874   0.221   6.104   4.398
10659SOL     OW32875   4.848   0.984   1.098
10659SOL    HW132876   4.893   0.994   1.187
10659SOL    HW232877   4.913   1.006   1.026
10660SOL     OW32878   5.417   5.523   5.572
10660SOL    HW132879   5.458   5.443   5.530
10660SOL    HW232880   5.486   5.573   5.625
10661SOL     OW32881   6.996   0.591   1.981
10661SOL    HW132882   6.931   0.624   1.912
10661SOL    HW232883   0.038   0.525   1.940
10662SOL     OW32884   6.897   1.837   0.134
10662SOL    HW132885   6.868   1.915   0.079
10662SOL    HW232886   6.823   1.811   0.197
10663SOL     OW32887   0.868   2.218   0.578
10663SOL    HW132888   0.787   2.263   0.615
10663SOL    HW232889   0.944   2.282   0.574
10664SOL     OW32890   2.402   5.293   5.920
10664SOL    HW132891   2.322   5.239   5.948
10664SOL    HW232892   2.460   5.237   5.860
10665SOL     OW32893   6.206   1.729   0.011
10665SOL    HW132894   6.126   1.685   0.053
10665SOL    HW232895   6.289   1.698   0.058
10666SOL     OW32896   0.709   6.736   0.641
10666SOL    HW132897   0.759   6.800   0.700
10666SOL    HW232898   0.611   6.758   0.644
10667SOL     OW32899   3.144   2.695   5.595
10667SOL    HW132900   3.085   2.775   5.597
10667SOL    HW232901   3.101   2.623   5.542
10668SOL     OW32902   2.226   0.843   5.978
10668SOL    HW132903   2.243   0.931   5.933
10668SOL    HW232904   2.247   0.850   6.075
10669SOL     OW32905   1.776   6.142   6.454
10669SOL    HW132906   1.685   6.176   6.475
10669SOL    HW232907   1.773   6.043   6.440
10670SOL     OW32908   6.343   4.300   4.791
10670SOL    HW132909   6.299   4.342   4.871
10670SOL    HW232910   6.442   4.309   4.799
10671SOL     OW32911   2.123   2.795   3.454
10671SOL    HW132912   2.113   2.825   3.549
10671SOL    HW232913   2.170   2.866   3.401
10672SOL     OW32914   6.791   2.308   0.884
10672SOL    HW132915   6.839   2.231   0.925
10672SOL    HW232916   6.823   2.320   0.790
10673SOL     OW32917   3.287   4.003   4.099
10673SOL    HW132918   3.326   3.911   4.103
10673SOL    HW232919   3.337   4.056   4.030
10674SOL     OW32920   4.378   1.364   2.104
10674SOL    HW132921   4.411   1.390   2.194
10674SOL    HW232922   4.278   1.355   2.106
10675SOL     OW32923   1.182   1.225   5.593
10675SOL    HW132924   1.098   1.269   5.561
10675SOL    HW232925   1.211   1.267   5.680
10676SOL     OW32926   6.693   0.491   6.685
10676SOL    HW132927   6.729   0.490   6.592
10676SOL    HW232928   6.624   0.420   6.695
10677SOL     OW32929   5.520   1.395   0.636
10677SOL    HW132930   5.462   1.359   0.709
10677SOL    HW232931   5.616   1.386   0.664
10678SOL     OW32932   1.733   5.262   3.463
10678SOL    HW132933   1.810   5.325   3.468
10678SOL    HW232934   1.766   5.172   3.432
10679SOL     OW32935   5.179   4.832   3.518
10679SOL    HW132936   5.237   4.900   3.564
10679SOL    HW232937   5.183   4.746   3.567
10680SOL     OW32938   0.563   2.760   3.709
10680SOL    HW132939   0.586   2.664   3.694
10680SOL    HW232940   0.570   2.810   3.622
10681SOL     OW32941   0.360   2.867   0.087
10681SOL    HW132942   0.393   2.902   7.019
10681SOL    HW232943   0.317   2.778   0.073
10682SOL     OW32944   6.304   2.207   3.423
10682SOL    HW132945   6.278   2.275   3.355
10682SOL    HW232946   6.383   2.155   3.390
10683SOL     OW32947   0.962   0.608   4.218
10683SOL    HW132948   1.006   0.635   4.133
10683SOL    HW232949   1.003   0.524   4.252
10684SOL     OW32950   5.175   5.913   0.968
10684SOL    HW132951   5.160   5.895   0.870
10684SOL    HW232952   5.095   5.883   1.020
10685SOL     OW32953   6.162   2.850   2.456
10685SOL    HW132954   6.068   2.817   2.465
10685SOL    HW232955   6.169   2.912   2.378
10686SOL     OW32956   4.538   4.580   1.417
10686SOL    HW132957   4.456   4.543   1.461
10686SOL    HW232958   4.514   4.623   1.330
10687SOL     OW32959   6.813   5.179   1.154
10687SOL    HW132960   6.849   5.170   1.247
10687SOL    HW232961   6.888   5.188   1.090
10688SOL     OW32962   1.047   4.731   1.244
10688SOL    HW132963   0.960   4.740   1.196
10688SOL    HW232964   1.085   4.640   1.226
10689SOL     OW32965   1.015   0.475   0.535
10689SOL    HW132966   1.018   0.561   0.485
10689SOL    HW232967   0.968   0.488   0.622
10690SOL     OW32968   4.477   0.065   3.070
10690SOL    HW132969   4.464   6.987   3.084
10690SOL    HW232970   4.450   0.114   3.152
10691SOL     OW32971   5.310   1.155   1.346
10691SOL    HW132972   5.234   1.095   1.320
10691SOL    HW232973   5.337   1.137   1.440
10692SOL     OW32974   6.208   6.822   3.987
10692SOL    HW132975   6.198   6.830   3.888
10692SOL    HW232976   6.178   6.731   4.016
10693SOL     OW32977   4.944   3.135   4.430
10693SOL    HW132978   4.858   3.088   4.451
10693SOL    HW232979   5.011   3.117   4.502
10694SOL     OW32980   2.414   6.036   0.440
10694SOL    HW132981   2.421   6.132   0.467
10694SOL    HW232982   2.483   6.015   0.370
10695SOL     OW32983   5.744   3.581   6.064
10695SOL    HW132984   5.840   3.609   6.055
10695SOL    HW232985   5.710   3.548   5.977
10696SOL     OW32986   6.566   0.062   0.891
10696SOL    HW132987   6.494   0.019   0.837
10696SOL    HW232988   6.654   0.047   0.847
10697SOL     OW32989   2.039   6.012   3.240
10697SOL    HW132990   1.953   5.991   3.194
10697SOL    HW232991   2.108   5.943   3.216
10698SOL     OW32992   3.060   0.484   5.015
10698SOL    HW132993   3.152   0.473   4.976
10698SOL    HW232994   2.991   0.470   4.944
10699SOL     OW32995   1.500   2.612   3.655
10699SOL    HW132996   1.548   2.558   3.725
10699SOL    HW232997   1.418   2.563   3.626
10700SOL     OW32998   1.103   3.114   2.629
10700SOL    HW132999   1.201   3.120   2.650
10700SOL    HW233000   1.090   3.079   2.537
10701SOL     OW33001   2.832   7.007   1.282
10701SOL    HW133002   2.751   7.011   1.224
10701SOL    HW233003   2.890   6.931   1.252
10702SOL     OW33004   4.979   2.265   0.487
10702SOL    HW133005   5.067   2.296   0.452
10702SOL    HW233006   4.914   2.341   0.486
10703SOL     OW33007   3.751   3.592   3.868
10703SOL    HW133008   3.817   3.640   3.810
10703SOL    HW233009   3.660   3.632   3.855
10704SOL     OW33010   5.552   5.405   2.125
10704SOL    HW133011   5.627   5.371   2.182
10704SOL    HW233012   5.570   5.501   2.101
10705SOL     OW33013   1.287   3.021   6.623
10705SOL    HW133014   1.335   3.023   6.711
10705SOL    HW233015   1.213   3.089   6.624
10706SOL     OW33016   3.593   3.278   1.054
10706SOL    HW133017   3.638   3.190   1.069
10706SOL    HW233018   3.639   3.327   0.980
10707SOL     OW33019   5.785   0.035   6.761
10707SOL    HW133020   5.788   0.080   6.850
10707SOL    HW233021   5.690   0.024   6.732
10708SOL     OW33022   4.816   2.088   1.712
10708SOL    HW133023   4.818   2.024   1.789
10708SOL    HW233024   4.808   2.181   1.746
10709SOL     OW33025   0.920   0.323   6.231
10709SOL    HW133026   0.885   0.362   6.145
10709SOL    HW233027   0.843   0.297   6.289
10710SOL     OW33028   0.337   5.982   3.446
10710SOL    HW133029   0.292   6.016   3.363
10710SOL    HW233030   0.361   6.059   3.505
10711SOL     OW33031   1.811   4.081   5.535
10711SOL    HW133032   1.799   3.984   5.557
10711SOL    HW233033   1.853   4.091   5.445
10712SOL     OW33034   3.157   1.981   6.809
10712SOL    HW133035   3.217   1.975   6.729
10712SOL    HW233036   3.166   1.898   6.864
10713SOL     OW33037   2.510   6.886   0.231
10713SOL    HW133038   2.503   6.932   0.320
10713SOL    HW233039   2.606   6.881   0.204
10714SOL     OW33040   5.022   5.588   4.207
10714SOL    HW133041   5.082   5.558   4.281
10714SOL    HW233042   4.946   5.524   4.198
10715SOL     OW33043   6.108   0.460   2.896
10715SOL    HW133044   6.186   0.517   2.868
10715SOL    HW233045   6.141   0.386   2.955
10716SOL     OW33046   6.939   1.252   2.142
10716SOL    HW133047   6.865   1.287   2.199
10716SOL    HW233048   6.907   1.172   2.091
10717SOL     OW33049   0.672   6.591   1.715
10717SOL    HW133050   0.602   6.622   1.779
10717SOL    HW233051   0.629   6.562   1.630
10718SOL     OW33052   0.803   4.533   5.213
10718SOL    HW133053   0.766   4.616   5.170
10718SOL    HW233054   0.745   4.455   5.189
10719SOL     OW33055   3.534   6.584   3.061
10719SOL    HW133056   3.487   6.496   3.069
10719SOL    HW233057   3.483   6.654   3.111
10720SOL     OW33058   0.403   2.891   6.076
10720SOL    HW133059   0.359   2.861   5.992
10720SOL    HW233060   0.458   2.973   6.058
10721SOL     OW33061   5.362   1.441   3.837
10721SOL    HW133062   5.450   1.443   3.885
10721SOL    HW233063   5.372   1.391   3.751
10722SOL     OW33064   0.812   5.288   0.328
10722SOL    HW133065   0.795   5.222   0.255
10722SOL    HW233066   0.725   5.329   0.357
10723SOL     OW33067   6.862   3.899   6.607
10723SOL    HW133068   6.855   3.890   6.706
10723SOL    HW233069   6.929   3.969   6.583
10724SOL     OW33070   3.244   6.512   5.741
10724SOL    HW133071   3.235   6.556   5.831
10724SOL    HW233072   3.195   6.425   5.742
10725SOL     OW33073   0.069   6.868   5.764
10725SOL    HW133074   0.037   6.777   5.737
10725SOL    HW233075   7.019   6.913   5.819
10726SOL     OW33076   6.967   0.352   3.252
10726SOL    HW133077   7.006   0.355   3.344
10726SOL    HW233078   6.908   0.271   3.244
10727SOL     OW33079   4.795   6.371   6.000
10727SOL    HW133080   4.861   6.311   6.045
10727SOL    HW233081   4.716   6.317   5.971
10728SOL     OW33082   5.931   5.860   3.483
10728SOL    HW133083   5.904   5.945   3.438
10728SOL    HW233084   5.856   5.828   3.540
10729SOL     OW33085   0.177   2.781   4.429
10729SOL    HW133086   0.154   2.702   4.374
10729SOL    HW233087   0.248   2.835   4.383
10730SOL     OW33088   1.524   6.172   4.531
10730SOL    HW133089   1.448   6.132   4.480
10730SOL    HW233090   1.535   6.124   4.618
10731SOL     OW33091   4.871   4.267   5.860
10731SOL    HW133092   4.779   4.304   5.873
10731SOL    HW233093   4.873   4.212   5.777
10732SOL     OW33094   6.033   6.421   2.087
10732SOL    HW133095   6.131   6.405   2.077
10732SOL    HW233096   6.009   6.424   2.184
10733SOL     OW33097   0.620   1.199   6.070
10733SOL    HW133098   0.552   1.125   6.077
10733SOL    HW233099   0.585   1.281   6.115
10734SOL     OW33100   0.773   0.558   4.628
10734SOL    HW133101   0.744   0.573   4.722
10734SOL    HW233102   0.740   0.469   4.597
10735SOL     OW33103   6.615   0.643   1.423
10735SOL    HW133104   6.655   0.577   1.486
10735SOL    HW233105   6.554   0.595   1.360
10736SOL     OW33106   5.697   6.065   3.573
10736SOL    HW133107   5.727   5.984   3.624
10736SOL    HW233108   5.665   6.134   3.638
10737SOL     OW33109   0.084   0.736   1.023
10737SOL    HW133110   0.094   0.658   0.961
10737SOL    HW233111   7.008   0.745   1.050
10738SOL     OW33112   1.578   6.415   1.971
10738SOL    HW133113   1.495   6.441   1.921
10738SOL    HW233114   1.623   6.496   2.006
10739SOL     OW33115   5.016   2.875   4.290
10739SOL    HW133116   4.984   2.963   4.324
10739SOL    HW233117   4.952   2.841   4.221
10740SOL     OW33118   2.533   0.828   6.219
10740SOL    HW133119   2.607   0.872   6.168
10740SOL    HW233120   2.538   0.729   6.205
10741SOL     OW33121   1.282   2.526   4.042
10741SOL    HW133122   1.216   2.500   4.112
10741SOL    HW233123   1.374   2.527   4.082
10742SOL     OW33124   0.503   0.231   2.008
10742SOL    HW133125   0.482   0.169   1.933
10742SOL    HW233126   0.489   0.184   2.095
10743SOL     OW33127   4.093   2.504   6.118
10743SOL    HW133128   4.041   2.503   6.032
10743SOL    HW233129   4.152   2.423   6.122
10744SOL     OW33130   1.955   2.419   1.435
10744SOL    HW133131   1.872   2.378   1.473
10744SOL    HW233132   2.029   2.352   1.439
10745SOL     OW33133   2.789   5.626   1.373
10745SOL    HW133134   2.757   5.582   1.457
10745SOL    HW233135   2.724   5.609   1.299
10746SOL     OW33136   2.465   5.454   6.410
10746SOL    HW133137   2.506   5.369   6.443
10746SOL    HW233138   2.505   5.479   6.322
10747SOL     OW33139   6.837   0.093   4.508
10747SOL    HW133140   6.847   0.135   4.417
10747SOL    HW233141   6.823   7.015   4.497
10748SOL     OW33142   2.805   6.404   2.534
10748SOL    HW133143   2.866   6.326   2.528
10748SOL    HW233144   2.858   6.487   2.550
10749SOL     OW33145   5.000   3.344   2.015
10749SOL    HW133146   5.086   3.369   1.972
10749SOL    HW233147   4.985   3.246   2.004
10750SOL     OW33148   3.716   1.843   4.151
10750SOL    HW133149   3.727   1.943   4.147
10750SOL    HW233150   3.786   1.800   4.093
10751SOL     OW33151   6.102   5.970   4.071
10751SOL    HW133152   6.165   6.035   4.029
10751SOL    HW233153   6.069   5.906   4.002
10752SOL     OW33154   0.225   6.013   6.797
10752SOL    HW133155   0.155   6.040   6.863
10752SOL    HW233156   0.196   5.930   6.749
10753SOL     OW33157   5.177   6.697   5.048
10753SOL    HW133158   5.192   6.795   5.029
10753SOL    HW233159   5.104   6.663   4.989
10754SOL     OW33160   0.009   5.679   2.187
10754SOL    HW133161   6.933   5.696   2.169
10754SOL    HW233162   0.026   5.688   2.285
10755SOL     OW33163   0.455   1.820   1.879
10755SOL    HW133164   0.410   1.779   1.800
10755SOL    HW233165   0.447   1.758   1.957
10756SOL     OW33166   1.090   6.902   6.233
10756SOL    HW133167   0.991   6.886   6.239
10756SOL    HW233168   1.138   6.814   6.235
10757SOL     OW33169   0.024   2.843   1.791
10757SOL    HW133170   6.990   2.878   1.715
10757SOL    HW233171   0.059   2.752   1.767
10758SOL     OW33172   0.921   1.806   0.443
10758SOL    HW133173   0.836   1.857   0.460
10758SOL    HW233174   0.943   1.751   0.523
10759SOL     OW33175   3.516   4.070   5.464
10759SOL    HW133176   3.583   3.998   5.445
10759SOL    HW233177   3.565   4.154   5.490
10760SOL     OW33178   0.493   4.905   0.071
10760SOL    HW133179   0.524   4.896   6.997
10760SOL    HW233180   0.563   4.950   0.125
10761SOL     OW33181   1.555   1.163   6.880
10761SOL    HW133182   1.495   1.146   6.802
10761SOL    HW233183   1.608   1.080   6.900
10762SOL     OW33184   1.669   6.445   0.910
10762SOL    HW133185   1.755   6.439   0.960
10762SOL    HW233186   1.616   6.523   0.944
10763SOL     OW33187   5.146   1.306   2.383
10763SOL    HW133188   5.132   1.326   2.480
10763SOL    HW233189   5.099   1.375   2.328
10764SOL     OW33190   5.220   6.322   5.265
10764SOL    HW133191   5.202   6.240   5.210
10764SOL    HW233192   5.284   6.381   5.215
10765SOL     OW33193   0.090   2.792   1.224
10765SOL    HW133194   0.145   2.812   1.304
10765SOL    HW233195   0.004   2.842   1.229
10766SOL     OW33196   2.874   4.781   6.376
10766SOL    HW133197   2.923   4.867   6.387
10766SOL    HW233198   2.851   4.767   6.280
10767SOL     OW33199   1.711   4.881   6.647
10767SOL    HW133200   1.692   4.957   6.708
10767SOL    HW233201   1.753   4.915   6.563
10768SOL     OW33202   5.507   6.242   6.648
10768SOL    HW133203   5.472   6.328   6.609
10768SOL    HW233204   5.472   6.231   6.741
10769SOL     OW33205   3.003   3.542   4.601
10769SOL    HW133206   2.962   3.502   4.684
10769SOL    HW233207   2.984   3.640   4.599
10770SOL     OW33208   4.831   0.127   3.888
10770SOL    HW133209   4.917   0.159   3.927
10770SOL    HW233210   4.756   0.184   3.919
10771SOL     OW33211   4.670   5.973   5.887
10771SOL    HW133212   4.743   6.024   5.842
10771SOL    HW233213   4.601   6.038   5.921
10772SOL     OW33214   4.863   3.899   3.220
10772SOL    HW133215   4.860   3.883   3.319
10772SOL    HW233216   4.803   3.975   3.196
10773SOL     OW33217   0.725   3.927   0.755
10773SOL    HW133218   0.675   4.003   0.713
10773SOL    HW233219   0.737   3.945   0.852
10774SOL     OW33220   0.155   2.855   0.573
10774SOL    HW133221   0.139   2.940   0.522
10774SOL    HW233222   0.225   2.801   0.526
10775SOL     OW33223   2.410   4.838   6.971
10775SOL    HW133224   2.369   4.906   6.911
10775SOL    HW233225   2.345   4.764   6.988
10776SOL     OW33226   0.822   3.627   3.149
10776SOL    HW133227   0.771   3.654   3.231
10776SOL    HW233228   0.799   3.533   3.125
10777SOL     OW33229   1.579   6.916   1.913
10777SOL    HW133230   1.617   6.947   2.001
10777SOL    HW233231   1.650   6.923   1.843
10778SOL     OW33232   4.862   0.482   3.787
10778SOL    HW133233   4.905   0.514   3.702
10778SOL    HW233234   4.763   0.480   3.775
10779SOL     OW33235   5.618   3.027   6.086
10779SOL    HW133236   5.541   3.019   6.151
10779SOL    HW233237   5.653   3.121   6.087
10780SOL     OW33238   0.859   4.961   4.782
10780SOL    HW133239   0.794   5.011   4.725
10780SOL    HW233240   0.951   4.972   4.744
10781SOL     OW33241   6.180   2.646   5.779
10781SOL    HW133242   6.265   2.655   5.727
10781SOL    HW233243   6.103   2.637   5.716
10782SOL     OW33244   1.195   3.516   5.294
10782SOL    HW133245   1.286   3.526   5.255
10782SOL    HW233246   1.188   3.430   5.343
10783SOL     OW33247   1.439   4.154   4.006
10783SOL    HW133248   1.432   4.239   3.955
10783SOL    HW233249   1.367   4.091   3.977
10784SOL     OW33250   4.576   5.302   3.725
10784SOL    HW133251   4.535   5.393   3.736
10784SOL    HW233252   4.548   5.264   3.637
10785SOL     OW33253   1.404   5.252   1.638
10785SOL    HW133254   1.429   5.168   1.591
10785SOL    HW233255   1.429   5.245   1.735
10786SOL     OW33256   5.044   1.489   2.571
10786SOL    HW133257   4.954   1.452   2.593
10786SOL    HW233258   5.115   1.437   2.620
10787SOL     OW33259   3.273   1.477   3.827
10787SOL    HW133260   3.359   1.472   3.878
10787SOL    HW233261   3.230   1.387   3.826
10788SOL     OW33262   1.590   3.116   0.119
10788SOL    HW133263   1.677   3.142   0.078
10788SOL    HW233264   1.541   3.054   0.058
10789SOL     OW33265   6.083   2.164   2.482
10789SOL    HW133266   6.098   2.262   2.492
10789SOL    HW233267   6.117   2.116   2.563
10790SOL     OW33268   0.031   2.056   5.358
10790SOL    HW133269   0.107   2.012   5.405
10790SOL    HW233270   6.975   2.068   5.422
10791SOL     OW33271   1.617   3.552   3.582
10791SOL    HW133272   1.695   3.505   3.541
10791SOL    HW233273   1.578   3.617   3.517
10792SOL     OW33274   3.978   1.099   2.079
10792SOL    HW133275   3.998   1.045   2.161
10792SOL    HW233276   4.022   1.058   2.000
10793SOL     OW33277   4.177   2.099   4.567
10793SOL    HW133278   4.177   2.014   4.619
10793SOL    HW233279   4.084   2.122   4.540
10794SOL     OW33280   4.864   2.577   6.512
10794SOL    HW133281   4.840   2.530   6.597
10794SOL    HW233282   4.959   2.609   6.517
10795SOL     OW33283   6.234   3.078   3.707
10795SOL    HW133284   6.154   3.038   3.662
10795SOL    HW233285   6.231   3.178   3.697
10796SOL     OW33286   0.510   1.877   6.544
10796SOL    HW133287   0.542   1.862   6.638
10796SOL    HW233288   0.519   1.973   6.520
10797SOL     OW33289   5.350   5.146   6.464
10797SOL    HW133290   5.311   5.121   6.552
10797SOL    HW233291   5.449   5.129   6.465
10798SOL     OW33292   2.142   5.603   0.849
10798SOL    HW133293   2.103   5.649   0.769
10798SOL    HW233294   2.226   5.556   0.823
10799SOL     OW33295   1.780   0.443   3.179
10799SOL    HW133296   1.751   0.535   3.203
10799SOL    HW233297   1.871   0.446   3.136
10800SOL     OW33298   1.908   0.692   4.707
10800SOL    HW133299   1.848   0.736   4.774
10800SOL    HW233300   1.892   0.732   4.617
10801SOL     OW33301   2.870   6.466   6.642
10801SOL    HW133302   2.806   6.452   6.718
10801SOL    HW233303   2.902   6.378   6.609
10802SOL     OW33304   0.850   4.735   3.885
10802SOL    HW133305   0.877   4.688   3.969
10802SOL    HW233306   0.851   4.834   3.900
10803SOL     OW33307   6.871   4.300   4.474
10803SOL    HW133308   6.904   4.375   4.531
10803SOL    HW233309   6.909   4.310   4.382
10804SOL     OW33310   4.246   4.909   0.227
10804SOL    HW133311   4.289   4.819   0.218
10804SOL    HW233312   4.310   4.972   0.269
10805SOL     OW33313   4.902   6.197   0.526
10805SOL    HW133314   4.946   6.274   0.480
10805SOL    HW233315   4.832   6.158   0.465
10806SOL     OW33316   4.974   2.943   5.578
10806SOL    HW133317   4.942   2.887   5.654
10806SOL    HW233318   4.962   3.040   5.600
10807SOL     OW33319   4.565   2.935   5.375
10807SOL    HW133320   4.590   2.910   5.281
10807SOL    HW233321   4.602   3.026   5.396
10808SOL     OW33322   0.655   2.786   0.495
10808SOL    HW133323   0.624   2.782   0.400
10808SOL    HW233324   0.603   2.856   0.544
10809SOL     OW33325   0.926   0.776   2.673
10809SOL    HW133326   0.853   0.838   2.647
10809SOL    HW233327   0.997   0.827   2.722
10810SOL     OW33328   1.735   1.305   5.906
10810SOL    HW133329   1.777   1.254   5.981
10810SOL    HW233330   1.639   1.323   5.927
10811SOL     OW33331   4.198   6.318   6.450
10811SOL    HW133332   4.289   6.342   6.417
10811SOL    HW233333   4.205   6.248   6.521
10812SOL     OW33334   6.601   3.394   3.140
10812SOL    HW133335   6.671   3.362   3.204
10812SOL    HW233336   6.528   3.326   3.134
10813SOL     OW33337   2.936   5.980   2.379
10813SOL    HW133338   2.969   6.012   2.290
10813SOL    HW233339   2.900   5.887   2.369
10814SOL     OW33340   2.357   6.323   4.285
10814SOL    HW133341   2.285   6.393   4.283
10814SOL    HW233342   2.344   6.264   4.364
10815SOL     OW33343   5.562   1.961   5.670
10815SOL    HW133344   5.572   1.968   5.571
10815SOL    HW233345   5.612   1.881   5.704
10816SOL     OW33346   2.301   2.274   1.132
10816SOL    HW133347   2.257   2.278   1.222
10816SOL    HW233348   2.400   2.264   1.144
10817SOL     OW33349   3.691   1.654   2.032
10817SOL    HW133350   3.618   1.637   1.966
10817SOL    HW233351   3.679   1.743   2.074
10818SOL     OW33352   4.780   3.494   6.147
10818SOL    HW133353   4.717   3.421   6.121
10818SOL    HW233354   4.870   3.455   6.165
10819SOL     OW33355   2.077   3.911   5.206
10819SOL    HW133356   2.170   3.907   5.169
10819SOL    HW233357   2.074   3.859   5.292
10820SOL     OW33358   1.025   6.266   5.819
10820SOL    HW133359   1.080   6.188   5.849
10820SOL    HW233360   0.975   6.242   5.736
10821SOL     OW33361   0.207   0.642   6.706
10821SOL    HW133362   0.126   0.590   6.734
10821SOL    HW233363   0.203   0.734   6.746
10822SOL     OW33364   0.586   4.644   6.120
10822SOL    HW133365   0.673   4.673   6.160
10822SOL    HW233366   0.594   4.639   6.021
10823SOL     OW33367   1.894   2.090   0.805
10823SOL    HW133368   1.870   2.015   0.743
10823SOL    HW233369   1.845   2.078   0.892
10824SOL     OW33370   5.435   1.323   4.777
10824SOL    HW133371   5.497   1.398   4.797
10824SOL    HW233372   5.357   1.356   4.723
10825SOL     OW33373   3.415   1.172   2.178
10825SOL    HW133374   3.329   1.205   2.216
10825SOL    HW233375   3.455   1.242   2.118
10826SOL     OW33376   6.764   3.279   1.084
10826SOL    HW133377   6.692   3.260   1.017
10826SOL    HW233378   6.838   3.213   1.073
10827SOL     OW33379   0.868   2.483   4.482
10827SOL    HW133380   0.787   2.474   4.425
10827SOL    HW233381   0.841   2.512   4.574
10828SOL     OW33382   2.683   4.717   0.099
10828SOL    HW133383   2.647   4.624   0.100
10828SOL    HW233384   2.608   4.781   0.085
10829SOL     OW33385   2.420   3.809   1.747
10829SOL    HW133386   2.398   3.906   1.758
10829SOL    HW233387   2.482   3.796   1.670
10830SOL     OW33388   6.676   0.893   3.341
10830SOL    HW133389   6.726   0.978   3.323
10830SOL    HW233390   6.737   0.815   3.330
10831SOL     OW33391   5.243   2.583   2.137
10831SOL    HW133392   5.151   2.619   2.149
10831SOL    HW233393   5.304   2.656   2.104
10832SOL     OW33394   1.396   2.888   2.371
10832SOL    HW133395   1.434   2.849   2.287
10832SOL    HW233396   1.440   2.846   2.450
10833SOL     OW33397   3.541   6.776   4.688
10833SOL    HW133398   3.485   6.796   4.608
10833SOL    HW233399   3.546   6.857   4.747
10834SOL     OW33400   0.155   1.680   5.983
10834SOL    HW133401   0.089   1.604   5.979
10834SOL    HW233402   0.157   1.726   5.894
10835SOL     OW33403   0.705   1.949   0.489
10835SOL    HW133404   0.710   2.040   0.530
10835SOL    HW233405   0.625   1.945   0.429
10836SOL     OW33406   0.338   2.406   1.365
10836SOL    HW133407   0.376   2.494   1.335
10836SOL    HW233408   0.276   2.422   1.442
10837SOL     OW33409   1.353   5.199   0.581
10837SOL    HW133410   1.366   5.185   0.679
10837SOL    HW233411   1.326   5.293   0.564
10838SOL     OW33412   6.580   5.838   0.580
10838SOL    HW133413   6.613   5.901   0.510
10838SOL    HW233414   6.539   5.891   0.655
10839SOL     OW33415   2.342   1.901   6.960
10839SOL    HW133416   2.418   1.926   6.900
10839SOL    HW233417   2.256   1.927   6.917
10840SOL     OW33418   1.912   0.398   3.443
10840SOL    HW133419   1.872   0.414   3.353
10840SOL    HW233420   2.005   0.435   3.445
10841SOL     OW33421   4.351   4.311   0.270
10841SOL    HW133422   4.357   4.350   0.178
10841SOL    HW233423   4.255   4.290   0.291
10842SOL     OW33424   6.397   1.756   2.032
10842SOL    HW133425   6.473   1.817   2.057
10842SOL    HW233426   6.310   1.802   2.049
10843SOL     OW33427   0.896   2.426   1.166
10843SOL    HW133428   0.977   2.394   1.118
10843SOL    HW233429   0.839   2.480   1.104
10844SOL     OW33430   5.387   0.264   4.551
10844SOL    HW133431   5.465   0.215   4.512
10844SOL    HW233432   5.383   0.356   4.513
10845SOL     OW33433   2.144   3.826   1.410
10845SOL    HW133434   2.172   3.830   1.506
10845SOL    HW233435   2.197   3.892   1.356
10846SOL     OW33436   3.628   2.972   1.803
10846SOL    HW133437   3.728   2.976   1.795
10846SOL    HW233438   3.591   3.065   1.796
10847SOL     OW33439   5.034   1.923   5.376
10847SOL    HW133440   5.019   1.996   5.444
10847SOL    HW233441   4.982   1.944   5.293
10848SOL     OW33442   1.543   0.789   6.777
10848SOL    HW133443   1.539   0.709   6.718
10848SOL    HW233444   1.591   0.863   6.730
10849SOL     OW33445   0.896   4.464   4.745
10849SOL    HW133446   0.842   4.382   4.724
10849SOL    HW233447   0.978   4.439   4.795
10850SOL     OW33448   6.274   0.964   2.960
10850SOL    HW133449   6.299   0.885   3.016
10850SOL    HW233450   6.262   1.044   3.019
10851SOL     OW33451   4.947   2.795   6.774
10851SOL    HW133452   4.992   2.721   6.724
10851SOL    HW233453   4.857   2.812   6.734
10852SOL     OW33454   6.017   1.117   6.007
10852SOL    HW133455   6.074   1.058   5.950
10852SOL    HW233456   6.072   1.155   6.081
10853SOL     OW33457   2.833   0.486   5.457
10853SOL    HW133458   2.889   0.440   5.388
10853SOL    HW233459   2.753   0.527   5.413
10854SOL     OW33460   6.334   6.966   6.921
10854SOL    HW133461   6.243   6.976   6.879
10854SOL    HW233462   6.324   6.925   7.011
10855SOL     OW33463   0.733   5.937   0.840
10855SOL    HW133464   0.718   5.989   0.924
10855SOL    HW233465   0.818   5.968   0.796
10856SOL     OW33466   4.973   6.814   6.662
10856SOL    HW133467   5.040   6.803   6.736
10856SOL    HW233468   4.909   6.886   6.686
10857SOL     OW33469   6.462   6.907   4.690
10857SOL    HW133470   6.397   6.839   4.656
10857SOL    HW233471   6.552   6.864   4.703
10858SOL     OW33472   1.837   2.322   0.646
10858SOL    HW133473   1.766   2.279   0.589
10858SOL    HW233474   1.894   2.251   0.687
10859SOL     OW33475   2.587   5.646   1.897
10859SOL    HW133476   2.595   5.619   1.801
10859SOL    HW233477   2.672   5.689   1.927
10860SOL     OW33478   6.148   1.392   1.652
10860SOL    HW133479   6.176   1.444   1.733
10860SOL    HW233480   6.060   1.348   1.670
10861SOL     OW33481   1.704   4.785   1.032
10861SOL    HW133482   1.759   4.822   1.106
10861SOL    HW233483   1.736   4.694   1.008
10862SOL     OW33484   3.569   4.450   5.324
10862SOL    HW133485   3.475   4.484   5.323
10862SOL    HW233486   3.578   4.375   5.258
10863SOL     OW33487   1.249   6.924   3.437
10863SOL    HW133488   1.283   6.998   3.495
10863SOL    HW233489   1.154   6.904   3.460
10864SOL     OW33490   2.998   4.077   1.756
10864SOL    HW133491   3.049   4.047   1.837
10864SOL    HW233492   2.972   4.173   1.767
10865SOL     OW33493   2.744   1.711   2.714
10865SOL    HW133494   2.715   1.649   2.640
10865SOL    HW233495   2.743   1.805   2.680
10866SOL     OW33496   0.676   3.494   4.389
10866SOL    HW133497   0.678   3.562   4.315
10866SOL    HW233498   0.728   3.528   4.467
10867SOL     OW33499   4.823   2.869   0.377
10867SOL    HW133500   4.851   2.937   0.445
10867SOL    HW233501   4.727   2.844   0.393
10868SOL     OW33502   0.962   0.016   5.503
10868SOL    HW133503   0.946   0.016   5.405
10868SOL    HW233504   1.059   7.018   5.521
10869NA      NA33505   0.131   0.864   6.371
10870NA      NA33506   4.720   4.880   4.958
10871NA      NA33507   0.744   4.641   2.888
10872NA      NA33508   6.216   3.798   3.336
10873NA      NA33509   4.156   2.367   5.296
10874NA      NA33510   2.253   3.702   7.013
10875NA      NA33511   1.678   5.651   0.369
10876NA      NA33512   4.147   4.810   2.236
10877NA      NA33513   5.374   3.551   1.227
10878NA      NA33514   3.857   1.734   0.685
10879NA      NA33515   5.388   6.775   1.330
10880NA      NA33516   2.910   6.641   4.699
10881NA      NA33517   3.345   5.546   2.993
10882NA      NA33518   3.945   4.939   6.679
   7.02036   7.02036   7.02036
