Generated by trjconv : CNT in water t= 531.00000
33518
    1C        C    1   2.837   2.762   4.745
    1C        C    2   2.894   2.718   4.866
    1C        C    3   2.842   2.775   4.983
    1C        C    4   2.845   2.771   4.257
    1C        C    5   2.896   2.725   4.381
    1C        C    6   2.841   2.769   4.504
    1C        C    7   3.012   2.639   4.624
    1C        C    8   2.895   2.719   4.624
    1C        C    9   3.072   2.600   4.745
    1C        C   10   3.006   2.631   4.866
    1C        C   11   3.182   2.489   4.971
    1C        C   12   3.060   2.560   4.973
    1C        C   13   2.842   2.764   3.771
    1C        C   14   2.895   2.715   3.892
    1C        C   15   2.843   2.767   4.013
    1C        C   16   3.016   2.644   4.139
    1C        C   17   2.900   2.725   4.135
    1C        C   18   3.078   2.613   4.262
    1C        C   19   3.018   2.654   4.383
    1C        C   20   3.213   2.565   4.502
    1C        C   21   3.080   2.614   4.503
    1C        C   22   3.278   2.537   4.624
    1C        C   23   3.206   2.550   4.745
    1C        C   24   3.413   2.478   4.862
    1C        C   25   3.272   2.501   4.860
    1C        C   26   3.490   2.482   4.979
    1C        C   27   2.844   2.763   3.280
    1C        C   28   2.900   2.722   3.403
    1C        C   29   2.848   2.770   3.526
    1C        C   30   3.016   2.643   3.649
    1C        C   31   2.900   2.723   3.649
    1C        C   32   3.077   2.606   3.771
    1C        C   33   3.013   2.637   3.893
    1C        C   34   3.206   2.554   4.012
    1C        C   35   3.076   2.607   4.016
    1C        C   36   3.275   2.533   4.134
    1C        C   37   3.209   2.559   4.257
    1C        C   38   3.415   2.508   4.380
    1C        C   39   3.278   2.542   4.379
    1C        C   40   3.487   2.500   4.501
    1C        C   41   3.416   2.507   4.624
    1C        C   42   3.630   2.486   4.740
    1C        C   43   3.488   2.477   4.741
    1C        C   44   3.706   2.485   4.859
    1C        C   45   3.628   2.476   4.976
    1C        C   46   2.833   2.750   2.791
    1C        C   47   2.889   2.708   2.914
    1C        C   48   2.835   2.756   3.036
    1C        C   49   3.013   2.639   3.161
    1C        C   50   2.894   2.714   3.157
    1C        C   51   3.074   2.603   3.283
    1C        C   52   3.013   2.637   3.406
    1C        C   53   3.209   2.552   3.524
    1C        C   54   3.078   2.604   3.527
    1C        C   55   3.276   2.531   3.646
    1C        C   56   3.208   2.554   3.768
    1C        C   57   3.416   2.514   3.891
    1C        C   58   3.276   2.537   3.891
    1C        C   59   3.485   2.507   4.014
    1C        C   60   3.413   2.507   4.136
    1C        C   61   3.626   2.501   4.256
    1C        C   62   3.485   2.496   4.258
    1C        C   63   3.700   2.508   4.376
    1C        C   64   3.628   2.504   4.497
    1C        C   65   3.838   2.536   4.619
    1C        C   66   3.700   2.507   4.619
    1C        C   67   3.908   2.558   4.740
    1C        C   68   3.842   2.522   4.860
    1C        C   69   4.050   2.586   4.977
    1C        C   70   3.920   2.533   4.975
    1C        C   71   2.823   2.736   2.307
    1C        C   72   2.881   2.691   2.428
    1C        C   73   2.827   2.743   2.547
    1C        C   74   3.006   2.628   2.670
    1C        C   75   2.884   2.700   2.669
    1C        C   76   3.066   2.592   2.793
    1C        C   77   3.007   2.630   2.915
    1C        C   78   3.204   2.551   3.036
    1C        C   79   3.074   2.607   3.037
    1C        C   80   3.274   2.531   3.157
    1C        C   81   3.206   2.552   3.280
    1C        C   82   3.414   2.504   3.403
    1C        C   83   3.276   2.532   3.401
    1C        C   84   3.485   2.497   3.525
    1C        C   85   3.416   2.511   3.648
    1C        C   86   3.628   2.502   3.769
    1C        C   87   3.487   2.506   3.770
    1C        C   88   3.697   2.509   3.892
    1C        C   89   3.626   2.505   4.014
    1C        C   90   3.836   2.541   4.132
    1C        C   91   3.699   2.507   4.135
    1C        C   92   3.907   2.564   4.253
    1C        C   93   3.837   2.543   4.374
    1C        C   94   4.029   2.627   4.497
    1C        C   95   3.904   2.561   4.497
    1C        C   96   4.091   2.667   4.617
    1C        C   97   4.034   2.623   4.739
    1C        C   98   4.188   2.766   4.858
    1C        C   99   4.101   2.652   4.861
    1C        C  100   4.217   2.840   4.973
    1C        C  101   2.818   2.723   2.067
    1C        C  102   2.991   2.597   2.186
    1C        C  103   2.871   2.675   2.188
    1C        C  104   3.062   2.573   2.307
    1C        C  105   3.000   2.615   2.427
    1C        C  106   3.198   2.538   2.548
    1C        C  107   3.066   2.587   2.549
    1C        C  108   3.266   2.521   2.671
    1C        C  109   3.199   2.544   2.793
    1C        C  110   3.409   2.508   2.913
    1C        C  111   3.269   2.526   2.914
    1C        C  112   3.480   2.501   3.035
    1C        C  113   3.413   2.509   3.159
    1C        C  114   3.626   2.495   3.279
    1C        C  115   3.485   2.495   3.280
    1C        C  116   3.697   2.505   3.400
    1C        C  117   3.626   2.497   3.522
    1C        C  118   3.832   2.547   3.642
    1C        C  119   3.696   2.508   3.645
    1C        C  120   3.898   2.569   3.765
    1C        C  121   3.833   2.545   3.889
    1C        C  122   4.026   2.635   4.011
    1C        C  123   3.902   2.567   4.010
    1C        C  124   4.091   2.671   4.131
    1C        C  125   4.032   2.630   4.253
    1C        C  126   4.197   2.759   4.375
    1C        C  127   4.091   2.666   4.376
    1C        C  128   4.244   2.817   4.495
    1C        C  129   4.195   2.763   4.616
    1C        C  130   4.329   2.929   4.739
    1C        C  131   4.246   2.814   4.738
    1C        C  132   4.358   3.000   4.858
    1C        C  133   4.285   2.961   4.971
    1C        C  134   3.175   2.476   2.079
    1C        C  135   3.040   2.516   2.079
    1C        C  136   3.261   2.484   2.189
    1C        C  137   3.195   2.523   2.308
    1C        C  138   3.404   2.479   2.429
    1C        C  139   3.266   2.506   2.428
    1C        C  140   3.479   2.482   2.549
    1C        C  141   3.406   2.499   2.669
    1C        C  142   3.619   2.501   2.791
    1C        C  143   3.478   2.498   2.790
    1C        C  144   3.691   2.510   2.912
    1C        C  145   3.622   2.496   3.034
    1C        C  146   3.832   2.534   3.153
    1C        C  147   3.694   2.503   3.155
    1C        C  148   3.899   2.561   3.274
    1C        C  149   3.834   2.541   3.397
    1C        C  150   4.027   2.627   3.521
    1C        C  151   3.900   2.565   3.520
    1C        C  152   4.089   2.664   3.642
    1C        C  153   4.024   2.632   3.763
    1C        C  154   4.192   2.760   3.885
    1C        C  155   4.081   2.672   3.886
    1C        C  156   4.244   2.809   4.007
    1C        C  157   4.201   2.759   4.132
    1C        C  158   4.342   2.916   4.250
    1C        C  159   4.253   2.806   4.254
    1C        C  160   4.375   2.981   4.371
    1C        C  161   4.333   2.927   4.494
    1C        C  162   4.440   3.110   4.616
    1C        C  163   4.370   2.987   4.616
    1C        C  164   4.470   3.180   4.734
    1C        C  165   4.436   3.117   4.856
    1C        C  166   4.514   3.317   4.972
    1C        C  167   4.480   3.182   4.973
    1C        C  168   3.475   2.425   2.074
    1C        C  169   3.400   2.458   2.188
    1C        C  170   3.617   2.470   2.305
    1C        C  171   3.475   2.467   2.307
    1C        C  172   3.691   2.487   2.424
    1C        C  173   3.620   2.483   2.546
    1C        C  174   3.825   2.540   2.666
    1C        C  175   3.688   2.506   2.668
    1C        C  176   3.895   2.562   2.787
    1C        C  177   3.829   2.540   2.910
    1C        C  178   4.025   2.624   3.031
    1C        C  179   3.899   2.561   3.032
    1C        C  180   4.090   2.656   3.152
    1C        C  181   4.027   2.622   3.274
    1C        C  182   4.196   2.749   3.394
    1C        C  183   4.084   2.663   3.396
    1C        C  184   4.245   2.802   3.515
    1C        C  185   4.197   2.756   3.640
    1C        C  186   4.338   2.912   3.764
    1C        C  187   4.247   2.805   3.762
    1C        C  188   4.377   2.976   3.884
    1C        C  189   4.334   2.918   4.005
    1C        C  190   4.441   3.101   4.127
    1C        C  191   4.378   2.975   4.127
    1C        C  192   4.469   3.169   4.248
    1C        C  193   4.437   3.108   4.372
    1C        C  194   4.506   3.310   4.491
    1C        C  195   4.464   3.175   4.493
    1C        C  196   4.517   3.385   4.610
    1C        C  197   4.504   3.318   4.734
    1C        C  198   4.552   3.531   4.849
    1C        C  199   4.529   3.390   4.854
    1C        C  200   4.577   3.615   4.962
    1C        C  201   3.615   2.419   2.073
    1C        C  202   3.827   2.511   2.180
    1C        C  203   3.691   2.467   2.184
    1C        C  204   3.898   2.535   2.300
    1C        C  205   3.829   2.516   2.422
    1C        C  206   4.022   2.612   2.541
    1C        C  207   3.894   2.552   2.543
    1C        C  208   4.085   2.649   2.662
    1C        C  209   4.023   2.621   2.785
    1C        C  210   4.195   2.747   2.906
    1C        C  211   4.082   2.662   2.907
    1C        C  212   4.251   2.794   3.027
    1C        C  213   4.203   2.741   3.149
    1C        C  214   4.333   2.907   3.271
    1C        C  215   4.249   2.794   3.271
    1C        C  216   4.369   2.969   3.393
    1C        C  217   4.335   2.911   3.517
    1C        C  218   4.432   3.098   3.637
    1C        C  219   4.374   2.969   3.639
    1C        C  220   4.460   3.167   3.757
    1C        C  221   4.436   3.104   3.882
    1C        C  222   4.500   3.305   4.002
    1C        C  223   4.466   3.167   4.005
    1C        C  224   4.509   3.376   4.123
    1C        C  225   4.498   3.307   4.245
    1C        C  226   4.510   3.519   4.365
    1C        C  227   4.510   3.378   4.367
    1C        C  228   4.514   3.593   4.485
    1C        C  229   4.525   3.526   4.609
    1C        C  230   4.499   3.741   4.724
    1C        C  231   4.533   3.602   4.727
    1C        C  232   4.488   3.813   4.844
    1C        C  233   4.547   3.752   4.956
    1C        C  234   4.019   2.602   2.058
    1C        C  235   3.895   2.539   2.060
    1C        C  236   4.087   2.638   2.175
    1C        C  237   4.023   2.603   2.296
    1C        C  238   4.193   2.733   2.416
    1C        C  239   4.083   2.643   2.418
    1C        C  240   4.247   2.781   2.537
    1C        C  241   4.197   2.735   2.661
    1C        C  242   4.336   2.899   2.780
    1C        C  243   4.247   2.789   2.781
    1C        C  244   4.378   2.959   2.901
    1C        C  245   4.341   2.902   3.025
    1C        C  246   4.434   3.092   3.147
    1C        C  247   4.375   2.964   3.148
    1C        C  248   4.454   3.160   3.269
    1C        C  249   4.426   3.098   3.393
    1C        C  250   4.496   3.300   3.512
    1C        C  251   4.454   3.165   3.514
    1C        C  252   4.508   3.372   3.633
    1C        C  253   4.499   3.302   3.755
    1C        C  254   4.518   3.513   3.876
    1C        C  255   4.511   3.371   3.878
    1C        C  256   4.513   3.584   3.997
    1C        C  257   4.515   3.517   4.122
    1C        C  258   4.487   3.730   4.239
    1C        C  259   4.508   3.590   4.243
    1C        C  260   4.471   3.801   4.360
    1C        C  261   4.492   3.732   4.482
    1C        C  262   4.429   3.939   4.601
    1C        C  263   4.480   3.807   4.601
    1C        C  264   4.401   4.009   4.720
    1C        C  265   4.434   3.943   4.841
    1C        C  266   4.317   4.125   4.955
    1C        C  267   4.400   4.014   4.957
    1C        C  268   4.262   2.775   2.064
    1C        C  269   4.195   2.728   2.178
    1C        C  270   4.341   2.892   2.295
    1C        C  271   4.250   2.783   2.297
    1C        C  272   4.381   2.948   2.418
    1C        C  273   4.336   2.892   2.539
    1C        C  274   4.445   3.080   2.657
    1C        C  275   4.374   2.958   2.658
    1C        C  276   4.469   3.149   2.778
    1C        C  277   4.442   3.085   2.900
    1C        C  278   4.497   3.290   3.023
    1C        C  279   4.464   3.152   3.022
    1C        C  280   4.505   3.363   3.143
    1C        C  281   4.489   3.297   3.267
    1C        C  282   4.510   3.508   3.387
    1C        C  283   4.505   3.367   3.388
    1C        C  284   4.512   3.580   3.509
    1C        C  285   4.518   3.513   3.633
    1C        C  286   4.487   3.724   3.753
    1C        C  287   4.511   3.585   3.755
    1C        C  288   4.472   3.794   3.875
    1C        C  289   4.488   3.724   3.997
    1C        C  290   4.423   3.930   4.114
    1C        C  291   4.469   3.797   4.116
    1C        C  292   4.397   3.998   4.235
    1C        C  293   4.426   3.935   4.359
    1C        C  294   4.324   4.124   4.477
    1C        C  295   4.399   4.004   4.479
    1C        C  296   4.278   4.184   4.597
    1C        C  297   4.327   4.131   4.718
    1C        C  298   4.199   4.310   4.835
    1C        C  299   4.287   4.196   4.838
    1C        C  300   4.167   4.399   4.943
    1C        C  301   4.353   2.880   2.057
    1C        C  302   4.465   3.069   2.175
    1C        C  303   4.393   2.946   2.174
    1C        C  304   4.474   3.145   2.295
    1C        C  305   4.444   3.075   2.414
    1C        C  306   4.508   3.280   2.534
    1C        C  307   4.473   3.143   2.534
    1C        C  308   4.519   3.353   2.655
    1C        C  309   4.500   3.287   2.778
    1C        C  310   4.519   3.499   2.896
    1C        C  311   4.512   3.358   2.900
    1C        C  312   4.512   3.571   3.017
    1C        C  313   4.516   3.504   3.142
    1C        C  314   4.487   3.715   3.262
    1C        C  315   4.514   3.576   3.263
    1C        C  316   4.468   3.784   3.384
    1C        C  317   4.489   3.720   3.508
    1C        C  318   4.427   3.924   3.626
    1C        C  319   4.474   3.791   3.629
    1C        C  320   4.392   3.989   3.747
    1C        C  321   4.424   3.926   3.869
    1C        C  322   4.314   4.109   3.990
    1C        C  323   4.394   3.993   3.990
    1C        C  324   4.276   4.169   4.112
    1C        C  325   4.325   4.119   4.235
    1C        C  326   4.183   4.281   4.353
    1C        C  327   4.284   4.182   4.355
    1C        C  328   4.131   4.335   4.473
    1C        C  329   4.188   4.293   4.595
    1C        C  330   4.022   4.433   4.712
    1C        C  331   4.138   4.351   4.713
    1C        C  332   3.970   4.487   4.831
    1C        C  333   4.054   4.480   4.943
    1C        C  334   4.551   3.267   2.060
    1C        C  335   4.531   3.129   2.063
    1C        C  336   4.535   3.351   2.171
    1C        C  337   4.509   3.283   2.291
    1C        C  338   4.518   3.494   2.412
    1C        C  339   4.514   3.353   2.413
    1C        C  340   4.516   3.568   2.533
    1C        C  341   4.523   3.494   2.653
    1C        C  342   4.494   3.707   2.772
    1C        C  343   4.518   3.568   2.773
    1C        C  344   4.473   3.778   2.893
    1C        C  345   4.490   3.711   3.016
    1C        C  346   4.421   3.912   3.137
    1C        C  347   4.471   3.779   3.138
    1C        C  348   4.389   3.978   3.258
    1C        C  349   4.422   3.917   3.381
    1C        C  350   4.315   4.101   3.500
    1C        C  351   4.395   3.984   3.502
    1C        C  352   4.277   4.164   3.620
    1C        C  353   4.317   4.109   3.744
    1C        C  354   4.177   4.268   3.865
    1C        C  355   4.273   4.164   3.867
    1C        C  356   4.127   4.320   3.986
    1C        C  357   4.176   4.269   4.108
    1C        C  358   4.004   4.393   4.230
    1C        C  359   4.124   4.319   4.230
    1C        C  360   3.950   4.446   4.349
    1C        C  361   4.016   4.417   4.471
    1C        C  362   3.824   4.513   4.593
    1C        C  363   3.956   4.461   4.591
    1C        C  364   3.760   4.543   4.715
    1C        C  365   3.838   4.539   4.833
    1C        C  366   3.627   4.593   4.949
    1C        C  367   3.763   4.563   4.948
    1C        C  368   4.504   3.562   2.048
    1C        C  369   4.521   3.492   2.168
    1C        C  370   4.500   3.705   2.285
    1C        C  371   4.515   3.564   2.290
    1C        C  372   4.485   3.776   2.406
    1C        C  373   4.497   3.708   2.529
    1C        C  374   4.428   3.909   2.649
    1C        C  375   4.478   3.777   2.650
    1C        C  376   4.395   3.975   2.769
    1C        C  377   4.428   3.912   2.891
    1C        C  378   4.322   4.095   3.009
    1C        C  379   4.397   3.975   3.013
    1C        C  380   4.273   4.151   3.130
    1C        C  381   4.311   4.096   3.254
    1C        C  382   4.170   4.253   3.375
    1C        C  383   4.271   4.154   3.376
    1C        C  384   4.119   4.303   3.497
    1C        C  385   4.180   4.266   3.619
    1C        C  386   4.006   4.388   3.742
    1C        C  387   4.124   4.310   3.741
    1C        C  388   3.945   4.429   3.863
    1C        C  389   4.009   4.397   3.985
    1C        C  390   3.815   4.485   4.108
    1C        C  391   3.946   4.433   4.107
    1C        C  392   3.747   4.506   4.230
    1C        C  393   3.818   4.496   4.352
    1C        C  394   3.612   4.549   4.475
    1C        C  395   3.751   4.525   4.473
    1C        C  396   3.544   4.566   4.597
    1C        C  397   3.621   4.568   4.716
    1C        C  398   3.409   4.549   4.838
    1C        C  399   3.546   4.580   4.835
    1C        C  400   3.341   4.516   4.956
    1C        C  401   4.499   3.701   2.051
    1C        C  402   4.446   3.914   2.163
    1C        C  403   4.490   3.780   2.166
    1C        C  404   4.407   3.974   2.285
    1C        C  405   4.437   3.909   2.406
    1C        C  406   4.326   4.094   2.525
    1C        C  407   4.402   3.975   2.526
    1C        C  408   4.280   4.151   2.645
    1C        C  409   4.319   4.093   2.768
    1C        C  410   4.177   4.253   2.888
    1C        C  411   4.275   4.152   2.889
    1C        C  412   4.121   4.300   3.009
    1C        C  413   4.174   4.252   3.130
    1C        C  414   4.002   4.378   3.250
    1C        C  415   4.118   4.299   3.251
    1C        C  416   3.940   4.409   3.373
    1C        C  417   3.999   4.377   3.497
    1C        C  418   3.809   4.466   3.619
    1C        C  419   3.940   4.415   3.620
    1C        C  420   3.744   4.494   3.742
    1C        C  421   3.813   4.478   3.865
    1C        C  422   3.608   4.534   3.986
    1C        C  423   3.746   4.504   3.986
    1C        C  424   3.537   4.540   4.108
    1C        C  425   3.609   4.535   4.230
    1C        C  426   3.400   4.550   4.357
    1C        C  427   3.542   4.551   4.353
    1C        C  428   3.329   4.548   4.479
    1C        C  429   3.403   4.558   4.599
    1C        C  430   3.191   4.518   4.723
    1C        C  431   3.331   4.546   4.720
    1C        C  432   3.120   4.495   4.845
    1C        C  433   3.204   4.494   4.957
    1C        C  434   4.382   4.121   2.051
    1C        C  435   4.439   3.993   2.047
    1C        C  436   4.303   4.164   2.162
    1C        C  437   4.332   4.095   2.283
    1C        C  438   4.182   4.250   2.402
    1C        C  439   4.280   4.149   2.403
    1C        C  440   4.124   4.295   2.523
    1C        C  441   4.178   4.250   2.645
    1C        C  442   4.004   4.373   2.764
    1C        C  443   4.125   4.301   2.765
    1C        C  444   3.937   4.406   2.885
    1C        C  445   4.002   4.375   3.007
    1C        C  446   3.808   4.464   3.130
    1C        C  447   3.940   4.413   3.128
    1C        C  448   3.742   4.485   3.253
    1C        C  449   3.810   4.464   3.375
    1C        C  450   3.604   4.522   3.494
    1C        C  451   3.741   4.485   3.497
    1C        C  452   3.538   4.534   3.619
    1C        C  453   3.607   4.527   3.742
    1C        C  454   3.396   4.548   3.865
    1C        C  455   3.537   4.540   3.864
    1C        C  456   3.327   4.543   3.988
    1C        C  457   3.396   4.544   4.112
    1C        C  458   3.191   4.505   4.235
    1C        C  459   3.328   4.540   4.236
    1C        C  460   3.124   4.487   4.357
    1C        C  461   3.192   4.513   4.478
    1C        C  462   2.996   4.438   4.602
    1C        C  463   3.124   4.496   4.601
    1C        C  464   2.929   4.402   4.721
    1C        C  465   2.987   4.444   4.844
    1C        C  466   2.803   4.333   4.959
    1C        C  467   2.904   4.430   4.960
    1C        C  468   4.123   4.281   2.040
    1C        C  469   4.186   4.246   2.160
    1C        C  470   4.009   4.374   2.276
    1C        C  471   4.127   4.295   2.280
    1C        C  472   3.940   4.398   2.397
    1C        C  473   4.002   4.366   2.520
    1C        C  474   3.811   4.460   2.641
    1C        C  475   3.939   4.400   2.642
    1C        C  476   3.742   4.489   2.761
    1C        C  477   3.808   4.463   2.883
    1C        C  478   3.605   4.516   3.007
    1C        C  479   3.743   4.486   3.006
    1C        C  480   3.533   4.523   3.128
    1C        C  481   3.604   4.516   3.250
    1C        C  482   3.393   4.535   3.376
    1C        C  483   3.534   4.528   3.372
    1C        C  484   3.324   4.535   3.499
    1C        C  485   3.397   4.540   3.620
    1C        C  486   3.189   4.506   3.743
    1C        C  487   3.326   4.538   3.743
    1C        C  488   3.127   4.478   3.867
    1C        C  489   3.190   4.508   3.990
    1C        C  490   3.000   4.421   4.113
    1C        C  491   3.122   4.491   4.112
    1C        C  492   2.942   4.382   4.236
    1C        C  493   2.998   4.424   4.359
    1C        C  494   2.827   4.302   4.481
    1C        C  495   2.937   4.391   4.482
    1C        C  496   2.775   4.253   4.603
    1C        C  497   2.817   4.314   4.723
    1C        C  498   2.666   4.163   4.841
    1C        C  499   2.755   4.273   4.842
    1C        C  500   2.595   4.118   4.953
    1C        C  501   4.002   4.349   2.039
    1C        C  502   3.812   4.456   2.154
    1C        C  503   3.942   4.401   2.155
    1C        C  504   3.742   4.476   2.274
    1C        C  505   3.810   4.453   2.396
    1C        C  506   3.603   4.500   2.519
    1C        C  507   3.742   4.472   2.518
    1C        C  508   3.533   4.510   2.641
    1C        C  509   3.603   4.512   2.764
    1C        C  510   3.392   4.527   2.885
    1C        C  511   3.533   4.528   2.886
    1C        C  512   3.321   4.524   3.007
    1C        C  513   3.391   4.526   3.130
    1C        C  514   3.185   4.497   3.255
    1C        C  515   3.323   4.526   3.253
    1C        C  516   3.119   4.476   3.378
    1C        C  517   3.186   4.505   3.499
    1C        C  518   2.995   4.416   3.623
    1C        C  519   3.120   4.482   3.622
    1C        C  520   2.940   4.376   3.746
    1C        C  521   3.003   4.411   3.867
    1C        C  522   2.841   4.279   3.995
    1C        C  523   2.947   4.373   3.991
    1C        C  524   2.792   4.231   4.119
    1C        C  525   2.837   4.287   4.241
    1C        C  526   2.696   4.129   4.363
    1C        C  527   2.780   4.242   4.362
    1C        C  528   2.655   4.073   4.485
    1C        C  529   2.691   4.139   4.605
    1C        C  530   2.588   3.954   4.730
    1C        C  531   2.639   4.087   4.725
    1C        C  532   2.542   3.896   4.851
    1C        C  533   2.529   3.995   4.954
    1C        C  534   3.620   4.562   2.042
    1C        C  535   3.750   4.508   2.040
    1C        C  536   3.536   4.539   2.155
    1C        C  537   3.603   4.509   2.277
    1C        C  538   3.390   4.519   2.397
    1C        C  539   3.531   4.513   2.398
    1C        C  540   3.319   4.516   2.519
    1C        C  541   3.392   4.514   2.641
    1C        C  542   3.184   4.482   2.764
    1C        C  543   3.322   4.510   2.764
    1C        C  544   3.117   4.468   2.888
    1C        C  545   3.183   4.495   3.010
    1C        C  546   2.996   4.400   3.132
    1C        C  547   3.117   4.474   3.133
    1C        C  548   2.941   4.364   3.257
    1C        C  549   2.997   4.406   3.379
    1C        C  550   2.830   4.278   3.504
    1C        C  551   2.936   4.372   3.502
    1C        C  552   2.781   4.230   3.628
    1C        C  553   2.835   4.280   3.748
    1C        C  554   2.706   4.117   3.875
    1C        C  555   2.790   4.231   3.872
    1C        C  556   2.671   4.056   3.997
    1C        C  557   2.705   4.120   4.118
    1C        C  558   2.601   3.938   4.244
    1C        C  559   2.666   4.063   4.241
    1C        C  560   2.572   3.873   4.367
    1C        C  561   2.597   3.944   4.487
    1C        C  562   2.529   3.746   4.613
    1C        C  563   2.568   3.882   4.610
    1C        C  564   2.516   3.677   4.735
    1C        C  565   2.514   3.755   4.854
    1C        C  566   2.523   3.544   4.977
    1C        C  567   2.519   3.683   4.974
    1C        C  568   3.328   4.474   2.038
    1C        C  569   3.395   4.518   2.153
    1C        C  570   3.185   4.476   2.279
    1C        C  571   3.321   4.515   2.274
    1C        C  572   3.114   4.461   2.400
    1C        C  573   3.181   4.489   2.521
    1C        C  574   2.988   4.401   2.646
    1C        C  575   3.113   4.466   2.643
    1C        C  576   2.928   4.365   2.769
    1C        C  577   2.991   4.403   2.889
    1C        C  578   2.822   4.275   3.014
    1C        C  579   2.934   4.361   3.011
    1C        C  580   2.777   4.224   3.138
    1C        C  581   2.834   4.271   3.258
    1C        C  582   2.704   4.108   3.382
    1C        C  583   2.784   4.224   3.382
    1C        C  584   2.670   4.050   3.507
    1C        C  585   2.703   4.112   3.629
    1C        C  586   2.599   3.933   3.755
    1C        C  587   2.662   4.059   3.754
    1C        C  588   2.572   3.867   3.878
    1C        C  589   2.603   3.933   3.999
    1C        C  590   2.535   3.735   4.126
    1C        C  591   2.574   3.871   4.123
    1C        C  592   2.519   3.668   4.250
    1C        C  593   2.526   3.740   4.371
    1C        C  594   2.511   3.529   4.495
    1C        C  595   2.517   3.671   4.494
    1C        C  596   2.516   3.461   4.619
    1C        C  597   2.516   3.535   4.739
    1C        C  598   2.531   3.323   4.862
    1C        C  599   2.525   3.464   4.862
    1C        C  600   2.523   3.244   4.978
    1C        C  601   3.193   4.443   2.042
    1C        C  602   2.983   4.392   2.156
    1C        C  603   3.116   4.443   2.159
    1C        C  604   2.926   4.356   2.281
    1C        C  605   2.986   4.400   2.401
    1C        C  606   2.819   4.273   2.527
    1C        C  607   2.927   4.364   2.524
    1C        C  608   2.771   4.220   2.649
    1C        C  609   2.820   4.274   2.770
    1C        C  610   2.690   4.108   2.894
    1C        C  611   2.772   4.222   2.893
    1C        C  612   2.654   4.050   3.018
    1C        C  613   2.691   4.112   3.139
    1C        C  614   2.600   3.920   3.265
    1C        C  615   2.660   4.048   3.262
    1C        C  616   2.574   3.859   3.390
    1C        C  617   2.605   3.925   3.511
    1C        C  618   2.529   3.730   3.636
    1C        C  619   2.574   3.864   3.635
    1C        C  620   2.519   3.661   3.759
    1C        C  621   2.532   3.732   3.880
    1C        C  622   2.511   3.524   4.009
    1C        C  623   2.525   3.665   4.004
    1C        C  624   2.512   3.454   4.132
    1C        C  625   2.510   3.527   4.253
    1C        C  626   2.533   3.317   4.379
    1C        C  627   2.511   3.456   4.375
    1C        C  628   2.553   3.248   4.501
    1C        C  629   2.537   3.321   4.621
    1C        C  630   2.592   3.116   4.743
    1C        C  631   2.545   3.250   4.742
    1C        C  632   2.613   3.048   4.866
    1C        C  633   2.562   3.110   4.985
    1C        C  634   2.776   4.308   2.053
    1C        C  635   2.888   4.392   2.049
    1C        C  636   2.746   4.232   2.167
    1C        C  637   2.808   4.276   2.287
    1C        C  638   2.683   4.104   2.408
    1C        C  639   2.762   4.221   2.408
    1C        C  640   2.643   4.046   2.531
    1C        C  641   2.686   4.107   2.650
    1C        C  642   2.591   3.919   2.775
    1C        C  643   2.650   4.047   2.773
    1C        C  644   2.566   3.854   2.898
    1C        C  645   2.598   3.921   3.019
    1C        C  646   2.532   3.722   3.149
    1C        C  647   2.575   3.856   3.142
    1C        C  648   2.515   3.653   3.271
    1C        C  649   2.529   3.725   3.391
    1C        C  650   2.515   3.518   3.518
    1C        C  651   2.513   3.659   3.515
    1C        C  652   2.521   3.450   3.642
    1C        C  653   2.513   3.520   3.764
    1C        C  654   2.528   3.312   3.888
    1C        C  655   2.509   3.451   3.888
    1C        C  656   2.549   3.245   4.011
    1C        C  657   2.539   3.315   4.133
    1C        C  658   2.600   3.116   4.256
    1C        C  659   2.550   3.248   4.256
    1C        C  660   2.634   3.054   4.379
    1C        C  661   2.597   3.114   4.501
    1C        C  662   2.703   2.931   4.625
    1C        C  663   2.625   3.049   4.623
    1C        C  664   2.743   2.870   4.746
    1C        C  665   2.695   2.930   4.865
    1C        C  666   2.742   2.871   4.983
    1C        C  667   2.680   4.023   2.053
    1C        C  668   2.684   4.106   2.166
    1C        C  669   2.594   3.910   2.292
    1C        C  670   2.647   4.042   2.286
    1C        C  671   2.561   3.845   2.413
    1C        C  672   2.586   3.917   2.532
    1C        C  673   2.520   3.716   2.658
    1C        C  674   2.565   3.850   2.654
    1C        C  675   2.509   3.648   2.782
    1C        C  676   2.528   3.718   2.903
    1C        C  677   2.507   3.511   3.029
    1C        C  678   2.519   3.651   3.027
    1C        C  679   2.509   3.442   3.152
    1C        C  680   2.506   3.512   3.275
    1C        C  681   2.529   3.302   3.399
    1C        C  682   2.510   3.442   3.398
    1C        C  683   2.549   3.239   3.524
    1C        C  684   2.532   3.309   3.645
    1C        C  685   2.600   3.109   3.770
    1C        C  686   2.546   3.240   3.767
    1C        C  687   2.634   3.048   3.892
    1C        C  688   2.600   3.113   4.013
    1C        C  689   2.703   2.929   4.137
    1C        C  690   2.625   3.047   4.135
    1C        C  691   2.752   2.877   4.259
    1C        C  692   2.709   2.934   4.381
    1C        C  693   2.748   2.875   4.503
    1C        C  694   2.627   3.893   2.056
    1C        C  695   2.530   3.702   2.172
    1C        C  696   2.578   3.835   2.174
    1C        C  697   2.504   3.637   2.295
    1C        C  698   2.520   3.710   2.415
    1C        C  699   2.491   3.502   2.542
    1C        C  700   2.505   3.642   2.539
    1C        C  701   2.507   3.434   2.665
    1C        C  702   2.505   3.507   2.786
    1C        C  703   2.530   3.297   2.910
    1C        C  704   2.510   3.436   2.908
    1C        C  705   2.543   3.230   3.034
    1C        C  706   2.534   3.303   3.155
    1C        C  707   2.594   3.100   3.278
    1C        C  708   2.547   3.233   3.277
    1C        C  709   2.626   3.041   3.402
    1C        C  710   2.599   3.107   3.524
    1C        C  711   2.706   2.926   3.648
    1C        C  712   2.631   3.046   3.647
    1C        C  713   2.751   2.872   3.770
    1C        C  714   2.709   2.928   3.893
    1C        C  715   2.751   2.873   4.016
    1C        C  716   2.455   3.493   2.060
    1C        C  717   2.493   3.628   2.059
    1C        C  718   2.464   3.420   2.183
    1C        C  719   2.478   3.498   2.301
    1C        C  720   2.511   3.288   2.421
    1C        C  721   2.484   3.426   2.423
    1C        C  722   2.537   3.220   2.543
    1C        C  723   2.529   3.294   2.663
    1C        C  724   2.588   3.095   2.790
    1C        C  725   2.545   3.229   2.787
    1C        C  726   2.613   3.029   2.913
    1C        C  727   2.592   3.098   3.034
    1C        C  728   2.705   2.918   3.157
    1C        C  729   2.623   3.034   3.156
    1C        C  730   2.749   2.867   3.281
    1C        C  731   2.706   2.925   3.402
    1C        C  732   2.748   2.870   3.525
    1C        C  733   2.487   3.195   2.069
    1C        C  734   2.486   3.279   2.181
    1C        C  735   2.578   3.082   2.303
    1C        C  736   2.521   3.213   2.302
    1C        C  737   2.608   3.017   2.425
    1C        C  738   2.582   3.087   2.545
    1C        C  739   2.693   2.910   2.668
    1C        C  740   2.615   3.027   2.669
    1C        C  741   2.737   2.854   2.790
    1C        C  742   2.692   2.912   2.911
    1C        C  743   2.739   2.859   3.033
    1C        C  744   2.545   3.069   2.069
    1C        C  745   2.683   2.896   2.181
    1C        C  746   2.607   3.014   2.182
    1C        C  747   2.725   2.839   2.304
    1C        C  748   2.682   2.897   2.425
    1C        C  749   2.734   2.850   2.547
    1C        C  750   2.734   2.834   2.066
    1C        C  751   3.662   2.295   2.007
    1C        O  752   3.677   2.192   2.078
    1C        O  753   3.695   2.295   1.871
    1C        C  754   4.621   3.051   1.975
    1C        O  755   4.589   2.983   1.875
    1C        O  756   4.756   3.039   2.011
    1C        C  757   4.447   4.222   1.965
    1C        O  758   4.538   4.300   2.003
    1C        O  759   4.428   4.201   1.827
    1C        C  760   3.591   4.655   1.930
    1C        O  761   3.641   4.770   1.920
    1C        O  762   3.589   4.597   1.803
    1C        C  763   2.891   4.506   1.954
    1C        O  764   2.858   4.484   1.834
    1C        O  765   2.843   4.631   1.995
    1C        C  766   2.342   3.452   1.974
    1C        O  767   2.335   3.489   1.854
    1C        O  768   2.210   3.437   2.018
    1C        C  769   4.707   3.591   5.028
    1C        O  770   4.737   3.620   5.147
    1C        O  771   4.822   3.554   4.956
    1C        C  772   4.281   4.465   5.011
    1C        O  773   4.302   4.447   5.134
    1C        O  774   4.328   4.588   4.965
    1C        C  775   4.143   2.525   5.075
    1C        O  776   4.197   2.417   5.038
    1C        O  777   4.190   2.591   5.189
    1C        C  778   2.877   4.554   5.036
    1C        O  779   2.768   4.614   5.011
    1C        O  780   2.923   4.585   5.165
    1C        C  781   2.465   3.041   5.074
    1C        O  782   2.358   2.984   5.041
    1C        O  783   2.484   3.026   5.211
    1C        C  784   2.448   3.979   5.077
    1C        O  785   2.322   3.979   5.063
    1C        O  786   2.498   3.966   5.207
    1C        C  787   2.944   2.426   2.010
    1C        O  788   2.891   2.457   1.900
    1C        O  789   2.897   2.309   2.068
    1C        C  790   3.181   2.361   5.045
    1C        O  791   3.124   2.257   5.003
    1C        O  792   3.155   2.360   5.182
    1C        H  793   4.253   3.037   5.040
    1C        H  794   4.149   2.830   5.055
    1C        H  795   4.513   3.127   5.058
    1C        H  796   4.554   3.357   5.063
    1C        H  797   4.555   3.807   5.047
    1C        H  798   4.469   4.014   5.039
    1C        H  799   4.316   4.180   5.047
    1C        H  800   4.062   4.574   4.995
    1C        H  801   3.818   4.616   5.024
    1C        H  802   3.584   4.626   5.041
    1C        H  803   3.394   4.480   5.042
    1C        H  804   3.154   4.523   5.047
    1C        H  805   3.897   2.472   5.060
    1C        H  806   3.671   2.434   5.065
    1C        H  807   3.033   2.588   5.073
    1C        H  808   3.438   2.496   5.072
    1C        H  809   2.836   2.708   5.067
    1C        H  810   2.666   2.857   5.057
    1C        H  811   2.471   3.282   5.063
    1C        H  812   2.551   3.498   5.069
    1C        H  813   2.518   3.732   5.069
    1C        H  814   2.541   4.195   5.004
    1C        H  815   2.783   4.281   5.050
    1C        H  816   2.722   2.884   1.972
    1C        H  817   2.779   2.647   2.002
    1C        H  818   3.205   2.403   2.007
    1C        H  819   3.430   2.449   1.980
    1C        H  820   3.845   2.524   1.967
    1C        H  821   4.082   2.584   1.973
    1C        H  822   4.261   2.709   1.980
    1C        H  823   4.427   2.869   1.981
    1C        H  824   4.549   3.307   1.960
    1C        H  825   4.494   3.512   1.954
    1C        H  826   4.508   3.754   1.958
    1C        H  827   3.811   4.529   1.955
    1C        H  828   3.957   4.363   1.943
    1C        H  829   4.177   4.281   1.948
    1C        H  830   4.506   3.977   1.966
    1C        H  831   2.601   3.849   1.962
    1C        H  832   2.736   4.054   1.967
    1C        H  833   2.695   4.330   1.986
    1C        H  834   3.386   4.461   1.949
    1C        H  835   3.143   4.455   1.948
    1C        H  836   2.527   3.005   1.985
    1C        H  837   2.435   3.224   1.980
    1C        H  838   2.475   3.678   1.966
    2V3OU   H29  839   2.801   3.551   5.883
    2V3OU   C27  840   2.783   3.503   5.982
    2V3OU   H27  841   2.721   3.567   6.050
    2V3OU   H28  842   2.728   3.406   5.974
    2V3OU   O11  843   2.911   3.472   6.040
    2V3OU   C15  844   2.925   3.392   6.151
    2V3OU   C13  845   3.053   3.374   6.208
    2V3OU   C14  846   3.076   3.266   6.295
    2V3OU   C16  847   2.967   3.186   6.330
    2V3OU    H6  848   2.990   3.094   6.385
    2V3OU   C12  849   3.216   3.226   6.321
    2V3OU    O2  850   3.243   3.130   6.396
    2V3OU   C10  851   3.323   3.303   6.257
    2V3OU    C8  852   3.455   3.266   6.281
    2V3OU   O10  853   3.485   3.147   6.339
    2V3OU   H26  854   3.394   3.112   6.346
    2V3OU    C6  855   3.563   3.345   6.232
    2V3OU    C5  856   3.538   3.465   6.166
    2V3OU    C4  857   3.702   3.291   6.230
    2V3OU    H4  858   3.725   3.224   6.318
    2V3OU    H5  859   3.708   3.225   6.139
    2V3OU    C2  860   3.814   3.396   6.224
    2V3OU    O6  861   3.805   3.466   6.348
    2V3OU   H21  862   3.769   3.554   6.326
    2V3OU    C3  863   3.778   3.494   6.113
    2V3OU    H2  864   3.860   3.569   6.098
    2V3OU    H3  865   3.778   3.437   6.016
    2V3OU   C25  866   3.950   3.328   6.209
    2V3OU    O7  867   4.001   3.287   6.104
    2V3OU   C26  868   4.029   3.295   6.334
    2V3OU   H22  869   4.066   3.389   6.383
    2V3OU   H23  870   4.113   3.225   6.309
    2V3OU    O8  871   3.959   3.209   6.421
    2V3OU   H24  872   3.920   3.265   6.489
    2V3OU    C1  873   3.645   3.565   6.136
    2V3OU    H1  874   3.620   3.622   6.042
    2V3OU    O3  875   3.659   3.654   6.247
    2V3OU   C19  876   3.622   3.792   6.243
    2V3OU    H9  877   3.523   3.797   6.188
    2V3OU    O4  878   3.717   3.852   6.158
    2V3OU   C20  879   3.847   3.875   6.212
    2V3OU   H10  880   3.890   3.771   6.222
    2V3OU   C24  881   3.610   3.852   6.383
    2V3OU   H16  882   3.540   3.794   6.449
    2V3OU   H17  883   3.569   3.954   6.365
    2V3OU   C23  884   3.748   3.874   6.446
    2V3OU   H15  885   3.791   3.770   6.466
    2V3OU    N1  886   3.736   3.953   6.567
    2V3OU   H19  887   3.804   3.920   6.632
    2V3OU   H20  888   3.643   3.933   6.600
    2V3OU   C21  889   3.846   3.945   6.348
    2V3OU   H11  890   3.950   3.925   6.388
    2V3OU    O5  891   3.824   4.085   6.353
    2V3OU   H18  892   3.779   4.096   6.438
    2V3OU   C22  893   3.910   3.952   6.096
    2V3OU   H12  894   3.854   4.047   6.081
    2V3OU   H13  895   3.905   3.892   6.002
    2V3OU   H14  896   4.021   3.960   6.108
    2V3OU   C11  897   3.159   3.472   6.184
    2V3OU    O1  898   3.129   3.593   6.177
    2V3OU    C9  899   3.299   3.421   6.182
    2V3OU    C7  900   3.402   3.504   6.140
    2V3OU    O9  901   3.381   3.624   6.077
    2V3OU   H25  902   3.287   3.629   6.055
    2V3OU   C17  903   2.818   3.313   6.198
    2V3OU    H7  904   2.715   3.341   6.180
    2V3OU   C18  905   2.836   3.208   6.288
    2V3OU    H8  906   2.751   3.152   6.328
    3SOL     OW  907   2.990   3.222   3.829
    3SOL    HW1  908   2.926   3.299   3.834
    3SOL    HW2  909   3.047   3.221   3.911
    4SOL     OW  910   6.662   6.389   1.362
    4SOL    HW1  911   6.757   6.367   1.339
    4SOL    HW2  912   6.623   6.444   1.288
    5SOL     OW  913   4.091   2.816   0.646
    5SOL    HW1  914   4.089   2.731   0.698
    5SOL    HW2  915   4.160   2.810   0.574
    6SOL     OW  916   4.356   1.750   2.025
    6SOL    HW1  917   4.423   1.695   2.075
    6SOL    HW2  918   4.361   1.845   2.055
    7SOL     OW  919   2.204   3.048   4.514
    7SOL    HW1  920   2.177   3.069   4.608
    7SOL    HW2  921   2.259   2.964   4.514
    8SOL     OW  922   1.136   2.559   5.414
    8SOL    HW1  923   1.213   2.620   5.399
    8SOL    HW2  924   1.066   2.606   5.468
    9SOL     OW  925   1.255   1.931   6.023
    9SOL    HW1  926   1.341   1.894   5.989
    9SOL    HW2  927   1.249   2.028   6.001
   10SOL     OW  928   5.476   4.981   1.544
   10SOL    HW1  929   5.411   4.907   1.561
   10SOL    HW2  930   5.489   5.034   1.628
   11SOL     OW  931   3.018   1.975   0.557
   11SOL    HW1  932   3.089   1.992   0.488
   11SOL    HW2  933   2.935   2.026   0.533
   12SOL     OW  934   4.967   5.110   1.951
   12SOL    HW1  935   4.869   5.096   1.962
   12SOL    HW2  936   5.015   5.061   2.024
   13SOL     OW  937   5.363   6.454   1.840
   13SOL    HW1  938   5.339   6.421   1.931
   13SOL    HW2  939   5.420   6.387   1.793
   14SOL     OW  940   4.620   6.510   0.008
   14SOL    HW1  941   4.597   6.490   6.932
   14SOL    HW2  942   4.547   6.477   0.067
   15SOL     OW  943   0.769   5.745   6.454
   15SOL    HW1  944   0.835   5.679   6.490
   15SOL    HW2  945   0.679   5.727   6.494
   16SOL     OW  946   2.176   5.922   4.691
   16SOL    HW1  947   2.092   5.970   4.663
   16SOL    HW2  948   2.157   5.868   4.774
   17SOL     OW  949   6.782   1.037   4.751
   17SOL    HW1  950   6.683   1.033   4.767
   17SOL    HW2  951   6.823   1.101   4.816
   18SOL     OW  952   2.757   0.842   5.734
   18SOL    HW1  953   2.826   0.911   5.712
   18SOL    HW2  954   2.779   0.800   5.822
   19SOL     OW  955   2.912   6.322   2.455
   19SOL    HW1  956   2.918   6.406   2.509
   19SOL    HW2  957   2.863   6.252   2.508
   20SOL     OW  958   0.157   1.768   5.838
   20SOL    HW1  959   0.255   1.762   5.859
   20SOL    HW2  960   0.143   1.838   5.768
   21SOL     OW  961   2.096   3.926   2.596
   21SOL    HW1  962   2.171   3.975   2.640
   21SOL    HW2  963   2.029   3.898   2.664
   22SOL     OW  964   0.815   1.148   0.377
   22SOL    HW1  965   0.739   1.177   0.318
   22SOL    HW2  966   0.859   1.067   0.337
   23SOL     OW  967   6.666   5.255   0.775
   23SOL    HW1  968   6.628   5.306   0.698
   23SOL    HW2  969   6.756   5.219   0.750
   24SOL     OW  970   4.996   1.446   6.960
   24SOL    HW1  971   5.093   1.458   6.986
   24SOL    HW2  972   4.952   1.385   0.006
   25SOL     OW  973   1.568   1.029   4.421
   25SOL    HW1  974   1.479   0.999   4.455
   25SOL    HW2  975   1.636   0.958   4.438
   26SOL     OW  976   1.636   1.092   6.416
   26SOL    HW1  977   1.709   1.042   6.462
   26SOL    HW2  978   1.550   1.080   6.467
   27SOL     OW  979   0.098   0.373   2.682
   27SOL    HW1  980   0.056   0.312   2.749
   27SOL    HW2  981   0.077   0.468   2.707
   28SOL     OW  982   1.324   0.973   5.694
   28SOL    HW1  983   1.285   0.882   5.709
   28SOL    HW2  984   1.265   1.042   5.736
   29SOL     OW  985   5.719   0.561   1.121
   29SOL    HW1  986   5.794   0.586   1.060
   29SOL    HW2  987   5.633   0.561   1.070
   30SOL     OW  988   4.818   0.163   5.153
   30SOL    HW1  989   4.831   0.176   5.251
   30SOL    HW2  990   4.721   0.148   5.134
   31SOL     OW  991   6.692   4.621   4.002
   31SOL    HW1  992   6.643   4.587   4.082
   31SOL    HW2  993   6.633   4.683   3.950
   32SOL     OW  994   2.466   1.185   0.806
   32SOL    HW1  995   2.527   1.106   0.800
   32SOL    HW2  996   2.497   1.246   0.879
   33SOL     OW  997   2.471   5.413   5.397
   33SOL    HW1  998   2.544   5.450   5.340
   33SOL    HW2  999   2.416   5.349   5.343
   34SOL     OW 1000   2.162   6.268   5.393
   34SOL    HW1 1001   2.088   6.221   5.344
   34SOL    HW2 1002   2.138   6.364   5.404
   35SOL     OW 1003   1.632   3.670   5.246
   35SOL    HW1 1004   1.543   3.644   5.284
   35SOL    HW2 1005   1.704   3.651   5.313
   36SOL     OW 1006   6.453   0.910   3.832
   36SOL    HW1 1007   6.362   0.946   3.814
   36SOL    HW2 1008   6.461   0.886   3.928
   37SOL     OW 1009   2.283   6.344   4.441
   37SOL    HW1 1010   2.279   6.399   4.357
   37SOL    HW2 1011   2.257   6.401   4.519
   38SOL     OW 1012   1.101   4.119   2.399
   38SOL    HW1 1013   1.118   4.083   2.491
   38SOL    HW2 1014   1.081   4.044   2.337
   39SOL     OW 1015   6.618   5.027   1.133
   39SOL    HW1 1016   6.543   5.082   1.096
   39SOL    HW2 1017   6.681   5.086   1.185
   40SOL     OW 1018   3.734   1.024   6.414
   40SOL    HW1 1019   3.763   1.110   6.371
   40SOL    HW2 1020   3.643   0.999   6.381
   41SOL     OW 1021   4.859   3.661   1.458
   41SOL    HW1 1022   4.787   3.643   1.526
   41SOL    HW2 1023   4.942   3.692   1.504
   42SOL     OW 1024   2.993   3.670   6.793
   42SOL    HW1 1025   2.953   3.626   6.712
   42SOL    HW2 1026   2.921   3.686   6.861
   43SOL     OW 1027   5.440   0.121   5.013
   43SOL    HW1 1028   5.462   0.137   4.917
   43SOL    HW2 1029   5.520   0.142   5.069
   44SOL     OW 1030   6.346   1.329   5.965
   44SOL    HW1 1031   6.249   1.351   5.972
   44SOL    HW2 1032   6.393   1.362   6.046
   45SOL     OW 1033   2.867   4.271   6.172
   45SOL    HW1 1034   2.789   4.244   6.229
   45SOL    HW2 1035   2.950   4.229   6.208
   46SOL     OW 1036   1.051   4.551   5.198
   46SOL    HW1 1037   1.000   4.478   5.244
   46SOL    HW2 1038   0.987   4.612   5.152
   47SOL     OW 1039   6.172   4.096   0.109
   47SOL    HW1 1040   6.235   4.128   0.179
   47SOL    HW2 1041   6.103   4.036   0.151
   48SOL     OW 1042   7.007   3.933   0.722
   48SOL    HW1 1043   0.013   4.013   0.667
   48SOL    HW2 1044   7.008   3.958   0.819
   49SOL     OW 1045   3.037   2.645   6.599
   49SOL    HW1 1046   3.013   2.742   6.609
   49SOL    HW2 1047   3.134   2.637   6.575
   50SOL     OW 1048   5.242   1.962   0.182
   50SOL    HW1 1049   5.226   1.932   0.088
   50SOL    HW2 1050   5.332   2.003   0.189
   51SOL     OW 1051   0.980   6.307   1.802
   51SOL    HW1 1052   0.929   6.306   1.888
   51SOL    HW2 1053   1.022   6.217   1.787
   52SOL     OW 1054   5.576   1.881   2.247
   52SOL    HW1 1055   5.602   1.948   2.317
   52SOL    HW2 1056   5.532   1.803   2.292
   53SOL     OW 1057   4.378   0.879   0.768
   53SOL    HW1 1058   4.294   0.922   0.733
   53SOL    HW2 1059   4.456   0.911   0.714
   54SOL     OW 1060   6.089   0.481   6.578
   54SOL    HW1 1061   6.032   0.436   6.509
   54SOL    HW2 1062   6.057   0.575   6.590
   55SOL     OW 1063   1.561   3.866   5.847
   55SOL    HW1 1064   1.506   3.817   5.779
   55SOL    HW2 1065   1.641   3.906   5.803
   56SOL     OW 1066   0.560   2.222   6.815
   56SOL    HW1 1067   0.628   2.154   6.789
   56SOL    HW2 1068   0.473   2.177   6.832
   57SOL     OW 1069   4.152   5.891   1.212
   57SOL    HW1 1070   4.104   5.961   1.159
   57SOL    HW2 1071   4.127   5.900   1.309
   58SOL     OW 1072   1.289   0.403   6.728
   58SOL    HW1 1073   1.369   0.354   6.762
   58SOL    HW2 1074   1.206   0.365   6.769
   59SOL     OW 1075   4.190   2.755   6.362
   59SOL    HW1 1076   4.214   2.744   6.266
   59SOL    HW2 1077   4.124   2.830   6.372
   60SOL     OW 1078   6.765   3.392   2.820
   60SOL    HW1 1079   6.815   3.467   2.863
   60SOL    HW2 1080   6.747   3.321   2.889
   61SOL     OW 1081   1.566   5.864   3.030
   61SOL    HW1 1082   1.515   5.881   2.945
   61SOL    HW2 1083   1.653   5.820   3.007
   62SOL     OW 1084   5.941   2.413   3.490
   62SOL    HW1 1085   5.953   2.470   3.572
   62SOL    HW2 1086   5.844   2.395   3.475
   63SOL     OW 1087   3.921   6.879   5.955
   63SOL    HW1 1088   3.981   6.800   5.968
   63SOL    HW2 1089   3.970   6.963   5.980
   64SOL     OW 1090   1.460   2.152   6.372
   64SOL    HW1 1091   1.433   2.133   6.278
   64SOL    HW2 1092   1.383   2.190   6.422
   65SOL     OW 1093   1.554   5.143   4.874
   65SOL    HW1 1094   1.634   5.083   4.871
   65SOL    HW2 1095   1.516   5.143   4.967
   66SOL     OW 1096   4.614   1.092   1.381
   66SOL    HW1 1097   4.635   1.027   1.454
   66SOL    HW2 1098   4.549   1.160   1.416
   67SOL     OW 1099   0.102   3.814   1.207
   67SOL    HW1 1100   0.003   3.806   1.201
   67SOL    HW2 1101   0.126   3.871   1.286
   68SOL     OW 1102   0.414   0.987   6.512
   68SOL    HW1 1103   0.448   1.018   6.423
   68SOL    HW2 1104   0.458   0.901   6.536
   69SOL     OW 1105   1.696   6.528   6.964
   69SOL    HW1 1106   1.727   6.484   6.880
   69SOL    HW2 1107   1.660   6.458   0.006
   70SOL     OW 1108   4.876   4.645   3.154
   70SOL    HW1 1109   4.830   4.733   3.164
   70SOL    HW2 1110   4.921   4.640   3.065
   71SOL     OW 1111   5.086   1.511   5.464
   71SOL    HW1 1112   5.122   1.424   5.430
   71SOL    HW2 1113   4.997   1.529   5.422
   72SOL     OW 1114   0.240   0.676   2.204
   72SOL    HW1 1115   0.215   0.584   2.174
   72SOL    HW2 1116   0.164   0.716   2.256
   73SOL     OW 1117   2.215   1.325   0.841
   73SOL    HW1 1118   2.202   1.421   0.820
   73SOL    HW2 1119   2.291   1.288   0.787
   74SOL     OW 1120   2.603   1.366   0.079
   74SOL    HW1 1121   2.586   1.402   7.007
   74SOL    HW2 1122   2.587   1.438   0.146
   75SOL     OW 1123   2.036   2.473   0.754
   75SOL    HW1 1124   1.994   2.483   0.663
   75SOL    HW2 1125   2.135   2.472   0.745
   76SOL     OW 1126   4.021   4.909   5.876
   76SOL    HW1 1127   3.985   5.000   5.899
   76SOL    HW2 1128   4.041   4.859   5.960
   77SOL     OW 1129   0.507   5.120   4.410
   77SOL    HW1 1130   0.560   5.065   4.475
   77SOL    HW2 1131   0.551   5.209   4.398
   78SOL     OW 1132   5.705   1.981   1.391
   78SOL    HW1 1133   5.748   1.905   1.341
   78SOL    HW2 1134   5.606   1.971   1.387
   79SOL     OW 1135   1.572   4.230   4.265
   79SOL    HW1 1136   1.551   4.143   4.310
   79SOL    HW2 1137   1.594   4.299   4.335
   80SOL     OW 1138   3.627   2.121   5.115
   80SOL    HW1 1139   3.540   2.092   5.075
   80SOL    HW2 1140   3.684   2.163   5.044
   81SOL     OW 1141   3.396   5.296   2.246
   81SOL    HW1 1142   3.354   5.383   2.219
   81SOL    HW2 1143   3.367   5.272   2.338
   82SOL     OW 1144   3.207   0.357   2.446
   82SOL    HW1 1145   3.259   0.442   2.441
   82SOL    HW2 1146   3.114   0.376   2.479
   83SOL     OW 1147   5.668   0.848   4.985
   83SOL    HW1 1148   5.743   0.825   4.923
   83SOL    HW2 1149   5.582   0.815   4.947
   84SOL     OW 1150   5.803   2.906   3.232
   84SOL    HW1 1151   5.891   2.906   3.280
   84SOL    HW2 1152   5.764   2.999   3.235
   85SOL     OW 1153   2.440   5.725   3.273
   85SOL    HW1 1154   2.381   5.786   3.327
   85SOL    HW2 1155   2.529   5.718   3.317
   86SOL     OW 1156   4.628   0.533   0.591
   86SOL    HW1 1157   4.691   0.457   0.574
   86SOL    HW2 1158   4.630   0.596   0.514
   87SOL     OW 1159   2.992   2.914   6.562
   87SOL    HW1 1160   2.914   2.942   6.618
   87SOL    HW2 1161   2.976   2.944   6.467
   88SOL     OW 1162   2.044   2.854   1.576
   88SOL    HW1 1163   2.028   2.768   1.526
   88SOL    HW2 1164   2.080   2.832   1.667
   89SOL     OW 1165   3.444   3.644   5.367
   89SOL    HW1 1166   3.464   3.665   5.271
   89SOL    HW2 1167   3.447   3.545   5.380
   90SOL     OW 1168   6.907   4.454   1.938
   90SOL    HW1 1169   6.846   4.489   1.867
   90SOL    HW2 1170   6.969   4.386   1.898
   91SOL     OW 1171   4.341   6.425   0.731
   91SOL    HW1 1172   4.252   6.457   0.697
   91SOL    HW2 1173   4.384   6.367   0.662
   92SOL     OW 1174   5.857   5.176   0.019
   92SOL    HW1 1175   5.762   5.208   0.019
   92SOL    HW2 1176   5.858   5.076   0.018
   93SOL     OW 1177   2.969   3.975   1.810
   93SOL    HW1 1178   3.047   4.032   1.784
   93SOL    HW2 1179   2.985   3.881   1.780
   94SOL     OW 1180   3.002   1.828   4.335
   94SOL    HW1 1181   2.982   1.835   4.237
   94SOL    HW2 1182   2.926   1.781   4.381
   95SOL     OW 1183   0.638   0.122   3.823
   95SOL    HW1 1184   0.541   0.102   3.836
   95SOL    HW2 1185   0.662   0.112   3.727
   96SOL     OW 1186   0.174   5.364   6.550
   96SOL    HW1 1187   0.253   5.343   6.607
   96SOL    HW2 1188   0.092   5.323   6.590
   97SOL     OW 1189   3.593   4.321   5.255
   97SOL    HW1 1190   3.562   4.298   5.163
   97SOL    HW2 1191   3.533   4.390   5.294
   98SOL     OW 1192   0.560   2.669   4.797
   98SOL    HW1 1193   0.600   2.733   4.730
   98SOL    HW2 1194   0.468   2.699   4.820
   99SOL     OW 1195   4.156   4.769   5.372
   99SOL    HW1 1196   4.201   4.816   5.448
   99SOL    HW2 1197   4.069   4.814   5.351
  100SOL     OW 1198   1.590   0.609   5.243
  100SOL    HW1 1199   1.592   0.527   5.185
  100SOL    HW2 1200   1.501   0.653   5.235
  101SOL     OW 1201   5.363   3.343   2.453
  101SOL    HW1 1202   5.442   3.355   2.513
  101SOL    HW2 1203   5.379   3.265   2.393
  102SOL     OW 1204   3.692   0.410   6.699
  102SOL    HW1 1205   3.714   0.402   6.797
  102SOL    HW2 1206   3.753   0.477   6.657
  103SOL     OW 1207   1.158   1.462   1.593
  103SOL    HW1 1208   1.184   1.377   1.640
  103SOL    HW2 1209   1.074   1.497   1.634
  104SOL     OW 1210   6.396   4.448   1.819
  104SOL    HW1 1211   6.303   4.483   1.818
  104SOL    HW2 1212   6.452   4.503   1.882
  105SOL     OW 1213   0.040   0.497   5.191
  105SOL    HW1 1214   0.117   0.531   5.136
  105SOL    HW2 1215   0.030   0.554   5.272
  106SOL     OW 1216   4.301   2.817   1.631
  106SOL    HW1 1217   4.320   2.905   1.674
  106SOL    HW2 1218   4.375   2.753   1.652
  107SOL     OW 1219   4.912   6.727   1.991
  107SOL    HW1 1220   4.839   6.794   2.002
  107SOL    HW2 1221   4.943   6.696   2.081
  108SOL     OW 1222   3.638   1.712   4.786
  108SOL    HW1 1223   3.563   1.774   4.809
  108SOL    HW2 1224   3.634   1.690   4.689
  109SOL     OW 1225   2.352   1.106   5.518
  109SOL    HW1 1226   2.273   1.046   5.531
  109SOL    HW2 1227   2.408   1.072   5.442
  110SOL     OW 1228   4.053   4.545   5.593
  110SOL    HW1 1229   4.124   4.607   5.626
  110SOL    HW2 1230   4.037   4.473   5.660
  111SOL     OW 1231   6.120   3.543   2.007
  111SOL    HW1 1232   6.200   3.572   1.955
  111SOL    HW2 1233   6.037   3.564   1.955
  112SOL     OW 1234   4.656   6.793   5.185
  112SOL    HW1 1235   4.745   6.838   5.179
  112SOL    HW2 1236   4.637   6.746   5.099
  113SOL     OW 1237   0.710   4.947   2.690
  113SOL    HW1 1238   0.712   4.933   2.591
  113SOL    HW2 1239   0.781   5.013   2.715
  114SOL     OW 1240   6.944   1.970   1.965
  114SOL    HW1 1241   6.926   1.874   1.988
  114SOL    HW2 1242   6.926   1.984   1.867
  115SOL     OW 1243   4.300   1.058   2.504
  115SOL    HW1 1244   4.202   1.067   2.516
  115SOL    HW2 1245   4.321   1.053   2.406
  116SOL     OW 1246   6.551   5.308   1.264
  116SOL    HW1 1247   6.574   5.338   1.171
  116SOL    HW2 1248   6.622   5.339   1.328
  117SOL     OW 1249   2.909   1.703   0.590
  117SOL    HW1 1250   2.868   1.706   0.498
  117SOL    HW2 1251   2.934   1.796   0.618
  118SOL     OW 1252   6.993   2.318   2.068
  118SOL    HW1 1253   6.917   2.284   2.123
  118SOL    HW2 1254   6.958   2.368   1.989
  119SOL     OW 1255   6.445   6.244   4.738
  119SOL    HW1 1256   6.429   6.235   4.836
  119SOL    HW2 1257   6.361   6.276   4.694
  120SOL     OW 1258   4.502   1.813   4.642
  120SOL    HW1 1259   4.500   1.872   4.722
  120SOL    HW2 1260   4.452   1.856   4.567
  121SOL     OW 1261   0.343   5.727   6.299
  121SOL    HW1 1262   0.428   5.773   6.273
  121SOL    HW2 1263   0.266   5.771   6.253
  122SOL     OW 1264   6.464   4.790   6.009
  122SOL    HW1 1265   6.407   4.871   6.025
  122SOL    HW2 1266   6.416   4.727   5.948
  123SOL     OW 1267   0.578   2.885   1.155
  123SOL    HW1 1268   0.552   2.980   1.171
  123SOL    HW2 1269   0.618   2.876   1.064
  124SOL     OW 1270   1.816   3.488   0.004
  124SOL    HW1 1271   1.790   3.513   6.930
  124SOL    HW2 1272   1.886   3.551   0.037
  125SOL     OW 1273   4.354   2.468   0.437
  125SOL    HW1 1274   4.369   2.452   0.535
  125SOL    HW2 1275   4.406   2.401   0.384
  126SOL     OW 1276   3.543   3.176   5.120
  126SOL    HW1 1277   3.609   3.211   5.053
  126SOL    HW2 1278   3.451   3.183   5.082
  127SOL     OW 1279   0.150   4.851   6.075
  127SOL    HW1 1280   0.158   4.935   6.129
  127SOL    HW2 1281   0.159   4.772   6.135
  128SOL     OW 1282   4.409   3.741   5.982
  128SOL    HW1 1283   4.453   3.672   6.039
  128SOL    HW2 1284   4.436   3.728   5.887
  129SOL     OW 1285   0.534   4.801   1.562
  129SOL    HW1 1286   0.623   4.759   1.582
  129SOL    HW2 1287   0.489   4.750   1.489
  130SOL     OW 1288   6.182   3.516   4.911
  130SOL    HW1 1289   6.191   3.561   5.000
  130SOL    HW2 1290   6.128   3.574   4.850
  131SOL     OW 1291   1.091   3.633   3.511
  131SOL    HW1 1292   1.145   3.572   3.569
  131SOL    HW2 1293   1.135   3.641   3.421
  132SOL     OW 1294   4.423   2.617   1.306
  132SOL    HW1 1295   4.338   2.565   1.299
  132SOL    HW2 1296   4.501   2.554   1.306
  133SOL     OW 1297   4.482   4.494   6.339
  133SOL    HW1 1298   4.500   4.454   6.429
  133SOL    HW2 1299   4.519   4.434   6.268
  134SOL     OW 1300   6.174   1.690   0.918
  134SOL    HW1 1301   6.240   1.615   0.914
  134SOL    HW2 1302   6.132   1.702   0.828
  135SOL     OW 1303   4.307   4.597   3.807
  135SOL    HW1 1304   4.231   4.632   3.751
  135SOL    HW2 1305   4.285   4.609   3.904
  136SOL     OW 1306   4.124   6.845   6.135
  136SOL    HW1 1307   4.211   6.849   6.183
  136SOL    HW2 1308   4.051   6.827   6.200
  137SOL     OW 1309   2.372   4.118   6.599
  137SOL    HW1 1310   2.272   4.124   6.598
  137SOL    HW2 1311   2.410   4.183   6.533
  138SOL     OW 1312   1.198   5.655   6.560
  138SOL    HW1 1313   1.257   5.632   6.638
  138SOL    HW2 1314   1.251   5.648   6.475
  139SOL     OW 1315   0.258   0.389   1.148
  139SOL    HW1 1316   0.344   0.362   1.105
  139SOL    HW2 1317   0.235   0.324   1.221
  140SOL     OW 1318   3.769   0.064   1.678
  140SOL    HW1 1319   3.700   0.096   1.612
  140SOL    HW2 1320   3.860   0.070   1.636
  141SOL     OW 1321   0.409   1.370   6.884
  141SOL    HW1 1322   0.420   1.349   6.981
  141SOL    HW2 1323   0.344   1.445   6.874
  142SOL     OW 1324   1.849   3.981   0.304
  142SOL    HW1 1325   1.907   4.061   0.287
  142SOL    HW2 1326   1.826   3.937   0.217
  143SOL     OW 1327   5.177   5.390   1.653
  143SOL    HW1 1328   5.210   5.469   1.600
  143SOL    HW2 1329   5.221   5.390   1.742
  144SOL     OW 1330   3.378   5.564   3.037
  144SOL    HW1 1331   3.430   5.479   3.038
  144SOL    HW2 1332   3.374   5.600   2.944
  145SOL     OW 1333   0.505   5.555   3.286
  145SOL    HW1 1334   0.550   5.623   3.343
  145SOL    HW2 1335   0.541   5.560   3.193
  146SOL     OW 1336   6.698   0.768   5.853
  146SOL    HW1 1337   6.706   0.687   5.911
  146SOL    HW2 1338   6.608   0.769   5.810
  147SOL     OW 1339   6.143   1.145   5.303
  147SOL    HW1 1340   6.044   1.135   5.305
  147SOL    HW2 1341   6.169   1.227   5.353
  148SOL     OW 1342   1.933   6.449   1.515
  148SOL    HW1 1343   1.931   6.402   1.428
  148SOL    HW2 1344   2.007   6.517   1.515
  149SOL     OW 1345   1.213   3.440   4.626
  149SOL    HW1 1346   1.247   3.411   4.716
  149SOL    HW2 1347   1.279   3.504   4.585
  150SOL     OW 1348   4.609   2.297   5.614
  150SOL    HW1 1349   4.639   2.203   5.600
  150SOL    HW2 1350   4.685   2.359   5.596
  151SOL     OW 1351   6.142   2.735   0.921
  151SOL    HW1 1352   6.164   2.798   0.995
  151SOL    HW2 1353   6.084   2.661   0.956
  152SOL     OW 1354   0.051   2.737   1.359
  152SOL    HW1 1355   0.131   2.686   1.389
  152SOL    HW2 1356   7.001   2.673   1.326
  153SOL     OW 1357   1.652   1.851   3.602
  153SOL    HW1 1358   1.600   1.765   3.601
  153SOL    HW2 1359   1.743   1.835   3.564
  154SOL     OW 1360   0.309   1.500   3.909
  154SOL    HW1 1361   0.241   1.459   3.850
  154SOL    HW2 1362   0.302   1.600   3.904
  155SOL     OW 1363   5.513   4.877   3.751
  155SOL    HW1 1364   5.557   4.791   3.774
  155SOL    HW2 1365   5.533   4.901   3.656
  156SOL     OW 1366   4.664   0.875   1.543
  156SOL    HW1 1367   4.755   0.850   1.511
  156SOL    HW2 1368   4.612   0.792   1.564
  157SOL     OW 1369   4.955   0.426   1.158
  157SOL    HW1 1370   4.929   0.498   1.223
  157SOL    HW2 1371   4.930   0.337   1.195
  158SOL     OW 1372   0.692   2.926   4.228
  158SOL    HW1 1373   0.769   2.863   4.232
  158SOL    HW2 1374   0.725   3.018   4.206
  159SOL     OW 1375   6.306   5.242   0.065
  159SOL    HW1 1376   6.272   5.304   0.136
  159SOL    HW2 1377   6.393   5.202   0.095
  160SOL     OW 1378   4.113   0.643   1.177
  160SOL    HW1 1379   4.036   0.602   1.128
  160SOL    HW2 1380   4.163   0.572   1.226
  161SOL     OW 1381   0.133   6.477   0.404
  161SOL    HW1 1382   0.053   6.515   0.359
  161SOL    HW2 1383   0.107   6.437   0.492
  162SOL     OW 1384   4.434   0.201   5.731
  162SOL    HW1 1385   4.403   0.132   5.796
  162SOL    HW2 1386   4.533   0.195   5.721
  163SOL     OW 1387   1.119   3.751   2.774
  163SOL    HW1 1388   1.064   3.722   2.852
  163SOL    HW2 1389   1.207   3.702   2.775
  164SOL     OW 1390   1.649   1.934   2.307
  164SOL    HW1 1391   1.596   1.936   2.392
  164SOL    HW2 1392   1.592   1.902   2.232
  165SOL     OW 1393   0.048   6.639   3.890
  165SOL    HW1 1394   7.011   6.678   3.817
  165SOL    HW2 1395   0.123   6.588   3.849
  166SOL     OW 1396   0.576   4.416   3.845
  166SOL    HW1 1397   0.509   4.369   3.788
  166SOL    HW2 1398   0.645   4.350   3.876
  167SOL     OW 1399   0.967   1.320   3.825
  167SOL    HW1 1400   0.960   1.418   3.843
  167SOL    HW2 1401   0.901   1.294   3.755
  168SOL     OW 1402   3.339   3.848   2.866
  168SOL    HW1 1403   3.274   3.828   2.939
  168SOL    HW2 1404   3.317   3.938   2.826
  169SOL     OW 1405   5.164   2.246   0.118
  169SOL    HW1 1406   5.177   2.146   0.114
  169SOL    HW2 1407   5.210   2.282   0.199
  170SOL     OW 1408   0.086   5.583   1.495
  170SOL    HW1 1409   7.016   5.590   1.452
  170SOL    HW2 1410   0.080   5.615   1.589
  171SOL     OW 1411   3.101   2.610   0.877
  171SOL    HW1 1412   3.091   2.687   0.815
  171SOL    HW2 1413   3.041   2.623   0.956
  172SOL     OW 1414   1.224   1.096   0.147
  172SOL    HW1 1415   1.318   1.117   0.121
  172SOL    HW2 1416   1.162   1.159   0.100
  173SOL     OW 1417   5.965   1.123   4.886
  173SOL    HW1 1418   5.922   1.188   4.824
  173SOL    HW2 1419   5.895   1.085   4.947
  174SOL     OW 1420   5.860   4.280   4.929
  174SOL    HW1 1421   5.816   4.331   5.003
  174SOL    HW2 1422   5.885   4.189   4.961
  175SOL     OW 1423   0.452   6.670   2.905
  175SOL    HW1 1424   0.455   6.759   2.858
  175SOL    HW2 1425   0.484   6.599   2.843
  176SOL     OW 1426   6.513   3.814   0.722
  176SOL    HW1 1427   6.441   3.787   0.658
  176SOL    HW2 1428   6.571   3.735   0.741
  177SOL     OW 1429   6.534   1.936   3.764
  177SOL    HW1 1430   6.486   1.937   3.852
  177SOL    HW2 1431   6.470   1.915   3.691
  178SOL     OW 1432   2.268   5.471   4.883
  178SOL    HW1 1433   2.352   5.503   4.928
  178SOL    HW2 1434   2.276   5.486   4.785
  179SOL     OW 1435   3.760   4.092   1.805
  179SOL    HW1 1436   3.793   4.057   1.893
  179SOL    HW2 1437   3.698   4.169   1.821
  180SOL     OW 1438   4.446   1.697   6.438
  180SOL    HW1 1439   4.476   1.614   6.392
  180SOL    HW2 1440   4.365   1.733   6.393
  181SOL     OW 1441   3.672   0.529   5.576
  181SOL    HW1 1442   3.622   0.473   5.642
  181SOL    HW2 1443   3.607   0.578   5.518
  182SOL     OW 1444   2.866   2.856   5.730
  182SOL    HW1 1445   2.825   2.940   5.694
  182SOL    HW2 1446   2.868   2.786   5.659
  183SOL     OW 1447   2.876   1.177   3.266
  183SOL    HW1 1448   2.933   1.218   3.337
  183SOL    HW2 1449   2.823   1.248   3.220
  184SOL     OW 1450   4.840   5.541   3.326
  184SOL    HW1 1451   4.748   5.579   3.323
  184SOL    HW2 1452   4.840   5.458   3.382
  185SOL     OW 1453   0.439   6.500   4.779
  185SOL    HW1 1454   0.449   6.488   4.878
  185SOL    HW2 1455   0.369   6.569   4.761
  186SOL     OW 1456   3.005   5.854   5.309
  186SOL    HW1 1457   3.050   5.941   5.288
  186SOL    HW2 1458   3.073   5.781   5.315
  187SOL     OW 1459   3.846   5.631   1.256
  187SOL    HW1 1460   3.772   5.612   1.320
  187SOL    HW2 1461   3.932   5.639   1.307
  188SOL     OW 1462   1.520   3.545   3.106
  188SOL    HW1 1463   1.461   3.624   3.088
  188SOL    HW2 1464   1.500   3.473   3.039
  189SOL     OW 1465   5.535   4.679   5.910
  189SOL    HW1 1466   5.503   4.771   5.931
  189SOL    HW2 1467   5.622   4.663   5.955
  190SOL     OW 1468   5.991   6.454   0.788
  190SOL    HW1 1469   6.057   6.481   0.858
  190SOL    HW2 1470   5.999   6.515   0.710
  191SOL     OW 1471   1.794   2.546   5.337
  191SOL    HW1 1472   1.789   2.453   5.300
  191SOL    HW2 1473   1.874   2.553   5.396
  192SOL     OW 1474   0.072   6.211   1.484
  192SOL    HW1 1475   0.172   6.216   1.480
  192SOL    HW2 1476   0.035   6.212   1.391
  193SOL     OW 1477   3.174   0.576   2.210
  193SOL    HW1 1478   3.170   0.627   2.296
  193SOL    HW2 1479   3.197   0.638   2.135
  194SOL     OW 1480   4.278   6.382   2.661
  194SOL    HW1 1481   4.296   6.427   2.749
  194SOL    HW2 1482   4.180   6.381   2.644
  195SOL     OW 1483   3.253   0.530   0.881
  195SOL    HW1 1484   3.183   0.562   0.817
  195SOL    HW2 1485   3.232   0.437   0.909
  196SOL     OW 1486   4.281   2.481   1.058
  196SOL    HW1 1487   4.220   2.458   1.134
  196SOL    HW2 1488   4.320   2.398   1.020
  197SOL     OW 1489   1.988   6.145   0.473
  197SOL    HW1 1490   2.066   6.093   0.437
  197SOL    HW2 1491   1.947   6.095   0.549
  198SOL     OW 1492   4.637   6.859   6.550
  198SOL    HW1 1493   4.664   6.909   6.468
  198SOL    HW2 1494   4.709   6.794   6.575
  199SOL     OW 1495   1.717   0.740   2.823
  199SOL    HW1 1496   1.681   0.829   2.798
  199SOL    HW2 1497   1.676   0.669   2.764
  200SOL     OW 1498   0.995   3.334   4.247
  200SOL    HW1 1499   1.044   3.331   4.160
  200SOL    HW2 1500   1.058   3.316   4.322
  201SOL     OW 1501   4.167   1.881   6.402
  201SOL    HW1 1502   4.139   1.789   6.374
  201SOL    HW2 1503   4.124   1.949   6.341
  202SOL     OW 1504   3.802   0.878   2.936
  202SOL    HW1 1505   3.734   0.896   3.007
  202SOL    HW2 1506   3.821   0.780   2.932
  203SOL     OW 1507   5.958   2.561   0.463
  203SOL    HW1 1508   5.913   2.625   0.401
  203SOL    HW2 1509   6.015   2.498   0.411
  204SOL     OW 1510   2.087   6.104   1.133
  204SOL    HW1 1511   2.052   6.191   1.166
  204SOL    HW2 1512   2.160   6.072   1.192
  205SOL     OW 1513   5.745   0.478   1.416
  205SOL    HW1 1514   5.713   0.509   1.327
  205SOL    HW2 1515   5.766   0.558   1.473
  206SOL     OW 1516   6.558   5.988   1.250
  206SOL    HW1 1517   6.574   6.035   1.337
  206SOL    HW2 1518   6.478   6.029   1.205
  207SOL     OW 1519   6.070   1.846   6.072
  207SOL    HW1 1520   6.048   1.890   6.159
  207SOL    HW2 1521   6.168   1.853   6.056
  208SOL     OW 1522   4.114   4.448   6.980
  208SOL    HW1 1523   4.130   4.521   6.914
  208SOL    HW2 1524   4.019   4.453   7.013
  209SOL     OW 1525   0.107   5.934   3.741
  209SOL    HW1 1526   0.124   5.884   3.656
  209SOL    HW2 1527   0.164   6.016   3.743
  210SOL     OW 1528   3.896   2.295   0.881
  210SOL    HW1 1529   3.901   2.243   0.795
  210SOL    HW2 1530   3.984   2.339   0.898
  211SOL     OW 1531   0.746   3.211   1.490
  211SOL    HW1 1532   0.650   3.222   1.464
  211SOL    HW2 1533   0.751   3.173   1.583
  212SOL     OW 1534   0.611   5.258   4.791
  212SOL    HW1 1535   0.542   5.237   4.861
  212SOL    HW2 1536   0.623   5.180   4.731
  213SOL     OW 1537   3.873   2.269   6.823
  213SOL    HW1 1538   3.785   2.223   6.814
  213SOL    HW2 1539   3.859   2.368   6.817
  214SOL     OW 1540   1.665   6.435   3.135
  214SOL    HW1 1541   1.746   6.407   3.186
  214SOL    HW2 1542   1.607   6.493   3.193
  215SOL     OW 1543   3.284   4.142   2.980
  215SOL    HW1 1544   3.215   4.100   2.921
  215SOL    HW2 1545   3.244   4.222   3.025
  216SOL     OW 1546   2.875   6.944   5.798
  216SOL    HW1 1547   2.838   6.852   5.809
  216SOL    HW2 1548   2.960   6.952   5.851
  217SOL     OW 1549   6.743   1.980   4.819
  217SOL    HW1 1550   6.653   2.020   4.805
  217SOL    HW2 1551   6.813   2.046   4.792
  218SOL     OW 1552   2.650   3.766   5.668
  218SOL    HW1 1553   2.576   3.729   5.611
  218SOL    HW2 1554   2.614   3.840   5.725
  219SOL     OW 1555   3.706   5.196   0.121
  219SOL    HW1 1556   3.770   5.140   0.069
  219SOL    HW2 1557   3.730   5.292   0.111
  220SOL     OW 1558   1.655   4.235   0.124
  220SOL    HW1 1559   1.669   4.239   0.223
  220SOL    HW2 1560   1.600   4.314   0.096
  221SOL     OW 1561   6.111   2.480   4.363
  221SOL    HW1 1562   6.067   2.457   4.276
  221SOL    HW2 1563   6.128   2.579   4.367
  222SOL     OW 1564   1.727   6.489   4.534
  222SOL    HW1 1565   1.802   6.448   4.483
  222SOL    HW2 1566   1.764   6.548   4.606
  223SOL     OW 1567   5.854   4.750   2.368
  223SOL    HW1 1568   5.776   4.694   2.394
  223SOL    HW2 1569   5.845   4.778   2.272
  224SOL     OW 1570   4.345   2.308   2.543
  224SOL    HW1 1571   4.357   2.212   2.570
  224SOL    HW2 1572   4.304   2.312   2.452
  225SOL     OW 1573   4.976   6.548   0.913
  225SOL    HW1 1574   4.959   6.476   0.980
  225SOL    HW2 1575   4.910   6.541   0.838
  226SOL     OW 1576   0.477   5.571   2.524
  226SOL    HW1 1577   0.502   5.562   2.620
  226SOL    HW2 1578   0.530   5.645   2.483
  227SOL     OW 1579   1.226   3.558   3.026
  227SOL    HW1 1580   1.147   3.497   3.018
  227SOL    HW2 1581   1.246   3.598   2.936
  228SOL     OW 1582   4.043   6.434   2.321
  228SOL    HW1 1583   4.028   6.503   2.250
  228SOL    HW2 1584   4.140   6.413   2.327
  229SOL     OW 1585   6.405   5.067   2.829
  229SOL    HW1 1586   6.402   5.067   2.729
  229SOL    HW2 1587   6.313   5.085   2.864
  230SOL     OW 1588   0.768   4.206   6.212
  230SOL    HW1 1589   0.841   4.199   6.280
  230SOL    HW2 1590   0.745   4.302   6.198
  231SOL     OW 1591   0.315   1.694   6.922
  231SOL    HW1 1592   0.320   1.754   7.002
  231SOL    HW2 1593   0.367   1.733   6.847
  232SOL     OW 1594   1.175   3.922   6.097
  232SOL    HW1 1595   1.248   3.952   6.036
  232SOL    HW2 1596   1.096   3.891   6.043
  233SOL     OW 1597   3.253   6.457   6.609
  233SOL    HW1 1598   3.293   6.393   6.674
  233SOL    HW2 1599   3.269   6.424   6.516
  234SOL     OW 1600   2.834   4.758   6.055
  234SOL    HW1 1601   2.765   4.828   6.073
  234SOL    HW2 1602   2.817   4.679   6.114
  235SOL     OW 1603   3.116   3.412   5.789
  235SOL    HW1 1604   3.138   3.452   5.700
  235SOL    HW2 1605   3.099   3.486   5.855
  236SOL     OW 1606   0.223   1.947   6.207
  236SOL    HW1 1607   0.263   2.011   6.141
  236SOL    HW2 1608   0.280   1.864   6.212
  237SOL     OW 1609   6.478   6.497   1.805
  237SOL    HW1 1610   6.462   6.417   1.862
  237SOL    HW2 1611   6.576   6.519   1.806
  238SOL     OW 1612   6.763   2.001   2.572
  238SOL    HW1 1613   6.831   2.022   2.642
  238SOL    HW2 1614   6.808   1.958   2.494
  239SOL     OW 1615   6.574   5.464   0.593
  239SOL    HW1 1616   6.493   5.407   0.577
  239SOL    HW2 1617   6.557   5.524   0.671
  240SOL     OW 1618   0.410   2.291   5.541
  240SOL    HW1 1619   0.442   2.216   5.599
  240SOL    HW2 1620   0.409   2.376   5.594
  241SOL     OW 1621   5.906   2.329   4.525
  241SOL    HW1 1622   5.971   2.381   4.470
  241SOL    HW2 1623   5.945   2.239   4.547
  242SOL     OW 1624   2.696   2.143   3.865
  242SOL    HW1 1625   2.671   2.209   3.793
  242SOL    HW2 1626   2.641   2.161   3.947
  243SOL     OW 1627   4.567   1.273   6.806
  243SOL    HW1 1628   4.481   1.280   6.857
  243SOL    HW2 1629   4.613   1.361   6.805
  244SOL     OW 1630   0.721   1.654   5.860
  244SOL    HW1 1631   0.692   1.632   5.767
  244SOL    HW2 1632   0.714   1.752   5.875
  245SOL     OW 1633   5.084   2.660   3.748
  245SOL    HW1 1634   5.165   2.602   3.749
  245SOL    HW2 1635   5.047   2.669   3.841
  246SOL     OW 1636   4.859   3.114   3.707
  246SOL    HW1 1637   4.811   3.201   3.716
  246SOL    HW2 1638   4.938   3.126   3.647
  247SOL     OW 1639   2.813   0.548   3.126
  247SOL    HW1 1640   2.885   0.478   3.122
  247SOL    HW2 1641   2.854   0.637   3.145
  248SOL     OW 1642   6.908   1.477   2.562
  248SOL    HW1 1643   6.830   1.496   2.621
  248SOL    HW2 1644   6.900   1.531   2.478
  249SOL     OW 1645   2.140   5.146   4.944
  249SOL    HW1 1646   2.127   5.208   5.022
  249SOL    HW2 1647   2.200   5.071   4.971
  250SOL     OW 1648   5.542   2.388   0.217
  250SOL    HW1 1649   5.551   2.436   0.129
  250SOL    HW2 1650   5.606   2.312   0.219
  251SOL     OW 1651   1.695   1.659   0.694
  251SOL    HW1 1652   1.715   1.588   0.626
  251SOL    HW2 1653   1.597   1.657   0.715
  252SOL     OW 1654   0.397   1.692   0.402
  252SOL    HW1 1655   0.479   1.732   0.442
  252SOL    HW2 1656   0.321   1.756   0.412
  253SOL     OW 1657   1.773   4.566   6.128
  253SOL    HW1 1658   1.743   4.616   6.047
  253SOL    HW2 1659   1.816   4.630   6.192
  254SOL     OW 1660   4.789   3.673   5.974
  254SOL    HW1 1661   4.845   3.710   5.899
  254SOL    HW2 1662   4.773   3.745   6.041
  255SOL     OW 1663   4.061   2.202   2.454
  255SOL    HW1 1664   4.120   2.278   2.425
  255SOL    HW2 1665   3.984   2.195   2.392
  256SOL     OW 1666   6.688   5.388   1.498
  256SOL    HW1 1667   6.662   5.313   1.558
  256SOL    HW2 1668   6.645   5.473   1.529
  257SOL     OW 1669   2.760   5.690   5.909
  257SOL    HW1 1670   2.771   5.787   5.930
  257SOL    HW2 1671   2.720   5.680   5.818
  258SOL     OW 1672   4.246   4.757   4.088
  258SOL    HW1 1673   4.171   4.822   4.073
  258SOL    HW2 1674   4.248   4.730   4.185
  259SOL     OW 1675   0.629   2.028   2.739
  259SOL    HW1 1676   0.555   2.038   2.674
  259SOL    HW2 1677   0.691   2.106   2.732
  260SOL     OW 1678   0.117   6.708   5.702
  260SOL    HW1 1679   0.213   6.721   5.677
  260SOL    HW2 1680   0.105   6.617   5.740
  261SOL     OW 1681   0.525   1.276   3.771
  261SOL    HW1 1682   0.469   1.278   3.854
  261SOL    HW2 1683   0.577   1.361   3.764
  262SOL     OW 1684   1.032   4.704   2.120
  262SOL    HW1 1685   1.056   4.675   2.213
  262SOL    HW2 1686   1.115   4.707   2.064
  263SOL     OW 1687   0.380   3.854   4.340
  263SOL    HW1 1688   0.472   3.846   4.301
  263SOL    HW2 1689   0.315   3.881   4.268
  264SOL     OW 1690   3.500   4.362   0.116
  264SOL    HW1 1691   3.563   4.433   0.084
  264SOL    HW2 1692   3.415   4.367   0.064
  265SOL     OW 1693   4.393   5.490   3.421
  265SOL    HW1 1694   4.325   5.519   3.354
  265SOL    HW2 1695   4.455   5.424   3.379
  266SOL     OW 1696   4.150   3.461   6.818
  266SOL    HW1 1697   4.160   3.413   6.905
  266SOL    HW2 1698   4.222   3.432   6.755
  267SOL     OW 1699   1.806   2.351   6.196
  267SOL    HW1 1700   1.903   2.374   6.189
  267SOL    HW2 1701   1.754   2.398   6.125
  268SOL     OW 1702   2.605   4.593   3.718
  268SOL    HW1 1703   2.520   4.552   3.751
  268SOL    HW2 1704   2.678   4.577   3.784
  269SOL     OW 1705   2.028   2.036   5.042
  269SOL    HW1 1706   2.000   2.132   5.047
  269SOL    HW2 1707   2.086   2.015   5.121
  270SOL     OW 1708   4.805   6.469   4.705
  270SOL    HW1 1709   4.724   6.411   4.694
  270SOL    HW2 1710   4.819   6.521   4.621
  271SOL     OW 1711   2.012   1.895   0.346
  271SOL    HW1 1712   2.061   1.920   0.430
  271SOL    HW2 1713   1.940   1.830   0.367
  272SOL     OW 1714   4.552   5.423   0.100
  272SOL    HW1 1715   4.455   5.400   0.096
  272SOL    HW2 1716   4.599   5.382   0.021
  273SOL     OW 1717   1.905   6.287   4.114
  273SOL    HW1 1718   1.906   6.228   4.194
  273SOL    HW2 1719   1.986   6.267   4.058
  274SOL     OW 1720   5.774   2.148   1.133
  274SOL    HW1 1721   5.724   2.230   1.161
  274SOL    HW2 1722   5.731   2.109   1.051
  275SOL     OW 1723   5.427   6.015   5.749
  275SOL    HW1 1724   5.445   6.056   5.838
  275SOL    HW2 1725   5.513   5.984   5.708
  276SOL     OW 1726   0.293   0.095   4.282
  276SOL    HW1 1727   0.377   0.043   4.267
  276SOL    HW2 1728   0.244   0.055   4.360
  277SOL     OW 1729   4.418   2.763   5.421
  277SOL    HW1 1730   4.382   2.755   5.328
  277SOL    HW2 1731   4.441   2.859   5.439
  278SOL     OW 1732   5.722   4.460   3.112
  278SOL    HW1 1733   5.666   4.482   3.192
  278SOL    HW2 1734   5.755   4.365   3.119
  279SOL     OW 1735   6.938   3.657   3.583
  279SOL    HW1 1736   6.855   3.656   3.528
  279SOL    HW2 1737   6.993   3.576   3.560
  280SOL     OW 1738   4.085   1.623   3.512
  280SOL    HW1 1739   4.130   1.537   3.486
  280SOL    HW2 1740   4.152   1.698   3.506
  281SOL     OW 1741   4.763   6.119   5.085
  281SOL    HW1 1742   4.805   6.120   5.176
  281SOL    HW2 1743   4.834   6.128   5.016
  282SOL     OW 1744   0.564   2.638   0.465
  282SOL    HW1 1745   0.511   2.692   0.400
  282SOL    HW2 1746   0.579   2.546   0.428
  283SOL     OW 1747   6.182   3.703   3.727
  283SOL    HW1 1748   6.119   3.686   3.651
  283SOL    HW2 1749   6.254   3.634   3.726
  284SOL     OW 1750   5.110   6.916   2.555
  284SOL    HW1 1751   5.108   6.958   2.464
  284SOL    HW2 1752   5.091   6.818   2.546
  285SOL     OW 1753   3.954   6.488   5.774
  285SOL    HW1 1754   4.003   6.549   5.836
  285SOL    HW2 1755   3.992   6.497   5.681
  286SOL     OW 1756   2.916   4.711   5.514
  286SOL    HW1 1757   2.864   4.728   5.430
  286SOL    HW2 1758   2.855   4.713   5.593
  287SOL     OW 1759   3.635   5.604   6.990
  287SOL    HW1 1760   3.679   5.558   0.047
  287SOL    HW2 1761   3.639   5.703   7.004
  288SOL     OW 1762   4.218   1.411   0.384
  288SOL    HW1 1763   4.238   1.361   0.300
  288SOL    HW2 1764   4.132   1.379   0.422
  289SOL     OW 1765   5.738   5.030   4.921
  289SOL    HW1 1766   5.708   4.935   4.926
  289SOL    HW2 1767   5.755   5.054   4.825
  290SOL     OW 1768   3.089   0.067   5.887
  290SOL    HW1 1769   3.116   0.148   5.834
  290SOL    HW2 1770   3.047   0.096   5.973
  291SOL     OW 1771   4.839   0.884   5.384
  291SOL    HW1 1772   4.873   0.977   5.396
  291SOL    HW2 1773   4.871   0.827   5.459
  292SOL     OW 1774   3.510   0.408   4.147
  292SOL    HW1 1775   3.461   0.496   4.150
  292SOL    HW2 1776   3.605   0.424   4.121
  293SOL     OW 1777   4.816   0.393   2.869
  293SOL    HW1 1778   4.752   0.323   2.902
  293SOL    HW2 1779   4.867   0.358   2.791
  294SOL     OW 1780   6.893   1.243   6.686
  294SOL    HW1 1781   6.957   1.172   6.656
  294SOL    HW2 1782   6.813   1.244   6.625
  295SOL     OW 1783   0.364   0.650   4.936
  295SOL    HW1 1784   0.325   0.693   4.854
  295SOL    HW2 1785   0.323   0.560   4.949
  296SOL     OW 1786   0.609   2.004   1.372
  296SOL    HW1 1787   0.702   1.998   1.336
  296SOL    HW2 1788   0.563   1.916   1.361
  297SOL     OW 1789   5.258   3.139   3.327
  297SOL    HW1 1790   5.243   3.062   3.266
  297SOL    HW2 1791   5.349   3.133   3.367
  298SOL     OW 1792   4.207   1.115   6.083
  298SOL    HW1 1793   4.299   1.076   6.071
  298SOL    HW2 1794   4.184   1.116   6.180
  299SOL     OW 1795   0.609   1.107   6.311
  299SOL    HW1 1796   0.583   1.180   6.375
  299SOL    HW2 1797   0.687   1.057   6.348
  300SOL     OW 1798   4.313   6.368   3.405
  300SOL    HW1 1799   4.312   6.450   3.462
  300SOL    HW2 1800   4.351   6.390   3.315
  301SOL     OW 1801   0.143   5.789   5.652
  301SOL    HW1 1802   0.216   5.857   5.647
  301SOL    HW2 1803   0.140   5.750   5.744
  302SOL     OW 1804   6.893   6.852   2.435
  302SOL    HW1 1805   6.917   6.859   2.532
  302SOL    HW2 1806   6.943   6.923   2.384
  303SOL     OW 1807   5.453   5.770   2.699
  303SOL    HW1 1808   5.414   5.768   2.606
  303SOL    HW2 1809   5.418   5.850   2.748
  304SOL     OW 1810   1.950   0.052   4.627
  304SOL    HW1 1811   1.931   0.138   4.578
  304SOL    HW2 1812   1.885   0.040   4.701
  305SOL     OW 1813   0.957   2.138   0.995
  305SOL    HW1 1814   0.987   2.228   0.963
  305SOL    HW2 1815   0.871   2.113   0.950
  306SOL     OW 1816   0.129   0.035   2.807
  306SOL    HW1 1817   0.179   6.996   2.870
  306SOL    HW2 1818   0.090   0.112   2.857
  307SOL     OW 1819   4.054   3.708   3.378
  307SOL    HW1 1820   4.012   3.767   3.448
  307SOL    HW2 1821   4.050   3.612   3.409
  308SOL     OW 1822   6.559   1.659   2.511
  308SOL    HW1 1823   6.514   1.674   2.423
  308SOL    HW2 1824   6.495   1.615   2.574
  309SOL     OW 1825   1.925   4.965   0.423
  309SOL    HW1 1826   1.970   4.996   0.507
  309SOL    HW2 1827   1.957   5.019   0.346
  310SOL     OW 1828   5.215   6.640   4.960
  310SOL    HW1 1829   5.128   6.598   4.935
  310SOL    HW2 1830   5.289   6.596   4.908
  311SOL     OW 1831   1.352   6.036   1.833
  311SOL    HW1 1832   1.380   5.949   1.875
  311SOL    HW2 1833   1.370   6.032   1.734
  312SOL     OW 1834   3.343   0.612   4.136
  312SOL    HW1 1835   3.345   0.702   4.094
  312SOL    HW2 1836   3.253   0.571   4.125
  313SOL     OW 1837   3.083   3.246   2.604
  313SOL    HW1 1838   3.084   3.146   2.596
  313SOL    HW2 1839   3.027   3.285   2.531
  314SOL     OW 1840   2.796   5.746   6.348
  314SOL    HW1 1841   2.865   5.806   6.389
  314SOL    HW2 1842   2.826   5.718   6.256
  315SOL     OW 1843   5.550   0.571   4.603
  315SOL    HW1 1844   5.536   0.566   4.702
  315SOL    HW2 1845   5.646   0.588   4.584
  316SOL     OW 1846   3.283   0.864   6.190
  316SOL    HW1 1847   3.375   0.888   6.160
  316SOL    HW2 1848   3.246   0.938   6.246
  317SOL     OW 1849   0.576   2.316   1.191
  317SOL    HW1 1850   0.608   2.396   1.243
  317SOL    HW2 1851   0.536   2.250   1.254
  318SOL     OW 1852   0.941   0.192   3.650
  318SOL    HW1 1853   1.012   0.152   3.708
  318SOL    HW2 1854   0.976   0.202   3.557
  319SOL     OW 1855   0.273   0.856   2.996
  319SOL    HW1 1856   0.312   0.938   2.953
  319SOL    HW2 1857   0.338   0.819   3.062
  320SOL     OW 1858   4.876   1.476   0.335
  320SOL    HW1 1859   4.912   1.403   0.392
  320SOL    HW2 1860   4.831   1.437   0.254
  321SOL     OW 1861   4.523   2.678   0.967
  321SOL    HW1 1862   4.612   2.633   0.966
  321SOL    HW2 1863   4.455   2.615   1.005
  322SOL     OW 1864   3.460   2.723   6.580
  322SOL    HW1 1865   3.390   2.772   6.527
  322SOL    HW2 1866   3.425   2.634   6.608
  323SOL     OW 1867   1.589   3.714   2.448
  323SOL    HW1 1868   1.516   3.649   2.467
  323SOL    HW2 1869   1.634   3.739   2.534
  324SOL     OW 1870   0.450   0.207   3.464
  324SOL    HW1 1871   0.532   0.236   3.512
  324SOL    HW2 1872   0.475   0.165   3.377
  325SOL     OW 1873   6.309   3.849   0.514
  325SOL    HW1 1874   6.295   3.933   0.567
  325SOL    HW2 1875   6.263   3.773   0.559
  326SOL     OW 1876   7.014   5.848   6.920
  326SOL    HW1 1877   0.016   5.925   6.860
  326SOL    HW2 1878   6.931   5.870   6.971
  327SOL     OW 1879   4.208   6.260   6.305
  327SOL    HW1 1880   4.264   6.342   6.289
  327SOL    HW2 1881   4.112   6.282   6.289
  328SOL     OW 1882   1.264   4.756   3.520
  328SOL    HW1 1883   1.294   4.851   3.527
  328SOL    HW2 1884   1.296   4.717   3.433
  329SOL     OW 1885   3.308   3.114   2.148
  329SOL    HW1 1886   3.355   3.183   2.092
  329SOL    HW2 1887   3.232   3.075   2.095
  330SOL     OW 1888   2.618   3.360   0.041
  330SOL    HW1 1889   2.558   3.282   0.026
  330SOL    HW2 1890   2.686   3.338   0.111
  331SOL     OW 1891   5.678   4.720   4.861
  331SOL    HW1 1892   5.595   4.713   4.916
  331SOL    HW2 1893   5.666   4.669   4.776
  332SOL     OW 1894   5.929   2.208   3.206
  332SOL    HW1 1895   6.019   2.250   3.220
  332SOL    HW2 1896   5.859   2.261   3.255
  333SOL     OW 1897   3.881   6.984   4.376
  333SOL    HW1 1898   3.952   6.926   4.415
  333SOL    HW2 1899   3.859   0.038   4.439
  334SOL     OW 1900   3.427   3.628   3.664
  334SOL    HW1 1901   3.495   3.570   3.619
  334SOL    HW2 1902   3.366   3.667   3.595
  335SOL     OW 1903   3.173   0.769   1.272
  335SOL    HW1 1904   3.093   0.803   1.223
  335SOL    HW2 1905   3.171   0.800   1.367
  336SOL     OW 1906   4.535   2.111   5.051
  336SOL    HW1 1907   4.494   2.039   4.994
  336SOL    HW2 1908   4.635   2.103   5.049
  337SOL     OW 1909   6.903   1.049   5.189
  337SOL    HW1 1910   6.954   0.963   5.183
  337SOL    HW2 1911   6.945   1.109   5.257
  338SOL     OW 1912   4.462   1.482   1.434
  338SOL    HW1 1913   4.529   1.551   1.460
  338SOL    HW2 1914   4.371   1.511   1.465
  339SOL     OW 1915   4.358   5.387   6.015
  339SOL    HW1 1916   4.286   5.455   6.030
  339SOL    HW2 1917   4.445   5.433   5.998
  340SOL     OW 1918   5.440   2.960   4.943
  340SOL    HW1 1919   5.467   2.876   4.990
  340SOL    HW2 1920   5.356   2.944   4.891
  341SOL     OW 1921   0.067   0.017   2.336
  341SOL    HW1 1922   0.124   0.014   2.254
  341SOL    HW2 1923   0.126   0.012   2.417
  342SOL     OW 1924   4.544   1.740   2.587
  342SOL    HW1 1925   4.484   1.762   2.510
  342SOL    HW2 1926   4.634   1.714   2.553
  343SOL     OW 1927   5.336   0.051   0.955
  343SOL    HW1 1928   5.413   0.072   1.015
  343SOL    HW2 1929   5.259   0.018   1.010
  344SOL     OW 1930   6.848   3.199   1.961
  344SOL    HW1 1931   6.933   3.164   1.921
  344SOL    HW2 1932   6.853   3.299   1.968
  345SOL     OW 1933   6.849   2.465   4.356
  345SOL    HW1 1934   6.795   2.462   4.272
  345SOL    HW2 1935   6.820   2.543   4.411
  346SOL     OW 1936   2.419   6.236   3.236
  346SOL    HW1 1937   2.452   6.284   3.155
  346SOL    HW2 1938   2.364   6.157   3.208
  347SOL     OW 1939   2.493   4.682   0.767
  347SOL    HW1 1940   2.398   4.705   0.790
  347SOL    HW2 1941   2.543   4.765   0.747
  348SOL     OW 1942   4.565   4.852   1.695
  348SOL    HW1 1943   4.559   4.860   1.596
  348SOL    HW2 1944   4.473   4.849   1.734
  349SOL     OW 1945   5.293   4.174   0.466
  349SOL    HW1 1946   5.368   4.211   0.411
  349SOL    HW2 1947   5.269   4.240   0.537
  350SOL     OW 1948   2.203   1.610   6.990
  350SOL    HW1 1949   2.236   1.555   6.913
  350SOL    HW2 1950   2.147   1.553   0.030
  351SOL     OW 1951   3.401   4.184   0.976
  351SOL    HW1 1952   3.326   4.222   1.030
  351SOL    HW2 1953   3.364   4.134   0.898
  352SOL     OW 1954   4.638   0.245   2.255
  352SOL    HW1 1955   4.679   0.232   2.345
  352SOL    HW2 1956   4.709   0.269   2.190
  353SOL     OW 1957   1.988   6.579   0.416
  353SOL    HW1 1958   2.076   6.577   0.370
  353SOL    HW2 1959   1.926   6.643   0.370
  354SOL     OW 1960   1.192   2.451   0.479
  354SOL    HW1 1961   1.291   2.447   0.489
  354SOL    HW2 1962   1.159   2.365   0.441
  355SOL     OW 1963   0.477   3.171   3.764
  355SOL    HW1 1964   0.513   3.259   3.733
  355SOL    HW2 1965   0.549   3.102   3.761
  356SOL     OW 1966   2.669   0.399   5.288
  356SOL    HW1 1967   2.606   0.450   5.346
  356SOL    HW2 1968   2.748   0.369   5.342
  357SOL     OW 1969   5.912   6.384   4.599
  357SOL    HW1 1970   5.869   6.456   4.544
  357SOL    HW2 1971   5.935   6.307   4.540
  358SOL     OW 1972   3.422   5.792   6.372
  358SOL    HW1 1973   3.423   5.884   6.411
  358SOL    HW2 1974   3.421   5.724   6.446
  359SOL     OW 1975   1.425   2.180   1.779
  359SOL    HW1 1976   1.445   2.218   1.869
  359SOL    HW2 1977   1.478   2.096   1.766
  360SOL     OW 1978   2.086   4.317   3.751
  360SOL    HW1 1979   2.015   4.254   3.780
  360SOL    HW2 1980   2.160   4.266   3.707
  361SOL     OW 1981   6.932   1.708   2.079
  361SOL    HW1 1982   6.897   1.698   2.173
  361SOL    HW2 1983   0.001   1.664   2.072
  362SOL     OW 1984   3.750   3.776   2.296
  362SOL    HW1 1985   3.793   3.864   2.274
  362SOL    HW2 1986   3.755   3.759   2.394
  363SOL     OW 1987   4.563   5.201   1.465
  363SOL    HW1 1988   4.654   5.235   1.441
  363SOL    HW2 1989   4.537   5.237   1.554
  364SOL     OW 1990   0.943   0.457   0.478
  364SOL    HW1 1991   0.926   0.378   0.537
  364SOL    HW2 1992   1.040   0.461   0.454
  365SOL     OW 1993   5.836   0.744   4.151
  365SOL    HW1 1994   5.896   0.782   4.081
  365SOL    HW2 1995   5.794   0.818   4.203
  366SOL     OW 1996   5.641   1.629   0.099
  366SOL    HW1 1997   5.567   1.585   0.150
  366SOL    HW2 1998   5.605   1.669   0.015
  367SOL     OW 1999   5.003   1.061   6.577
  367SOL    HW1 2000   4.975   1.038   6.671
  367SOL    HW2 2001   5.098   1.034   6.563
  368SOL     OW 2002   1.493   1.867   5.266
  368SOL    HW1 2003   1.487   1.800   5.192
  368SOL    HW2 2004   1.448   1.832   5.348
  369SOL     OW 2005   5.672   4.520   0.280
  369SOL    HW1 2006   5.740   4.513   0.208
  369SOL    HW2 2007   5.717   4.518   0.369
  370SOL     OW 2008   2.302   2.714   3.023
  370SOL    HW1 2009   2.210   2.706   3.061
  370SOL    HW2 2010   2.344   2.799   3.055
  371SOL     OW 2011   1.527   6.017   6.898
  371SOL    HW1 2012   1.586   6.031   6.977
  371SOL    HW2 2013   1.561   6.071   6.821
  372SOL     OW 2014   2.563   5.364   5.645
  372SOL    HW1 2015   2.500   5.326   5.713
  372SOL    HW2 2016   2.512   5.391   5.563
  373SOL     OW 2017   6.195   4.605   3.143
  373SOL    HW1 2018   6.198   4.539   3.068
  373SOL    HW2 2019   6.115   4.664   3.133
  374SOL     OW 2020   2.956   1.394   2.651
  374SOL    HW1 2021   3.019   1.316   2.659
  374SOL    HW2 2022   2.998   1.475   2.690
  375SOL     OW 2023   1.316   5.832   4.088
  375SOL    HW1 2024   1.376   5.904   4.054
  375SOL    HW2 2025   1.233   5.828   4.032
  376SOL     OW 2026   3.759   0.532   3.387
  376SOL    HW1 2027   3.803   0.587   3.316
  376SOL    HW2 2028   3.678   0.579   3.420
  377SOL     OW 2029   2.150   2.148   6.654
  377SOL    HW1 2030   2.130   2.206   6.575
  377SOL    HW2 2031   2.229   2.090   6.633
  378SOL     OW 2032   4.289   1.166   1.941
  378SOL    HW1 2033   4.215   1.110   1.976
  378SOL    HW2 2034   4.313   1.236   2.008
  379SOL     OW 2035   4.218   2.206   6.268
  379SOL    HW1 2036   4.128   2.183   6.305
  379SOL    HW2 2037   4.210   2.286   6.209
  380SOL     OW 2038   4.118   2.138   0.414
  380SOL    HW1 2039   4.182   2.072   0.453
  380SOL    HW2 2040   4.049   2.090   0.361
  381SOL     OW 2041   2.172   3.984   3.042
  381SOL    HW1 2042   2.073   3.974   3.045
  381SOL    HW2 2043   2.214   3.908   3.092
  382SOL     OW 2044   5.707   0.231   6.900
  382SOL    HW1 2045   5.693   0.132   6.900
  382SOL    HW2 2046   5.744   0.260   6.812
  383SOL     OW 2047   4.622   2.715   0.721
  383SOL    HW1 2048   4.672   2.628   0.723
  383SOL    HW2 2049   4.559   2.719   0.799
  384SOL     OW 2050   0.157   3.825   5.043
  384SOL    HW1 2051   0.192   3.906   5.090
  384SOL    HW2 2052   0.221   3.798   4.971
  385SOL     OW 2053   4.467   3.054   0.413
  385SOL    HW1 2054   4.484   2.959   0.439
  385SOL    HW2 2055   4.402   3.094   0.477
  386SOL     OW 2056   4.407   6.449   4.927
  386SOL    HW1 2057   4.432   6.353   4.945
  386SOL    HW2 2058   4.372   6.456   4.834
  387SOL     OW 2059   2.866   5.659   4.055
  387SOL    HW1 2060   2.783   5.687   4.102
  387SOL    HW2 2061   2.910   5.585   4.106
  388SOL     OW 2062   1.315   5.327   6.213
  388SOL    HW1 2063   1.222   5.345   6.243
  388SOL    HW2 2064   1.348   5.243   6.256
  389SOL     OW 2065   2.832   2.763   1.734
  389SOL    HW1 2066   2.765   2.690   1.748
  389SOL    HW2 2067   2.830   2.792   1.639
  390SOL     OW 2068   2.132   1.255   4.914
  390SOL    HW1 2069   2.193   1.327   4.949
  390SOL    HW2 2070   2.042   1.295   4.895
  391SOL     OW 2071   1.373   2.438   6.922
  391SOL    HW1 2072   1.373   2.359   6.860
  391SOL    HW2 2073   1.401   2.520   6.872
  392SOL     OW 2074   3.496   5.934   3.715
  392SOL    HW1 2075   3.402   5.905   3.699
  392SOL    HW2 2076   3.516   5.931   3.813
  393SOL     OW 2077   5.966   3.904   5.289
  393SOL    HW1 2078   5.878   3.940   5.257
  393SOL    HW2 2079   6.036   3.919   5.219
  394SOL     OW 2080   2.213   1.024   6.229
  394SOL    HW1 2081   2.241   0.979   6.314
  394SOL    HW2 2082   2.197   0.956   6.158
  395SOL     OW 2083   6.380   3.570   1.117
  395SOL    HW1 2084   6.322   3.500   1.159
  395SOL    HW2 2085   6.365   3.658   1.162
  396SOL     OW 2086   3.595   2.969   5.347
  396SOL    HW1 2087   3.615   2.973   5.445
  396SOL    HW2 2088   3.597   3.061   5.308
  397SOL     OW 2089   3.475   1.567   6.756
  397SOL    HW1 2090   3.380   1.551   6.781
  397SOL    HW2 2091   3.483   1.652   6.705
  398SOL     OW 2092   1.214   4.887   2.659
  398SOL    HW1 2093   1.161   4.899   2.575
  398SOL    HW2 2094   1.155   4.846   2.729
  399SOL     OW 2095   5.065   4.563   2.315
  399SOL    HW1 2096   5.106   4.475   2.338
  399SOL    HW2 2097   5.074   4.626   2.393
  400SOL     OW 2098   2.477   5.050   4.698
  400SOL    HW1 2099   2.547   4.981   4.708
  400SOL    HW2 2100   2.445   5.051   4.603
  401SOL     OW 2101   5.454   1.538   0.267
  401SOL    HW1 2102   5.436   1.440   0.273
  401SOL    HW2 2103   5.388   1.587   0.323
  402SOL     OW 2104   6.642   4.598   1.153
  402SOL    HW1 2105   6.584   4.611   1.073
  402SOL    HW2 2106   6.687   4.684   1.176
  403SOL     OW 2107   4.977   4.168   0.270
  403SOL    HW1 2108   4.917   4.178   0.350
  403SOL    HW2 2109   5.067   4.135   0.300
  404SOL     OW 2110   0.429   6.376   4.556
  404SOL    HW1 2111   0.476   6.447   4.503
  404SOL    HW2 2112   0.435   6.398   4.653
  405SOL     OW 2113   0.698   2.910   0.926
  405SOL    HW1 2114   0.790   2.934   0.956
  405SOL    HW2 2115   0.693   2.915   0.827
  406SOL     OW 2116   0.688   2.479   3.106
  406SOL    HW1 2117   0.780   2.516   3.091
  406SOL    HW2 2118   0.635   2.544   3.161
  407SOL     OW 2119   2.786   1.632   3.598
  407SOL    HW1 2120   2.853   1.596   3.533
  407SOL    HW2 2121   2.817   1.719   3.634
  408SOL     OW 2122   1.757   0.892   3.123
  408SOL    HW1 2123   1.815   0.893   3.042
  408SOL    HW2 2124   1.811   0.920   3.203
  409SOL     OW 2125   6.338   3.676   4.195
  409SOL    HW1 2126   6.332   3.577   4.198
  409SOL    HW2 2127   6.418   3.703   4.141
  410SOL     OW 2128   2.875   6.799   6.630
  410SOL    HW1 2129   2.955   6.745   6.655
  410SOL    HW2 2130   2.895   6.854   6.549
  411SOL     OW 2131   0.351   3.429   4.904
  411SOL    HW1 2132   0.349   3.358   4.834
  411SOL    HW2 2133   0.306   3.396   4.986
  412SOL     OW 2134   3.992   0.586   2.173
  412SOL    HW1 2135   3.937   0.566   2.092
  412SOL    HW2 2136   4.017   0.501   2.219
  413SOL     OW 2137   2.652   0.756   2.334
  413SOL    HW1 2138   2.554   0.756   2.353
  413SOL    HW2 2139   2.686   0.850   2.339
  414SOL     OW 2140   4.905   3.571   0.358
  414SOL    HW1 2141   4.993   3.573   0.309
  414SOL    HW2 2142   4.833   3.607   0.299
  415SOL     OW 2143   3.768   6.399   2.350
  415SOL    HW1 2144   3.745   6.465   2.278
  415SOL    HW2 2145   3.867   6.394   2.360
  416SOL     OW 2146   3.659   5.686   6.193
  416SOL    HW1 2147   3.632   5.590   6.205
  416SOL    HW2 2148   3.585   5.746   6.223
  417SOL     OW 2149   4.930   4.648   0.958
  417SOL    HW1 2150   5.005   4.708   0.933
  417SOL    HW2 2151   4.871   4.694   1.025
  418SOL     OW 2152   6.450   4.909   0.260
  418SOL    HW1 2153   6.420   4.879   0.350
  418SOL    HW2 2154   6.526   4.852   0.228
  419SOL     OW 2155   5.667   6.170   0.919
  419SOL    HW1 2156   5.687   6.266   0.903
  419SOL    HW2 2157   5.569   6.158   0.936
  420SOL     OW 2158   4.621   3.943   6.928
  420SOL    HW1 2159   4.695   3.896   6.976
  420SOL    HW2 2160   4.656   4.027   6.887
  421SOL     OW 2161   1.525   6.181   6.423
  421SOL    HW1 2162   1.474   6.248   6.477
  421SOL    HW2 2163   1.487   6.176   6.331
  422SOL     OW 2164   5.392   3.979   6.742
  422SOL    HW1 2165   5.332   4.036   6.686
  422SOL    HW2 2166   5.447   3.920   6.682
  423SOL     OW 2167   0.932   3.380   5.977
  423SOL    HW1 2168   0.864   3.352   5.909
  423SOL    HW2 2169   0.938   3.480   5.980
  424SOL     OW 2170   2.034   3.865   0.460
  424SOL    HW1 2171   2.086   3.790   0.420
  424SOL    HW2 2172   1.971   3.903   0.391
  425SOL     OW 2173   3.290   0.254   0.928
  425SOL    HW1 2174   3.262   0.205   0.846
  425SOL    HW2 2175   3.386   0.281   0.920
  426SOL     OW 2176   6.113   4.110   5.416
  426SOL    HW1 2177   6.188   4.101   5.351
  426SOL    HW2 2178   6.037   4.051   5.388
  427SOL     OW 2179   4.770   2.960   0.735
  427SOL    HW1 2180   4.714   3.035   0.771
  427SOL    HW2 2181   4.711   2.882   0.715
  428SOL     OW 2182   3.408   1.681   5.498
  428SOL    HW1 2183   3.412   1.581   5.499
  428SOL    HW2 2184   3.455   1.716   5.579
  429SOL     OW 2185   2.604   5.417   6.860
  429SOL    HW1 2186   2.700   5.438   6.848
  429SOL    HW2 2187   2.550   5.461   6.788
  430SOL     OW 2188   2.155   6.853   4.918
  430SOL    HW1 2189   2.114   6.763   4.925
  430SOL    HW2 2190   2.141   6.904   5.003
  431SOL     OW 2191   2.845   1.713   6.554
  431SOL    HW1 2192   2.861   1.619   6.525
  431SOL    HW2 2193   2.755   1.720   6.597
  432SOL     OW 2194   6.936   1.350   1.302
  432SOL    HW1 2195   0.003   1.310   1.333
  432SOL    HW2 2196   6.909   1.423   1.365
  433SOL     OW 2197   2.804   6.164   4.717
  433SOL    HW1 2198   2.801   6.065   4.730
  433SOL    HW2 2199   2.838   6.207   4.801
  434SOL     OW 2200   6.361   3.843   1.198
  434SOL    HW1 2201   6.335   3.874   1.107
  434SOL    HW2 2202   6.304   3.889   1.266
  435SOL     OW 2203   3.856   3.565   0.926
  435SOL    HW1 2204   3.934   3.511   0.958
  435SOL    HW2 2205   3.776   3.505   0.916
  436SOL     OW 2206   2.574   0.165   0.436
  436SOL    HW1 2207   2.475   0.155   0.450
  436SOL    HW2 2208   2.600   0.260   0.455
  437SOL     OW 2209   7.011   7.012   6.134
  437SOL    HW1 2210   0.003   6.934   6.073
  437SOL    HW2 2211   6.939   6.993   6.200
  438SOL     OW 2212   1.820   3.233   1.736
  438SOL    HW1 2213   1.889   3.293   1.775
  438SOL    HW2 2214   1.809   3.152   1.793
  439SOL     OW 2215   6.084   4.457   2.234
  439SOL    HW1 2216   6.013   4.394   2.201
  439SOL    HW2 2217   6.086   4.457   2.333
  440SOL     OW 2218   1.370   3.083   3.695
  440SOL    HW1 2219   1.464   3.111   3.675
  440SOL    HW2 2220   1.312   3.101   3.615
  441SOL     OW 2221   1.184   1.246   3.390
  441SOL    HW1 2222   1.167   1.190   3.309
  441SOL    HW2 2223   1.151   1.339   3.373
  442SOL     OW 2224   0.091   4.569   0.093
  442SOL    HW1 2225   0.154   4.498   0.063
  442SOL    HW2 2226   0.023   4.586   0.022
  443SOL     OW 2227   0.867   4.313   5.837
  443SOL    HW1 2228   0.864   4.230   5.893
  443SOL    HW2 2229   0.825   4.295   5.748
  444SOL     OW 2230   4.785   3.119   6.446
  444SOL    HW1 2231   4.728   3.202   6.444
  444SOL    HW2 2232   4.736   3.044   6.400
  445SOL     OW 2233   2.149   4.369   3.164
  445SOL    HW1 2234   2.173   4.465   3.154
  445SOL    HW2 2235   2.053   4.361   3.191
  446SOL     OW 2236   4.162   5.467   3.984
  446SOL    HW1 2237   4.102   5.394   3.951
  446SOL    HW2 2238   4.256   5.433   3.990
  447SOL     OW 2239   0.351   5.839   0.071
  447SOL    HW1 2240   0.303   5.812   0.154
  447SOL    HW2 2241   0.332   5.774   7.018
  448SOL     OW 2242   4.383   1.156   5.784
  448SOL    HW1 2243   4.361   1.165   5.882
  448SOL    HW2 2244   4.364   1.243   5.738
  449SOL     OW 2245   5.901   6.787   4.500
  449SOL    HW1 2246   5.893   6.740   4.412
  449SOL    HW2 2247   5.859   6.731   4.571
  450SOL     OW 2248   0.091   5.745   3.492
  450SOL    HW1 2249   0.162   5.754   3.422
  450SOL    HW2 2250   0.001   5.751   3.450
  451SOL     OW 2251   6.130   2.251   3.780
  451SOL    HW1 2252   6.097   2.198   3.858
  451SOL    HW2 2253   6.097   2.345   3.788
  452SOL     OW 2254   6.932   4.439   6.606
  452SOL    HW1 2255   6.871   4.366   6.574
  452SOL    HW2 2256   6.928   4.515   6.541
  453SOL     OW 2257   2.747   0.417   5.857
  453SOL    HW1 2258   2.785   0.336   5.813
  453SOL    HW2 2259   2.692   0.391   5.936
  454SOL     OW 2260   1.102   5.939   0.163
  454SOL    HW1 2261   1.161   5.968   0.238
  454SOL    HW2 2262   1.124   5.845   0.138
  455SOL     OW 2263   4.918   0.730   5.591
  455SOL    HW1 2264   4.853   0.655   5.605
  455SOL    HW2 2265   5.010   0.693   5.586
  456SOL     OW 2266   4.746   5.418   6.955
  456SOL    HW1 2267   4.844   5.401   6.943
  456SOL    HW2 2268   4.732   5.508   6.996
  457SOL     OW 2269   0.593   5.132   2.099
  457SOL    HW1 2270   0.603   5.120   2.000
  457SOL    HW2 2271   0.678   5.104   2.144
  458SOL     OW 2272   6.902   6.590   6.050
  458SOL    HW1 2273   6.982   6.619   6.102
  458SOL    HW2 2274   6.820   6.632   6.089
  459SOL     OW 2275   1.998   0.245   2.993
  459SOL    HW1 2276   1.937   0.312   2.951
  459SOL    HW2 2277   2.081   0.290   3.025
  460SOL     OW 2278   0.096   1.493   3.708
  460SOL    HW1 2279   0.141   1.491   3.618
  460SOL    HW2 2280   0.073   1.400   3.736
  461SOL     OW 2281   5.202   6.128   5.676
  461SOL    HW1 2282   5.202   6.158   5.581
  461SOL    HW2 2283   5.281   6.070   5.693
  462SOL     OW 2284   3.108   2.780   6.974
  462SOL    HW1 2285   3.199   2.792   6.936
  462SOL    HW2 2286   3.080   2.684   6.962
  463SOL     OW 2287   6.986   5.784   1.797
  463SOL    HW1 2288   6.886   5.779   1.801
  463SOL    HW2 2289   7.020   5.843   1.870
  464SOL     OW 2290   1.822   1.088   5.878
  464SOL    HW1 2291   1.834   1.188   5.872
  464SOL    HW2 2292   1.830   1.048   5.787
  465SOL     OW 2293   6.760   3.225   5.366
  465SOL    HW1 2294   6.728   3.149   5.310
  465SOL    HW2 2295   6.707   3.307   5.344
  466SOL     OW 2296   1.996   0.605   3.176
  466SOL    HW1 2297   1.962   0.644   3.090
  466SOL    HW2 2298   2.073   0.544   3.156
  467SOL     OW 2299   1.633   1.167   4.717
  467SOL    HW1 2300   1.646   1.189   4.620
  467SOL    HW2 2301   1.680   1.082   4.739
  468SOL     OW 2302   3.652   3.975   1.575
  468SOL    HW1 2303   3.648   4.024   1.662
  468SOL    HW2 2304   3.595   4.022   1.508
  469SOL     OW 2305   2.453   4.598   6.935
  469SOL    HW1 2306   2.395   4.678   6.925
  469SOL    HW2 2307   2.549   4.627   6.943
  470SOL     OW 2308   3.566   1.107   2.500
  470SOL    HW1 2309   3.534   1.161   2.422
  470SOL    HW2 2310   3.614   1.167   2.564
  471SOL     OW 2311   2.424   1.547   4.792
  471SOL    HW1 2312   2.405   1.504   4.704
  471SOL    HW2 2313   2.512   1.594   4.788
  472SOL     OW 2314   4.182   4.280   5.318
  472SOL    HW1 2315   4.086   4.264   5.294
  472SOL    HW2 2316   4.219   4.352   5.260
  473SOL     OW 2317   1.190   4.318   3.173
  473SOL    HW1 2318   1.275   4.354   3.209
  473SOL    HW2 2319   1.133   4.284   3.248
  474SOL     OW 2320   4.321   5.070   4.551
  474SOL    HW1 2321   4.279   5.061   4.460
  474SOL    HW2 2322   4.419   5.086   4.541
  475SOL     OW 2323   0.602   6.670   6.058
  475SOL    HW1 2324   0.551   6.696   6.140
  475SOL    HW2 2325   0.633   6.576   6.067
  476SOL     OW 2326   0.140   5.148   2.414
  476SOL    HW1 2327   0.059   5.185   2.368
  476SOL    HW2 2328   0.177   5.072   2.360
  477SOL     OW 2329   1.440   5.516   4.608
  477SOL    HW1 2330   1.489   5.603   4.598
  477SOL    HW2 2331   1.428   5.495   4.705
  478SOL     OW 2332   1.809   5.350   3.369
  478SOL    HW1 2333   1.807   5.442   3.328
  478SOL    HW2 2334   1.826   5.358   3.467
  479SOL     OW 2335   3.124   1.609   1.169
  479SOL    HW1 2336   3.147   1.666   1.090
  479SOL    HW2 2337   3.074   1.665   1.236
  480SOL     OW 2338   1.289   6.870   2.741
  480SOL    HW1 2339   1.236   6.875   2.656
  480SOL    HW2 2340   1.385   6.854   2.720
  481SOL     OW 2341   3.077   6.663   1.638
  481SOL    HW1 2342   3.014   6.632   1.567
  481SOL    HW2 2343   3.106   6.586   1.694
  482SOL     OW 2344   5.741   4.851   1.431
  482SOL    HW1 2345   5.709   4.770   1.382
  482SOL    HW2 2346   5.668   4.884   1.492
  483SOL     OW 2347   5.843   1.538   1.234
  483SOL    HW1 2348   5.926   1.592   1.230
  483SOL    HW2 2349   5.829   1.491   1.147
  484SOL     OW 2350   6.927   2.103   5.359
  484SOL    HW1 2351   6.876   2.119   5.274
  484SOL    HW2 2352   6.985   2.023   5.349
  485SOL     OW 2353   3.765   5.415   1.942
  485SOL    HW1 2354   3.756   5.315   1.944
  485SOL    HW2 2355   3.683   5.457   1.982
  486SOL     OW 2356   6.993   0.541   6.955
  486SOL    HW1 2357   6.961   0.525   6.861
  486SOL    HW2 2358   0.068   0.572   6.952
  487SOL     OW 2359   6.534   2.798   6.628
  487SOL    HW1 2360   6.497   2.709   6.652
  487SOL    HW2 2361   6.478   2.839   6.556
  488SOL     OW 2362   0.269   3.055   2.738
  488SOL    HW1 2363   0.218   2.973   2.766
  488SOL    HW2 2364   0.312   3.040   2.649
  489SOL     OW 2365   3.161   6.218   5.787
  489SOL    HW1 2366   3.248   6.260   5.760
  489SOL    HW2 2367   3.087   6.255   5.731
  490SOL     OW 2368   5.210   6.218   4.264
  490SOL    HW1 2369   5.223   6.216   4.363
  490SOL    HW2 2370   5.285   6.269   4.222
  491SOL     OW 2371   0.214   2.632   3.284
  491SOL    HW1 2372   0.213   2.589   3.374
  491SOL    HW2 2373   0.220   2.731   3.294
  492SOL     OW 2374   1.867   1.058   4.818
  492SOL    HW1 2375   1.886   1.154   4.838
  492SOL    HW2 2376   1.912   1.000   4.887
  493SOL     OW 2377   6.147   4.109   3.834
  493SOL    HW1 2378   6.118   4.026   3.881
  493SOL    HW2 2379   6.139   4.187   3.896
  494SOL     OW 2380   6.556   1.009   0.145
  494SOL    HW1 2381   6.628   1.029   0.212
  494SOL    HW2 2382   6.539   0.910   0.143
  495SOL     OW 2383   4.349   4.637   1.267
  495SOL    HW1 2384   4.327   4.696   1.344
  495SOL    HW2 2385   4.360   4.543   1.299
  496SOL     OW 2386   6.107   3.428   3.878
  496SOL    HW1 2387   6.199   3.428   3.916
  496SOL    HW2 2388   6.041   3.449   3.950
  497SOL     OW 2389   4.351   0.442   4.018
  497SOL    HW1 2390   4.388   0.441   4.111
  497SOL    HW2 2391   4.414   0.490   3.957
  498SOL     OW 2392   1.016   3.059   2.902
  498SOL    HW1 2393   1.068   3.013   2.830
  498SOL    HW2 2394   0.944   2.998   2.935
  499SOL     OW 2395   3.494   1.691   5.175
  499SOL    HW1 2396   3.447   1.776   5.198
  499SOL    HW2 2397   3.592   1.701   5.194
  500SOL     OW 2398   1.378   3.949   2.794
  500SOL    HW1 2399   1.471   3.951   2.758
  500SOL    HW2 2400   1.313   3.940   2.718
  501SOL     OW 2401   0.646   4.721   6.206
  501SOL    HW1 2402   0.679   4.735   6.299
  501SOL    HW2 2403   0.606   4.806   6.171
  502SOL     OW 2404   2.918   5.415   6.275
  502SOL    HW1 2405   2.868   5.424   6.361
  502SOL    HW2 2406   2.997   5.477   6.276
  503SOL     OW 2407   5.290   5.534   5.003
  503SOL    HW1 2408   5.273   5.505   4.908
  503SOL    HW2 2409   5.374   5.491   5.036
  504SOL     OW 2410   2.090   5.762   4.119
  504SOL    HW1 2411   2.055   5.840   4.172
  504SOL    HW2 2412   2.187   5.778   4.097
  505SOL     OW 2413   4.169   0.047   5.234
  505SOL    HW1 2414   4.094   7.011   5.269
  505SOL    HW2 2415   4.198   0.112   5.304
  506SOL     OW 2416   2.392   3.785   6.968
  506SOL    HW1 2417   2.309   3.830   7.002
  506SOL    HW2 2418   2.464   3.793   0.017
  507SOL     OW 2419   3.298   1.468   4.172
  507SOL    HW1 2420   3.264   1.553   4.131
  507SOL    HW2 2421   3.276   1.391   4.111
  508SOL     OW 2422   6.128   4.502   3.606
  508SOL    HW1 2423   6.083   4.485   3.693
  508SOL    HW2 2424   6.227   4.512   3.620
  509SOL     OW 2425   4.583   2.433   1.955
  509SOL    HW1 2426   4.534   2.470   1.876
  509SOL    HW2 2427   4.525   2.438   2.036
  510SOL     OW 2428   0.313   4.268   4.166
  510SOL    HW1 2429   0.409   4.273   4.137
  510SOL    HW2 2430   0.266   4.197   4.113
  511SOL     OW 2431   0.579   6.425   1.103
  511SOL    HW1 2432   0.561   6.365   1.025
  511SOL    HW2 2433   0.563   6.520   1.077
  512SOL     OW 2434   0.192   3.707   6.698
  512SOL    HW1 2435   0.166   3.617   6.665
  512SOL    HW2 2436   0.258   3.697   6.773
  513SOL     OW 2437   0.090   5.479   4.574
  513SOL    HW1 2438   0.158   5.487   4.501
  513SOL    HW2 2439   0.006   5.525   4.545
  514SOL     OW 2440   6.087   1.596   3.796
  514SOL    HW1 2441   6.048   1.504   3.791
  514SOL    HW2 2442   6.185   1.592   3.775
  515SOL     OW 2443   2.109   6.372   0.121
  515SOL    HW1 2444   2.149   6.329   0.040
  515SOL    HW2 2445   2.179   6.381   0.192
  516SOL     OW 2446   1.444   5.209   2.409
  516SOL    HW1 2447   1.536   5.239   2.383
  516SOL    HW2 2448   1.427   5.118   2.372
  517SOL     OW 2449   4.855   0.665   0.211
  517SOL    HW1 2450   4.934   0.607   0.230
  517SOL    HW2 2451   4.851   0.686   0.113
  518SOL     OW 2452   2.522   2.040   0.327
  518SOL    HW1 2453   2.571   2.020   0.242
  518SOL    HW2 2454   2.427   2.010   0.318
  519SOL     OW 2455   0.414   6.509   0.715
  519SOL    HW1 2456   0.489   6.575   0.719
  519SOL    HW2 2457   0.433   6.441   0.644
  520SOL     OW 2458   6.114   4.404   4.806
  520SOL    HW1 2459   6.080   4.325   4.856
  520SOL    HW2 2460   6.193   4.377   4.751
  521SOL     OW 2461   7.015   0.792   0.941
  521SOL    HW1 2462   0.068   0.747   0.992
  521SOL    HW2 2463   6.957   0.723   0.898
  522SOL     OW 2464   3.628   3.567   4.999
  522SOL    HW1 2465   3.564   3.636   5.033
  522SOL    HW2 2466   3.712   3.612   4.970
  523SOL     OW 2467   6.879   6.279   5.000
  523SOL    HW1 2468   6.795   6.327   4.973
  523SOL    HW2 2469   6.855   6.196   5.050
  524SOL     OW 2470   3.719   1.273   5.512
  524SOL    HW1 2471   3.765   1.187   5.536
  524SOL    HW2 2472   3.786   1.346   5.503
  525SOL     OW 2473   2.378   3.088   6.748
  525SOL    HW1 2474   2.458   3.147   6.743
  525SOL    HW2 2475   2.295   3.143   6.757
  526SOL     OW 2476   4.057   6.037   4.891
  526SOL    HW1 2477   4.143   6.054   4.842
  526SOL    HW2 2478   4.002   5.972   4.839
  527SOL     OW 2479   0.990   2.185   6.472
  527SOL    HW1 2480   0.932   2.242   6.415
  527SOL    HW2 2481   0.956   2.091   6.472
  528SOL     OW 2482   2.439   0.624   5.486
  528SOL    HW1 2483   2.512   0.564   5.517
  528SOL    HW2 2484   2.417   0.690   5.558
  529SOL     OW 2485   0.071   4.552   4.406
  529SOL    HW1 2486   0.072   4.595   4.496
  529SOL    HW2 2487   7.001   4.510   4.390
  530SOL     OW 2488   1.558   3.015   5.283
  530SOL    HW1 2489   1.613   2.938   5.316
  530SOL    HW2 2490   1.490   3.040   5.353
  531SOL     OW 2491   6.965   0.328   0.458
  531SOL    HW1 2492   6.971   0.421   0.421
  531SOL    HW2 2493   6.949   0.332   0.556
  532SOL     OW 2494   1.822   0.683   5.381
  532SOL    HW1 2495   1.808   0.671   5.480
  532SOL    HW2 2496   1.735   0.672   5.334
  533SOL     OW 2497   5.339   6.656   4.268
  533SOL    HW1 2498   5.354   6.751   4.297
  533SOL    HW2 2499   5.242   6.642   4.249
  534SOL     OW 2500   4.120   6.165   1.838
  534SOL    HW1 2501   4.111   6.260   1.810
  534SOL    HW2 2502   4.032   6.119   1.826
  535SOL     OW 2503   6.726   3.912   3.365
  535SOL    HW1 2504   6.821   3.937   3.380
  535SOL    HW2 2505   6.677   3.988   3.322
  536SOL     OW 2506   1.196   5.427   0.786
  536SOL    HW1 2507   1.245   5.471   0.861
  536SOL    HW2 2508   1.183   5.330   0.806
  537SOL     OW 2509   2.521   0.502   2.692
  537SOL    HW1 2510   2.579   0.480   2.614
  537SOL    HW2 2511   2.490   0.597   2.684
  538SOL     OW 2512   1.558   4.566   3.566
  538SOL    HW1 2513   1.641   4.576   3.510
  538SOL    HW2 2514   1.477   4.575   3.507
  539SOL     OW 2515   1.347   4.688   1.494
  539SOL    HW1 2516   1.385   4.636   1.418
  539SOL    HW2 2517   1.270   4.743   1.460
  540SOL     OW 2518   1.298   2.638   1.681
  540SOL    HW1 2519   1.226   2.582   1.642
  540SOL    HW2 2520   1.373   2.646   1.615
  541SOL     OW 2521   3.926   5.531   4.791
  541SOL    HW1 2522   3.861   5.471   4.746
  541SOL    HW2 2523   4.019   5.495   4.779
  542SOL     OW 2524   6.091   5.848   6.827
  542SOL    HW1 2525   6.067   5.929   6.773
  542SOL    HW2 2526   6.073   5.765   6.774
  543SOL     OW 2527   7.016   6.205   0.162
  543SOL    HW1 2528   7.010   6.291   0.112
  543SOL    HW2 2529   0.092   6.179   0.172
  544SOL     OW 2530   1.187   5.462   6.951
  544SOL    HW1 2531   1.099   5.509   6.961
  544SOL    HW2 2532   1.191   5.386   7.015
  545SOL     OW 2533   3.384   2.069   3.885
  545SOL    HW1 2534   3.469   2.022   3.860
  545SOL    HW2 2535   3.351   2.123   3.808
  546SOL     OW 2536   1.448   3.738   0.227
  546SOL    HW1 2537   1.468   3.763   0.131
  546SOL    HW2 2538   1.484   3.809   0.287
  547SOL     OW 2539   2.968   2.369   0.197
  547SOL    HW1 2540   2.889   2.316   0.229
  547SOL    HW2 2541   2.952   2.466   0.213
  548SOL     OW 2542   3.292   3.220   4.996
  548SOL    HW1 2543   3.208   3.274   5.006
  548SOL    HW2 2544   3.270   3.133   4.950
  549SOL     OW 2545   6.607   3.527   1.610
  549SOL    HW1 2546   6.569   3.471   1.536
  549SOL    HW2 2547   6.705   3.538   1.596
  550SOL     OW 2548   6.582   3.903   1.318
  550SOL    HW1 2549   6.568   3.850   1.401
  550SOL    HW2 2550   6.505   3.890   1.256
  551SOL     OW 2551   7.012   1.873   6.576
  551SOL    HW1 2552   7.004   1.969   6.603
  551SOL    HW2 2553   7.016   1.816   6.658
  552SOL     OW 2554   4.683   5.665   0.732
  552SOL    HW1 2555   4.682   5.729   0.655
  552SOL    HW2 2556   4.690   5.571   0.698
  553SOL     OW 2557   1.245   2.018   1.390
  553SOL    HW1 2558   1.299   2.068   1.458
  553SOL    HW2 2559   1.292   1.933   1.366
  554SOL     OW 2560   5.118   5.740   4.956
  554SOL    HW1 2561   5.021   5.716   4.958
  554SOL    HW2 2562   5.173   5.661   4.982
  555SOL     OW 2563   1.795   4.197   4.610
  555SOL    HW1 2564   1.759   4.128   4.673
  555SOL    HW2 2565   1.805   4.284   4.659
  556SOL     OW 2566   5.576   3.302   3.031
  556SOL    HW1 2567   5.614   3.236   2.966
  556SOL    HW2 2568   5.599   3.395   3.002
  557SOL     OW 2569   0.017   5.062   6.403
  557SOL    HW1 2570   0.011   5.027   6.496
  557SOL    HW2 2571   0.112   5.058   6.372
  558SOL     OW 2572   4.574   3.653   5.559
  558SOL    HW1 2573   4.630   3.604   5.625
  558SOL    HW2 2574   4.631   3.718   5.509
  559SOL     OW 2575   5.903   6.148   6.068
  559SOL    HW1 2576   5.982   6.209   6.070
  559SOL    HW2 2577   5.872   6.136   5.973
  560SOL     OW 2578   4.101   6.595   6.896
  560SOL    HW1 2579   4.091   6.693   6.879
  560SOL    HW2 2580   4.037   6.544   6.838
  561SOL     OW 2581   5.195   6.386   1.016
  561SOL    HW1 2582   5.274   6.399   1.074
  561SOL    HW2 2583   5.186   6.464   0.953
  562SOL     OW 2584   6.502   0.908   6.433
  562SOL    HW1 2585   6.451   0.841   6.379
  562SOL    HW2 2586   6.445   0.939   6.509
  563SOL     OW 2587   3.233   0.192   4.911
  563SOL    HW1 2588   3.313   0.246   4.936
  563SOL    HW2 2589   3.197   0.225   4.824
  564SOL     OW 2590   0.015   1.742   6.808
  564SOL    HW1 2591   6.993   1.681   6.875
  564SOL    HW2 2592   0.111   1.758   6.833
  565SOL     OW 2593   4.629   4.440   5.096
  565SOL    HW1 2594   4.725   4.417   5.115
  565SOL    HW2 2595   4.625   4.522   5.039
  566SOL     OW 2596   5.070   4.929   2.139
  566SOL    HW1 2597   4.984   4.895   2.178
  566SOL    HW2 2598   5.127   4.968   2.212
  567SOL     OW 2599   3.902   3.641   4.342
  567SOL    HW1 2600   3.954   3.580   4.282
  567SOL    HW2 2601   3.813   3.600   4.362
  568SOL     OW 2602   1.999   1.447   6.040
  568SOL    HW1 2603   2.031   1.393   6.117
  568SOL    HW2 2604   2.019   1.544   6.056
  569SOL     OW 2605   2.237   3.740   0.264
  569SOL    HW1 2606   2.271   3.832   0.246
  569SOL    HW2 2607   2.314   3.680   0.286
  570SOL     OW 2608   0.494   5.984   1.033
  570SOL    HW1 2609   0.592   5.999   1.026
  570SOL    HW2 2610   0.473   5.946   1.123
  571SOL     OW 2611   4.018   5.442   2.519
  571SOL    HW1 2612   4.008   5.539   2.497
  571SOL    HW2 2613   3.939   5.411   2.572
  572SOL     OW 2614   1.936   4.050   4.858
  572SOL    HW1 2615   1.847   4.010   4.836
  572SOL    HW2 2616   1.924   4.147   4.880
  573SOL     OW 2617   3.806   2.500   6.485
  573SOL    HW1 2618   3.887   2.454   6.520
  573SOL    HW2 2619   3.781   2.575   6.545
  574SOL     OW 2620   2.678   1.390   4.442
  574SOL    HW1 2621   2.627   1.453   4.383
  574SOL    HW2 2622   2.775   1.398   4.423
  575SOL     OW 2623   5.152   2.273   6.632
  575SOL    HW1 2624   5.110   2.351   6.585
  575SOL    HW2 2625   5.176   2.300   6.725
  576SOL     OW 2626   0.819   2.009   2.404
  576SOL    HW1 2627   0.827   1.967   2.495
  576SOL    HW2 2628   0.728   2.049   2.395
  577SOL     OW 2629   3.036   2.172   4.167
  577SOL    HW1 2630   3.020   2.165   4.265
  577SOL    HW2 2631   3.126   2.134   4.145
  578SOL     OW 2632   0.064   3.314   4.802
  578SOL    HW1 2633   0.087   3.411   4.800
  578SOL    HW2 2634   0.107   3.272   4.882
  579SOL     OW 2635   3.561   3.265   0.664
  579SOL    HW1 2636   3.637   3.321   0.698
  579SOL    HW2 2637   3.598   3.191   0.608
  580SOL     OW 2638   0.404   6.105   6.771
  580SOL    HW1 2639   0.355   6.108   6.684
  580SOL    HW2 2640   0.339   6.119   6.846
  581SOL     OW 2641   3.482   3.506   2.389
  581SOL    HW1 2642   3.529   3.448   2.322
  581SOL    HW2 2643   3.529   3.500   2.477
  582SOL     OW 2644   6.463   4.338   2.203
  582SOL    HW1 2645   6.437   4.321   2.298
  582SOL    HW2 2646   6.441   4.433   2.178
  583SOL     OW 2647   2.209   5.470   6.544
  583SOL    HW1 2648   2.248   5.451   6.454
  583SOL    HW2 2649   2.134   5.405   6.562
  584SOL     OW 2650   0.779   4.992   4.925
  584SOL    HW1 2651   0.845   5.059   4.891
  584SOL    HW2 2652   0.704   4.983   4.858
  585SOL     OW 2653   6.464   1.642   5.842
  585SOL    HW1 2654   6.402   1.568   5.814
  585SOL    HW2 2655   6.558   1.616   5.820
  586SOL     OW 2656   2.448   6.165   0.474
  586SOL    HW1 2657   2.423   6.258   0.499
  586SOL    HW2 2658   2.538   6.165   0.429
  587SOL     OW 2659   1.151   3.599   5.997
  587SOL    HW1 2660   1.060   3.640   5.998
  587SOL    HW2 2661   1.211   3.652   5.937
  588SOL     OW 2662   2.496   0.133   1.384
  588SOL    HW1 2663   2.414   0.097   1.338
  588SOL    HW2 2664   2.533   0.064   1.446
  589SOL     OW 2665   4.703   5.130   1.999
  589SOL    HW1 2666   4.625   5.099   2.054
  589SOL    HW2 2667   4.704   5.230   1.997
  590SOL     OW 2668   6.341   2.197   1.734
  590SOL    HW1 2669   6.289   2.277   1.704
  590SOL    HW2 2670   6.415   2.178   1.669
  591SOL     OW 2671   3.221   6.613   2.541
  591SOL    HW1 2672   3.315   6.612   2.506
  591SOL    HW2 2673   3.160   6.576   2.471
  592SOL     OW 2674   5.288   0.730   6.810
  592SOL    HW1 2675   5.313   0.824   6.831
  592SOL    HW2 2676   5.269   0.681   6.895
  593SOL     OW 2677   6.088   1.174   4.277
  593SOL    HW1 2678   6.079   1.181   4.376
  593SOL    HW2 2679   6.184   1.169   4.251
  594SOL     OW 2680   5.169   2.926   1.701
  594SOL    HW1 2681   5.081   2.941   1.747
  594SOL    HW2 2682   5.167   2.970   1.611
  595SOL     OW 2683   4.302   0.213   3.863
  595SOL    HW1 2684   4.312   0.304   3.904
  595SOL    HW2 2685   4.361   0.148   3.911
  596SOL     OW 2686   0.829   4.271   2.400
  596SOL    HW1 2687   0.922   4.234   2.406
  596SOL    HW2 2688   0.833   4.370   2.388
  597SOL     OW 2689   3.932   2.160   6.093
  597SOL    HW1 2690   3.911   2.164   6.191
  597SOL    HW2 2691   3.986   2.240   6.067
  598SOL     OW 2692   3.008   4.147   1.506
  598SOL    HW1 2693   3.005   4.051   1.478
  598SOL    HW2 2694   3.092   4.189   1.471
  599SOL     OW 2695   0.096   6.546   3.189
  599SOL    HW1 2696   0.106   6.481   3.264
  599SOL    HW2 2697   0.002   6.581   3.188
  600SOL     OW 2698   2.416   0.820   1.171
  600SOL    HW1 2699   2.393   0.736   1.219
  600SOL    HW2 2700   2.387   0.813   1.076
  601SOL     OW 2701   2.682   4.865   3.629
  601SOL    HW1 2702   2.646   4.780   3.667
  601SOL    HW2 2703   2.715   4.849   3.536
  602SOL     OW 2704   0.331   0.527   1.853
  602SOL    HW1 2705   0.334   0.625   1.835
  602SOL    HW2 2706   0.416   0.499   1.898
  603SOL     OW 2707   4.158   2.248   3.185
  603SOL    HW1 2708   4.094   2.219   3.114
  603SOL    HW2 2709   4.201   2.334   3.157
  604SOL     OW 2710   0.750   4.256   5.596
  604SOL    HW1 2711   0.666   4.268   5.543
  604SOL    HW2 2712   0.777   4.160   5.593
  605SOL     OW 2713   5.983   6.862   4.895
  605SOL    HW1 2714   6.061   6.801   4.881
  605SOL    HW2 2715   5.926   6.826   4.969
  606SOL     OW 2716   3.577   6.957   2.852
  606SOL    HW1 2717   3.598   0.026   2.810
  606SOL    HW2 2718   3.507   6.910   2.799
  607SOL     OW 2719   4.110   0.945   3.831
  607SOL    HW1 2720   4.079   0.889   3.907
  607SOL    HW2 2721   4.109   1.042   3.857
  608SOL     OW 2722   4.710   1.897   1.731
  608SOL    HW1 2723   4.744   1.981   1.774
  608SOL    HW2 2724   4.785   1.831   1.724
  609SOL     OW 2725   2.937   3.379   4.198
  609SOL    HW1 2726   2.962   3.406   4.291
  609SOL    HW2 2727   2.872   3.303   4.201
  610SOL     OW 2728   5.671   1.466   4.661
  610SOL    HW1 2729   5.585   1.421   4.639
  610SOL    HW2 2730   5.741   1.396   4.679
  611SOL     OW 2731   5.996   0.139   0.067
  611SOL    HW1 2732   6.084   0.125   0.114
  611SOL    HW2 2733   5.923   0.145   0.135
  612SOL     OW 2734   3.165   5.123   5.651
  612SOL    HW1 2735   3.150   5.108   5.553
  612SOL    HW2 2736   3.161   5.221   5.671
  613SOL     OW 2737   3.314   1.888   6.738
  613SOL    HW1 2738   3.335   1.882   6.836
  613SOL    HW2 2739   3.392   1.854   6.685
  614SOL     OW 2740   5.596   3.659   1.028
  614SOL    HW1 2741   5.558   3.719   0.957
  614SOL    HW2 2742   5.573   3.696   1.118
  615SOL     OW 2743   5.167   6.957   1.142
  615SOL    HW1 2744   5.209   6.950   1.232
  615SOL    HW2 2745   5.108   6.878   1.126
  616SOL     OW 2746   5.463   0.666   4.936
  616SOL    HW1 2747   5.506   0.576   4.943
  616SOL    HW2 2748   5.364   0.657   4.949
  617SOL     OW 2749   6.886   5.779   5.423
  617SOL    HW1 2750   6.823   5.767   5.346
  617SOL    HW2 2751   6.834   5.787   5.508
  618SOL     OW 2752   5.880   4.788   6.922
  618SOL    HW1 2753   5.975   4.776   6.952
  618SOL    HW2 2754   5.834   4.853   6.982
  619SOL     OW 2755   2.739   6.713   5.864
  619SOL    HW1 2756   2.717   6.644   5.933
  619SOL    HW2 2757   2.678   6.703   5.786
  620SOL     OW 2758   5.141   1.777   2.547
  620SOL    HW1 2759   5.114   1.696   2.598
  620SOL    HW2 2760   5.151   1.854   2.610
  621SOL     OW 2761   2.804   0.394   6.754
  621SOL    HW1 2762   2.893   0.347   6.757
  621SOL    HW2 2763   2.737   0.340   6.804
  622SOL     OW 2764   0.601   2.788   5.684
  622SOL    HW1 2765   0.558   2.802   5.773
  622SOL    HW2 2766   0.657   2.705   5.687
  623SOL     OW 2767   6.521   0.089   3.571
  623SOL    HW1 2768   6.573   0.164   3.613
  623SOL    HW2 2769   6.445   0.127   3.518
  624SOL     OW 2770   6.983   0.711   6.070
  624SOL    HW1 2771   6.999   0.696   6.168
  624SOL    HW2 2772   6.938   0.800   6.057
  625SOL     OW 2773   3.490   1.239   1.203
  625SOL    HW1 2774   3.515   1.251   1.107
  625SOL    HW2 2775   3.469   1.143   1.221
  626SOL     OW 2776   6.837   5.766   3.390
  626SOL    HW1 2777   6.777   5.731   3.319
  626SOL    HW2 2778   6.785   5.829   3.449
  627SOL     OW 2779   6.510   6.148   0.499
  627SOL    HW1 2780   6.589   6.124   0.554
  627SOL    HW2 2781   6.486   6.071   0.440
  628SOL     OW 2782   3.827   4.751   6.169
  628SOL    HW1 2783   3.806   4.735   6.073
  628SOL    HW2 2784   3.899   4.820   6.177
  629SOL     OW 2785   1.298   6.457   0.090
  629SOL    HW1 2786   1.314   6.548   0.050
  629SOL    HW2 2787   1.260   6.468   0.182
  630SOL     OW 2788   6.324   1.531   1.320
  630SOL    HW1 2789   6.354   1.439   1.297
  630SOL    HW2 2790   6.339   1.592   1.242
  631SOL     OW 2791   1.610   2.482   3.619
  631SOL    HW1 2792   1.651   2.453   3.533
  631SOL    HW2 2793   1.598   2.403   3.679
  632SOL     OW 2794   3.039   4.059   0.719
  632SOL    HW1 2795   3.005   4.089   0.630
  632SOL    HW2 2796   3.060   4.139   0.775
  633SOL     OW 2797   1.615   5.563   0.624
  633SOL    HW1 2798   1.636   5.478   0.673
  633SOL    HW2 2799   1.580   5.540   0.533
  634SOL     OW 2800   3.055   3.174   4.707
  634SOL    HW1 2801   3.087   3.085   4.739
  634SOL    HW2 2802   3.035   3.233   4.785
  635SOL     OW 2803   5.840   0.059   6.330
  635SOL    HW1 2804   5.746   0.082   6.353
  635SOL    HW2 2805   5.901   0.132   6.358
  636SOL     OW 2806   2.875   0.583   5.634
  636SOL    HW1 2807   2.826   0.668   5.652
  636SOL    HW2 2808   2.838   0.510   5.691
  637SOL     OW 2809   0.292   1.278   2.954
  637SOL    HW1 2810   0.373   1.337   2.957
  637SOL    HW2 2811   0.220   1.324   2.903
  638SOL     OW 2812   6.550   3.189   5.165
  638SOL    HW1 2813   6.532   3.252   5.089
  638SOL    HW2 2814   6.489   3.110   5.158
  639SOL     OW 2815   5.897   4.231   2.124
  639SOL    HW1 2816   5.946   4.144   2.121
  639SOL    HW2 2817   5.845   4.243   2.039
  640SOL     OW 2818   0.027   3.208   2.738
  640SOL    HW1 2819   6.970   3.159   2.696
  640SOL    HW2 2820   0.106   3.147   2.742
  641SOL     OW 2821   2.569   5.303   4.629
  641SOL    HW1 2822   2.491   5.313   4.568
  641SOL    HW2 2823   2.562   5.216   4.678
  642SOL     OW 2824   0.220   5.048   4.864
  642SOL    HW1 2825   0.257   5.081   4.951
  642SOL    HW2 2826   0.188   5.126   4.811
  643SOL     OW 2827   4.033   5.064   0.501
  643SOL    HW1 2828   4.086   4.982   0.524
  643SOL    HW2 2829   4.092   5.144   0.511
  644SOL     OW 2830   0.047   6.417   5.533
  644SOL    HW1 2831   0.019   6.455   5.445
  644SOL    HW2 2832   6.987   6.387   5.584
  645SOL     OW 2833   3.982   5.684   2.434
  645SOL    HW1 2834   4.022   5.641   2.354
  645SOL    HW2 2835   3.928   5.764   2.407
  646SOL     OW 2836   3.527   2.100   4.660
  646SOL    HW1 2837   3.594   2.084   4.732
  646SOL    HW2 2838   3.442   2.134   4.700
  647SOL     OW 2839   3.752   2.742   6.207
  647SOL    HW1 2840   3.798   2.668   6.256
  647SOL    HW2 2841   3.717   2.809   6.273
  648SOL     OW 2842   6.343   1.158   3.647
  648SOL    HW1 2843   6.411   1.107   3.595
  648SOL    HW2 2844   6.303   1.229   3.588
  649SOL     OW 2845   3.012   5.195   0.198
  649SOL    HW1 2846   2.954   5.276   0.194
  649SOL    HW2 2847   3.100   5.219   0.239
  650SOL     OW 2848   0.060   3.575   1.037
  650SOL    HW1 2849   0.099   3.651   1.088
  650SOL    HW2 2850   0.089   3.489   1.078
  651SOL     OW 2851   0.721   0.394   3.655
  651SOL    HW1 2852   0.788   0.321   3.648
  651SOL    HW2 2853   0.712   0.422   3.751
  652SOL     OW 2854   4.034   5.664   0.669
  652SOL    HW1 2855   4.089   5.650   0.751
  652SOL    HW2 2856   4.091   5.699   0.596
  653SOL     OW 2857   1.549   6.331   2.269
  653SOL    HW1 2858   1.557   6.317   2.170
  653SOL    HW2 2859   1.506   6.251   2.311
  654SOL     OW 2860   0.721   0.099   5.794
  654SOL    HW1 2861   0.693   0.017   5.844
  654SOL    HW2 2862   0.664   0.176   5.821
  655SOL     OW 2863   0.615   3.737   1.436
  655SOL    HW1 2864   0.666   3.680   1.371
  655SOL    HW2 2865   0.522   3.753   1.400
  656SOL     OW 2866   2.846   6.020   6.737
  656SOL    HW1 2867   2.889   5.977   6.658
  656SOL    HW2 2868   2.752   6.046   6.714
  657SOL     OW 2869   3.761   3.612   3.363
  657SOL    HW1 2870   3.854   3.626   3.397
  657SOL    HW2 2871   3.707   3.694   3.383
  658SOL     OW 2872   1.009   1.761   4.031
  658SOL    HW1 2873   1.075   1.696   4.070
  658SOL    HW2 2874   0.974   1.820   4.104
  659SOL     OW 2875   1.796   5.646   6.680
  659SOL    HW1 2876   1.860   5.569   6.673
  659SOL    HW2 2877   1.783   5.687   6.590
  660SOL     OW 2878   5.190   4.787   2.746
  660SOL    HW1 2879   5.205   4.691   2.724
  660SOL    HW2 2880   5.277   4.837   2.739
  661SOL     OW 2881   4.372   5.322   3.858
  661SOL    HW1 2882   4.313   5.312   3.778
  661SOL    HW2 2883   4.467   5.308   3.831
  662SOL     OW 2884   4.717   3.346   0.116
  662SOL    HW1 2885   4.720   3.446   0.114
  662SOL    HW2 2886   4.806   3.311   0.146
  663SOL     OW 2887   6.853   3.959   0.230
  663SOL    HW1 2888   6.946   3.991   0.214
  663SOL    HW2 2889   6.801   3.962   0.145
  664SOL     OW 2890   1.527   0.051   6.103
  664SOL    HW1 2891   1.626   0.050   6.090
  664SOL    HW2 2892   1.483   7.016   6.032
  665SOL     OW 2893   3.438   4.874   2.655
  665SOL    HW1 2894   3.467   4.842   2.565
  665SOL    HW2 2895   3.381   4.956   2.644
  666SOL     OW 2896   3.352   0.944   6.672
  666SOL    HW1 2897   3.365   0.891   6.756
  666SOL    HW2 2898   3.388   0.892   6.594
  667SOL     OW 2899   1.456   3.335   2.377
  667SOL    HW1 2900   1.451   3.240   2.345
  667SOL    HW2 2901   1.546   3.352   2.417
  668SOL     OW 2902   5.206   0.329   0.533
  668SOL    HW1 2903   5.206   0.427   0.551
  668SOL    HW2 2904   5.282   0.305   0.473
  669SOL     OW 2905   0.910   5.998   2.784
  669SOL    HW1 2906   0.907   5.917   2.842
  669SOL    HW2 2907   1.005   6.024   2.768
  670SOL     OW 2908   3.565   3.595   2.943
  670SOL    HW1 2909   3.658   3.614   2.913
  670SOL    HW2 2910   3.538   3.663   3.012
  671SOL     OW 2911   1.847   0.097   6.342
  671SOL    HW1 2912   1.897   0.174   6.382
  671SOL    HW2 2913   1.876   0.012   6.387
  672SOL     OW 2914   0.925   2.050   2.935
  672SOL    HW1 2915   0.954   1.966   2.982
  672SOL    HW2 2916   0.999   2.082   2.875
  673SOL     OW 2917   4.675   0.315   0.118
  673SOL    HW1 2918   4.774   0.318   0.127
  673SOL    HW2 2919   4.633   0.376   0.185
  674SOL     OW 2920   6.991   2.130   4.781
  674SOL    HW1 2921   0.034   2.053   4.770
  674SOL    HW2 2922   6.964   2.164   4.691
  675SOL     OW 2923   6.213   6.719   3.920
  675SOL    HW1 2924   6.204   6.818   3.927
  675SOL    HW2 2925   6.304   6.692   3.951
  676SOL     OW 2926   2.517   5.160   4.109
  676SOL    HW1 2927   2.455   5.089   4.142
  676SOL    HW2 2928   2.492   5.248   4.149
  677SOL     OW 2929   4.960   6.818   0.996
  677SOL    HW1 2930   4.951   6.726   0.958
  677SOL    HW2 2931   4.960   6.885   0.921
  678SOL     OW 2932   2.573   1.077   5.946
  678SOL    HW1 2933   2.581   0.980   5.966
  678SOL    HW2 2934   2.477   1.104   5.943
  679SOL     OW 2935   6.167   0.437   2.390
  679SOL    HW1 2936   6.174   0.526   2.435
  679SOL    HW2 2937   6.197   0.365   2.452
  680SOL     OW 2938   5.678   4.461   4.609
  680SOL    HW1 2939   5.662   4.546   4.560
  680SOL    HW2 2940   5.772   4.431   4.595
  681SOL     OW 2941   1.367   6.879   2.287
  681SOL    HW1 2942   1.458   6.879   2.245
  681SOL    HW2 2943   1.326   6.788   2.277
  682SOL     OW 2944   0.194   0.200   6.253
  682SOL    HW1 2945   0.130   0.134   6.214
  682SOL    HW2 2946   0.155   0.292   6.245
  683SOL     OW 2947   5.274   1.907   0.648
  683SOL    HW1 2948   5.232   1.968   0.580
  683SOL    HW2 2949   5.361   1.873   0.613
  684SOL     OW 2950   0.548   5.928   6.090
  684SOL    HW1 2951   0.522   6.012   6.139
  684SOL    HW2 2952   0.620   5.881   6.141
  685SOL     OW 2953   6.209   1.130   6.421
  685SOL    HW1 2954   6.157   1.210   6.391
  685SOL    HW2 2955   6.288   1.160   6.475
  686SOL     OW 2956   5.718   4.893   3.220
  686SOL    HW1 2957   5.780   4.969   3.240
  686SOL    HW2 2958   5.771   4.815   3.187
  687SOL     OW 2959   5.896   2.392   5.654
  687SOL    HW1 2960   5.808   2.365   5.615
  687SOL    HW2 2961   5.885   2.479   5.704
  688SOL     OW 2962   6.944   3.457   5.033
  688SOL    HW1 2963   6.845   3.450   5.027
  688SOL    HW2 2964   6.978   3.509   4.955
  689SOL     OW 2965   6.077   3.906   4.812
  689SOL    HW1 2966   5.983   3.901   4.776
  689SOL    HW2 2967   6.103   4.002   4.824
  690SOL     OW 2968   0.046   3.388   4.038
  690SOL    HW1 2969   0.108   3.312   4.018
  690SOL    HW2 2970   6.994   3.391   3.968
  691SOL     OW 2971   6.991   2.812   6.784
  691SOL    HW1 2972   7.010   2.907   6.810
  691SOL    HW2 2973   6.926   2.810   6.708
  692SOL     OW 2974   2.525   6.884   3.193
  692SOL    HW1 2975   2.557   6.941   3.269
  692SOL    HW2 2976   2.479   6.803   3.230
  693SOL     OW 2977   6.370   1.485   2.222
  693SOL    HW1 2978   6.390   1.481   2.124
  693SOL    HW2 2979   6.348   1.579   2.247
  694SOL     OW 2980   1.735   0.389   2.077
  694SOL    HW1 2981   1.753   0.373   2.174
  694SOL    HW2 2982   1.821   0.390   2.027
  695SOL     OW 2983   4.466   5.719   6.223
  695SOL    HW1 2984   4.499   5.756   6.310
  695SOL    HW2 2985   4.366   5.723   6.220
  696SOL     OW 2986   5.245   6.358   2.463
  696SOL    HW1 2987   5.153   6.318   2.460
  696SOL    HW2 2988   5.259   6.402   2.551
  697SOL     OW 2989   1.559   3.961   3.652
  697SOL    HW1 2990   1.525   4.036   3.595
  697SOL    HW2 2991   1.491   3.888   3.654
  698SOL     OW 2992   4.972   5.755   3.987
  698SOL    HW1 2993   5.030   5.726   4.063
  698SOL    HW2 2994   4.881   5.779   4.021
  699SOL     OW 2995   0.983   4.087   6.966
  699SOL    HW1 2996   0.985   4.012   6.900
  699SOL    HW2 2997   1.018   4.170   6.922
  700SOL     OW 2998   2.101   1.594   4.286
  700SOL    HW1 2999   2.186   1.592   4.234
  700SOL    HW2 3000   2.091   1.684   4.330
  701SOL     OW 3001   0.920   4.798   5.996
  701SOL    HW1 3002   0.947   4.717   6.049
  701SOL    HW2 3003   0.998   4.832   5.944
  702SOL     OW 3004   5.355   6.045   4.970
  702SOL    HW1 3005   5.449   6.031   5.000
  702SOL    HW2 3006   5.296   6.060   5.050
  703SOL     OW 3007   4.201   3.887   0.165
  703SOL    HW1 3008   4.242   3.832   0.092
  703SOL    HW2 3009   4.274   3.927   0.221
  704SOL     OW 3010   2.640   0.637   1.459
  704SOL    HW1 3011   2.582   0.717   1.451
  704SOL    HW2 3012   2.584   0.554   1.452
  705SOL     OW 3013   6.739   2.120   3.784
  705SOL    HW1 3014   6.659   2.062   3.767
  705SOL    HW2 3015   6.809   2.102   3.715
  706SOL     OW 3016   5.002   2.666   4.019
  706SOL    HW1 3017   4.943   2.618   4.085
  706SOL    HW2 3018   5.082   2.701   4.067
  707SOL     OW 3019   4.857   2.026   2.396
  707SOL    HW1 3020   4.814   2.088   2.331
  707SOL    HW2 3021   4.799   1.946   2.409
  708SOL     OW 3022   4.125   0.390   2.332
  708SOL    HW1 3023   4.194   0.339   2.280
  708SOL    HW2 3024   4.171   0.442   2.404
  709SOL     OW 3025   0.583   5.240   0.226
  709SOL    HW1 3026   0.594   5.324   0.173
  709SOL    HW2 3027   0.618   5.254   0.318
  710SOL     OW 3028   2.892   3.610   2.616
  710SOL    HW1 3029   2.858   3.544   2.548
  710SOL    HW2 3030   2.965   3.665   2.574
  711SOL     OW 3031   1.208   1.317   4.590
  711SOL    HW1 3032   1.256   1.230   4.589
  711SOL    HW2 3033   1.123   1.308   4.642
  712SOL     OW 3034   1.180   3.802   2.081
  712SOL    HW1 3035   1.239   3.857   2.021
  712SOL    HW2 3036   1.133   3.733   2.026
  713SOL     OW 3037   3.694   3.765   3.744
  713SOL    HW1 3038   3.694   3.850   3.796
  713SOL    HW2 3039   3.600   3.738   3.724
  714SOL     OW 3040   5.052   5.110   5.388
  714SOL    HW1 3041   5.024   5.025   5.432
  714SOL    HW2 3042   5.058   5.182   5.457
  715SOL     OW 3043   4.733   0.912   6.664
  715SOL    HW1 3044   4.711   0.960   6.749
  715SOL    HW2 3045   4.757   0.817   6.684
  716SOL     OW 3046   6.812   5.132   1.818
  716SOL    HW1 3047   6.882   5.194   1.781
  716SOL    HW2 3048   6.761   5.179   1.890
  717SOL     OW 3049   5.925   2.989   7.018
  717SOL    HW1 3050   6.009   3.043   7.010
  717SOL    HW2 3051   5.944   2.894   6.992
  718SOL     OW 3052   2.151   3.350   0.019
  718SOL    HW1 3053   2.092   3.429   0.039
  718SOL    HW2 3054   2.239   3.362   0.064
  719SOL     OW 3055   5.086   5.295   0.584
  719SOL    HW1 3056   5.146   5.220   0.557
  719SOL    HW2 3057   5.079   5.298   0.684
  720SOL     OW 3058   2.826   0.733   6.261
  720SOL    HW1 3059   2.853   0.675   6.338
  720SOL    HW2 3060   2.881   0.817   6.262
  721SOL     OW 3061   1.406   6.318   5.495
  721SOL    HW1 3062   1.462   6.396   5.467
  721SOL    HW2 3063   1.310   6.347   5.503
  722SOL     OW 3064   4.381   6.673   5.696
  722SOL    HW1 3065   4.435   6.595   5.663
  722SOL    HW2 3066   4.385   6.676   5.796
  723SOL     OW 3067   1.885   3.171   2.123
  723SOL    HW1 3068   1.811   3.233   2.096
  723SOL    HW2 3069   1.953   3.222   2.176
  724SOL     OW 3070   6.467   0.581   4.552
  724SOL    HW1 3071   6.369   0.570   4.532
  724SOL    HW2 3072   6.478   0.641   4.631
  725SOL     OW 3073   2.864   4.789   1.089
  725SOL    HW1 3074   2.857   4.775   1.187
  725SOL    HW2 3075   2.843   4.704   1.041
  726SOL     OW 3076   4.501   6.826   6.039
  726SOL    HW1 3077   4.424   6.763   6.027
  726SOL    HW2 3078   4.506   6.887   5.960
  727SOL     OW 3079   2.420   4.383   3.935
  727SOL    HW1 3080   2.375   4.472   3.931
  727SOL    HW2 3081   2.361   4.314   3.894
  728SOL     OW 3082   7.017   2.859   5.114
  728SOL    HW1 3083   0.051   2.775   5.120
  728SOL    HW2 3084   0.047   2.928   5.063
  729SOL     OW 3085   3.476   0.698   0.731
  729SOL    HW1 3086   3.417   0.627   0.772
  729SOL    HW2 3087   3.456   0.705   0.634
  730SOL     OW 3088   5.560   1.301   5.083
  730SOL    HW1 3089   5.573   1.364   5.160
  730SOL    HW2 3090   5.492   1.232   5.108
  731SOL     OW 3091   6.548   3.250   4.167
  731SOL    HW1 3092   6.592   3.295   4.245
  731SOL    HW2 3093   6.618   3.218   4.103
  732SOL     OW 3094   6.779   2.958   3.153
  732SOL    HW1 3095   6.849   2.980   3.220
  732SOL    HW2 3096   6.709   2.900   3.196
  733SOL     OW 3097   4.522   4.842   4.376
  733SOL    HW1 3098   4.612   4.875   4.404
  733SOL    HW2 3099   4.509   4.862   4.278
  734SOL     OW 3100   0.742   4.409   0.096
  734SOL    HW1 3101   0.754   4.406   0.196
  734SOL    HW2 3102   0.647   4.433   0.076
  735SOL     OW 3103   2.505   4.803   6.711
  735SOL    HW1 3104   2.594   4.848   6.724
  735SOL    HW2 3105   2.452   4.808   6.795
  736SOL     OW 3106   5.766   0.768   2.848
  736SOL    HW1 3107   5.729   0.707   2.777
  736SOL    HW2 3108   5.865   0.771   2.841
  737SOL     OW 3109   5.650   3.999   0.506
  737SOL    HW1 3110   5.716   4.053   0.454
  737SOL    HW2 3111   5.557   4.022   0.477
  738SOL     OW 3112   0.692   4.715   3.185
  738SOL    HW1 3113   0.729   4.805   3.163
  738SOL    HW2 3114   0.652   4.675   3.103
  739SOL     OW 3115   4.491   6.195   6.693
  739SOL    HW1 3116   4.419   6.178   6.761
  739SOL    HW2 3117   4.555   6.263   6.729
  740SOL     OW 3118   5.583   0.379   0.586
  740SOL    HW1 3119   5.538   0.324   0.516
  740SOL    HW2 3120   5.515   0.409   0.653
  741SOL     OW 3121   2.410   0.358   3.944
  741SOL    HW1 3122   2.469   0.293   3.991
  741SOL    HW2 3123   2.385   0.322   3.854
  742SOL     OW 3124   1.671   0.045   2.422
  742SOL    HW1 3125   1.580   0.039   2.461
  742SOL    HW2 3126   1.668   0.019   2.326
  743SOL     OW 3127   2.158   3.324   4.454
  743SOL    HW1 3128   2.174   3.323   4.553
  743SOL    HW2 3129   2.154   3.230   4.420
  744SOL     OW 3130   0.290   5.699   1.125
  744SOL    HW1 3131   0.319   5.654   1.210
  744SOL    HW2 3132   0.222   5.769   1.147
  745SOL     OW 3133   1.887   5.757   3.095
  745SOL    HW1 3134   1.964   5.697   3.072
  745SOL    HW2 3135   1.921   5.850   3.109
  746SOL     OW 3136   2.593   0.598   4.243
  746SOL    HW1 3137   2.500   0.605   4.278
  746SOL    HW2 3138   2.633   0.689   4.234
  747SOL     OW 3139   6.169   4.386   1.586
  747SOL    HW1 3140   6.216   4.474   1.588
  747SOL    HW2 3141   6.217   4.324   1.524
  748SOL     OW 3142   3.748   3.085   2.317
  748SOL    HW1 3143   3.743   2.993   2.279
  748SOL    HW2 3144   3.840   3.122   2.303
  749SOL     OW 3145   6.921   1.461   5.187
  749SOL    HW1 3146   6.830   1.437   5.220
  749SOL    HW2 3147   6.989   1.401   5.231
  750SOL     OW 3148   2.965   3.860   1.477
  750SOL    HW1 3149   2.880   3.824   1.440
  750SOL    HW2 3150   3.002   3.794   1.543
  751SOL     OW 3151   4.876   1.147   0.509
  751SOL    HW1 3152   4.928   1.064   0.488
  751SOL    HW2 3153   4.867   1.156   0.608
  752SOL     OW 3154   4.680   0.989   1.800
  752SOL    HW1 3155   4.759   1.049   1.792
  752SOL    HW2 3156   4.657   0.953   1.709
  753SOL     OW 3157   2.788   1.422   2.435
  753SOL    HW1 3158   2.830   1.392   2.521
  753SOL    HW2 3159   2.690   1.438   2.449
  754SOL     OW 3160   5.040   5.693   6.977
  754SOL    HW1 3161   5.032   5.785   6.937
  754SOL    HW2 3162   5.131   5.657   6.960
  755SOL     OW 3163   0.179   6.359   2.850
  755SOL    HW1 3164   0.131   6.272   2.834
  755SOL    HW2 3165   0.114   6.435   2.844
  756SOL     OW 3166   3.583   6.567   3.682
  756SOL    HW1 3167   3.653   6.498   3.660
  756SOL    HW2 3168   3.628   6.650   3.714
  757SOL     OW 3169   6.627   0.864   5.028
  757SOL    HW1 3170   6.644   0.940   5.091
  757SOL    HW2 3171   6.639   0.896   4.934
  758SOL     OW 3172   4.392   2.007   2.100
  758SOL    HW1 3173   4.336   2.089   2.085
  758SOL    HW2 3174   4.488   2.034   2.112
  759SOL     OW 3175   1.718   0.924   0.460
  759SOL    HW1 3176   1.736   0.907   0.557
  759SOL    HW2 3177   1.800   0.961   0.417
  760SOL     OW 3178   4.379   2.237   5.870
  760SOL    HW1 3179   4.340   2.269   5.957
  760SOL    HW2 3180   4.478   2.236   5.877
  761SOL     OW 3181   5.903   1.907   6.992
  761SOL    HW1 3182   5.999   1.911   6.966
  761SOL    HW2 3183   5.851   1.860   6.921
  762SOL     OW 3184   1.937   5.329   4.170
  762SOL    HW1 3185   1.909   5.288   4.257
  762SOL    HW2 3186   1.903   5.424   4.166
  763SOL     OW 3187   5.777   5.343   6.805
  763SOL    HW1 3188   5.760   5.334   6.903
  763SOL    HW2 3189   5.692   5.364   6.758
  764SOL     OW 3190   4.493   1.233   2.588
  764SOL    HW1 3191   4.411   1.197   2.544
  764SOL    HW2 3192   4.481   1.233   2.687
  765SOL     OW 3193   6.938   6.225   3.560
  765SOL    HW1 3194   6.950   6.164   3.638
  765SOL    HW2 3195   6.910   6.172   3.480
  766SOL     OW 3196   0.256   6.201   6.983
  766SOL    HW1 3197   0.237   6.158   0.051
  766SOL    HW2 3198   0.271   6.299   6.996
  767SOL     OW 3199   6.119   6.707   1.665
  767SOL    HW1 3200   6.054   6.737   1.734
  767SOL    HW2 3201   6.071   6.658   1.592
  768SOL     OW 3202   3.342   6.402   3.525
  768SOL    HW1 3203   3.399   6.335   3.573
  768SOL    HW2 3204   3.298   6.462   3.592
  769SOL     OW 3205   3.180   0.601   6.769
  769SOL    HW1 3206   3.203   0.657   6.689
  769SOL    HW2 3207   3.088   0.623   6.800
  770SOL     OW 3208   3.291   4.972   3.537
  770SOL    HW1 3209   3.309   4.976   3.439
  770SOL    HW2 3210   3.377   4.965   3.587
  771SOL     OW 3211   0.228   5.457   4.323
  771SOL    HW1 3212   0.319   5.495   4.339
  771SOL    HW2 3213   0.192   5.491   4.236
  772SOL     OW 3214   6.590   4.362   5.052
  772SOL    HW1 3215   6.528   4.430   5.014
  772SOL    HW2 3216   6.646   4.404   5.123
  773SOL     OW 3217   0.243   3.641   1.460
  773SOL    HW1 3218   0.276   3.673   1.371
  773SOL    HW2 3219   0.213   3.546   1.452
  774SOL     OW 3220   1.567   1.195   1.446
  774SOL    HW1 3221   1.619   1.117   1.414
  774SOL    HW2 3222   1.584   1.274   1.387
  775SOL     OW 3223   1.287   2.210   4.164
  775SOL    HW1 3224   1.223   2.285   4.180
  775SOL    HW2 3225   1.271   2.170   4.074
  776SOL     OW 3226   2.399   0.492   5.920
  776SOL    HW1 3227   2.338   0.464   5.846
  776SOL    HW2 3228   2.454   0.415   5.950
  777SOL     OW 3229   3.895   0.454   0.422
  777SOL    HW1 3230   3.977   0.405   0.392
  777SOL    HW2 3231   3.897   0.548   0.387
  778SOL     OW 3232   4.238   6.506   3.840
  778SOL    HW1 3233   4.293   6.439   3.791
  778SOL    HW2 3234   4.274   6.517   3.933
  779SOL     OW 3235   0.970   1.195   2.325
  779SOL    HW1 3236   0.992   1.257   2.401
  779SOL    HW2 3237   0.962   1.102   2.360
  780SOL     OW 3238   5.188   3.487   5.021
  780SOL    HW1 3239   5.279   3.454   5.047
  780SOL    HW2 3240   5.179   3.488   4.922
  781SOL     OW 3241   0.890   1.953   6.444
  781SOL    HW1 3242   0.842   1.918   6.363
  781SOL    HW2 3243   0.871   1.894   6.522
  782SOL     OW 3244   0.250   4.150   0.606
  782SOL    HW1 3245   0.267   4.055   0.631
  782SOL    HW2 3246   0.169   4.155   0.548
  783SOL     OW 3247   2.511   4.086   0.572
  783SOL    HW1 3248   2.597   4.064   0.526
  783SOL    HW2 3249   2.438   4.028   0.537
  784SOL     OW 3250   4.994   6.442   3.631
  784SOL    HW1 3251   4.905   6.408   3.661
  784SOL    HW2 3252   5.060   6.431   3.705
  785SOL     OW 3253   6.034   2.179   4.020
  785SOL    HW1 3254   6.033   2.105   4.087
  785SOL    HW2 3255   6.011   2.265   4.065
  786SOL     OW 3256   6.360   0.172   6.952
  786SOL    HW1 3257   6.285   0.127   6.902
  786SOL    HW2 3258   6.328   0.198   0.022
  787SOL     OW 3259   3.832   1.463   6.877
  787SOL    HW1 3260   3.888   1.436   6.799
  787SOL    HW2 3261   3.811   1.561   6.871
  788SOL     OW 3262   0.990   4.280   3.956
  788SOL    HW1 3263   0.890   4.274   3.963
  788SOL    HW2 3264   1.021   4.228   3.877
  789SOL     OW 3265   5.944   3.343   1.183
  789SOL    HW1 3266   5.917   3.413   1.116
  789SOL    HW2 3267   5.868   3.279   1.197
  790SOL     OW 3268   3.256   1.092   4.529
  790SOL    HW1 3269   3.287   1.166   4.589
  790SOL    HW2 3270   3.201   1.028   4.583
  791SOL     OW 3271   3.796   2.157   4.546
  791SOL    HW1 3272   3.698   2.151   4.568
  791SOL    HW2 3273   3.844   2.206   4.619
  792SOL     OW 3274   5.682   0.003   3.492
  792SOL    HW1 3275   5.597   0.054   3.483
  792SOL    HW2 3276   5.669   6.929   3.461
  793SOL     OW 3277   6.627   6.964   6.036
  793SOL    HW1 3278   6.566   0.022   6.037
  793SOL    HW2 3279   6.577   6.882   6.008
  794SOL     OW 3280   3.562   5.405   4.795
  794SOL    HW1 3281   3.538   5.311   4.768
  794SOL    HW2 3282   3.570   5.462   4.714
  795SOL     OW 3283   4.890   4.648   6.325
  795SOL    HW1 3284   4.861   4.623   6.417
  795SOL    HW2 3285   4.956   4.581   6.291
  796SOL     OW 3286   0.844   2.332   6.258
  796SOL    HW1 3287   0.746   2.324   6.241
  796SOL    HW2 3288   0.895   2.288   6.184
  797SOL     OW 3289   6.365   2.275   4.861
  797SOL    HW1 3290   6.271   2.243   4.860
  797SOL    HW2 3291   6.423   2.209   4.813
  798SOL     OW 3292   6.248   0.790   5.451
  798SOL    HW1 3293   6.309   0.725   5.497
  798SOL    HW2 3294   6.292   0.879   5.444
  799SOL     OW 3295   6.708   3.601   3.436
  799SOL    HW1 3296   6.629   3.540   3.448
  799SOL    HW2 3297   6.676   3.690   3.404
  800SOL     OW 3298   6.755   1.356   2.188
  800SOL    HW1 3299   6.677   1.296   2.166
  800SOL    HW2 3300   6.838   1.320   2.146
  801SOL     OW 3301   0.581   2.341   3.846
  801SOL    HW1 3302   0.561   2.258   3.898
  801SOL    HW2 3303   0.608   2.414   3.908
  802SOL     OW 3304   5.633   1.277   1.149
  802SOL    HW1 3305   5.540   1.252   1.178
  802SOL    HW2 3306   5.684   1.311   1.227
  803SOL     OW 3307   1.548   0.191   4.419
  803SOL    HW1 3308   1.479   0.261   4.439
  803SOL    HW2 3309   1.509   0.122   4.359
  804SOL     OW 3310   6.109   6.708   1.198
  804SOL    HW1 3311   6.020   6.676   1.166
  804SOL    HW2 3312   6.173   6.710   1.121
  805SOL     OW 3313   1.529   3.503   5.942
  805SOL    HW1 3314   1.546   3.443   6.020
  805SOL    HW2 3315   1.518   3.597   5.975
  806SOL     OW 3316   4.856   0.985   1.109
  806SOL    HW1 3317   4.891   1.061   1.163
  806SOL    HW2 3318   4.758   0.973   1.128
  807SOL     OW 3319   1.342   0.539   2.803
  807SOL    HW1 3320   1.290   0.456   2.822
  807SOL    HW2 3321   1.284   0.605   2.756
  808SOL     OW 3322   6.239   3.283   5.417
  808SOL    HW1 3323   6.280   3.314   5.331
  808SOL    HW2 3324   6.200   3.361   5.465
  809SOL     OW 3325   0.561   5.204   6.310
  809SOL    HW1 3326   0.603   5.124   6.354
  809SOL    HW2 3327   0.610   5.286   6.339
  810SOL     OW 3328   6.535   4.633   6.729
  810SOL    HW1 3329   6.466   4.689   6.775
  810SOL    HW2 3330   6.606   4.693   6.692
  811SOL     OW 3331   4.568   5.127   3.626
  811SOL    HW1 3332   4.597   5.168   3.713
  811SOL    HW2 3333   4.648   5.099   3.575
  812SOL     OW 3334   0.789   0.333   2.529
  812SOL    HW1 3335   0.863   0.341   2.596
  812SOL    HW2 3336   0.715   0.396   2.554
  813SOL     OW 3337   5.838   5.475   2.104
  813SOL    HW1 3338   5.920   5.450   2.052
  813SOL    HW2 3339   5.830   5.574   2.107
  814SOL     OW 3340   5.916   5.543   1.686
  814SOL    HW1 3341   5.963   5.494   1.759
  814SOL    HW2 3342   5.876   5.478   1.621
  815SOL     OW 3343   0.929   2.219   0.363
  815SOL    HW1 3344   0.934   2.176   0.453
  815SOL    HW2 3345   0.849   2.184   0.314
  816SOL     OW 3346   6.213   0.356   0.969
  816SOL    HW1 3347   6.277   0.388   0.898
  816SOL    HW2 3348   6.186   0.434   1.026
  817SOL     OW 3349   0.962   1.958   1.952
  817SOL    HW1 3350   1.039   1.895   1.946
  817SOL    HW2 3351   0.923   1.955   2.044
  818SOL     OW 3352   6.521   1.454   1.947
  818SOL    HW1 3353   6.612   1.492   1.928
  818SOL    HW2 3354   6.465   1.457   1.864
  819SOL     OW 3355   0.541   4.463   3.229
  819SOL    HW1 3356   0.590   4.518   3.161
  819SOL    HW2 3357   0.443   4.463   3.208
  820SOL     OW 3358   1.354   2.997   4.609
  820SOL    HW1 3359   1.333   2.999   4.511
  820SOL    HW2 3360   1.303   2.924   4.653
  821SOL     OW 3361   1.126   3.353   1.034
  821SOL    HW1 3362   1.148   3.256   1.026
  821SOL    HW2 3363   1.032   3.364   1.066
  822SOL     OW 3364   1.601   3.754   4.985
  822SOL    HW1 3365   1.591   3.688   4.911
  822SOL    HW2 3366   1.621   3.705   5.070
  823SOL     OW 3367   3.100   3.184   0.879
  823SOL    HW1 3368   3.103   3.182   0.979
  823SOL    HW2 3369   3.188   3.154   0.842
  824SOL     OW 3370   5.836   2.346   5.973
  824SOL    HW1 3371   5.884   2.284   6.035
  824SOL    HW2 3372   5.848   2.440   6.002
  825SOL     OW 3373   1.341   4.150   1.690
  825SOL    HW1 3374   1.436   4.132   1.663
  825SOL    HW2 3375   1.335   4.241   1.730
  826SOL     OW 3376   0.713   4.696   5.834
  826SOL    HW1 3377   0.784   4.667   5.770
  826SOL    HW2 3378   0.755   4.750   5.907
  827SOL     OW 3379   3.934   5.973   0.778
  827SOL    HW1 3380   3.940   5.896   0.714
  827SOL    HW2 3381   3.841   6.011   0.777
  828SOL     OW 3382   6.193   6.872   5.814
  828SOL    HW1 3383   6.160   6.935   5.885
  828SOL    HW2 3384   6.115   6.825   5.773
  829SOL     OW 3385   3.832   3.006   4.769
  829SOL    HW1 3386   3.821   3.007   4.670
  829SOL    HW2 3387   3.927   3.027   4.792
  830SOL     OW 3388   4.934   3.739   5.733
  830SOL    HW1 3389   4.862   3.797   5.694
  830SOL    HW2 3390   4.997   3.711   5.661
  831SOL     OW 3391   6.674   6.742   4.912
  831SOL    HW1 3392   6.739   6.816   4.897
  831SOL    HW2 3393   6.587   6.765   4.868
  832SOL     OW 3394   2.314   1.142   5.928
  832SOL    HW1 3395   2.270   1.232   5.920
  832SOL    HW2 3396   2.247   1.071   5.910
  833SOL     OW 3397   1.102   6.762   5.639
  833SOL    HW1 3398   1.016   6.715   5.619
  833SOL    HW2 3399   1.086   6.860   5.644
  834SOL     OW 3400   3.278   4.645   5.911
  834SOL    HW1 3401   3.288   4.692   5.823
  834SOL    HW2 3402   3.347   4.679   5.975
  835SOL     OW 3403   4.343   1.044   3.381
  835SOL    HW1 3404   4.430   1.083   3.408
  835SOL    HW2 3405   4.317   0.971   3.445
  836SOL     OW 3406   2.110   0.419   0.017
  836SOL    HW1 3407   2.113   0.404   0.116
  836SOL    HW2 3408   2.203   0.433   7.003
  837SOL     OW 3409   3.657   0.892   5.048
  837SOL    HW1 3410   3.670   0.990   5.033
  837SOL    HW2 3411   3.679   0.869   5.142
  838SOL     OW 3412   1.634   4.494   2.532
  838SOL    HW1 3413   1.689   4.412   2.515
  838SOL    HW2 3414   1.551   4.468   2.582
  839SOL     OW 3415   3.484   0.903   1.729
  839SOL    HW1 3416   3.525   0.901   1.638
  839SOL    HW2 3417   3.404   0.962   1.728
  840SOL     OW 3418   0.644   1.823   6.354
  840SOL    HW1 3419   0.560   1.876   6.349
  840SOL    HW2 3420   0.668   1.789   6.262
  841SOL     OW 3421   0.121   3.495   0.782
  841SOL    HW1 3422   0.088   3.529   0.871
  841SOL    HW2 3423   0.103   3.564   0.712
  842SOL     OW 3424   3.455   5.284   3.583
  842SOL    HW1 3425   3.546   5.266   3.547
  842SOL    HW2 3426   3.407   5.348   3.521
  843SOL     OW 3427   6.537   4.241   2.461
  843SOL    HW1 3428   6.541   4.146   2.428
  843SOL    HW2 3429   6.540   4.241   2.561
  844SOL     OW 3430   5.296   5.686   0.384
  844SOL    HW1 3431   5.280   5.631   0.465
  844SOL    HW2 3432   5.380   5.655   0.339
  845SOL     OW 3433   1.652   5.330   4.382
  845SOL    HW1 3434   1.566   5.305   4.426
  845SOL    HW2 3435   1.720   5.258   4.398
  846SOL     OW 3436   5.351   2.884   0.014
  846SOL    HW1 3437   5.363   2.802   0.070
  846SOL    HW2 3438   5.309   2.956   0.070
  847SOL     OW 3439   5.330   3.762   2.008
  847SOL    HW1 3440   5.365   3.834   1.948
  847SOL    HW2 3441   5.376   3.766   2.096
  848SOL     OW 3442   6.540   0.068   5.275
  848SOL    HW1 3443   6.625   0.023   5.305
  848SOL    HW2 3444   6.493   0.106   5.355
  849SOL     OW 3445   0.947   5.419   4.258
  849SOL    HW1 3446   0.890   5.337   4.247
  849SOL    HW2 3447   0.971   5.455   4.168
  850SOL     OW 3448   3.518   0.725   3.236
  850SOL    HW1 3449   3.480   0.637   3.266
  850SOL    HW2 3450   3.617   0.719   3.233
  851SOL     OW 3451   0.480   0.568   5.193
  851SOL    HW1 3452   0.435   0.595   5.108
  851SOL    HW2 3453   0.529   0.646   5.232
  852SOL     OW 3454   3.015   4.223   5.900
  852SOL    HW1 3455   2.929   4.232   5.849
  852SOL    HW2 3456   3.010   4.277   5.984
  853SOL     OW 3457   1.428   3.683   1.173
  853SOL    HW1 3458   1.464   3.591   1.160
  853SOL    HW2 3459   1.339   3.691   1.129
  854SOL     OW 3460   6.474   5.068   1.948
  854SOL    HW1 3461   6.502   5.076   2.044
  854SOL    HW2 3462   6.520   5.139   1.894
  855SOL     OW 3463   5.178   0.438   1.372
  855SOL    HW1 3464   5.091   0.487   1.365
  855SOL    HW2 3465   5.165   0.356   1.428
  856SOL     OW 3466   1.473   1.227   4.941
  856SOL    HW1 3467   1.483   1.167   5.020
  856SOL    HW2 3468   1.553   1.217   4.881
  857SOL     OW 3469   6.279   3.874   1.468
  857SOL    HW1 3470   6.222   3.950   1.499
  857SOL    HW2 3471   6.370   3.882   1.509
  858SOL     OW 3472   3.441   3.740   1.170
  858SOL    HW1 3473   3.477   3.802   1.101
  858SOL    HW2 3474   3.420   3.791   1.253
  859SOL     OW 3475   6.851   4.782   0.492
  859SOL    HW1 3476   6.908   4.712   0.448
  859SOL    HW2 3477   6.883   4.797   0.585
  860SOL     OW 3478   2.015   4.988   0.907
  860SOL    HW1 3479   2.102   4.993   0.955
  860SOL    HW2 3480   1.959   5.068   0.929
  861SOL     OW 3481   3.580   4.841   6.293
  861SOL    HW1 3482   3.670   4.824   6.253
  861SOL    HW2 3483   3.530   4.754   6.300
  862SOL     OW 3484   4.632   4.244   3.734
  862SOL    HW1 3485   4.693   4.293   3.796
  862SOL    HW2 3486   4.561   4.307   3.701
  863SOL     OW 3487   5.917   1.532   0.600
  863SOL    HW1 3488   5.824   1.515   0.567
  863SOL    HW2 3489   5.955   1.448   0.639
  864SOL     OW 3490   6.891   4.458   2.339
  864SOL    HW1 3491   6.850   4.382   2.288
  864SOL    HW2 3492   6.845   4.543   2.316
  865SOL     OW 3493   1.716   0.845   3.615
  865SOL    HW1 3494   1.713   0.793   3.529
  865SOL    HW2 3495   1.674   0.792   3.688
  866SOL     OW 3496   3.613   1.002   1.032
  866SOL    HW1 3497   3.581   1.075   0.972
  866SOL    HW2 3498   3.629   0.919   0.977
  867SOL     OW 3499   1.701   1.626   6.109
  867SOL    HW1 3500   1.678   1.706   6.053
  867SOL    HW2 3501   1.754   1.655   6.188
  868SOL     OW 3502   6.002   2.821   3.423
  868SOL    HW1 3503   5.958   2.817   3.512
  868SOL    HW2 3504   6.101   2.830   3.434
  869SOL     OW 3505   6.760   3.945   1.707
  869SOL    HW1 3506   6.807   3.875   1.761
  869SOL    HW2 3507   6.828   4.001   1.659
  870SOL     OW 3508   6.690   2.664   0.442
  870SOL    HW1 3509   6.786   2.635   0.445
  870SOL    HW2 3510   6.648   2.651   0.532
  871SOL     OW 3511   5.888   4.313   0.643
  871SOL    HW1 3512   5.949   4.236   0.626
  871SOL    HW2 3513   5.854   4.348   0.556
  872SOL     OW 3514   5.905   2.066   2.173
  872SOL    HW1 3515   5.839   2.012   2.121
  872SOL    HW2 3516   5.883   2.061   2.270
  873SOL     OW 3517   4.140   0.081   4.977
  873SOL    HW1 3518   4.221   0.120   4.934
  873SOL    HW2 3519   4.160   0.057   5.072
  874SOL     OW 3520   0.318   3.587   6.361
  874SOL    HW1 3521   0.370   3.555   6.282
  874SOL    HW2 3522   0.363   3.668   6.400
  875SOL     OW 3523   5.768   5.163   6.418
  875SOL    HW1 3524   5.860   5.133   6.443
  875SOL    HW2 3525   5.766   5.263   6.411
  876SOL     OW 3526   0.915   1.750   0.872
  876SOL    HW1 3527   0.956   1.831   0.831
  876SOL    HW2 3528   0.835   1.776   0.925
  877SOL     OW 3529   5.886   5.873   0.282
  877SOL    HW1 3530   5.829   5.911   0.355
  877SOL    HW2 3531   5.889   5.936   0.205
  878SOL     OW 3532   3.725   2.374   0.062
  878SOL    HW1 3533   3.708   2.391   0.159
  878SOL    HW2 3534   3.734   2.276   0.046
  879SOL     OW 3535   4.157   2.041   2.648
  879SOL    HW1 3536   4.257   2.040   2.644
  879SOL    HW2 3537   4.122   2.108   2.582
  880SOL     OW 3538   4.340   5.704   1.724
  880SOL    HW1 3539   4.310   5.729   1.816
  880SOL    HW2 3540   4.412   5.767   1.694
  881SOL     OW 3541   4.543   5.247   4.261
  881SOL    HW1 3542   4.622   5.232   4.201
  881SOL    HW2 3543   4.534   5.345   4.280
  882SOL     OW 3544   1.069   2.362   4.268
  882SOL    HW1 3545   1.010   2.326   4.196
  882SOL    HW2 3546   1.046   2.319   4.355
  883SOL     OW 3547   3.934   4.084   0.141
  883SOL    HW1 3548   3.983   4.084   0.053
  883SOL    HW2 3549   3.844   4.125   0.129
  884SOL     OW 3550   4.180   3.806   1.775
  884SOL    HW1 3551   4.100   3.819   1.716
  884SOL    HW2 3552   4.153   3.820   1.870
  885SOL     OW 3553   4.587   6.193   6.390
  885SOL    HW1 3554   4.598   6.292   6.403
  885SOL    HW2 3555   4.514   6.160   6.449
  886SOL     OW 3556   3.862   1.706   6.753
  886SOL    HW1 3557   3.956   1.737   6.763
  886SOL    HW2 3558   3.800   1.782   6.772
  887SOL     OW 3559   5.463   6.939   5.817
  887SOL    HW1 3560   5.419   6.967   5.732
  887SOL    HW2 3561   5.466   7.016   5.881
  888SOL     OW 3562   6.572   6.138   3.281
  888SOL    HW1 3563   6.649   6.202   3.276
  888SOL    HW2 3564   6.509   6.167   3.353
  889SOL     OW 3565   1.072   6.971   4.454
  889SOL    HW1 3566   1.111   6.980   4.362
  889SOL    HW2 3567   1.137   7.006   4.521
  890SOL     OW 3568   1.831   4.328   2.245
  890SOL    HW1 3569   1.743   4.299   2.208
  890SOL    HW2 3570   1.887   4.366   2.172
  891SOL     OW 3571   5.708   3.821   6.188
  891SOL    HW1 3572   5.720   3.843   6.285
  891SOL    HW2 3573   5.692   3.723   6.178
  892SOL     OW 3574   2.161   5.171   1.549
  892SOL    HW1 3575   2.213   5.176   1.464
  892SOL    HW2 3576   2.155   5.075   1.579
  893SOL     OW 3577   1.900   6.775   1.630
  893SOL    HW1 3578   1.866   6.848   1.571
  893SOL    HW2 3579   1.984   6.737   1.590
  894SOL     OW 3580   1.271   5.197   4.021
  894SOL    HW1 3581   1.232   5.289   4.008
  894SOL    HW2 3582   1.344   5.201   4.088
  895SOL     OW 3583   2.248   1.006   4.770
  895SOL    HW1 3584   2.226   1.083   4.830
  895SOL    HW2 3585   2.163   0.963   4.738
  896SOL     OW 3586   5.358   6.879   3.740
  896SOL    HW1 3587   5.312   6.808   3.793
  896SOL    HW2 3588   5.335   6.870   3.643
  897SOL     OW 3589   4.813   2.192   6.317
  897SOL    HW1 3590   4.785   2.283   6.285
  897SOL    HW2 3591   4.737   2.150   6.367
  898SOL     OW 3592   5.679   5.859   3.986
  898SOL    HW1 3593   5.608   5.929   4.001
  898SOL    HW2 3594   5.654   5.802   3.909
  899SOL     OW 3595   1.024   4.494   0.012
  899SOL    HW1 3596   0.962   4.467   0.086
  899SOL    HW2 3597   0.979   4.479   6.944
  900SOL     OW 3598   0.708   5.742   3.372
  900SOL    HW1 3599   0.796   5.709   3.406
  900SOL    HW2 3600   0.652   5.772   3.449
  901SOL     OW 3601   5.817   1.454   3.323
  901SOL    HW1 3602   5.770   1.487   3.241
  901SOL    HW2 3603   5.868   1.529   3.365
  902SOL     OW 3604   1.141   6.066   6.944
  902SOL    HW1 3605   1.111   6.023   0.009
  902SOL    HW2 3606   1.178   5.996   6.883
  903SOL     OW 3607   0.621   4.957   6.406
  903SOL    HW1 3608   0.522   4.941   6.402
  903SOL    HW2 3609   0.653   4.944   6.500
  904SOL     OW 3610   1.579   1.078   3.908
  904SOL    HW1 3611   1.633   1.076   3.824
  904SOL    HW2 3612   1.488   1.041   3.889
  905SOL     OW 3613   6.304   1.840   5.269
  905SOL    HW1 3614   6.264   1.777   5.203
  905SOL    HW2 3615   6.370   1.899   5.223
  906SOL     OW 3616   6.677   4.077   5.488
  906SOL    HW1 3617   6.585   4.110   5.511
  906SOL    HW2 3618   6.716   4.029   5.567
  907SOL     OW 3619   0.076   3.352   1.725
  907SOL    HW1 3620   0.095   3.424   1.791
  907SOL    HW2 3621   0.096   3.263   1.766
  908SOL     OW 3622   2.290   0.672   3.232
  908SOL    HW1 3623   2.221   0.699   3.299
  908SOL    HW2 3624   2.321   0.579   3.253
  909SOL     OW 3625   4.361   0.008   1.034
  909SOL    HW1 3626   4.396   0.076   1.099
  909SOL    HW2 3627   4.362   0.046   0.942
  910SOL     OW 3628   1.968   1.688   1.611
  910SOL    HW1 3629   1.877   1.728   1.623
  910SOL    HW2 3630   1.987   1.625   1.686
  911SOL     OW 3631   0.299   3.883   0.688
  911SOL    HW1 3632   0.291   3.890   0.787
  911SOL    HW2 3633   0.381   3.830   0.665
  912SOL     OW 3634   0.961   0.595   6.263
  912SOL    HW1 3635   0.896   0.533   6.308
  912SOL    HW2 3636   1.051   0.584   6.304
  913SOL     OW 3637   1.915   1.143   1.795
  913SOL    HW1 3638   1.921   1.076   1.869
  913SOL    HW2 3639   1.892   1.233   1.833
  914SOL     OW 3640   2.799   6.062   2.520
  914SOL    HW1 3641   2.750   6.009   2.451
  914SOL    HW2 3642   2.795   6.014   2.608
  915SOL     OW 3643   1.519   2.686   0.378
  915SOL    HW1 3644   1.519   2.726   0.469
  915SOL    HW2 3645   1.430   2.703   0.334
  916SOL     OW 3646   1.589   3.087   2.214
  916SOL    HW1 3647   1.634   3.174   2.195
  916SOL    HW2 3648   1.578   3.036   2.129
  917SOL     OW 3649   3.182   1.717   6.554
  917SOL    HW1 3650   3.180   1.779   6.633
  917SOL    HW2 3651   3.092   1.714   6.511
  918SOL     OW 3652   0.534   1.180   5.210
  918SOL    HW1 3653   0.509   1.254   5.147
  918SOL    HW2 3654   0.487   1.194   5.297
  919SOL     OW 3655   1.775   6.737   0.999
  919SOL    HW1 3656   1.814   6.647   1.019
  919SOL    HW2 3657   1.676   6.730   0.995
  920SOL     OW 3658   1.680   1.137   3.611
  920SOL    HW1 3659   1.767   1.186   3.618
  920SOL    HW2 3660   1.695   1.049   3.565
  921SOL     OW 3661   4.252   4.430   0.217
  921SOL    HW1 3662   4.206   4.429   0.128
  921SOL    HW2 3663   4.244   4.340   0.260
  922SOL     OW 3664   1.847   5.096   6.240
  922SOL    HW1 3665   1.924   5.107   6.177
  922SOL    HW2 3666   1.873   5.129   6.331
  923SOL     OW 3667   3.600   1.396   6.570
  923SOL    HW1 3668   3.530   1.450   6.618
  923SOL    HW2 3669   3.677   1.455   6.546
  924SOL     OW 3670   6.758   4.485   2.589
  924SOL    HW1 3671   6.810   4.474   2.504
  924SOL    HW2 3672   6.664   4.454   2.576
  925SOL     OW 3673   6.909   2.021   3.327
  925SOL    HW1 3674   6.888   1.947   3.263
  925SOL    HW2 3675   6.950   2.097   3.277
  926SOL     OW 3676   5.249   6.434   0.344
  926SOL    HW1 3677   5.238   6.368   0.269
  926SOL    HW2 3678   5.300   6.391   0.419
  927SOL     OW 3679   4.703   5.914   4.605
  927SOL    HW1 3680   4.691   5.843   4.535
  927SOL    HW2 3681   4.794   5.953   4.597
  928SOL     OW 3682   0.435   1.167   1.382
  928SOL    HW1 3683   0.337   1.187   1.384
  928SOL    HW2 3684   0.462   1.141   1.289
  929SOL     OW 3685   6.883   2.716   2.390
  929SOL    HW1 3686   6.896   2.731   2.488
  929SOL    HW2 3687   6.923   2.628   2.363
  930SOL     OW 3688   5.424   5.358   2.528
  930SOL    HW1 3689   5.497   5.305   2.486
  930SOL    HW2 3690   5.459   5.402   2.611
  931SOL     OW 3691   1.796   3.020   1.919
  931SOL    HW1 3692   1.855   3.061   1.988
  931SOL    HW2 3693   1.733   2.956   1.963
  932SOL     OW 3694   4.622   6.451   1.394
  932SOL    HW1 3695   4.539   6.444   1.338
  932SOL    HW2 3696   4.622   6.379   1.463
  933SOL     OW 3697   1.261   6.416   4.114
  933SOL    HW1 3698   1.190   6.392   4.181
  933SOL    HW2 3699   1.349   6.380   4.144
  934SOL     OW 3700   3.292   0.839   5.547
  934SOL    HW1 3701   3.238   0.848   5.631
  934SOL    HW2 3702   3.230   0.822   5.469
  935SOL     OW 3703   1.432   3.738   5.635
  935SOL    HW1 3704   1.343   3.783   5.632
  935SOL    HW2 3705   1.439   3.673   5.559
  936SOL     OW 3706   0.385   1.930   1.644
  936SOL    HW1 3707   0.452   1.903   1.574
  936SOL    HW2 3708   0.429   1.992   1.710
  937SOL     OW 3709   5.064   2.140   3.324
  937SOL    HW1 3710   4.991   2.128   3.391
  937SOL    HW2 3711   5.049   2.226   3.274
  938SOL     OW 3712   6.807   0.936   0.035
  938SOL    HW1 3713   6.717   0.945   0.077
  938SOL    HW2 3714   6.843   1.026   0.014
  939SOL     OW 3715   6.508   0.618   5.477
  939SOL    HW1 3716   6.598   0.652   5.453
  939SOL    HW2 3717   6.506   0.518   5.467
  940SOL     OW 3718   0.003   0.617   4.046
  940SOL    HW1 3719   0.051   0.675   4.112
  940SOL    HW2 3720   6.927   0.642   4.044
  941SOL     OW 3721   5.648   2.393   5.497
  941SOL    HW1 3722   5.686   2.481   5.470
  941SOL    HW2 3723   5.574   2.408   5.562
  942SOL     OW 3724   4.584   0.493   5.425
  942SOL    HW1 3725   4.542   0.418   5.374
  942SOL    HW2 3726   4.585   0.575   5.369
  943SOL     OW 3727   5.815   1.908   0.245
  943SOL    HW1 3728   5.895   1.877   0.195
  943SOL    HW2 3729   5.733   1.866   0.205
  944SOL     OW 3730   5.114   4.219   4.804
  944SOL    HW1 3731   5.042   4.172   4.752
  944SOL    HW2 3732   5.072   4.277   4.874
  945SOL     OW 3733   5.637   3.553   6.116
  945SOL    HW1 3734   5.706   3.553   6.044
  945SOL    HW2 3735   5.546   3.557   6.074
  946SOL     OW 3736   5.863   3.548   6.418
  946SOL    HW1 3737   5.894   3.615   6.349
  946SOL    HW2 3738   5.778   3.580   6.459
  947SOL     OW 3739   0.989   2.880   5.334
  947SOL    HW1 3740   1.026   2.928   5.255
  947SOL    HW2 3741   0.984   2.782   5.315
  948SOL     OW 3742   3.897   1.755   0.657
  948SOL    HW1 3743   3.966   1.781   0.590
  948SOL    HW2 3744   3.876   1.832   0.716
  949SOL     OW 3745   5.591   6.062   6.783
  949SOL    HW1 3746   5.538   6.119   6.720
  949SOL    HW2 3747   5.644   6.121   6.844
  950SOL     OW 3748   3.863   5.464   0.559
  950SOL    HW1 3749   3.935   5.436   0.495
  950SOL    HW2 3750   3.900   5.530   0.625
  951SOL     OW 3751   0.422   2.868   4.234
  951SOL    HW1 3752   0.518   2.896   4.231
  951SOL    HW2 3753   0.364   2.947   4.254
  952SOL     OW 3754   5.164   1.518   1.375
  952SOL    HW1 3755   5.072   1.489   1.403
  952SOL    HW2 3756   5.205   1.573   1.448
  953SOL     OW 3757   3.698   6.737   5.795
  953SOL    HW1 3758   3.769   6.805   5.777
  953SOL    HW2 3759   3.614   6.764   5.749
  954SOL     OW 3760   6.702   6.920   1.590
  954SOL    HW1 3761   6.704   6.821   1.577
  954SOL    HW2 3762   6.713   6.966   1.502
  955SOL     OW 3763   0.426   6.791   1.833
  955SOL    HW1 3764   0.446   6.748   1.921
  955SOL    HW2 3765   0.398   6.722   1.767
  956SOL     OW 3766   1.227   2.773   0.575
  956SOL    HW1 3767   1.305   2.726   0.534
  956SOL    HW2 3768   1.149   2.770   0.512
  957SOL     OW 3769   1.996   6.602   4.947
  957SOL    HW1 3770   1.943   6.666   5.003
  957SOL    HW2 3771   2.041   6.536   5.007
  958SOL     OW 3772   5.093   2.530   0.377
  958SOL    HW1 3773   5.180   2.506   0.420
  958SOL    HW2 3774   5.109   2.578   0.291
  959SOL     OW 3775   1.687   3.606   1.714
  959SOL    HW1 3776   1.616   3.536   1.715
  959SOL    HW2 3777   1.677   3.665   1.795
  960SOL     OW 3778   1.913   5.356   5.314
  960SOL    HW1 3779   1.905   5.262   5.349
  960SOL    HW2 3780   1.982   5.405   5.368
  961SOL     OW 3781   3.456   0.354   0.106
  961SOL    HW1 3782   3.442   0.257   0.128
  961SOL    HW2 3783   3.384   0.385   0.045
  962SOL     OW 3784   1.289   6.506   3.839
  962SOL    HW1 3785   1.254   6.462   3.921
  962SOL    HW2 3786   1.268   6.449   3.759
  963SOL     OW 3787   6.069   6.923   2.039
  963SOL    HW1 3788   6.036   6.976   1.961
  963SOL    HW2 3789   6.032   6.961   2.124
  964SOL     OW 3790   5.459   3.339   1.319
  964SOL    HW1 3791   5.425   3.337   1.225
  964SOL    HW2 3792   5.550   3.298   1.323
  965SOL     OW 3793   1.256   1.800   6.955
  965SOL    HW1 3794   1.295   1.850   6.878
  965SOL    HW2 3795   1.328   1.747   7.001
  966SOL     OW 3796   6.781   2.784   1.950
  966SOL    HW1 3797   6.846   2.732   2.005
  966SOL    HW2 3798   6.688   2.753   1.970
  967SOL     OW 3799   0.854   6.218   2.252
  967SOL    HW1 3800   0.941   6.190   2.211
  967SOL    HW2 3801   0.870   6.294   2.315
  968SOL     OW 3802   6.818   4.414   1.249
  968SOL    HW1 3803   6.769   4.497   1.221
  968SOL    HW2 3804   6.823   4.411   1.349
  969SOL     OW 3805   3.968   6.457   6.689
  969SOL    HW1 3806   3.931   6.514   6.616
  969SOL    HW2 3807   4.016   6.379   6.649
  970SOL     OW 3808   4.615   2.594   5.537
  970SOL    HW1 3809   4.640   2.529   5.466
  970SOL    HW2 3810   4.539   2.651   5.505
  971SOL     OW 3811   6.965   2.778   0.570
  971SOL    HW1 3812   6.915   2.716   0.630
  971SOL    HW2 3813   6.904   2.850   0.538
  972SOL     OW 3814   6.068   6.497   0.335
  972SOL    HW1 3815   6.043   6.593   0.326
  972SOL    HW2 3816   5.989   6.444   0.367
  973SOL     OW 3817   5.472   3.494   5.613
  973SOL    HW1 3818   5.539   3.446   5.556
  973SOL    HW2 3819   5.506   3.586   5.633
  974SOL     OW 3820   2.769   0.869   4.824
  974SOL    HW1 3821   2.832   0.843   4.898
  974SOL    HW2 3822   2.679   0.830   4.842
  975SOL     OW 3823   2.903   6.866   5.517
  975SOL    HW1 3824   2.997   6.848   5.489
  975SOL    HW2 3825   2.903   6.919   5.602
  976SOL     OW 3826   6.962   5.412   3.301
  976SOL    HW1 3827   6.963   5.440   3.205
  976SOL    HW2 3828   7.007   5.324   3.311
  977SOL     OW 3829   0.939   2.810   1.618
  977SOL    HW1 3830   1.003   2.811   1.542
  977SOL    HW2 3831   0.978   2.759   1.695
  978SOL     OW 3832   5.596   3.400   4.758
  978SOL    HW1 3833   5.604   3.302   4.738
  978SOL    HW2 3834   5.684   3.444   4.740
  979SOL     OW 3835   6.135   1.485   3.522
  979SOL    HW1 3836   6.109   1.432   3.603
  979SOL    HW2 3837   6.235   1.488   3.515
  980SOL     OW 3838   6.652   0.462   4.732
  980SOL    HW1 3839   6.591   0.527   4.686
  980SOL    HW2 3840   6.707   0.510   4.801
  981SOL     OW 3841   6.994   3.280   5.754
  981SOL    HW1 3842   6.991   3.211   5.827
  981SOL    HW2 3843   0.060   3.330   5.759
  982SOL     OW 3844   1.517   3.378   1.632
  982SOL    HW1 3845   1.421   3.399   1.654
  982SOL    HW2 3846   1.521   3.325   1.548
  983SOL     OW 3847   5.817   2.121   2.939
  983SOL    HW1 3848   5.914   2.104   2.922
  983SOL    HW2 3849   5.805   2.155   3.032
  984SOL     OW 3850   4.835   2.242   5.390
  984SOL    HW1 3851   4.774   2.169   5.418
  984SOL    HW2 3852   4.920   2.203   5.354
  985SOL     OW 3853   2.645   4.897   0.685
  985SOL    HW1 3854   2.626   4.953   0.605
  985SOL    HW2 3855   2.740   4.865   0.681
  986SOL     OW 3856   4.267   4.700   0.023
  986SOL    HW1 3857   4.211   4.706   6.961
  986SOL    HW2 3858   4.308   4.609   0.030
  987SOL     OW 3859   3.476   6.641   2.490
  987SOL    HW1 3860   3.532   6.661   2.409
  987SOL    HW2 3861   3.514   6.562   2.539
  988SOL     OW 3862   3.589   3.232   1.610
  988SOL    HW1 3863   3.675   3.210   1.658
  988SOL    HW2 3864   3.601   3.316   1.558
  989SOL     OW 3865   0.255   0.227   4.796
  989SOL    HW1 3866   0.352   0.251   4.793
  989SOL    HW2 3867   0.204   0.292   4.740
  990SOL     OW 3868   5.023   6.197   2.496
  990SOL    HW1 3869   4.929   6.230   2.508
  990SOL    HW2 3870   5.051   6.146   2.577
  991SOL     OW 3871   6.333   1.383   5.204
  991SOL    HW1 3872   6.395   1.442   5.152
  991SOL    HW2 3873   6.256   1.357   5.146
  992SOL     OW 3874   6.852   3.009   1.560
  992SOL    HW1 3875   6.754   3.026   1.571
  992SOL    HW2 3876   6.880   3.032   1.466
  993SOL     OW 3877   3.611   5.927   4.242
  993SOL    HW1 3878   3.708   5.929   4.217
  993SOL    HW2 3879   3.600   5.877   4.328
  994SOL     OW 3880   2.880   3.435   2.108
  994SOL    HW1 3881   2.966   3.484   2.102
  994SOL    HW2 3882   2.816   3.473   2.041
  995SOL     OW 3883   0.473   1.188   4.859
  995SOL    HW1 3884   0.449   1.222   4.768
  995SOL    HW2 3885   0.406   1.221   4.925
  996SOL     OW 3886   0.854   3.477   1.001
  996SOL    HW1 3887   0.817   3.554   1.054
  996SOL    HW2 3888   0.779   3.420   0.968
  997SOL     OW 3889   0.374   0.967   0.969
  997SOL    HW1 3890   0.422   0.952   0.882
  997SOL    HW2 3891   0.306   1.039   0.957
  998SOL     OW 3892   4.840   0.156   3.761
  998SOL    HW1 3893   4.749   0.115   3.755
  998SOL    HW2 3894   4.855   0.215   3.681
  999SOL     OW 3895   6.713   5.496   1.804
  999SOL    HW1 3896   6.799   5.472   1.759
  999SOL    HW2 3897   6.644   5.517   1.735
 1000SOL     OW 3898   4.364   2.381   4.531
 1000SOL    HW1 3899   4.444   2.442   4.534
 1000SOL    HW2 3900   4.330   2.368   4.624
 1001SOL     OW 3901   4.029   1.114   5.886
 1001SOL    HW1 3902   4.027   1.212   5.906
 1001SOL    HW2 3903   4.106   1.072   5.934
 1002SOL     OW 3904   0.367   1.133   0.157
 1002SOL    HW1 3905   0.287   1.192   0.165
 1002SOL    HW2 3906   0.371   1.072   0.236
 1003SOL     OW 3907   4.909   4.506   3.396
 1003SOL    HW1 3908   4.915   4.407   3.382
 1003SOL    HW2 3909   4.886   4.551   3.309
 1004SOL     OW 3910   6.085   5.637   0.603
 1004SOL    HW1 3911   6.117   5.723   0.643
 1004SOL    HW2 3912   6.106   5.636   0.505
 1005SOL     OW 3913   6.769   5.483   3.464
 1005SOL    HW1 3914   6.770   5.582   3.481
 1005SOL    HW2 3915   6.848   5.458   3.409
 1006SOL     OW 3916   2.382   4.339   0.547
 1006SOL    HW1 3917   2.378   4.240   0.535
 1006SOL    HW2 3918   2.477   4.370   0.548
 1007SOL     OW 3919   1.299   0.755   3.314
 1007SOL    HW1 3920   1.335   0.848   3.317
 1007SOL    HW2 3921   1.359   0.694   3.366
 1008SOL     OW 3922   2.766   2.219   4.414
 1008SOL    HW1 3923   2.725   2.174   4.335
 1008SOL    HW2 3924   2.858   2.183   4.429
 1009SOL     OW 3925   2.759   5.741   5.213
 1009SOL    HW1 3926   2.820   5.702   5.281
 1009SOL    HW2 3927   2.806   5.815   5.164
 1010SOL     OW 3928   4.459   0.682   6.387
 1010SOL    HW1 3929   4.555   0.663   6.408
 1010SOL    HW2 3930   4.447   0.780   6.373
 1011SOL     OW 3931   3.638   5.543   3.696
 1011SOL    HW1 3932   3.543   5.514   3.709
 1011SOL    HW2 3933   3.663   5.534   3.599
 1012SOL     OW 3934   3.771   5.473   0.163
 1012SOL    HW1 3935   3.867   5.465   0.134
 1012SOL    HW2 3936   3.761   5.433   0.254
 1013SOL     OW 3937   0.319   0.853   0.314
 1013SOL    HW1 3938   0.374   0.783   0.358
 1013SOL    HW2 3939   0.245   0.810   0.263
 1014SOL     OW 3940   4.977   0.515   6.486
 1014SOL    HW1 3941   5.066   0.479   6.515
 1014SOL    HW2 3942   4.992   0.588   6.419
 1015SOL     OW 3943   3.473   6.859   4.723
 1015SOL    HW1 3944   3.496   6.952   4.751
 1015SOL    HW2 3945   3.420   6.814   4.795
 1016SOL     OW 3946   4.449   2.474   2.195
 1016SOL    HW1 3947   4.547   2.488   2.215
 1016SOL    HW2 3948   4.395   2.538   2.250
 1017SOL     OW 3949   4.951   1.345   6.681
 1017SOL    HW1 3950   4.956   1.371   6.777
 1017SOL    HW2 3951   4.946   1.245   6.674
 1018SOL     OW 3952   1.335   2.876   1.813
 1018SOL    HW1 3953   1.321   2.785   1.775
 1018SOL    HW2 3954   1.324   2.945   1.741
 1019SOL     OW 3955   5.559   1.243   0.490
 1019SOL    HW1 3956   5.657   1.248   0.509
 1019SOL    HW2 3957   5.507   1.275   0.569
 1020SOL     OW 3958   3.171   1.952   1.197
 1020SOL    HW1 3959   3.194   1.857   1.176
 1020SOL    HW2 3960   3.140   1.958   1.292
 1021SOL     OW 3961   6.483   0.999   0.748
 1021SOL    HW1 3962   6.483   0.989   0.649
 1021SOL    HW2 3963   6.551   1.068   0.775
 1022SOL     OW 3964   3.359   2.354   6.900
 1022SOL    HW1 3965   3.367   2.443   6.946
 1022SOL    HW2 3966   3.292   2.298   6.949
 1023SOL     OW 3967   5.784   0.740   4.585
 1023SOL    HW1 3968   5.718   0.810   4.557
 1023SOL    HW2 3969   5.873   0.759   4.543
 1024SOL     OW 3970   6.337   1.200   4.238
 1024SOL    HW1 3971   6.412   1.252   4.278
 1024SOL    HW2 3972   6.373   1.138   4.168
 1025SOL     OW 3973   3.546   4.208   1.469
 1025SOL    HW1 3974   3.634   4.227   1.514
 1025SOL    HW2 3975   3.478   4.274   1.501
 1026SOL     OW 3976   0.877   2.962   6.598
 1026SOL    HW1 3977   0.970   2.987   6.570
 1026SOL    HW2 3978   0.849   3.017   6.676
 1027SOL     OW 3979   2.469   4.751   1.990
 1027SOL    HW1 3980   2.483   4.696   1.907
 1027SOL    HW2 3981   2.515   4.707   2.067
 1028SOL     OW 3982   0.873   6.099   0.541
 1028SOL    HW1 3983   0.839   6.193   0.534
 1028SOL    HW2 3984   0.809   6.037   0.496
 1029SOL     OW 3985   3.430   0.994   5.247
 1029SOL    HW1 3986   3.514   0.942   5.232
 1029SOL    HW2 3987   3.452   1.079   5.296
 1030SOL     OW 3988   3.862   4.327   5.284
 1030SOL    HW1 3989   3.857   4.298   5.380
 1030SOL    HW2 3990   3.770   4.341   5.249
 1031SOL     OW 3991   1.944   5.354   0.725
 1031SOL    HW1 3992   1.941   5.305   0.812
 1031SOL    HW2 3993   2.018   5.319   0.669
 1032SOL     OW 3994   1.508   1.462   4.790
 1032SOL    HW1 3995   1.468   1.381   4.835
 1032SOL    HW2 3996   1.599   1.439   4.755
 1033SOL     OW 3997   2.731   6.173   3.248
 1033SOL    HW1 3998   2.654   6.234   3.230
 1033SOL    HW2 3999   2.817   6.222   3.230
 1034SOL     OW 4000   1.074   6.710   1.761
 1034SOL    HW1 4001   1.153   6.770   1.748
 1034SOL    HW2 4002   1.103   6.615   1.750
 1035SOL     OW 4003   2.804   0.536   4.062
 1035SOL    HW1 4004   2.749   0.531   3.979
 1035SOL    HW2 4005   2.747   0.570   4.137
 1036SOL     OW 4006   4.343   6.880   6.283
 1036SOL    HW1 4007   4.425   6.875   6.226
 1036SOL    HW2 4008   4.300   6.969   6.273
 1037SOL     OW 4009   2.495   2.077   6.292
 1037SOL    HW1 4010   2.559   2.026   6.235
 1037SOL    HW2 4011   2.511   2.055   6.388
 1038SOL     OW 4012   2.563   1.346   5.400
 1038SOL    HW1 4013   2.470   1.369   5.429
 1038SOL    HW2 4014   2.564   1.328   5.302
 1039SOL     OW 4015   4.155   2.246   3.541
 1039SOL    HW1 4016   4.090   2.185   3.587
 1039SOL    HW2 4017   4.150   2.231   3.442
 1040SOL     OW 4018   5.634   3.650   4.205
 1040SOL    HW1 4019   5.548   3.702   4.204
 1040SOL    HW2 4020   5.692   3.684   4.279
 1041SOL     OW 4021   1.490   6.837   4.327
 1041SOL    HW1 4022   1.499   6.801   4.235
 1041SOL    HW2 4023   1.573   6.819   4.379
 1042SOL     OW 4024   4.697   3.715   1.020
 1042SOL    HW1 4025   4.685   3.756   1.110
 1042SOL    HW2 4026   4.779   3.752   0.977
 1043SOL     OW 4027   3.487   6.966   6.633
 1043SOL    HW1 4028   3.393   7.001   6.625
 1043SOL    HW2 4029   3.530   7.005   6.714
 1044SOL     OW 4030   3.855   4.011   2.058
 1044SOL    HW1 4031   3.858   4.073   2.136
 1044SOL    HW2 4032   3.935   3.952   2.059
 1045SOL     OW 4033   3.935   1.245   3.231
 1045SOL    HW1 4034   3.941   1.154   3.272
 1045SOL    HW2 4035   3.919   1.313   3.303
 1046SOL     OW 4036   3.614   1.439   2.058
 1046SOL    HW1 4037   3.621   1.539   2.058
 1046SOL    HW2 4038   3.706   1.400   2.058
 1047SOL     OW 4039   0.703   5.415   1.856
 1047SOL    HW1 4040   0.710   5.443   1.760
 1047SOL    HW2 4041   0.769   5.466   1.910
 1048SOL     OW 4042   6.517   4.683   5.247
 1048SOL    HW1 4043   6.455   4.678   5.169
 1048SOL    HW2 4044   6.598   4.627   5.228
 1049SOL     OW 4045   0.722   3.529   4.497
 1049SOL    HW1 4046   0.668   3.455   4.456
 1049SOL    HW2 4047   0.816   3.498   4.509
 1050SOL     OW 4048   2.865   0.709   0.360
 1050SOL    HW1 4049   2.850   0.772   0.436
 1050SOL    HW2 4050   2.925   0.635   0.390
 1051SOL     OW 4051   4.826   4.556   2.678
 1051SOL    HW1 4052   4.731   4.526   2.688
 1051SOL    HW2 4053   4.873   4.496   2.613
 1052SOL     OW 4054   3.859   0.669   4.367
 1052SOL    HW1 4055   3.947   0.715   4.383
 1052SOL    HW2 4056   3.808   0.666   4.453
 1053SOL     OW 4057   3.737   5.251   3.565
 1053SOL    HW1 4058   3.791   5.313   3.622
 1053SOL    HW2 4059   3.798   5.199   3.505
 1054SOL     OW 4060   3.986   6.134   4.265
 1054SOL    HW1 4061   3.917   6.151   4.336
 1054SOL    HW2 4062   3.947   6.154   4.175
 1055SOL     OW 4063   4.114   5.627   3.780
 1055SOL    HW1 4064   4.140   5.580   3.864
 1055SOL    HW2 4065   4.100   5.560   3.707
 1056SOL     OW 4066   1.994   5.573   5.928
 1056SOL    HW1 4067   2.025   5.662   5.894
 1056SOL    HW2 4068   1.894   5.572   5.932
 1057SOL     OW 4069   3.770   4.025   1.196
 1057SOL    HW1 4070   3.824   4.039   1.279
 1057SOL    HW2 4071   3.752   3.927   1.183
 1058SOL     OW 4072   3.023   6.852   1.888
 1058SOL    HW1 4073   3.021   6.920   1.962
 1058SOL    HW2 4074   3.086   6.883   1.817
 1059SOL     OW 4075   3.474   0.762   0.419
 1059SOL    HW1 4076   3.448   0.679   0.370
 1059SOL    HW2 4077   3.448   0.842   0.366
 1060SOL     OW 4078   2.313   1.674   4.468
 1060SOL    HW1 4079   2.290   1.731   4.546
 1060SOL    HW2 4080   2.338   1.733   4.390
 1061SOL     OW 4081   3.075   5.821   1.208
 1061SOL    HW1 4082   3.073   5.845   1.305
 1061SOL    HW2 4083   2.996   5.861   1.161
 1062SOL     OW 4084   5.055   5.002   5.048
 1062SOL    HW1 4085   5.028   5.077   5.109
 1062SOL    HW2 4086   4.978   4.977   4.990
 1063SOL     OW 4087   2.590   3.141   5.998
 1063SOL    HW1 4088   2.550   3.228   6.026
 1063SOL    HW2 4089   2.517   3.074   5.982
 1064SOL     OW 4090   0.267   3.724   1.731
 1064SOL    HW1 4091   0.241   3.688   1.641
 1064SOL    HW2 4092   0.217   3.675   1.802
 1065SOL     OW 4093   4.255   4.935   5.572
 1065SOL    HW1 4094   4.352   4.944   5.550
 1065SOL    HW2 4095   4.203   5.002   5.519
 1066SOL     OW 4096   4.058   6.999   3.334
 1066SOL    HW1 4097   4.114   6.946   3.398
 1066SOL    HW2 4098   3.963   6.968   3.341
 1067SOL     OW 4099   2.754   3.389   0.846
 1067SOL    HW1 4100   2.767   3.436   0.759
 1067SOL    HW2 4101   2.736   3.292   0.829
 1068SOL     OW 4102   0.413   4.273   0.815
 1068SOL    HW1 4103   0.368   4.226   0.739
 1068SOL    HW2 4104   0.502   4.308   0.785
 1069SOL     OW 4105   3.617   3.510   1.956
 1069SOL    HW1 4106   3.606   3.518   1.857
 1069SOL    HW2 4107   3.713   3.522   1.980
 1070SOL     OW 4108   2.546   6.800   0.817
 1070SOL    HW1 4109   2.504   6.740   0.885
 1070SOL    HW2 4110   2.646   6.791   0.821
 1071SOL     OW 4111   4.655   6.017   3.724
 1071SOL    HW1 4112   4.664   5.963   3.807
 1071SOL    HW2 4113   4.585   5.977   3.665
 1072SOL     OW 4114   3.228   5.552   2.780
 1072SOL    HW1 4115   3.240   5.565   2.682
 1072SOL    HW2 4116   3.190   5.635   2.821
 1073SOL     OW 4117   2.618   5.403   2.960
 1073SOL    HW1 4118   2.659   5.364   2.877
 1073SOL    HW2 4119   2.691   5.431   3.023
 1074SOL     OW 4120   1.329   5.367   2.585
 1074SOL    HW1 4121   1.345   5.331   2.677
 1074SOL    HW2 4122   1.380   5.312   2.519
 1075SOL     OW 4123   0.953   4.146   2.667
 1075SOL    HW1 4124   1.017   4.149   2.743
 1075SOL    HW2 4125   0.914   4.054   2.660
 1076SOL     OW 4126   0.031   4.390   2.932
 1076SOL    HW1 4127   0.076   4.460   2.877
 1076SOL    HW2 4128   0.100   4.333   2.976
 1077SOL     OW 4129   5.363   1.099   1.509
 1077SOL    HW1 4130   5.351   1.084   1.607
 1077SOL    HW2 4131   5.446   1.152   1.493
 1078SOL     OW 4132   0.512   3.295   1.776
 1078SOL    HW1 4133   0.499   3.303   1.677
 1078SOL    HW2 4134   0.603   3.329   1.800
 1079SOL     OW 4135   2.430   5.617   2.829
 1079SOL    HW1 4136   2.521   5.581   2.848
 1079SOL    HW2 4137   2.418   5.704   2.877
 1080SOL     OW 4138   1.822   5.973   3.924
 1080SOL    HW1 4139   1.769   5.922   3.856
 1080SOL    HW2 4140   1.771   5.976   4.010
 1081SOL     OW 4141   1.553   1.345   0.328
 1081SOL    HW1 4142   1.501   1.375   0.248
 1081SOL    HW2 4143   1.593   1.255   0.310
 1082SOL     OW 4144   2.081   6.711   0.672
 1082SOL    HW1 4145   2.048   6.630   0.624
 1082SOL    HW2 4146   2.061   6.703   0.769
 1083SOL     OW 4147   3.509   2.307   1.660
 1083SOL    HW1 4148   3.430   2.256   1.693
 1083SOL    HW2 4149   3.580   2.308   1.730
 1084SOL     OW 4150   6.178   3.099   0.949
 1084SOL    HW1 4151   6.084   3.130   0.960
 1084SOL    HW2 4152   6.236   3.177   0.925
 1085SOL     OW 4153   1.105   4.855   3.250
 1085SOL    HW1 4154   1.075   4.887   3.339
 1085SOL    HW2 4155   1.068   4.763   3.233
 1086SOL     OW 4156   4.083   5.062   2.255
 1086SOL    HW1 4157   4.003   5.114   2.284
 1086SOL    HW2 4158   4.067   5.024   2.164
 1087SOL     OW 4159   3.903   3.656   4.633
 1087SOL    HW1 4160   3.868   3.564   4.652
 1087SOL    HW2 4161   3.941   3.658   4.540
 1088SOL     OW 4162   5.793   4.480   2.570
 1088SOL    HW1 4163   5.885   4.509   2.544
 1088SOL    HW2 4164   5.766   4.400   2.515
 1089SOL     OW 4165   6.582   6.847   3.497
 1089SOL    HW1 4166   6.547   6.939   3.516
 1089SOL    HW2 4167   6.571   6.790   3.578
 1090SOL     OW 4168   1.571   1.867   6.404
 1090SOL    HW1 4169   1.479   1.899   6.380
 1090SOL    HW2 4170   1.568   1.818   6.490
 1091SOL     OW 4171   1.151   3.033   5.503
 1091SOL    HW1 4172   1.085   2.985   5.446
 1091SOL    HW2 4173   1.144   3.000   5.597
 1092SOL     OW 4174   1.932   4.600   1.126
 1092SOL    HW1 4175   1.849   4.656   1.131
 1092SOL    HW2 4176   1.933   4.537   1.204
 1093SOL     OW 4177   0.146   2.187   1.810
 1093SOL    HW1 4178   0.129   2.125   1.734
 1093SOL    HW2 4179   0.112   2.147   1.895
 1094SOL     OW 4180   0.804   7.001   1.967
 1094SOL    HW1 4181   0.770   6.968   1.879
 1094SOL    HW2 4182   0.735   0.041   2.008
 1095SOL     OW 4183   6.606   3.557   5.515
 1095SOL    HW1 4184   6.580   3.469   5.555
 1095SOL    HW2 4185   6.652   3.613   5.584
 1096SOL     OW 4186   3.885   3.470   1.768
 1096SOL    HW1 4187   3.896   3.563   1.801
 1096SOL    HW2 4188   3.902   3.467   1.669
 1097SOL     OW 4189   2.193   4.151   5.484
 1097SOL    HW1 4190   2.274   4.140   5.425
 1097SOL    HW2 4191   2.215   4.214   5.558
 1098SOL     OW 4192   4.057   0.850   3.112
 1098SOL    HW1 4193   4.151   0.817   3.119
 1098SOL    HW2 4194   4.054   0.930   3.052
 1099SOL     OW 4195   3.390   0.954   2.673
 1099SOL    HW1 4196   3.430   1.014   2.604
 1099SOL    HW2 4197   3.437   0.866   2.672
 1100SOL     OW 4198   6.637   0.596   6.852
 1100SOL    HW1 4199   6.606   0.691   6.852
 1100SOL    HW2 4200   6.712   0.586   6.787
 1101SOL     OW 4201   5.693   3.264   1.204
 1101SOL    HW1 4202   5.720   3.169   1.196
 1101SOL    HW2 4203   5.644   3.292   1.121
 1102SOL     OW 4204   0.141   4.232   3.622
 1102SOL    HW1 4205   0.142   4.293   3.701
 1102SOL    HW2 4206   0.062   4.171   3.628
 1103SOL     OW 4207   0.195   3.261   0.670
 1103SOL    HW1 4208   0.184   3.348   0.718
 1103SOL    HW2 4209   0.256   3.274   0.591
 1104SOL     OW 4210   2.664   4.981   6.090
 1104SOL    HW1 4211   2.747   5.033   6.068
 1104SOL    HW2 4212   2.585   5.024   6.046
 1105SOL     OW 4213   4.236   5.241   0.867
 1105SOL    HW1 4214   4.320   5.285   0.836
 1105SOL    HW2 4215   4.170   5.239   0.792
 1106SOL     OW 4216   1.205   1.142   6.414
 1106SOL    HW1 4217   1.128   1.153   6.477
 1106SOL    HW2 4218   1.244   1.050   6.424
 1107SOL     OW 4219   6.923   6.776   0.894
 1107SOL    HW1 4220   6.837   6.826   0.884
 1107SOL    HW2 4221   6.915   6.686   0.850
 1108SOL     OW 4222   0.879   1.089   6.885
 1108SOL    HW1 4223   0.888   1.007   6.941
 1108SOL    HW2 4224   0.792   1.087   6.836
 1109SOL     OW 4225   5.120   0.640   4.027
 1109SOL    HW1 4226   5.108   0.641   3.928
 1109SOL    HW2 4227   5.201   0.587   4.050
 1110SOL     OW 4228   3.052   2.968   2.109
 1110SOL    HW1 4229   3.070   2.930   2.018
 1110SOL    HW2 4230   3.018   2.895   2.169
 1111SOL     OW 4231   4.561   0.295   6.451
 1111SOL    HW1 4232   4.658   0.291   6.476
 1111SOL    HW2 4233   4.505   0.268   6.530
 1112SOL     OW 4234   0.917   1.433   2.688
 1112SOL    HW1 4235   0.957   1.343   2.671
 1112SOL    HW2 4236   0.819   1.430   2.669
 1113SOL     OW 4237   5.843   4.198   1.846
 1113SOL    HW1 4238   5.942   4.201   1.829
 1113SOL    HW2 4239   5.799   4.274   1.799
 1114SOL     OW 4240   5.810   1.009   5.658
 1114SOL    HW1 4241   5.758   0.931   5.692
 1114SOL    HW2 4242   5.881   0.977   5.595
 1115SOL     OW 4243   3.235   4.414   0.984
 1115SOL    HW1 4244   3.310   4.403   0.918
 1115SOL    HW2 4245   3.157   4.359   0.956
 1116SOL     OW 4246   3.656   6.596   6.025
 1116SOL    HW1 4247   3.650   6.679   5.970
 1116SOL    HW2 4248   3.734   6.541   5.993
 1117SOL     OW 4249   2.427   2.657   1.012
 1117SOL    HW1 4250   2.400   2.660   1.108
 1117SOL    HW2 4251   2.442   2.751   0.979
 1118SOL     OW 4252   1.637   3.114   2.661
 1118SOL    HW1 4253   1.607   3.210   2.662
 1118SOL    HW2 4254   1.711   3.104   2.595
 1119SOL     OW 4255   3.014   3.789   2.781
 1119SOL    HW1 4256   2.937   3.727   2.765
 1119SOL    HW2 4257   3.084   3.774   2.712
 1120SOL     OW 4258   4.935   1.434   4.177
 1120SOL    HW1 4259   4.998   1.494   4.128
 1120SOL    HW2 4260   4.874   1.489   4.234
 1121SOL     OW 4261   5.156   3.320   2.740
 1121SOL    HW1 4262   5.201   3.259   2.805
 1121SOL    HW2 4263   5.165   3.282   2.648
 1122SOL     OW 4264   4.397   4.976   7.014
 1122SOL    HW1 4265   4.371   4.919   0.072
 1122SOL    HW2 4266   4.327   5.046   6.999
 1123SOL     OW 4267   3.862   1.069   2.081
 1123SOL    HW1 4268   3.794   1.044   2.012
 1123SOL    HW2 4269   3.873   0.994   2.146
 1124SOL     OW 4270   1.072   4.957   4.394
 1124SOL    HW1 4271   1.159   4.996   4.423
 1124SOL    HW2 4272   1.087   4.865   4.357
 1125SOL     OW 4273   3.010   3.345   4.907
 1125SOL    HW1 4274   2.959   3.413   4.856
 1125SOL    HW2 4275   2.953   3.308   4.980
 1126SOL     OW 4276   6.390   0.322   2.620
 1126SOL    HW1 4277   6.467   0.277   2.575
 1126SOL    HW2 4278   6.363   0.270   2.700
 1127SOL     OW 4279   1.828   5.389   6.308
 1127SOL    HW1 4280   1.860   5.320   6.373
 1127SOL    HW2 4281   1.743   5.357   6.265
 1128SOL     OW 4282   2.326   1.708   3.797
 1128SOL    HW1 4283   2.383   1.789   3.810
 1128SOL    HW2 4284   2.341   1.670   3.706
 1129SOL     OW 4285   4.561   0.129   6.247
 1129SOL    HW1 4286   4.502   0.146   6.168
 1129SOL    HW2 4287   4.565   0.211   6.304
 1130SOL     OW 4288   0.303   5.465   6.340
 1130SOL    HW1 4289   0.303   5.564   6.325
 1130SOL    HW2 4290   0.263   5.445   6.430
 1131SOL     OW 4291   0.551   4.890   5.312
 1131SOL    HW1 4292   0.524   4.813   5.254
 1131SOL    HW2 4293   0.608   4.857   5.387
 1132SOL     OW 4294   5.255   0.220   5.272
 1132SOL    HW1 4295   5.235   0.132   5.229
 1132SOL    HW2 4296   5.284   0.206   5.366
 1133SOL     OW 4297   7.015   2.458   6.954
 1133SOL    HW1 4298   7.017   2.493   0.028
 1133SOL    HW2 4299   0.088   2.444   6.921
 1134SOL     OW 4300   6.446   2.475   5.796
 1134SOL    HW1 4301   6.413   2.529   5.718
 1134SOL    HW2 4302   6.504   2.532   5.853
 1135SOL     OW 4303   6.278   1.436   4.071
 1135SOL    HW1 4304   6.187   1.476   4.085
 1135SOL    HW2 4305   6.270   1.337   4.068
 1136SOL     OW 4306   3.669   5.297   4.080
 1136SOL    HW1 4307   3.743   5.362   4.066
 1136SOL    HW2 4308   3.583   5.337   4.049
 1137SOL     OW 4309   1.237   0.883   6.069
 1137SOL    HW1 4310   1.165   0.846   6.009
 1137SOL    HW2 4311   1.277   0.808   6.122
 1138SOL     OW 4312   0.330   4.383   5.840
 1138SOL    HW1 4313   0.309   4.286   5.824
 1138SOL    HW2 4314   0.418   4.405   5.800
 1139SOL     OW 4315   0.978   6.622   1.348
 1139SOL    HW1 4316   1.060   6.575   1.380
 1139SOL    HW2 4317   0.939   6.571   1.271
 1140SOL     OW 4318   3.728   1.758   3.700
 1140SOL    HW1 4319   3.738   1.732   3.603
 1140SOL    HW2 4320   3.789   1.701   3.755
 1141SOL     OW 4321   6.954   5.999   5.603
 1141SOL    HW1 4322   7.003   5.912   5.598
 1141SOL    HW2 4323   6.981   6.047   5.686
 1142SOL     OW 4324   6.260   0.812   4.202
 1142SOL    HW1 4325   6.221   0.720   4.188
 1142SOL    HW2 4326   6.200   0.865   4.262
 1143SOL     OW 4327   4.538   1.641   2.180
 1143SOL    HW1 4328   4.525   1.561   2.238
 1143SOL    HW2 4329   4.631   1.641   2.143
 1144SOL     OW 4330   1.412   0.136   5.394
 1144SOL    HW1 4331   1.409   0.036   5.392
 1144SOL    HW2 4332   1.409   0.168   5.488
 1145SOL     OW 4333   1.799   4.988   4.831
 1145SOL    HW1 4334   1.871   4.967   4.896
 1145SOL    HW2 4335   1.762   4.903   4.794
 1146SOL     OW 4336   6.378   1.720   1.127
 1146SOL    HW1 4337   6.380   1.648   1.057
 1146SOL    HW2 4338   6.396   1.809   1.084
 1147SOL     OW 4339   6.914   3.331   2.256
 1147SOL    HW1 4340   6.830   3.314   2.307
 1147SOL    HW2 4341   6.908   3.419   2.210
 1148SOL     OW 4342   4.994   1.044   6.854
 1148SOL    HW1 4343   5.062   1.049   6.926
 1148SOL    HW2 4344   4.902   1.038   6.894
 1149SOL     OW 4345   6.236   2.669   3.640
 1149SOL    HW1 4346   6.207   2.623   3.557
 1149SOL    HW2 4347   6.304   2.612   3.688
 1150SOL     OW 4348   0.983   5.267   5.610
 1150SOL    HW1 4349   1.075   5.276   5.570
 1150SOL    HW2 4350   0.961   5.350   5.661
 1151SOL     OW 4351   3.777   5.265   6.781
 1151SOL    HW1 4352   3.679   5.250   6.764
 1151SOL    HW2 4353   3.830   5.217   6.711
 1152SOL     OW 4354   0.397   1.293   4.625
 1152SOL    HW1 4355   0.391   1.304   4.526
 1152SOL    HW2 4356   0.305   1.287   4.663
 1153SOL     OW 4357   2.617   4.606   2.941
 1153SOL    HW1 4358   2.572   4.518   2.955
 1153SOL    HW2 4359   2.552   4.680   2.959
 1154SOL     OW 4360   2.005   4.169   2.051
 1154SOL    HW1 4361   2.024   4.111   1.971
 1154SOL    HW2 4362   1.965   4.113   2.123
 1155SOL     OW 4363   3.752   6.768   2.570
 1155SOL    HW1 4364   3.685   6.835   2.537
 1155SOL    HW2 4365   3.719   6.676   2.551
 1156SOL     OW 4366   1.059   1.745   3.589
 1156SOL    HW1 4367   1.007   1.824   3.557
 1156SOL    HW2 4368   1.008   1.699   3.661
 1157SOL     OW 4369   1.003   3.474   4.497
 1157SOL    HW1 4370   1.021   3.472   4.399
 1157SOL    HW2 4371   1.083   3.439   4.546
 1158SOL     OW 4372   4.459   5.963   6.547
 1158SOL    HW1 4373   4.492   6.028   6.616
 1158SOL    HW2 4374   4.495   5.872   6.567
 1159SOL     OW 4375   5.370   4.973   2.660
 1159SOL    HW1 4376   5.323   5.053   2.623
 1159SOL    HW2 4377   5.399   4.914   2.584
 1160SOL     OW 4378   2.536   2.495   0.797
 1160SOL    HW1 4379   2.578   2.542   0.720
 1160SOL    HW2 4380   2.491   2.561   0.856
 1161SOL     OW 4381   4.222   0.844   4.544
 1161SOL    HW1 4382   4.205   0.878   4.637
 1161SOL    HW2 4383   4.310   0.797   4.542
 1162SOL     OW 4384   4.122   4.671   1.800
 1162SOL    HW1 4385   4.028   4.642   1.782
 1162SOL    HW2 4386   4.183   4.629   1.733
 1163SOL     OW 4387   5.267   1.413   2.277
 1163SOL    HW1 4388   5.167   1.405   2.274
 1163SOL    HW2 4389   5.307   1.325   2.253
 1164SOL     OW 4390   5.986   3.681   4.258
 1164SOL    HW1 4391   6.018   3.746   4.189
 1164SOL    HW2 4392   5.997   3.720   4.349
 1165SOL     OW 4393   1.684   4.725   2.236
 1165SOL    HW1 4394   1.777   4.737   2.202
 1165SOL    HW2 4395   1.681   4.749   2.333
 1166SOL     OW 4396   3.387   2.444   6.630
 1166SOL    HW1 4397   3.356   2.423   6.723
 1166SOL    HW2 4398   3.309   2.437   6.567
 1167SOL     OW 4399   4.147   1.942   4.987
 1167SOL    HW1 4400   4.095   1.899   4.913
 1167SOL    HW2 4401   4.156   2.040   4.970
 1168SOL     OW 4402   6.118   6.603   3.204
 1168SOL    HW1 4403   6.197   6.581   3.262
 1168SOL    HW2 4404   6.127   6.555   3.117
 1169SOL     OW 4405   0.885   3.918   1.163
 1169SOL    HW1 4406   0.799   3.931   1.212
 1169SOL    HW2 4407   0.947   3.994   1.183
 1170SOL     OW 4408   3.148   0.454   1.245
 1170SOL    HW1 4409   3.078   0.513   1.286
 1170SOL    HW2 4410   3.224   0.510   1.213
 1171SOL     OW 4411   3.109   0.513   0.191
 1171SOL    HW1 4412   3.085   0.506   0.287
 1171SOL    HW2 4413   3.042   0.462   0.136
 1172SOL     OW 4414   2.953   3.543   4.436
 1172SOL    HW1 4415   3.033   3.569   4.491
 1172SOL    HW2 4416   2.870   3.557   4.489
 1173SOL     OW 4417   4.774   0.743   6.408
 1173SOL    HW1 4418   4.779   0.843   6.395
 1173SOL    HW2 4419   4.796   0.721   6.503
 1174SOL     OW 4420   3.210   6.081   6.904
 1174SOL    HW1 4421   3.279   6.125   6.961
 1174SOL    HW2 4422   3.164   6.010   6.955
 1175SOL     OW 4423   0.249   5.201   4.400
 1175SOL    HW1 4424   0.347   5.191   4.418
 1175SOL    HW2 4425   0.229   5.298   4.383
 1176SOL     OW 4426   6.209   3.376   1.185
 1176SOL    HW1 4427   6.235   3.326   1.268
 1176SOL    HW2 4428   6.112   3.363   1.167
 1177SOL     OW 4429   5.701   3.219   7.011
 1177SOL    HW1 4430   5.673   3.204   0.085
 1177SOL    HW2 4431   5.715   3.317   6.995
 1178SOL     OW 4432   5.113   3.937   2.024
 1178SOL    HW1 4433   5.180   3.888   1.968
 1178SOL    HW2 4434   5.116   3.903   2.118
 1179SOL     OW 4435   2.412   5.734   5.762
 1179SOL    HW1 4436   2.485   5.669   5.739
 1179SOL    HW2 4437   2.391   5.728   5.860
 1180SOL     OW 4438   1.751   1.603   3.885
 1180SOL    HW1 4439   1.678   1.554   3.933
 1180SOL    HW2 4440   1.788   1.674   3.945
 1181SOL     OW 4441   1.959   4.206   2.931
 1181SOL    HW1 4442   1.961   4.298   2.971
 1181SOL    HW2 4443   1.928   4.141   3.000
 1182SOL     OW 4444   1.560   4.155   3.376
 1182SOL    HW1 4445   1.637   4.197   3.423
 1182SOL    HW2 4446   1.487   4.137   3.441
 1183SOL     OW 4447   4.634   5.876   0.569
 1183SOL    HW1 4448   4.709   5.942   0.575
 1183SOL    HW2 4449   4.611   5.861   0.473
 1184SOL     OW 4450   3.419   3.418   5.712
 1184SOL    HW1 4451   3.365   3.428   5.795
 1184SOL    HW2 4452   3.395   3.332   5.666
 1185SOL     OW 4453   2.622   1.727   6.731
 1185SOL    HW1 4454   2.563   1.713   6.651
 1185SOL    HW2 4455   2.575   1.785   6.797
 1186SOL     OW 4456   2.975   0.856   5.020
 1186SOL    HW1 4457   3.045   0.927   5.034
 1186SOL    HW2 4458   2.910   0.858   5.096
 1187SOL     OW 4459   0.769   1.541   5.257
 1187SOL    HW1 4460   0.758   1.547   5.157
 1187SOL    HW2 4461   0.861   1.511   5.279
 1188SOL     OW 4462   1.662   0.348   4.733
 1188SOL    HW1 4463   1.615   0.412   4.672
 1188SOL    HW2 4464   1.596   0.312   4.799
 1189SOL     OW 4465   0.370   0.789   1.206
 1189SOL    HW1 4466   0.464   0.764   1.230
 1189SOL    HW2 4467   0.371   0.864   1.140
 1190SOL     OW 4468   3.975   4.833   2.532
 1190SOL    HW1 4469   4.062   4.811   2.489
 1190SOL    HW2 4470   3.977   4.806   2.628
 1191SOL     OW 4471   2.900   4.764   0.680
 1191SOL    HW1 4472   2.933   4.709   0.757
 1191SOL    HW2 4473   2.936   4.727   0.594
 1192SOL     OW 4474   4.491   4.878   2.430
 1192SOL    HW1 4475   4.451   4.804   2.375
 1192SOL    HW2 4476   4.527   4.840   2.515
 1193SOL     OW 4477   4.052   6.854   3.770
 1193SOL    HW1 4478   4.013   6.798   3.844
 1193SOL    HW2 4479   4.009   6.944   3.770
 1194SOL     OW 4480   6.445   0.865   1.327
 1194SOL    HW1 4481   6.392   0.936   1.279
 1194SOL    HW2 4482   6.444   0.781   1.274
 1195SOL     OW 4483   3.400   6.333   6.829
 1195SOL    HW1 4484   3.460   6.413   6.825
 1195SOL    HW2 4485   3.324   6.353   6.891
 1196SOL     OW 4486   0.939   5.534   3.160
 1196SOL    HW1 4487   0.980   5.446   3.136
 1196SOL    HW2 4488   0.861   5.520   3.221
 1197SOL     OW 4489   3.293   5.176   6.564
 1197SOL    HW1 4490   3.327   5.119   6.490
 1197SOL    HW2 4491   3.368   5.197   6.627
 1198SOL     OW 4492   3.767   1.449   2.453
 1198SOL    HW1 4493   3.707   1.422   2.378
 1198SOL    HW2 4494   3.797   1.544   2.439
 1199SOL     OW 4495   3.044   3.710   3.832
 1199SOL    HW1 4496   2.981   3.728   3.757
 1199SOL    HW2 4497   2.997   3.655   3.902
 1200SOL     OW 4498   4.230   3.482   1.145
 1200SOL    HW1 4499   4.268   3.472   1.053
 1200SOL    HW2 4500   4.152   3.420   1.155
 1201SOL     OW 4501   0.906   0.862   4.650
 1201SOL    HW1 4502   0.905   0.807   4.567
 1201SOL    HW2 4503   0.838   0.828   4.714
 1202SOL     OW 4504   5.930   0.075   4.736
 1202SOL    HW1 4505   5.935   0.090   4.638
 1202SOL    HW2 4506   5.973   7.008   4.760
 1203SOL     OW 4507   6.139   6.436   1.861
 1203SOL    HW1 4508   6.050   6.392   1.849
 1203SOL    HW2 4509   6.192   6.429   1.776
 1204SOL     OW 4510   1.449   6.635   6.860
 1204SOL    HW1 4511   1.468   6.630   6.958
 1204SOL    HW2 4512   1.442   6.731   6.832
 1205SOL     OW 4513   1.049   3.026   5.110
 1205SOL    HW1 4514   1.052   3.125   5.126
 1205SOL    HW2 4515   0.960   3.001   5.072
 1206SOL     OW 4516   0.263   2.025   4.760
 1206SOL    HW1 4517   0.327   2.079   4.705
 1206SOL    HW2 4518   0.313   1.976   4.831
 1207SOL     OW 4519   5.807   6.272   6.767
 1207SOL    HW1 4520   5.834   6.348   6.825
 1207SOL    HW2 4521   5.865   6.271   6.685
 1208SOL     OW 4522   3.559   3.855   3.085
 1208SOL    HW1 4523   3.500   3.887   3.011
 1208SOL    HW2 4524   3.642   3.911   3.089
 1209SOL     OW 4525   0.026   4.212   4.594
 1209SOL    HW1 4526   0.054   4.121   4.562
 1209SOL    HW2 4527   7.020   4.268   4.515
 1210SOL     OW 4528   3.019   6.776   2.758
 1210SOL    HW1 4529   2.972   6.818   2.680
 1210SOL    HW2 4530   3.116   6.800   2.755
 1211SOL     OW 4531   1.228   3.112   3.467
 1211SOL    HW1 4532   1.285   3.193   3.466
 1211SOL    HW2 4533   1.195   3.093   3.374
 1212SOL     OW 4534   1.361   3.774   3.600
 1212SOL    HW1 4535   1.311   3.687   3.608
 1212SOL    HW2 4536   1.346   3.812   3.508
 1213SOL     OW 4537   5.796   3.226   5.008
 1213SOL    HW1 4538   5.734   3.204   4.933
 1213SOL    HW2 4539   5.743   3.258   5.087
 1214SOL     OW 4540   1.373   2.392   2.372
 1214SOL    HW1 4541   1.280   2.412   2.402
 1214SOL    HW2 4542   1.401   2.462   2.306
 1215SOL     OW 4543   0.188   5.497   2.123
 1215SOL    HW1 4544   0.192   5.578   2.182
 1215SOL    HW2 4545   0.250   5.427   2.159
 1216SOL     OW 4546   2.937   0.598   1.395
 1216SOL    HW1 4547   2.841   0.592   1.421
 1216SOL    HW2 4548   2.991   0.633   1.472
 1217SOL     OW 4549   2.147   1.883   2.224
 1217SOL    HW1 4550   2.061   1.870   2.274
 1217SOL    HW2 4551   2.139   1.962   2.164
 1218SOL     OW 4552   0.209   3.504   3.222
 1218SOL    HW1 4553   0.177   3.425   3.274
 1218SOL    HW2 4554   0.263   3.564   3.281
 1219SOL     OW 4555   2.574   6.011   4.036
 1219SOL    HW1 4556   2.566   6.111   4.029
 1219SOL    HW2 4557   2.593   5.973   3.946
 1220SOL     OW 4558   5.882   4.348   2.855
 1220SOL    HW1 4559   5.867   4.380   2.949
 1220SOL    HW2 4560   5.814   4.389   2.795
 1221SOL     OW 4561   5.081   3.818   6.225
 1221SOL    HW1 4562   5.129   3.785   6.145
 1221SOL    HW2 4563   5.057   3.915   6.212
 1222SOL     OW 4564   6.168   4.973   1.749
 1222SOL    HW1 4565   6.225   5.054   1.763
 1222SOL    HW2 4566   6.198   4.925   1.667
 1223SOL     OW 4567   6.703   4.984   4.891
 1223SOL    HW1 4568   6.699   4.895   4.935
 1223SOL    HW2 4569   6.704   4.973   4.792
 1224SOL     OW 4570   4.823   4.754   1.186
 1224SOL    HW1 4571   4.779   4.666   1.203
 1224SOL    HW2 4572   4.839   4.800   1.273
 1225SOL     OW 4573   3.719   1.894   6.867
 1225SOL    HW1 4574   3.712   1.993   6.855
 1225SOL    HW2 4575   3.751   1.874   6.960
 1226SOL     OW 4576   5.200   5.674   0.840
 1226SOL    HW1 4577   5.181   5.615   0.762
 1226SOL    HW2 4578   5.294   5.660   0.871
 1227SOL     OW 4579   4.832   4.573   6.610
 1227SOL    HW1 4580   4.847   4.475   6.616
 1227SOL    HW2 4581   4.893   4.620   6.673
 1228SOL     OW 4582   3.710   4.132   4.485
 1228SOL    HW1 4583   3.740   4.057   4.543
 1228SOL    HW2 4584   3.613   4.150   4.501
 1229SOL     OW 4585   2.615   6.037   3.037
 1229SOL    HW1 4586   2.591   6.112   2.976
 1229SOL    HW2 4587   2.679   6.070   3.107
 1230SOL     OW 4588   5.753   5.497   1.403
 1230SOL    HW1 4589   5.771   5.564   1.330
 1230SOL    HW2 4590   5.712   5.544   1.481
 1231SOL     OW 4591   2.268   1.525   6.730
 1231SOL    HW1 4592   2.333   1.591   6.693
 1231SOL    HW2 4593   2.185   1.524   6.673
 1232SOL     OW 4594   3.031   1.524   5.189
 1232SOL    HW1 4595   3.000   1.508   5.282
 1232SOL    HW2 4596   3.086   1.608   5.185
 1233SOL     OW 4597   6.911   5.145   4.704
 1233SOL    HW1 4598   6.923   5.066   4.644
 1233SOL    HW2 4599   6.999   5.191   4.717
 1234SOL     OW 4600   6.259   4.604   6.899
 1234SOL    HW1 4601   6.182   4.665   6.918
 1234SOL    HW2 4602   6.312   4.590   6.982
 1235SOL     OW 4603   6.022   4.825   0.907
 1235SOL    HW1 4604   6.095   4.788   0.849
 1235SOL    HW2 4605   5.954   4.753   0.924
 1236SOL     OW 4606   1.648   1.267   2.278
 1236SOL    HW1 4607   1.575   1.229   2.334
 1236SOL    HW2 4608   1.614   1.287   2.186
 1237SOL     OW 4609   0.911   0.337   4.420
 1237SOL    HW1 4610   0.909   0.332   4.320
 1237SOL    HW2 4611   0.996   0.382   4.450
 1238SOL     OW 4612   0.735   0.497   4.915
 1238SOL    HW1 4613   0.724   0.441   4.997
 1238SOL    HW2 4614   0.697   0.588   4.931
 1239SOL     OW 4615   5.020   5.260   4.058
 1239SOL    HW1 4616   5.039   5.163   4.044
 1239SOL    HW2 4617   5.077   5.315   3.997
 1240SOL     OW 4618   0.563   3.414   1.230
 1240SOL    HW1 4619   0.527   3.461   1.150
 1240SOL    HW2 4620   0.641   3.466   1.266
 1241SOL     OW 4621   3.981   5.004   6.226
 1241SOL    HW1 4622   3.938   5.017   6.315
 1241SOL    HW2 4623   4.080   5.014   6.235
 1242SOL     OW 4624   2.478   5.277   0.571
 1242SOL    HW1 4625   2.512   5.277   0.477
 1242SOL    HW2 4626   2.493   5.187   0.612
 1243SOL     OW 4627   1.007   3.338   3.683
 1243SOL    HW1 4628   0.940   3.399   3.642
 1243SOL    HW2 4629   1.099   3.375   3.668
 1244SOL     OW 4630   6.347   6.980   5.130
 1244SOL    HW1 4631   6.278   0.028   5.106
 1244SOL    HW2 4632   6.428   0.005   5.167
 1245SOL     OW 4633   4.744   6.410   1.074
 1245SOL    HW1 4634   4.725   6.312   1.071
 1245SOL    HW2 4635   4.806   6.430   1.150
 1246SOL     OW 4636   5.647   1.748   0.868
 1246SOL    HW1 4637   5.719   1.802   0.826
 1246SOL    HW2 4638   5.665   1.651   0.855
 1247SOL     OW 4639   6.184   6.588   2.708
 1247SOL    HW1 4640   6.122   6.648   2.657
 1247SOL    HW2 4641   6.204   6.507   2.654
 1248SOL     OW 4642   0.606   6.555   4.444
 1248SOL    HW1 4643   0.706   6.547   4.436
 1248SOL    HW2 4644   0.584   6.627   4.509
 1249SOL     OW 4645   5.761   5.938   6.324
 1249SOL    HW1 4646   5.849   5.983   6.309
 1249SOL    HW2 4647   5.767   5.881   6.407
 1250SOL     OW 4648   1.032   4.523   4.777
 1250SOL    HW1 4649   0.939   4.521   4.811
 1250SOL    HW2 4650   1.045   4.603   4.718
 1251SOL     OW 4651   2.910   0.082   2.828
 1251SOL    HW1 4652   3.003   0.102   2.798
 1251SOL    HW2 4653   2.869   0.015   2.766
 1252SOL     OW 4654   2.343   5.099   6.722
 1252SOL    HW1 4655   2.347   5.009   6.680
 1252SOL    HW2 4656   2.394   5.098   6.809
 1253SOL     OW 4657   2.837   6.530   6.836
 1253SOL    HW1 4658   2.892   6.586   6.897
 1253SOL    HW2 4659   2.890   6.509   6.753
 1254SOL     OW 4660   6.521   1.441   3.299
 1254SOL    HW1 4661   6.593   1.375   3.277
 1254SOL    HW2 4662   6.468   1.461   3.216
 1255SOL     OW 4663   5.876   1.920   5.910
 1255SOL    HW1 4664   5.896   1.979   5.832
 1255SOL    HW2 4665   5.957   1.912   5.968
 1256SOL     OW 4666   0.495   5.563   4.365
 1256SOL    HW1 4667   0.547   5.525   4.442
 1256SOL    HW2 4668   0.543   5.643   4.328
 1257SOL     OW 4669   6.918   6.042   3.346
 1257SOL    HW1 4670   6.875   5.953   3.356
 1257SOL    HW2 4671   6.966   6.048   3.259
 1258SOL     OW 4672   4.746   5.797   6.364
 1258SOL    HW1 4673   4.683   5.732   6.407
 1258SOL    HW2 4674   4.772   5.867   6.430
 1259SOL     OW 4675   5.457   0.200   5.480
 1259SOL    HW1 4676   5.481   0.104   5.497
 1259SOL    HW2 4677   5.523   0.240   5.417
 1260SOL     OW 4678   3.167   1.044   1.098
 1260SOL    HW1 4679   3.205   1.065   1.188
 1260SOL    HW2 4680   3.082   0.993   1.109
 1261SOL     OW 4681   0.094   4.436   4.965
 1261SOL    HW1 4682   0.049   4.483   5.041
 1261SOL    HW2 4683   0.159   4.498   4.921
 1262SOL     OW 4684   4.597   5.796   1.626
 1262SOL    HW1 4685   4.668   5.833   1.686
 1262SOL    HW2 4686   4.599   5.843   1.538
 1263SOL     OW 4687   6.534   1.670   0.706
 1263SOL    HW1 4688   6.483   1.756   0.711
 1263SOL    HW2 4689   6.489   1.601   0.762
 1264SOL     OW 4690   6.397   2.411   4.612
 1264SOL    HW1 4691   6.371   2.371   4.699
 1264SOL    HW2 4692   6.473   2.359   4.573
 1265SOL     OW 4693   6.491   5.785   4.877
 1265SOL    HW1 4694   6.409   5.835   4.849
 1265SOL    HW2 4695   6.503   5.705   4.818
 1266SOL     OW 4696   2.619   0.767   3.955
 1266SOL    HW1 4697   2.667   0.681   3.934
 1266SOL    HW2 4698   2.684   0.843   3.954
 1267SOL     OW 4699   0.205   4.671   3.027
 1267SOL    HW1 4700   0.242   4.684   2.935
 1267SOL    HW2 4701   0.105   4.662   3.022
 1268SOL     OW 4702   5.792   4.549   7.011
 1268SOL    HW1 4703   5.822   4.643   6.994
 1268SOL    HW2 4704   5.836   4.488   6.945
 1269SOL     OW 4705   6.743   4.713   6.133
 1269SOL    HW1 4706   6.648   4.736   6.111
 1269SOL    HW2 4707   6.788   4.793   6.173
 1270SOL     OW 4708   1.676   2.005   4.592
 1270SOL    HW1 4709   1.631   1.920   4.621
 1270SOL    HW2 4710   1.769   2.006   4.627
 1271SOL     OW 4711   5.118   2.704   3.286
 1271SOL    HW1 4712   5.101   2.621   3.232
 1271SOL    HW2 4713   5.065   2.700   3.371
 1272SOL     OW 4714   6.270   6.927   1.511
 1272SOL    HW1 4715   6.208   6.924   1.433
 1272SOL    HW2 4716   6.218   6.910   1.595
 1273SOL     OW 4717   2.746   6.195   6.071
 1273SOL    HW1 4718   2.767   6.115   6.014
 1273SOL    HW2 4719   2.663   6.177   6.123
 1274SOL     OW 4720   5.370   2.007   2.061
 1274SOL    HW1 4721   5.430   2.001   2.141
 1274SOL    HW2 4722   5.355   2.103   2.038
 1275SOL     OW 4723   3.958   1.641   3.999
 1275SOL    HW1 4724   3.899   1.562   3.985
 1275SOL    HW2 4725   4.053   1.617   3.978
 1276SOL     OW 4726   6.040   0.193   3.153
 1276SOL    HW1 4727   5.959   0.136   3.169
 1276SOL    HW2 4728   6.026   0.246   3.069
 1277SOL     OW 4729   0.553   1.758   5.104
 1277SOL    HW1 4730   0.620   1.700   5.057
 1277SOL    HW2 4731   0.575   1.761   5.202
 1278SOL     OW 4732   2.374   1.601   6.034
 1278SOL    HW1 4733   2.452   1.615   6.095
 1278SOL    HW2 4734   2.372   1.674   5.966
 1279SOL     OW 4735   2.368   5.047   0.753
 1279SOL    HW1 4736   2.451   5.026   0.803
 1279SOL    HW2 4737   2.308   4.967   0.754
 1280SOL     OW 4738   2.008   6.042   2.775
 1280SOL    HW1 4739   1.961   5.974   2.831
 1280SOL    HW2 4740   1.953   6.125   2.770
 1281SOL     OW 4741   0.642   6.733   3.935
 1281SOL    HW1 4742   0.616   6.682   4.017
 1281SOL    HW2 4743   0.647   6.831   3.957
 1282SOL     OW 4744   1.232   0.223   2.582
 1282SOL    HW1 4745   1.169   0.159   2.538
 1282SOL    HW2 4746   1.320   0.179   2.596
 1283SOL     OW 4747   4.980   4.539   4.698
 1283SOL    HW1 4748   4.912   4.600   4.658
 1283SOL    HW2 4749   4.940   4.449   4.713
 1284SOL     OW 4750   2.800   1.868   2.717
 1284SOL    HW1 4751   2.835   1.900   2.805
 1284SOL    HW2 4752   2.706   1.899   2.706
 1285SOL     OW 4753   5.943   2.229   6.310
 1285SOL    HW1 4754   6.032   2.255   6.271
 1285SOL    HW2 4755   5.935   2.130   6.310
 1286SOL     OW 4756   6.124   6.049   1.675
 1286SOL    HW1 4757   6.039   6.056   1.728
 1286SOL    HW2 4758   6.198   6.093   1.725
 1287SOL     OW 4759   6.084   4.863   6.126
 1287SOL    HW1 4760   6.099   4.766   6.148
 1287SOL    HW2 4761   6.000   4.894   6.169
 1288SOL     OW 4762   6.662   2.528   3.376
 1288SOL    HW1 4763   6.668   2.451   3.311
 1288SOL    HW2 4764   6.725   2.511   3.452
 1289SOL     OW 4765   6.907   5.259   2.387
 1289SOL    HW1 4766   6.863   5.271   2.476
 1289SOL    HW2 4767   6.911   5.347   2.339
 1290SOL     OW 4768   0.084   6.574   1.185
 1290SOL    HW1 4769   0.140   6.649   1.149
 1290SOL    HW2 4770   0.140   6.515   1.241
 1291SOL     OW 4771   1.457   6.776   0.654
 1291SOL    HW1 4772   1.555   6.773   0.634
 1291SOL    HW2 4773   1.421   6.866   0.631
 1292SOL     OW 4774   0.635   6.237   6.369
 1292SOL    HW1 4775   0.621   6.143   6.399
 1292SOL    HW2 4776   0.632   6.298   6.448
 1293SOL     OW 4777   6.567   2.720   5.779
 1293SOL    HW1 4778   6.605   2.800   5.825
 1293SOL    HW2 4779   6.625   2.695   5.702
 1294SOL     OW 4780   0.387   1.851   2.866
 1294SOL    HW1 4781   0.474   1.897   2.884
 1294SOL    HW2 4782   0.312   1.907   2.899
 1295SOL     OW 4783   4.833   3.283   1.548
 1295SOL    HW1 4784   4.862   3.335   1.628
 1295SOL    HW2 4785   4.749   3.323   1.511
 1296SOL     OW 4786   3.514   2.568   0.023
 1296SOL    HW1 4787   3.579   2.503   0.061
 1296SOL    HW2 4788   3.427   2.561   0.073
 1297SOL     OW 4789   6.300   1.390   6.804
 1297SOL    HW1 4790   6.249   1.404   6.889
 1297SOL    HW2 4791   6.312   1.478   6.757
 1298SOL     OW 4792   6.390   3.320   3.676
 1298SOL    HW1 4793   6.416   3.376   3.755
 1298SOL    HW2 4794   6.315   3.259   3.701
 1299SOL     OW 4795   1.213   3.598   4.315
 1299SOL    HW1 4796   1.266   3.601   4.231
 1299SOL    HW2 4797   1.273   3.578   4.392
 1300SOL     OW 4798   3.301   3.257   1.602
 1300SOL    HW1 4799   3.256   3.242   1.690
 1300SOL    HW2 4800   3.399   3.243   1.611
 1301SOL     OW 4801   0.349   0.521   2.828
 1301SOL    HW1 4802   0.258   0.549   2.861
 1301SOL    HW2 4803   0.418   0.581   2.867
 1302SOL     OW 4804   2.824   5.767   5.534
 1302SOL    HW1 4805   2.865   5.688   5.490
 1302SOL    HW2 4806   2.886   5.802   5.605
 1303SOL     OW 4807   3.819   0.068   1.081
 1303SOL    HW1 4808   3.911   0.088   1.045
 1303SOL    HW2 4809   3.826   0.045   1.178
 1304SOL     OW 4810   3.248   0.587   6.082
 1304SOL    HW1 4811   3.160   0.569   6.037
 1304SOL    HW2 4812   3.295   0.661   6.034
 1305SOL     OW 4813   6.152   6.338   4.128
 1305SOL    HW1 4814   6.156   6.289   4.042
 1305SOL    HW2 4815   6.198   6.285   4.199
 1306SOL     OW 4816   1.303   5.072   4.471
 1306SOL    HW1 4817   1.317   5.105   4.564
 1306SOL    HW2 4818   1.388   5.034   4.436
 1307SOL     OW 4819   2.004   1.830   4.465
 1307SOL    HW1 4820   1.923   1.867   4.421
 1307SOL    HW2 4821   2.000   1.848   4.563
 1308SOL     OW 4822   4.746   6.278   2.935
 1308SOL    HW1 4823   4.748   6.269   3.035
 1308SOL    HW2 4824   4.664   6.233   2.900
 1309SOL     OW 4825   5.988   3.058   4.902
 1309SOL    HW1 4826   5.912   3.118   4.929
 1309SOL    HW2 4827   6.009   3.072   4.806
 1310SOL     OW 4828   5.361   3.790   5.148
 1310SOL    HW1 4829   5.312   3.778   5.061
 1310SOL    HW2 4830   5.421   3.713   5.164
 1311SOL     OW 4831   5.498   5.476   5.361
 1311SOL    HW1 4832   5.523   5.502   5.455
 1311SOL    HW2 4833   5.503   5.377   5.352
 1312SOL     OW 4834   6.188   0.155   2.465
 1312SOL    HW1 4835   6.217   0.077   2.521
 1312SOL    HW2 4836   6.244   0.159   2.382
 1313SOL     OW 4837   3.287   4.872   5.105
 1313SOL    HW1 4838   3.305   4.966   5.135
 1313SOL    HW2 4839   3.252   4.819   5.182
 1314SOL     OW 4840   5.511   1.641   5.231
 1314SOL    HW1 4841   5.609   1.651   5.216
 1314SOL    HW2 4842   5.492   1.643   5.329
 1315SOL     OW 4843   2.094   0.696   3.438
 1315SOL    HW1 4844   2.042   0.660   3.360
 1315SOL    HW2 4845   2.067   0.648   3.521
 1316SOL     OW 4846   3.079   6.532   2.331
 1316SOL    HW1 4847   3.052   6.507   2.238
 1316SOL    HW2 4848   3.128   6.456   2.374
 1317SOL     OW 4849   6.989   4.573   3.921
 1317SOL    HW1 4850   6.901   4.580   3.968
 1317SOL    HW2 4851   0.026   4.505   3.966
 1318SOL     OW 4852   0.480   5.897   1.353
 1318SOL    HW1 4853   0.449   5.805   1.377
 1318SOL    HW2 4854   0.579   5.897   1.339
 1319SOL     OW 4855   6.155   0.687   0.134
 1319SOL    HW1 4856   6.166   0.593   0.100
 1319SOL    HW2 4857   6.060   0.716   0.121
 1320SOL     OW 4858   5.673   5.855   5.342
 1320SOL    HW1 4859   5.770   5.878   5.353
 1320SOL    HW2 4860   5.663   5.755   5.340
 1321SOL     OW 4861   3.118   1.723   6.913
 1321SOL    HW1 4862   3.153   1.645   6.861
 1321SOL    HW2 4863   3.193   1.786   6.934
 1322SOL     OW 4864   5.544   1.368   5.695
 1322SOL    HW1 4865   5.499   1.419   5.768
 1322SOL    HW2 4866   5.606   1.300   5.735
 1323SOL     OW 4867   6.098   0.723   3.795
 1323SOL    HW1 4868   6.031   0.649   3.797
 1323SOL    HW2 4869   6.088   0.780   3.877
 1324SOL     OW 4870   1.257   3.659   0.412
 1324SOL    HW1 4871   1.344   3.653   0.362
 1324SOL    HW2 4872   1.275   3.668   0.510
 1325SOL     OW 4873   3.406   5.465   3.324
 1325SOL    HW1 4874   3.329   5.512   3.367
 1325SOL    HW2 4875   3.371   5.388   3.270
 1326SOL     OW 4876   4.879   4.163   4.544
 1326SOL    HW1 4877   4.876   4.234   4.615
 1326SOL    HW2 4878   4.970   4.163   4.502
 1327SOL     OW 4879   3.048   6.043   3.261
 1327SOL    HW1 4880   3.052   6.018   3.358
 1327SOL    HW2 4881   3.135   6.084   3.234
 1328SOL     OW 4882   1.838   1.902   0.091
 1328SOL    HW1 4883   1.850   1.909   0.190
 1328SOL    HW2 4884   1.762   1.839   0.071
 1329SOL     OW 4885   1.026   0.528   1.766
 1329SOL    HW1 4886   0.992   0.590   1.696
 1329SOL    HW2 4887   1.126   0.528   1.765
 1330SOL     OW 4888   5.318   6.592   0.682
 1330SOL    HW1 4889   5.377   6.516   0.708
 1330SOL    HW2 4890   5.346   6.674   0.731
 1331SOL     OW 4891   0.088   1.407   2.856
 1331SOL    HW1 4892   7.011   1.383   2.860
 1331SOL    HW2 4893   0.106   1.458   2.772
 1332SOL     OW 4894   3.792   1.510   0.975
 1332SOL    HW1 4895   3.873   1.568   0.985
 1332SOL    HW2 4896   3.819   1.414   0.974
 1333SOL     OW 4897   3.772   3.048   4.495
 1333SOL    HW1 4898   3.843   3.021   4.429
 1333SOL    HW2 4899   3.724   3.129   4.461
 1334SOL     OW 4900   0.410   4.334   3.623
 1334SOL    HW1 4901   0.359   4.248   3.620
 1334SOL    HW2 4902   0.360   4.404   3.573
 1335SOL     OW 4903   2.621   5.495   1.948
 1335SOL    HW1 4904   2.681   5.513   1.870
 1335SOL    HW2 4905   2.676   5.486   2.031
 1336SOL     OW 4906   0.109   0.449   4.741
 1336SOL    HW1 4907   0.039   0.482   4.677
 1336SOL    HW2 4908   0.170   0.524   4.766
 1337SOL     OW 4909   2.919   0.630   6.850
 1337SOL    HW1 4910   2.890   0.538   6.825
 1337SOL    HW2 4911   2.879   0.655   6.938
 1338SOL     OW 4912   3.817   5.819   1.081
 1338SOL    HW1 4913   3.822   5.760   1.161
 1338SOL    HW2 4914   3.906   5.823   1.036
 1339SOL     OW 4915   6.829   4.683   5.621
 1339SOL    HW1 4916   6.873   4.722   5.702
 1339SOL    HW2 4917   6.898   4.662   5.552
 1340SOL     OW 4918   2.040   1.256   6.253
 1340SOL    HW1 4919   1.983   1.239   6.334
 1340SOL    HW2 4920   2.081   1.170   6.222
 1341SOL     OW 4921   5.669   1.887   3.931
 1341SOL    HW1 4922   5.671   1.984   3.907
 1341SOL    HW2 4923   5.632   1.834   3.855
 1342SOL     OW 4924   0.500   6.222   1.688
 1342SOL    HW1 4925   0.449   6.230   1.773
 1342SOL    HW2 4926   0.437   6.200   1.613
 1343SOL     OW 4927   3.336   4.914   3.249
 1343SOL    HW1 4928   3.244   4.910   3.208
 1343SOL    HW2 4929   3.405   4.901   3.178
 1344SOL     OW 4930   5.594   1.238   3.100
 1344SOL    HW1 4931   5.497   1.262   3.098
 1344SOL    HW2 4932   5.647   1.309   3.052
 1345SOL     OW 4933   1.208   6.943   3.496
 1345SOL    HW1 4934   1.213   6.900   3.586
 1345SOL    HW2 4935   1.246   0.015   3.500
 1346SOL     OW 4936   0.277   0.878   4.008
 1346SOL    HW1 4937   0.348   0.935   4.050
 1346SOL    HW2 4938   0.298   0.781   4.026
 1347SOL     OW 4939   5.069   0.621   3.723
 1347SOL    HW1 4940   5.165   0.643   3.707
 1347SOL    HW2 4941   5.011   0.674   3.661
 1348SOL     OW 4942   4.438   5.953   4.499
 1348SOL    HW1 4943   4.535   5.974   4.484
 1348SOL    HW2 4944   4.383   5.992   4.425
 1349SOL     OW 4945   4.895   2.491   0.077
 1349SOL    HW1 4946   4.890   2.420   0.147
 1349SOL    HW2 4947   4.969   2.555   0.099
 1350SOL     OW 4948   3.507   0.281   5.031
 1350SOL    HW1 4949   3.572   0.348   4.995
 1350SOL    HW2 4950   3.519   0.274   5.130
 1351SOL     OW 4951   0.897   1.545   4.636
 1351SOL    HW1 4952   0.973   1.565   4.698
 1351SOL    HW2 4953   0.843   1.627   4.622
 1352SOL     OW 4954   0.632   6.497   3.788
 1352SOL    HW1 4955   0.556   6.487   3.724
 1352SOL    HW2 4956   0.621   6.581   3.840
 1353SOL     OW 4957   1.803   2.619   4.436
 1353SOL    HW1 4958   1.823   2.660   4.525
 1353SOL    HW2 4959   1.859   2.537   4.424
 1354SOL     OW 4960   0.428   6.616   0.237
 1354SOL    HW1 4961   0.511   6.651   0.194
 1354SOL    HW2 4962   0.357   6.686   0.235
 1355SOL     OW 4963   3.945   3.494   7.018
 1355SOL    HW1 4964   3.944   3.418   6.952
 1355SOL    HW2 4965   3.898   3.467   0.081
 1356SOL     OW 4966   3.205   3.217   1.845
 1356SOL    HW1 4967   3.227   3.302   1.892
 1356SOL    HW2 4968   3.107   3.199   1.851
 1357SOL     OW 4969   2.784   2.968   6.033
 1357SOL    HW1 4970   2.758   2.909   5.956
 1357SOL    HW2 4971   2.729   3.051   6.032
 1358SOL     OW 4972   2.132   3.557   5.954
 1358SOL    HW1 4973   2.124   3.646   5.910
 1358SOL    HW2 4974   2.193   3.499   5.900
 1359SOL     OW 4975   0.035   0.917   0.184
 1359SOL    HW1 4976   0.018   0.969   0.267
 1359SOL    HW2 4977   6.970   0.911   0.131
 1360SOL     OW 4978   3.496   2.900   4.122
 1360SOL    HW1 4979   3.405   2.876   4.088
 1360SOL    HW2 4980   3.532   2.977   4.070
 1361SOL     OW 4981   0.958   6.193   1.200
 1361SOL    HW1 4982   0.953   6.292   1.187
 1361SOL    HW2 4983   1.053   6.163   1.196
 1362SOL     OW 4984   2.674   2.298   6.045
 1362SOL    HW1 4985   2.727   2.281   5.961
 1362SOL    HW2 4986   2.735   2.289   6.124
 1363SOL     OW 4987   6.879   6.681   1.291
 1363SOL    HW1 4988   6.952   6.642   1.236
 1363SOL    HW2 4989   6.791   6.669   1.245
 1364SOL     OW 4990   0.995   4.238   0.612
 1364SOL    HW1 4991   1.031   4.329   0.591
 1364SOL    HW2 4992   0.933   4.243   0.690
 1365SOL     OW 4993   0.474   3.841   5.401
 1365SOL    HW1 4994   0.461   3.766   5.336
 1365SOL    HW2 4995   0.549   3.899   5.370
 1366SOL     OW 4996   4.348   0.592   0.955
 1366SOL    HW1 4997   4.408   0.654   0.905
 1366SOL    HW2 4998   4.284   0.644   1.011
 1367SOL     OW 4999   1.386   6.888   4.563
 1367SOL    HW1 5000   1.410   6.869   4.468
 1367SOL    HW2 5001   1.423   6.816   4.622
 1368SOL     OW 5002   1.091   6.739   4.824
 1368SOL    HW1 5003   1.097   6.837   4.844
 1368SOL    HW2 5004   1.016   6.722   4.761
 1369SOL     OW 5005   2.709   5.774   3.826
 1369SOL    HW1 5006   2.753   5.762   3.737
 1369SOL    HW2 5007   2.777   5.766   3.899
 1370SOL     OW 5008   6.961   2.498   2.969
 1370SOL    HW1 5009   6.978   2.494   3.068
 1370SOL    HW2 5010   6.893   2.569   2.950
 1371SOL     OW 5011   6.048   2.171   5.523
 1371SOL    HW1 5012   5.980   2.244   5.521
 1371SOL    HW2 5013   6.039   2.120   5.609
 1372SOL     OW 5014   5.777   2.927   0.883
 1372SOL    HW1 5015   5.695   2.983   0.867
 1372SOL    HW2 5016   5.792   2.867   0.804
 1373SOL     OW 5017   5.621   2.706   1.491
 1373SOL    HW1 5018   5.668   2.744   1.570
 1373SOL    HW2 5019   5.676   2.723   1.409
 1374SOL     OW 5020   4.391   3.570   1.705
 1374SOL    HW1 5021   4.386   3.475   1.736
 1374SOL    HW2 5022   4.326   3.625   1.757
 1375SOL     OW 5023   5.519   4.970   4.205
 1375SOL    HW1 5024   5.490   4.889   4.155
 1375SOL    HW2 5025   5.482   4.967   4.298
 1376SOL     OW 5026   3.034   4.539   6.018
 1376SOL    HW1 5027   2.953   4.597   6.008
 1376SOL    HW2 5028   3.115   4.589   5.988
 1377SOL     OW 5029   2.427   1.686   2.883
 1377SOL    HW1 5030   2.432   1.747   2.962
 1377SOL    HW2 5031   2.519   1.665   2.851
 1378SOL     OW 5032   5.270   2.798   4.112
 1378SOL    HW1 5033   5.351   2.813   4.056
 1378SOL    HW2 5034   5.241   2.884   4.154
 1379SOL     OW 5035   4.703   5.421   0.570
 1379SOL    HW1 5036   4.753   5.337   0.592
 1379SOL    HW2 5037   4.650   5.407   0.486
 1380SOL     OW 5038   0.349   5.943   2.711
 1380SOL    HW1 5039   0.413   5.955   2.787
 1380SOL    HW2 5040   0.378   5.999   2.633
 1381SOL     OW 5041   6.208   2.273   6.310
 1381SOL    HW1 5042   6.226   2.199   6.376
 1381SOL    HW2 5043   6.247   2.358   6.345
 1382SOL     OW 5044   4.634   2.419   0.020
 1382SOL    HW1 5045   4.733   2.434   0.021
 1382SOL    HW2 5046   4.587   2.505   0.042
 1383SOL     OW 5047   6.865   0.581   0.923
 1383SOL    HW1 5048   6.802   0.583   1.000
 1383SOL    HW2 5049   6.938   0.515   0.941
 1384SOL     OW 5050   6.186   1.808   1.892
 1384SOL    HW1 5051   6.219   1.842   1.981
 1384SOL    HW2 5052   6.104   1.753   1.906
 1385SOL     OW 5053   0.651   5.655   1.089
 1385SOL    HW1 5054   0.641   5.709   1.005
 1385SOL    HW2 5055   0.577   5.677   1.152
 1386SOL     OW 5056   2.362   5.799   4.049
 1386SOL    HW1 5057   2.392   5.786   3.954
 1386SOL    HW2 5058   2.416   5.872   4.091
 1387SOL     OW 5059   2.595   6.131   1.290
 1387SOL    HW1 5060   2.605   6.045   1.339
 1387SOL    HW2 5061   2.645   6.203   1.338
 1388SOL     OW 5062   7.017   1.026   2.067
 1388SOL    HW1 5063   0.085   0.979   2.060
 1388SOL    HW2 5064   6.959   0.980   2.134
 1389SOL     OW 5065   6.351   1.089   2.516
 1389SOL    HW1 5066   6.383   1.145   2.439
 1389SOL    HW2 5067   6.261   1.051   2.494
 1390SOL     OW 5068   1.519   1.723   4.941
 1390SOL    HW1 5069   1.533   1.651   4.872
 1390SOL    HW2 5070   1.422   1.730   4.962
 1391SOL     OW 5071   0.209   3.276   3.407
 1391SOL    HW1 5072   0.205   3.244   3.502
 1391SOL    HW2 5073   0.144   3.224   3.352
 1392SOL     OW 5074   4.954   4.554   4.321
 1392SOL    HW1 5075   4.882   4.557   4.251
 1392SOL    HW2 5076   4.912   4.563   4.412
 1393SOL     OW 5077   3.033   6.009   5.923
 1393SOL    HW1 5078   3.083   6.092   5.898
 1393SOL    HW2 5079   3.062   5.979   6.014
 1394SOL     OW 5080   1.307   5.892   6.267
 1394SOL    HW1 5081   1.326   5.990   6.260
 1394SOL    HW2 5082   1.256   5.862   6.186
 1395SOL     OW 5083   3.563   4.490   5.968
 1395SOL    HW1 5084   3.522   4.425   5.905
 1395SOL    HW2 5085   3.492   4.535   6.021
 1396SOL     OW 5086   6.206   6.129   3.960
 1396SOL    HW1 5087   6.302   6.121   3.986
 1396SOL    HW2 5088   6.163   6.039   3.961
 1397SOL     OW 5089   4.652   5.991   5.577
 1397SOL    HW1 5090   4.734   5.936   5.563
 1397SOL    HW2 5091   4.577   5.932   5.607
 1398SOL     OW 5092   2.165   1.236   4.503
 1398SOL    HW1 5093   2.162   1.234   4.403
 1398SOL    HW2 5094   2.100   1.169   4.539
 1399SOL     OW 5095   3.129   5.899   1.456
 1399SOL    HW1 5096   3.218   5.941   1.476
 1399SOL    HW2 5097   3.104   5.837   1.530
 1400SOL     OW 5098   2.120   6.820   2.266
 1400SOL    HW1 5099   2.089   6.889   2.332
 1400SOL    HW2 5100   2.113   6.729   2.308
 1401SOL     OW 5101   6.516   1.004   4.747
 1401SOL    HW1 5102   6.449   1.060   4.795
 1401SOL    HW2 5103   6.487   0.992   4.652
 1402SOL     OW 5104   6.848   3.000   0.264
 1402SOL    HW1 5105   6.815   3.006   0.358
 1402SOL    HW2 5106   6.783   2.947   0.209
 1403SOL     OW 5107   3.313   0.620   2.479
 1403SOL    HW1 5108   3.340   0.691   2.414
 1403SOL    HW2 5109   3.394   0.586   2.527
 1404SOL     OW 5110   5.274   1.723   0.357
 1404SOL    HW1 5111   5.213   1.781   0.303
 1404SOL    HW2 5112   5.340   1.781   0.406
 1405SOL     OW 5113   2.986   3.120   1.149
 1405SOL    HW1 5114   3.036   3.150   1.230
 1405SOL    HW2 5115   2.918   3.189   1.124
 1406SOL     OW 5116   1.396   3.971   1.086
 1406SOL    HW1 5117   1.427   3.877   1.096
 1406SOL    HW2 5118   1.474   4.033   1.098
 1407SOL     OW 5119   5.982   2.710   2.976
 1407SOL    HW1 5120   6.013   2.679   3.066
 1407SOL    HW2 5121   6.061   2.720   2.915
 1408SOL     OW 5122   6.572   0.099   6.374
 1408SOL    HW1 5123   6.578   0.180   6.432
 1408SOL    HW2 5124   6.529   0.124   6.287
 1409SOL     OW 5125   0.505   1.789   4.618
 1409SOL    HW1 5126   0.449   1.772   4.699
 1409SOL    HW2 5127   0.456   1.849   4.555
 1410SOL     OW 5128   0.334   2.867   0.083
 1410SOL    HW1 5129   0.246   2.831   0.051
 1410SOL    HW2 5130   0.408   2.813   0.044
 1411SOL     OW 5131   1.817   6.998   1.496
 1411SOL    HW1 5132   1.787   6.954   1.412
 1411SOL    HW2 5133   1.738   0.017   1.543
 1412SOL     OW 5134   1.135   3.217   0.466
 1412SOL    HW1 5135   1.181   3.217   0.554
 1412SOL    HW2 5136   1.175   3.146   0.408
 1413SOL     OW 5137   2.655   6.933   4.218
 1413SOL    HW1 5138   2.720   6.864   4.249
 1413SOL    HW2 5139   2.704   7.008   4.175
 1414SOL     OW 5140   2.699   0.995   1.426
 1414SOL    HW1 5141   2.670   1.068   1.363
 1414SOL    HW2 5142   2.697   1.030   1.520
 1415SOL     OW 5143   4.296   6.199   5.954
 1415SOL    HW1 5144   4.236   6.204   5.874
 1415SOL    HW2 5145   4.390   6.183   5.924
 1416SOL     OW 5146   4.486   5.766   2.655
 1416SOL    HW1 5147   4.435   5.683   2.631
 1416SOL    HW2 5148   4.423   5.835   2.690
 1417SOL     OW 5149   3.118   2.253   6.081
 1417SOL    HW1 5150   3.036   2.310   6.071
 1417SOL    HW2 5151   3.180   2.296   6.146
 1418SOL     OW 5152   3.124   4.040   2.791
 1418SOL    HW1 5153   3.140   4.074   2.698
 1418SOL    HW2 5154   3.074   3.954   2.788
 1419SOL     OW 5155   4.841   6.417   5.322
 1419SOL    HW1 5156   4.828   6.323   5.353
 1419SOL    HW2 5157   4.863   6.418   5.224
 1420SOL     OW 5158   0.501   5.735   2.205
 1420SOL    HW1 5159   0.549   5.736   2.293
 1420SOL    HW2 5160   0.405   5.714   2.220
 1421SOL     OW 5161   3.601   1.253   2.784
 1421SOL    HW1 5162   3.590   1.159   2.819
 1421SOL    HW2 5163   3.695   1.283   2.799
 1422SOL     OW 5164   2.615   6.345   6.906
 1422SOL    HW1 5165   2.537   6.406   6.890
 1422SOL    HW2 5166   2.694   6.377   6.854
 1423SOL     OW 5167   4.710   0.723   2.742
 1423SOL    HW1 5168   4.644   0.783   2.696
 1423SOL    HW2 5169   4.661   0.659   2.801
 1424SOL     OW 5170   6.481   4.777   3.017
 1424SOL    HW1 5171   6.412   4.839   3.053
 1424SOL    HW2 5172   6.436   4.697   2.977
 1425SOL     OW 5173   1.914   0.392   4.784
 1425SOL    HW1 5174   1.815   0.383   4.786
 1425SOL    HW2 5175   1.956   0.310   4.823
 1426SOL     OW 5176   1.110   2.005   5.505
 1426SOL    HW1 5177   1.181   2.013   5.575
 1426SOL    HW2 5178   1.039   1.942   5.536
 1427SOL     OW 5179   6.020   0.478   4.704
 1427SOL    HW1 5180   6.048   0.505   4.612
 1427SOL    HW2 5181   6.101   0.465   4.762
 1428SOL     OW 5182   5.404   1.275   0.266
 1428SOL    HW1 5183   5.329   1.210   0.276
 1428SOL    HW2 5184   5.479   1.249   0.327
 1429SOL     OW 5185   5.795   0.533   0.553
 1429SOL    HW1 5186   5.702   0.495   0.555
 1429SOL    HW2 5187   5.827   0.539   0.459
 1430SOL     OW 5188   2.139   4.972   4.066
 1430SOL    HW1 5189   2.078   4.894   4.080
 1430SOL    HW2 5190   2.141   4.996   3.969
 1431SOL     OW 5191   1.485   0.615   1.016
 1431SOL    HW1 5192   1.400   0.566   0.995
 1431SOL    HW2 5193   1.563   0.557   0.993
 1432SOL     OW 5194   2.185   0.834   2.163
 1432SOL    HW1 5195   2.106   0.777   2.140
 1432SOL    HW2 5196   2.188   0.913   2.102
 1433SOL     OW 5197   4.914   0.948   3.994
 1433SOL    HW1 5198   5.004   0.919   4.028
 1433SOL    HW2 5199   4.890   1.036   4.035
 1434SOL     OW 5200   1.384   0.827   5.365
 1434SOL    HW1 5201   1.425   0.917   5.376
 1434SOL    HW2 5202   1.320   0.828   5.288
 1435SOL     OW 5203   0.181   1.920   3.429
 1435SOL    HW1 5204   0.091   1.953   3.401
 1435SOL    HW2 5205   0.250   1.958   3.367
 1436SOL     OW 5206   4.489   3.761   0.658
 1436SOL    HW1 5207   4.501   3.852   0.698
 1436SOL    HW2 5208   4.412   3.714   0.703
 1437SOL     OW 5209   3.850   1.346   2.171
 1437SOL    HW1 5210   3.847   1.246   2.164
 1437SOL    HW2 5211   3.933   1.373   2.220
 1438SOL     OW 5212   1.995   0.594   1.044
 1438SOL    HW1 5213   1.938   0.541   1.107
 1438SOL    HW2 5214   2.082   0.547   1.030
 1439SOL     OW 5215   0.664   5.824   2.686
 1439SOL    HW1 5216   0.663   5.924   2.677
 1439SOL    HW2 5217   0.639   5.782   2.599
 1440SOL     OW 5218   2.560   3.471   1.695
 1440SOL    HW1 5219   2.477   3.492   1.746
 1440SOL    HW2 5220   2.568   3.372   1.685
 1441SOL     OW 5221   5.380   6.140   0.931
 1441SOL    HW1 5222   5.359   6.086   1.012
 1441SOL    HW2 5223   5.328   6.105   0.853
 1442SOL     OW 5224   5.019   5.840   0.705
 1442SOL    HW1 5225   5.044   5.856   0.609
 1442SOL    HW2 5226   5.087   5.780   0.747
 1443SOL     OW 5227   0.333   3.015   3.033
 1443SOL    HW1 5228   0.281   3.092   2.995
 1443SOL    HW2 5229   0.430   3.035   3.028
 1444SOL     OW 5230   6.419   4.874   6.960
 1444SOL    HW1 5231   6.428   4.829   0.028
 1444SOL    HW2 5232   6.496   4.938   6.947
 1445SOL     OW 5233   1.006   3.504   1.547
 1445SOL    HW1 5234   0.911   3.531   1.564
 1445SOL    HW2 5235   1.066   3.583   1.559
 1446SOL     OW 5236   6.319   6.701   0.994
 1446SOL    HW1 5237   6.377   6.782   0.983
 1446SOL    HW2 5238   6.321   6.646   0.911
 1447SOL     OW 5239   6.058   5.302   4.550
 1447SOL    HW1 5240   5.965   5.330   4.573
 1447SOL    HW2 5241   6.086   5.226   4.610
 1448SOL     OW 5242   1.127   3.267   5.841
 1448SOL    HW1 5243   1.186   3.341   5.807
 1448SOL    HW2 5244   1.070   3.301   5.916
 1449SOL     OW 5245   2.112   3.305   3.464
 1449SOL    HW1 5246   2.102   3.374   3.536
 1449SOL    HW2 5247   2.204   3.266   3.467
 1450SOL     OW 5248   2.455   2.621   3.796
 1450SOL    HW1 5249   2.460   2.616   3.896
 1450SOL    HW2 5250   2.526   2.563   3.756
 1451SOL     OW 5251   2.785   1.037   2.811
 1451SOL    HW1 5252   2.828   1.026   2.721
 1451SOL    HW2 5253   2.854   1.051   2.881
 1452SOL     OW 5254   5.147   2.956   6.570
 1452SOL    HW1 5255   5.206   2.927   6.645
 1452SOL    HW2 5256   5.175   3.046   6.539
 1453SOL     OW 5257   6.595   4.593   5.762
 1453SOL    HW1 5258   6.661   4.621   5.692
 1453SOL    HW2 5259   6.639   4.590   5.851
 1454SOL     OW 5260   3.491   2.127   3.465
 1454SOL    HW1 5261   3.561   2.200   3.463
 1454SOL    HW2 5262   3.531   2.043   3.429
 1455SOL     OW 5263   0.514   5.849   1.676
 1455SOL    HW1 5264   0.418   5.823   1.684
 1455SOL    HW2 5265   0.526   5.944   1.703
 1456SOL     OW 5266   6.320   4.907   4.025
 1456SOL    HW1 5267   6.364   4.995   4.041
 1456SOL    HW2 5268   6.353   4.840   4.092
 1457SOL     OW 5269   1.103   5.633   6.155
 1457SOL    HW1 5270   1.021   5.589   6.194
 1457SOL    HW2 5271   1.181   5.571   6.163
 1458SOL     OW 5272   5.094   5.290   5.201
 1458SOL    HW1 5273   5.077   5.218   5.269
 1458SOL    HW2 5274   5.127   5.372   5.248
 1459SOL     OW 5275   5.959   6.375   5.586
 1459SOL    HW1 5276   5.980   6.415   5.497
 1459SOL    HW2 5277   6.033   6.396   5.650
 1460SOL     OW 5278   1.273   6.430   4.738
 1460SOL    HW1 5279   1.199   6.378   4.697
 1460SOL    HW2 5280   1.248   6.458   4.831
 1461SOL     OW 5281   6.469   3.073   3.864
 1461SOL    HW1 5282   6.374   3.084   3.835
 1461SOL    HW2 5283   6.499   2.979   3.848
 1462SOL     OW 5284   0.328   0.803   1.803
 1462SOL    HW1 5285   0.408   0.858   1.782
 1462SOL    HW2 5286   0.254   0.826   1.739
 1463SOL     OW 5287   2.372   5.398   6.990
 1463SOL    HW1 5288   2.464   5.383   6.954
 1463SOL    HW2 5289   2.377   5.455   0.052
 1464SOL     OW 5290   1.300   3.981   3.979
 1464SOL    HW1 5291   1.286   4.073   4.016
 1464SOL    HW2 5292   1.389   3.946   4.010
 1465SOL     OW 5293   0.888   2.981   3.931
 1465SOL    HW1 5294   0.962   2.967   3.865
 1465SOL    HW2 5295   0.925   3.023   4.014
 1466SOL     OW 5296   5.428   2.629   2.441
 1466SOL    HW1 5297   5.506   2.626   2.502
 1466SOL    HW2 5298   5.355   2.571   2.476
 1467SOL     OW 5299   0.771   0.917   4.011
 1467SOL    HW1 5300   0.811   0.847   4.071
 1467SOL    HW2 5301   0.812   1.006   4.031
 1468SOL     OW 5302   2.852   5.120   2.631
 1468SOL    HW1 5303   2.830   5.049   2.563
 1468SOL    HW2 5304   2.906   5.192   2.588
 1469SOL     OW 5305   5.966   3.911   2.963
 1469SOL    HW1 5306   5.929   3.998   2.930
 1469SOL    HW2 5307   5.907   3.836   2.932
 1470SOL     OW 5308   6.081   1.423   1.774
 1470SOL    HW1 5309   6.144   1.345   1.771
 1470SOL    HW2 5310   5.990   1.393   1.746
 1471SOL     OW 5311   4.519   6.769   1.253
 1471SOL    HW1 5312   4.514   6.712   1.171
 1471SOL    HW2 5313   4.430   6.770   1.299
 1472SOL     OW 5314   2.176   0.436   6.093
 1472SOL    HW1 5315   2.089   0.396   6.065
 1472SOL    HW2 5316   2.236   0.447   6.014
 1473SOL     OW 5317   1.706   5.833   3.734
 1473SOL    HW1 5318   1.725   5.735   3.743
 1473SOL    HW2 5319   1.693   5.856   3.637
 1474SOL     OW 5320   2.548   4.957   0.954
 1474SOL    HW1 5321   2.591   4.922   0.871
 1474SOL    HW2 5322   2.617   5.000   1.012
 1475SOL     OW 5323   5.613   0.367   6.247
 1475SOL    HW1 5324   5.613   0.282   6.300
 1475SOL    HW2 5325   5.684   0.362   6.176
 1476SOL     OW 5326   4.838   0.737   0.612
 1476SOL    HW1 5327   4.771   0.727   0.538
 1476SOL    HW2 5328   4.809   0.682   0.691
 1477SOL     OW 5329   3.618   4.805   1.470
 1477SOL    HW1 5330   3.644   4.859   1.390
 1477SOL    HW2 5331   3.540   4.746   1.447
 1478SOL     OW 5332   4.578   5.094   6.824
 1478SOL    HW1 5333   4.539   5.079   6.914
 1478SOL    HW2 5334   4.625   5.011   6.794
 1479SOL     OW 5335   3.927   3.467   1.472
 1479SOL    HW1 5336   3.838   3.486   1.430
 1479SOL    HW2 5337   3.984   3.414   1.409
 1480SOL     OW 5338   3.136   0.486   4.380
 1480SOL    HW1 5339   3.079   0.507   4.460
 1480SOL    HW2 5340   3.132   0.563   4.316
 1481SOL     OW 5341   5.525   2.512   6.323
 1481SOL    HW1 5342   5.528   2.514   6.223
 1481SOL    HW2 5343   5.562   2.425   6.355
 1482SOL     OW 5344   5.344   1.259   1.212
 1482SOL    HW1 5345   5.303   1.298   1.129
 1482SOL    HW2 5346   5.292   1.288   1.292
 1483SOL     OW 5347   5.871   0.919   6.925
 1483SOL    HW1 5348   5.820   0.981   6.866
 1483SOL    HW2 5349   5.893   0.836   6.875
 1484SOL     OW 5350   3.564   5.960   5.061
 1484SOL    HW1 5351   3.531   5.897   5.132
 1484SOL    HW2 5352   3.562   5.915   4.972
 1485SOL     OW 5353   5.389   2.598   3.334
 1485SOL    HW1 5354   5.298   2.636   3.352
 1485SOL    HW2 5355   5.458   2.654   3.378
 1486SOL     OW 5356   4.676   6.670   3.655
 1486SOL    HW1 5357   4.756   6.669   3.715
 1486SOL    HW2 5358   4.612   6.599   3.683
 1487SOL     OW 5359   6.171   0.728   0.417
 1487SOL    HW1 5360   6.118   0.732   0.332
 1487SOL    HW2 5361   6.114   0.759   0.493
 1488SOL     OW 5362   6.658   1.948   2.874
 1488SOL    HW1 5363   6.746   1.994   2.885
 1488SOL    HW2 5364   6.667   1.874   2.808
 1489SOL     OW 5365   3.241   4.404   0.536
 1489SOL    HW1 5366   3.286   4.471   0.477
 1489SOL    HW2 5367   3.219   4.323   0.482
 1490SOL     OW 5368   6.592   2.407   2.226
 1490SOL    HW1 5369   6.608   2.482   2.291
 1490SOL    HW2 5370   6.554   2.444   2.142
 1491SOL     OW 5371   6.052   2.636   4.047
 1491SOL    HW1 5372   6.001   2.673   4.124
 1491SOL    HW2 5373   6.109   2.708   4.007
 1492SOL     OW 5374   6.412   1.416   3.553
 1492SOL    HW1 5375   6.440   1.432   3.458
 1492SOL    HW2 5376   6.487   1.376   3.604
 1493SOL     OW 5377   5.025   1.859   6.086
 1493SOL    HW1 5378   5.070   1.775   6.055
 1493SOL    HW2 5379   4.986   1.845   6.176
 1494SOL     OW 5380   6.289   4.582   5.970
 1494SOL    HW1 5381   6.305   4.540   5.881
 1494SOL    HW2 5382   6.327   4.523   6.042
 1495SOL     OW 5383   0.166   3.929   4.189
 1495SOL    HW1 5384   0.109   3.847   4.184
 1495SOL    HW2 5385   0.160   3.979   4.102
 1496SOL     OW 5386   6.213   6.198   6.361
 1496SOL    HW1 5387   6.163   6.124   6.317
 1496SOL    HW2 5388   6.285   6.160   6.419
 1497SOL     OW 5389   6.015   2.623   2.700
 1497SOL    HW1 5390   6.081   2.692   2.731
 1497SOL    HW2 5391   5.950   2.604   2.774
 1498SOL     OW 5392   3.249   3.639   0.772
 1498SOL    HW1 5393   3.272   3.548   0.736
 1498SOL    HW2 5394   3.164   3.671   0.729
 1499SOL     OW 5395   0.357   4.590   4.768
 1499SOL    HW1 5396   0.409   4.646   4.703
 1499SOL    HW2 5397   0.393   4.497   4.768
 1500SOL     OW 5398   0.659   6.057   1.822
 1500SOL    HW1 5399   0.639   6.147   1.784
 1500SOL    HW2 5400   0.646   6.058   1.921
 1501SOL     OW 5401   5.703   1.630   0.441
 1501SOL    HW1 5402   5.612   1.590   0.434
 1501SOL    HW2 5403   5.747   1.630   0.352
 1502SOL     OW 5404   6.447   0.138   6.028
 1502SOL    HW1 5405   6.401   0.172   6.110
 1502SOL    HW2 5406   6.477   0.215   5.972
 1503SOL     OW 5407   0.368   4.709   1.353
 1503SOL    HW1 5408   0.299   4.690   1.422
 1503SOL    HW2 5409   0.340   4.789   1.299
 1504SOL     OW 5410   2.075   0.025   2.418
 1504SOL    HW1 5411   2.150   0.075   2.461
 1504SOL    HW2 5412   2.031   0.084   2.350
 1505SOL     OW 5413   6.143   5.130   4.955
 1505SOL    HW1 5414   6.071   5.182   4.999
 1505SOL    HW2 5415   6.124   5.122   4.857
 1506SOL     OW 5416   0.459   1.413   1.094
 1506SOL    HW1 5417   0.466   1.422   0.994
 1506SOL    HW2 5418   0.480   1.318   1.120
 1507SOL     OW 5419   1.575   2.635   4.012
 1507SOL    HW1 5420   1.668   2.635   4.050
 1507SOL    HW2 5421   1.534   2.544   4.026
 1508SOL     OW 5422   1.620   0.732   1.229
 1508SOL    HW1 5423   1.563   0.734   1.147
 1508SOL    HW2 5424   1.674   0.815   1.234
 1509SOL     OW 5425   5.085   1.177   4.610
 1509SOL    HW1 5426   5.077   1.078   4.617
 1509SOL    HW2 5427   5.061   1.205   4.517
 1510SOL     OW 5428   3.599   6.391   4.385
 1510SOL    HW1 5429   3.603   6.476   4.332
 1510SOL    HW2 5430   3.534   6.402   4.460
 1511SOL     OW 5431   2.889   3.573   4.833
 1511SOL    HW1 5432   2.922   3.586   4.926
 1511SOL    HW2 5433   2.798   3.613   4.824
 1512SOL     OW 5434   5.656   6.685   0.970
 1512SOL    HW1 5435   5.587   6.709   1.039
 1512SOL    HW2 5436   5.649   6.748   0.893
 1513SOL     OW 5437   2.641   0.052   5.946
 1513SOL    HW1 5438   2.731   0.010   5.934
 1513SOL    HW2 5439   2.578   7.005   5.984
 1514SOL     OW 5440   2.968   2.854   6.238
 1514SOL    HW1 5441   2.982   2.756   6.225
 1514SOL    HW2 5442   2.911   2.890   6.164
 1515SOL     OW 5443   4.843   0.944   2.377
 1515SOL    HW1 5444   4.836   0.906   2.470
 1515SOL    HW2 5445   4.930   0.915   2.337
 1516SOL     OW 5446   5.911   0.296   5.204
 1516SOL    HW1 5447   5.930   0.380   5.153
 1516SOL    HW2 5448   5.843   0.315   5.276
 1517SOL     OW 5449   3.590   6.127   3.943
 1517SOL    HW1 5450   3.530   6.048   3.961
 1517SOL    HW2 5451   3.548   6.185   3.873
 1518SOL     OW 5452   0.776   2.897   6.938
 1518SOL    HW1 5453   0.851   2.835   6.963
 1518SOL    HW2 5454   0.689   2.851   6.955
 1519SOL     OW 5455   6.535   5.387   6.817
 1519SOL    HW1 5456   6.608   5.351   6.758
 1519SOL    HW2 5457   6.447   5.347   6.789
 1520SOL     OW 5458   0.421   6.361   2.999
 1520SOL    HW1 5459   0.353   6.309   2.947
 1520SOL    HW2 5460   0.485   6.405   2.936
 1521SOL     OW 5461   2.064   5.118   6.084
 1521SOL    HW1 5462   2.162   5.099   6.074
 1521SOL    HW2 5463   2.040   5.201   6.032
 1522SOL     OW 5464   5.833   6.302   4.202
 1522SOL    HW1 5465   5.895   6.224   4.192
 1522SOL    HW2 5466   5.833   6.355   4.118
 1523SOL     OW 5467   3.677   6.441   0.691
 1523SOL    HW1 5468   3.588   6.446   0.738
 1523SOL    HW2 5469   3.743   6.498   0.739
 1524SOL     OW 5470   2.682   1.602   2.835
 1524SOL    HW1 5471   2.769   1.650   2.829
 1524SOL    HW2 5472   2.696   1.505   2.819
 1525SOL     OW 5473   5.446   3.741   6.905
 1525SOL    HW1 5474   5.445   3.832   6.864
 1525SOL    HW2 5475   5.358   3.724   6.949
 1526SOL     OW 5476   1.067   1.307   0.459
 1526SOL    HW1 5477   0.985   1.262   0.423
 1526SOL    HW2 5478   1.149   1.260   0.425
 1527SOL     OW 5479   4.484   2.151   3.806
 1527SOL    HW1 5480   4.416   2.224   3.808
 1527SOL    HW2 5481   4.466   2.091   3.728
 1528SOL     OW 5482   3.735   4.064   2.308
 1528SOL    HW1 5483   3.650   4.059   2.256
 1528SOL    HW2 5484   3.741   4.151   2.355
 1529SOL     OW 5485   4.042   1.407   5.858
 1529SOL    HW1 5486   3.991   1.413   5.944
 1529SOL    HW2 5487   3.980   1.381   5.784
 1530SOL     OW 5488   3.182   6.531   1.155
 1530SOL    HW1 5489   3.099   6.515   1.103
 1530SOL    HW2 5490   3.207   6.628   1.151
 1531SOL     OW 5491   4.591   6.581   4.390
 1531SOL    HW1 5492   4.522   6.522   4.348
 1531SOL    HW2 5493   4.546   6.657   4.437
 1532SOL     OW 5494   3.428   5.591   6.544
 1532SOL    HW1 5495   3.334   5.557   6.537
 1532SOL    HW2 5496   3.491   5.519   6.516
 1533SOL     OW 5497   6.097   5.515   1.323
 1533SOL    HW1 5498   6.036   5.474   1.391
 1533SOL    HW2 5499   6.175   5.454   1.307
 1534SOL     OW 5500   3.699   4.875   6.538
 1534SOL    HW1 5501   3.652   4.814   6.601
 1534SOL    HW2 5502   3.673   4.852   6.444
 1535SOL     OW 5503   5.646   5.204   4.121
 1535SOL    HW1 5504   5.613   5.117   4.159
 1535SOL    HW2 5505   5.742   5.216   4.144
 1536SOL     OW 5506   4.911   3.320   6.676
 1536SOL    HW1 5507   5.001   3.277   6.679
 1536SOL    HW2 5508   4.899   3.369   6.589
 1537SOL     OW 5509   2.658   5.009   3.077
 1537SOL    HW1 5510   2.646   5.013   2.978
 1537SOL    HW2 5511   2.583   4.957   3.118
 1538SOL     OW 5512   2.661   1.173   0.245
 1538SOL    HW1 5513   2.669   1.078   0.214
 1538SOL    HW2 5514   2.622   1.229   0.172
 1539SOL     OW 5515   5.986   3.160   0.471
 1539SOL    HW1 5516   6.082   3.132   0.475
 1539SOL    HW2 5517   5.928   3.080   0.458
 1540SOL     OW 5518   3.416   6.993   4.047
 1540SOL    HW1 5519   3.448   6.997   4.141
 1540SOL    HW2 5520   3.415   0.065   4.008
 1541SOL     OW 5521   3.712   3.391   5.650
 1541SOL    HW1 5522   3.744   3.301   5.680
 1541SOL    HW2 5523   3.615   3.401   5.672
 1542SOL     OW 5524   0.349   6.570   2.071
 1542SOL    HW1 5525   0.362   6.650   2.129
 1542SOL    HW2 5526   0.436   6.545   2.028
 1543SOL     OW 5527   3.108   4.575   0.116
 1543SOL    HW1 5528   3.194   4.563   0.165
 1543SOL    HW2 5529   3.066   4.661   0.144
 1544SOL     OW 5530   3.771   3.496   3.892
 1544SOL    HW1 5531   3.731   3.423   3.836
 1544SOL    HW2 5532   3.730   3.584   3.867
 1545SOL     OW 5533   5.862   5.956   1.855
 1545SOL    HW1 5534   5.787   5.915   1.803
 1545SOL    HW2 5535   5.825   6.016   1.926
 1546SOL     OW 5536   5.434   6.659   5.742
 1546SOL    HW1 5537   5.379   6.699   5.814
 1546SOL    HW2 5538   5.424   6.713   5.658
 1547SOL     OW 5539   1.965   3.183   6.366
 1547SOL    HW1 5540   2.014   3.250   6.310
 1547SOL    HW2 5541   1.871   3.174   6.333
 1548SOL     OW 5542   6.434   1.925   6.940
 1548SOL    HW1 5543   6.478   1.969   7.019
 1548SOL    HW2 5544   6.454   1.827   6.941
 1549SOL     OW 5545   4.805   0.663   4.792
 1549SOL    HW1 5546   4.766   0.706   4.874
 1549SOL    HW2 5547   4.843   0.573   4.817
 1550SOL     OW 5548   3.818   2.996   4.005
 1550SOL    HW1 5549   3.786   2.978   3.912
 1550SOL    HW2 5550   3.836   3.094   4.015
 1551SOL     OW 5551   6.108   4.790   5.846
 1551SOL    HW1 5552   6.177   4.720   5.865
 1551SOL    HW2 5553   6.092   4.844   5.928
 1552SOL     OW 5554   1.842   4.432   1.344
 1552SOL    HW1 5555   1.878   4.348   1.386
 1552SOL    HW2 5556   1.808   4.493   1.416
 1553SOL     OW 5557   1.435   1.723   5.878
 1553SOL    HW1 5558   1.510   1.787   5.896
 1553SOL    HW2 5559   1.471   1.642   5.831
 1554SOL     OW 5560   3.088   1.546   3.797
 1554SOL    HW1 5561   3.138   1.563   3.712
 1554SOL    HW2 5562   3.036   1.461   3.789
 1555SOL     OW 5563   6.433   4.117   5.731
 1555SOL    HW1 5564   6.470   4.024   5.732
 1555SOL    HW2 5565   6.502   4.180   5.697
 1556SOL     OW 5566   2.188   0.886   5.970
 1556SOL    HW1 5567   2.139   0.844   5.893
 1556SOL    HW2 5568   2.285   0.861   5.966
 1557SOL     OW 5569   0.181   2.817   6.364
 1557SOL    HW1 5570   0.162   2.772   6.451
 1557SOL    HW2 5571   0.209   2.912   6.380
 1558SOL     OW 5572   0.580   6.832   4.845
 1558SOL    HW1 5573   0.517   6.783   4.907
 1558SOL    HW2 5574   0.670   6.791   4.849
 1559SOL     OW 5575   1.210   1.890   6.569
 1559SOL    HW1 5576   1.230   1.929   6.479
 1559SOL    HW2 5577   1.126   1.836   6.564
 1560SOL     OW 5578   7.003   0.272   6.653
 1560SOL    HW1 5579   7.017   0.184   6.607
 1560SOL    HW2 5580   0.025   0.269   6.744
 1561SOL     OW 5581   5.736   5.882   2.570
 1561SOL    HW1 5582   5.708   5.975   2.594
 1561SOL    HW2 5583   5.655   5.828   2.547
 1562SOL     OW 5584   6.217   0.586   3.510
 1562SOL    HW1 5585   6.146   0.522   3.479
 1562SOL    HW2 5586   6.174   0.666   3.551
 1563SOL     OW 5587   3.887   6.971   5.007
 1563SOL    HW1 5588   3.984   6.995   5.017
 1563SOL    HW2 5589   3.878   6.897   4.941
 1564SOL     OW 5590   1.043   2.188   2.339
 1564SOL    HW1 5591   1.107   2.135   2.283
 1564SOL    HW2 5592   0.959   2.136   2.352
 1565SOL     OW 5593   5.712   4.549   1.630
 1565SOL    HW1 5594   5.806   4.531   1.657
 1565SOL    HW2 5595   5.661   4.586   1.708
 1566SOL     OW 5596   5.922   4.670   3.139
 1566SOL    HW1 5597   5.932   4.691   3.236
 1566SOL    HW2 5598   5.873   4.584   3.128
 1567SOL     OW 5599   6.522   5.918   5.357
 1567SOL    HW1 5600   6.426   5.934   5.380
 1567SOL    HW2 5601   6.565   6.004   5.331
 1568SOL     OW 5602   0.515   0.013   0.056
 1568SOL    HW1 5603   0.509   6.968   0.132
 1568SOL    HW2 5604   0.565   6.992   7.000
 1569SOL     OW 5605   3.537   6.672   4.527
 1569SOL    HW1 5606   3.472   6.599   4.552
 1569SOL    HW2 5607   3.546   6.735   4.604
 1570SOL     OW 5608   3.150   2.153   1.777
 1570SOL    HW1 5609   3.088   2.146   1.854
 1570SOL    HW2 5610   3.142   2.071   1.720
 1571SOL     OW 5611   6.307   4.303   0.640
 1571SOL    HW1 5612   6.386   4.250   0.610
 1571SOL    HW2 5613   6.291   4.287   0.738
 1572SOL     OW 5614   1.284   5.946   2.538
 1572SOL    HW1 5615   1.350   5.938   2.613
 1572SOL    HW2 5616   1.326   5.997   2.463
 1573SOL     OW 5617   3.812   0.150   0.752
 1573SOL    HW1 5618   3.800   0.106   0.841
 1573SOL    HW2 5619   3.825   0.248   0.764
 1574SOL     OW 5620   6.302   2.999   2.478
 1574SOL    HW1 5621   6.394   2.963   2.495
 1574SOL    HW2 5622   6.302   3.054   2.395
 1575SOL     OW 5623   3.190   2.260   0.329
 1575SOL    HW1 5624   3.220   2.301   0.415
 1575SOL    HW2 5625   3.096   2.289   0.310
 1576SOL     OW 5626   6.620   5.829   3.541
 1576SOL    HW1 5627   6.525   5.858   3.530
 1576SOL    HW2 5628   6.633   5.787   3.631
 1577SOL     OW 5629   1.416   0.578   0.126
 1577SOL    HW1 5630   1.396   0.496   0.073
 1577SOL    HW2 5631   1.515   0.587   0.138
 1578SOL     OW 5632   5.777   5.565   4.507
 1578SOL    HW1 5633   5.688   5.607   4.491
 1578SOL    HW2 5634   5.774   5.469   4.477
 1579SOL     OW 5635   0.708   6.954   3.344
 1579SOL    HW1 5636   0.793   6.912   3.377
 1579SOL    HW2 5637   0.646   6.882   3.312
 1580SOL     OW 5638   3.357   3.867   5.917
 1580SOL    HW1 5639   3.269   3.856   5.869
 1580SOL    HW2 5640   3.380   3.781   5.962
 1581SOL     OW 5641   6.496   4.056   4.082
 1581SOL    HW1 5642   6.485   3.966   4.040
 1581SOL    HW2 5643   6.484   4.127   4.012
 1582SOL     OW 5644   6.107   5.546   4.429
 1582SOL    HW1 5645   6.078   5.461   4.474
 1582SOL    HW2 5646   6.075   5.624   4.482
 1583SOL     OW 5647   2.184   2.397   2.740
 1583SOL    HW1 5648   2.106   2.449   2.773
 1583SOL    HW2 5649   2.154   2.331   2.670
 1584SOL     OW 5650   1.980   0.644   6.245
 1584SOL    HW1 5651   1.888   0.603   6.252
 1584SOL    HW2 5652   2.034   0.593   6.179
 1585SOL     OW 5653   6.205   1.364   5.466
 1585SOL    HW1 5654   6.268   1.381   5.390
 1585SOL    HW2 5655   6.219   1.431   5.538
 1586SOL     OW 5656   3.781   4.016   3.049
 1586SOL    HW1 5657   3.796   4.029   3.147
 1586SOL    HW2 5658   3.732   4.095   3.012
 1587SOL     OW 5659   2.284   6.508   6.365
 1587SOL    HW1 5660   2.230   6.555   6.295
 1587SOL    HW2 5661   2.373   6.552   6.375
 1588SOL     OW 5662   6.009   3.889   1.090
 1588SOL    HW1 5663   6.006   3.803   1.142
 1588SOL    HW2 5664   6.021   3.965   1.153
 1589SOL     OW 5665   5.029   4.078   3.816
 1589SOL    HW1 5666   4.938   4.084   3.857
 1589SOL    HW2 5667   5.066   4.170   3.804
 1590SOL     OW 5668   2.152   0.723   5.733
 1590SOL    HW1 5669   2.193   0.634   5.713
 1590SOL    HW2 5670   2.053   0.712   5.747
 1591SOL     OW 5671   0.441   4.059   1.475
 1591SOL    HW1 5672   0.450   4.158   1.487
 1591SOL    HW2 5673   0.446   4.014   1.565
 1592SOL     OW 5674   2.983   3.627   3.352
 1592SOL    HW1 5675   2.954   3.594   3.263
 1592SOL    HW2 5676   3.020   3.551   3.406
 1593SOL     OW 5677   1.024   5.351   5.060
 1593SOL    HW1 5678   1.029   5.437   5.110
 1593SOL    HW2 5679   1.038   5.275   5.124
 1594SOL     OW 5680   0.531   5.047   3.283
 1594SOL    HW1 5681   0.479   5.045   3.198
 1594SOL    HW2 5682   0.522   5.137   3.326
 1595SOL     OW 5683   7.004   5.278   5.863
 1595SOL    HW1 5684   6.984   5.181   5.872
 1595SOL    HW2 5685   0.082   5.291   5.847
 1596SOL     OW 5686   3.078   4.722   6.682
 1596SOL    HW1 5687   3.023   4.791   6.634
 1596SOL    HW2 5688   3.024   4.639   6.692
 1597SOL     OW 5689   2.626   0.046   0.890
 1597SOL    HW1 5690   2.582   6.983   0.857
 1597SOL    HW2 5691   2.724   0.042   0.870
 1598SOL     OW 5692   6.943   5.374   1.689
 1598SOL    HW1 5693   6.993   5.332   1.613
 1598SOL    HW2 5694   7.008   5.403   1.760
 1599SOL     OW 5695   3.432   4.870   0.082
 1599SOL    HW1 5696   3.503   4.883   0.014
 1599SOL    HW2 5697   3.430   4.949   0.144
 1600SOL     OW 5698   3.371   1.451   5.217
 1600SOL    HW1 5699   3.441   1.381   5.225
 1600SOL    HW2 5700   3.414   1.539   5.198
 1601SOL     OW 5701   1.283   4.456   4.788
 1601SOL    HW1 5702   1.293   4.402   4.705
 1601SOL    HW2 5703   1.187   4.483   4.799
 1602SOL     OW 5704   0.350   4.919   2.700
 1602SOL    HW1 5705   0.257   4.915   2.663
 1602SOL    HW2 5706   0.409   4.971   2.638
 1603SOL     OW 5707   5.850   6.635   1.167
 1603SOL    HW1 5708   5.792   6.657   1.089
 1603SOL    HW2 5709   5.869   6.536   1.167
 1604SOL     OW 5710   0.186   5.539   5.140
 1604SOL    HW1 5711   0.285   5.539   5.125
 1604SOL    HW2 5712   0.162   5.464   5.202
 1605SOL     OW 5713   4.911   6.608   2.801
 1605SOL    HW1 5714   4.949   6.677   2.863
 1605SOL    HW2 5715   4.812   6.603   2.813
 1606SOL     OW 5716   4.943   6.964   5.720
 1606SOL    HW1 5717   4.847   6.940   5.705
 1606SOL    HW2 5718   5.001   6.893   5.681
 1607SOL     OW 5719   4.945   2.357   0.565
 1607SOL    HW1 5720   4.845   2.362   0.562
 1607SOL    HW2 5721   4.983   2.412   0.490
 1608SOL     OW 5722   2.307   0.125   0.473
 1608SOL    HW1 5723   2.216   0.162   0.492
 1608SOL    HW2 5724   2.317   0.036   0.517
 1609SOL     OW 5725   5.360   1.347   5.491
 1609SOL    HW1 5726   5.430   1.383   5.552
 1609SOL    HW2 5727   5.308   1.423   5.452
 1610SOL     OW 5728   5.586   6.207   4.288
 1610SOL    HW1 5729   5.520   6.283   4.292
 1610SOL    HW2 5730   5.676   6.244   4.266
 1611SOL     OW 5731   3.759   3.404   1.226
 1611SOL    HW1 5732   3.829   3.337   1.250
 1611SOL    HW2 5733   3.729   3.390   1.132
 1612SOL     OW 5734   3.260   1.528   4.431
 1612SOL    HW1 5735   3.254   1.500   4.335
 1612SOL    HW2 5736   3.278   1.447   4.488
 1613SOL     OW 5737   1.854   6.521   1.124
 1613SOL    HW1 5738   1.946   6.554   1.100
 1613SOL    HW2 5739   1.862   6.437   1.177
 1614SOL     OW 5740   0.407   2.857   6.706
 1614SOL    HW1 5741   0.360   2.867   6.619
 1614SOL    HW2 5742   0.447   2.945   6.733
 1615SOL     OW 5743   6.223   5.000   6.326
 1615SOL    HW1 5744   6.184   4.970   6.239
 1615SOL    HW2 5745   6.292   4.935   6.357
 1616SOL     OW 5746   2.295   1.992   5.696
 1616SOL    HW1 5747   2.198   2.016   5.692
 1616SOL    HW2 5748   2.311   1.908   5.644
 1617SOL     OW 5749   4.776   0.903   4.472
 1617SOL    HW1 5750   4.845   0.943   4.411
 1617SOL    HW2 5751   4.731   0.976   4.523
 1618SOL     OW 5752   5.587   2.530   1.048
 1618SOL    HW1 5753   5.569   2.500   0.954
 1618SOL    HW2 5754   5.579   2.452   1.110
 1619SOL     OW 5755   1.768   3.085   4.496
 1619SOL    HW1 5756   1.787   3.045   4.586
 1619SOL    HW2 5757   1.843   3.147   4.472
 1620SOL     OW 5758   3.830   5.620   1.734
 1620SOL    HW1 5759   3.918   5.629   1.688
 1620SOL    HW2 5760   3.841   5.565   1.816
 1621SOL     OW 5761   2.132   1.395   1.557
 1621SOL    HW1 5762   2.156   1.310   1.604
 1621SOL    HW2 5763   2.127   1.469   1.624
 1622SOL     OW 5764   2.258   2.233   4.689
 1622SOL    HW1 5765   2.251   2.295   4.610
 1622SOL    HW2 5766   2.352   2.236   4.724
 1623SOL     OW 5767   2.478   2.209   4.844
 1623SOL    HW1 5768   2.524   2.272   4.906
 1623SOL    HW2 5769   2.516   2.117   4.855
 1624SOL     OW 5770   2.392   0.591   0.562
 1624SOL    HW1 5771   2.383   0.690   0.572
 1624SOL    HW2 5772   2.304   0.548   0.584
 1625SOL     OW 5773   6.951   5.497   2.229
 1625SOL    HW1 5774   6.929   5.576   2.172
 1625SOL    HW2 5775   0.020   5.461   2.202
 1626SOL     OW 5776   1.773   3.408   6.132
 1626SOL    HW1 5777   1.837   3.387   6.058
 1626SOL    HW2 5778   1.713   3.330   6.147
 1627SOL     OW 5779   5.153   3.266   3.739
 1627SOL    HW1 5780   5.172   3.208   3.660
 1627SOL    HW2 5781   5.070   3.320   3.722
 1628SOL     OW 5782   2.763   2.975   0.611
 1628SOL    HW1 5783   2.812   3.035   0.548
 1628SOL    HW2 5784   2.692   2.925   0.562
 1629SOL     OW 5785   4.327   2.069   3.281
 1629SOL    HW1 5786   4.260   2.140   3.259
 1629SOL    HW2 5787   4.350   2.018   3.198
 1630SOL     OW 5788   0.522   4.762   4.584
 1630SOL    HW1 5789   0.526   4.710   4.499
 1630SOL    HW2 5790   0.432   4.805   4.592
 1631SOL     OW 5791   0.377   6.726   5.623
 1631SOL    HW1 5792   0.367   6.825   5.618
 1631SOL    HW2 5793   0.387   6.697   5.718
 1632SOL     OW 5794   5.808   0.262   1.580
 1632SOL    HW1 5795   5.780   0.333   1.516
 1632SOL    HW2 5796   5.906   0.272   1.599
 1633SOL     OW 5797   5.640   2.748   3.395
 1633SOL    HW1 5798   5.680   2.760   3.486
 1633SOL    HW2 5799   5.688   2.807   3.330
 1634SOL     OW 5800   3.610   0.978   0.020
 1634SOL    HW1 5801   3.631   1.063   0.069
 1634SOL    HW2 5802   3.607   0.996   6.942
 1635SOL     OW 5803   1.037   5.059   4.131
 1635SOL    HW1 5804   1.121   5.111   4.115
 1635SOL    HW2 5805   1.030   5.036   4.228
 1636SOL     OW 5806   2.936   6.527   1.335
 1636SOL    HW1 5807   3.001   6.450   1.336
 1636SOL    HW2 5808   2.921   6.556   1.240
 1637SOL     OW 5809   0.071   3.233   2.999
 1637SOL    HW1 5810   0.052   3.226   2.901
 1637SOL    HW2 5811   0.075   3.329   3.026
 1638SOL     OW 5812   1.799   3.125   5.189
 1638SOL    HW1 5813   1.861   3.094   5.261
 1638SOL    HW2 5814   1.707   3.090   5.206
 1639SOL     OW 5815   4.832   4.797   2.792
 1639SOL    HW1 5816   4.849   4.705   2.757
 1639SOL    HW2 5817   4.899   4.820   2.863
 1640SOL     OW 5818   6.127   0.111   1.052
 1640SOL    HW1 5819   6.147   0.207   1.029
 1640SOL    HW2 5820   6.116   0.059   0.968
 1641SOL     OW 5821   6.920   2.855   5.394
 1641SOL    HW1 5822   6.953   2.765   5.419
 1641SOL    HW2 5823   6.956   2.880   5.304
 1642SOL     OW 5824   6.899   2.163   1.609
 1642SOL    HW1 5825   6.934   2.240   1.557
 1642SOL    HW2 5826   6.966   2.089   1.607
 1643SOL     OW 5827   3.793   0.691   6.213
 1643SOL    HW1 5828   3.787   0.767   6.148
 1643SOL    HW2 5829   3.703   0.675   6.253
 1644SOL     OW 5830   3.348   0.627   1.117
 1644SOL    HW1 5831   3.326   0.609   1.021
 1644SOL    HW2 5832   3.287   0.697   1.153
 1645SOL     OW 5833   2.101   6.327   5.857
 1645SOL    HW1 5834   2.155   6.243   5.850
 1645SOL    HW2 5835   2.031   6.327   5.785
 1646SOL     OW 5836   1.052   3.491   0.692
 1646SOL    HW1 5837   1.035   3.471   0.788
 1646SOL    HW2 5838   0.968   3.475   0.639
 1647SOL     OW 5839   5.916   2.796   3.688
 1647SOL    HW1 5840   5.928   2.881   3.739
 1647SOL    HW2 5841   5.953   2.720   3.742
 1648SOL     OW 5842   4.492   0.335   2.710
 1648SOL    HW1 5843   4.444   0.251   2.736
 1648SOL    HW2 5844   4.466   0.409   2.772
 1649SOL     OW 5845   3.258   6.886   2.656
 1649SOL    HW1 5846   3.276   6.803   2.602
 1649SOL    HW2 5847   3.211   6.953   2.599
 1650SOL     OW 5848   3.174   6.874   4.051
 1650SOL    HW1 5849   3.255   6.922   4.083
 1650SOL    HW2 5850   3.169   6.784   4.095
 1651SOL     OW 5851   1.580   6.455   1.278
 1651SOL    HW1 5852   1.524   6.386   1.324
 1651SOL    HW2 5853   1.569   6.543   1.324
 1652SOL     OW 5854   2.780   2.824   1.482
 1652SOL    HW1 5855   2.725   2.741   1.482
 1652SOL    HW2 5856   2.722   2.903   1.460
 1653SOL     OW 5857   1.267   5.035   0.448
 1653SOL    HW1 5858   1.307   5.113   0.400
 1653SOL    HW2 5859   1.277   4.953   0.392
 1654SOL     OW 5860   0.639   2.418   3.430
 1654SOL    HW1 5861   0.568   2.421   3.500
 1654SOL    HW2 5862   0.628   2.496   3.368
 1655SOL     OW 5863   5.116   4.812   5.463
 1655SOL    HW1 5864   5.091   4.783   5.556
 1655SOL    HW2 5865   5.176   4.744   5.422
 1656SOL     OW 5866   0.618   4.215   3.311
 1656SOL    HW1 5867   0.551   4.154   3.269
 1656SOL    HW2 5868   0.596   4.310   3.287
 1657SOL     OW 5869   0.691   6.964   5.558
 1657SOL    HW1 5870   0.706   0.004   5.636
 1657SOL    HW2 5871   0.711   6.870   5.584
 1658SOL     OW 5872   6.337   5.983   2.536
 1658SOL    HW1 5873   6.305   5.898   2.577
 1658SOL    HW2 5874   6.300   5.991   2.443
 1659SOL     OW 5875   4.787   2.380   6.071
 1659SOL    HW1 5876   4.705   2.340   6.111
 1659SOL    HW2 5877   4.767   2.412   5.978
 1660SOL     OW 5878   1.965   6.021   3.098
 1660SOL    HW1 5879   2.016   6.107   3.089
 1660SOL    HW2 5880   1.874   6.041   3.136
 1661SOL     OW 5881   2.851   6.919   2.588
 1661SOL    HW1 5882   2.926   6.938   2.525
 1661SOL    HW2 5883   2.769   6.895   2.536
 1662SOL     OW 5884   0.305   0.412   3.332
 1662SOL    HW1 5885   0.330   0.340   3.397
 1662SOL    HW2 5886   0.374   0.416   3.260
 1663SOL     OW 5887   2.676   6.947   3.665
 1663SOL    HW1 5888   2.746   6.913   3.728
 1663SOL    HW2 5889   2.627   6.870   3.625
 1664SOL     OW 5890   2.412   5.401   4.223
 1664SOL    HW1 5891   2.394   5.345   4.304
 1664SOL    HW2 5892   2.414   5.498   4.249
 1665SOL     OW 5893   1.022   0.515   5.034
 1665SOL    HW1 5894   0.989   0.435   4.983
 1665SOL    HW2 5895   0.961   0.592   5.019
 1666SOL     OW 5896   5.619   3.385   6.589
 1666SOL    HW1 5897   5.622   3.468   6.533
 1666SOL    HW2 5898   5.549   3.323   6.554
 1667SOL     OW 5899   6.455   0.745   6.074
 1667SOL    HW1 5900   6.425   0.687   5.999
 1667SOL    HW2 5901   6.449   0.841   6.046
 1668SOL     OW 5902   2.704   0.561   4.701
 1668SOL    HW1 5903   2.669   0.469   4.720
 1668SOL    HW2 5904   2.661   0.597   4.619
 1669SOL     OW 5905   5.781   6.488   5.978
 1669SOL    HW1 5906   5.870   6.519   5.943
 1669SOL    HW2 5907   5.782   6.492   6.078
 1670SOL     OW 5908   5.995   3.885   5.988
 1670SOL    HW1 5909   5.951   3.961   5.940
 1670SOL    HW2 5910   5.951   3.870   6.076
 1671SOL     OW 5911   5.793   4.929   0.117
 1671SOL    HW1 5912   5.864   4.950   0.184
 1671SOL    HW2 5913   5.709   4.901   0.164
 1672SOL     OW 5914   2.217   5.327   2.157
 1672SOL    HW1 5915   2.231   5.365   2.065
 1672SOL    HW2 5916   2.166   5.242   2.150
 1673SOL     OW 5917   6.910   2.053   3.596
 1673SOL    HW1 5918   6.886   2.080   3.503
 1673SOL    HW2 5919   6.988   1.990   3.593
 1674SOL     OW 5920   1.647   5.227   6.523
 1674SOL    HW1 5921   1.587   5.195   6.449
 1674SOL    HW2 5922   1.619   5.318   6.552
 1675SOL     OW 5923   4.744   2.628   0.326
 1675SOL    HW1 5924   4.781   2.616   0.234
 1675SOL    HW2 5925   4.798   2.696   0.376
 1676SOL     OW 5926   2.191   1.184   3.980
 1676SOL    HW1 5927   2.156   1.091   3.983
 1676SOL    HW2 5928   2.291   1.182   3.968
 1677SOL     OW 5929   6.518   0.347   5.463
 1677SOL    HW1 5930   6.574   0.292   5.524
 1677SOL    HW2 5931   6.543   0.329   5.368
 1678SOL     OW 5932   4.678   6.901   1.019
 1678SOL    HW1 5933   4.631   6.911   1.106
 1678SOL    HW2 5934   4.770   6.864   1.034
 1679SOL     OW 5935   5.797   4.007   0.177
 1679SOL    HW1 5936   5.706   3.976   0.149
 1679SOL    HW2 5937   5.866   3.944   0.142
 1680SOL     OW 5938   1.300   2.338   5.026
 1680SOL    HW1 5939   1.243   2.392   4.964
 1680SOL    HW2 5940   1.246   2.313   5.107
 1681SOL     OW 5941   5.415   5.630   1.112
 1681SOL    HW1 5942   5.458   5.708   1.156
 1681SOL    HW2 5943   5.319   5.624   1.141
 1682SOL     OW 5944   6.411   3.662   5.356
 1682SOL    HW1 5945   6.363   3.715   5.426
 1682SOL    HW2 5946   6.493   3.621   5.395
 1683SOL     OW 5947   5.968   6.017   6.661
 1683SOL    HW1 5948   5.883   5.992   6.615
 1683SOL    HW2 5949   5.955   6.102   6.712
 1684SOL     OW 5950   0.523   5.721   4.706
 1684SOL    HW1 5951   0.613   5.693   4.739
 1684SOL    HW2 5952   0.528   5.746   4.610
 1685SOL     OW 5953   1.413   1.903   0.566
 1685SOL    HW1 5954   1.446   1.977   0.508
 1685SOL    HW2 5955   1.404   1.820   0.512
 1686SOL     OW 5956   2.008   5.848   6.724
 1686SOL    HW1 5957   1.957   5.763   6.737
 1686SOL    HW2 5958   2.097   5.829   6.684
 1687SOL     OW 5959   2.028   6.995   2.079
 1687SOL    HW1 5960   2.010   0.068   2.111
 1687SOL    HW2 5961   2.076   6.944   2.150
 1688SOL     OW 5962   0.235   2.000   4.062
 1688SOL    HW1 5963   0.174   1.964   4.133
 1688SOL    HW2 5964   0.181   2.028   3.983
 1689SOL     OW 5965   3.342   1.493   2.372
 1689SOL    HW1 5966   3.249   1.521   2.348
 1689SOL    HW2 5967   3.400   1.575   2.381
 1690SOL     OW 5968   0.450   2.036   0.929
 1690SOL    HW1 5969   0.548   2.046   0.911
 1690SOL    HW2 5970   0.399   2.103   0.875
 1691SOL     OW 5971   4.576   4.371   2.670
 1691SOL    HW1 5972   4.583   4.362   2.770
 1691SOL    HW2 5973   4.610   4.288   2.626
 1692SOL     OW 5974   1.474   0.364   3.560
 1692SOL    HW1 5975   1.453   0.449   3.511
 1692SOL    HW2 5976   1.390   0.316   3.582
 1693SOL     OW 5977   2.246   2.217   3.909
 1693SOL    HW1 5978   2.165   2.230   3.966
 1693SOL    HW2 5979   2.225   2.242   3.814
 1694SOL     OW 5980   4.529   6.196   5.797
 1694SOL    HW1 5981   4.573   6.285   5.810
 1694SOL    HW2 5982   4.543   6.165   5.703
 1695SOL     OW 5983   2.754   1.266   6.136
 1695SOL    HW1 5984   2.654   1.271   6.138
 1695SOL    HW2 5985   2.782   1.180   6.094
 1696SOL     OW 5986   3.078   5.470   1.463
 1696SOL    HW1 5987   3.103   5.373   1.464
 1696SOL    HW2 5988   3.084   5.505   1.370
 1697SOL     OW 5989   1.119   1.171   2.111
 1697SOL    HW1 5990   1.162   1.087   2.145
 1697SOL    HW2 5991   1.052   1.203   2.177
 1698SOL     OW 5992   5.510   1.842   0.513
 1698SOL    HW1 5993   5.563   1.923   0.538
 1698SOL    HW2 5994   5.570   1.762   0.510
 1699SOL     OW 5995   2.596   3.884   0.810
 1699SOL    HW1 5996   2.626   3.833   0.891
 1699SOL    HW2 5997   2.501   3.913   0.823
 1700SOL     OW 5998   6.824   2.710   4.506
 1700SOL    HW1 5999   6.795   2.676   4.596
 1700SOL    HW2 6000   6.748   2.757   4.462
 1701SOL     OW 6001   6.087   3.316   5.077
 1701SOL    HW1 6002   6.140   3.382   5.024
 1701SOL    HW2 6003   6.014   3.279   5.019
 1702SOL     OW 6004   4.899   2.942   1.796
 1702SOL    HW1 6005   4.839   2.948   1.716
 1702SOL    HW2 6006   4.848   2.965   1.878
 1703SOL     OW 6007   1.662   3.964   0.103
 1703SOL    HW1 6008   1.630   4.056   0.127
 1703SOL    HW2 6009   1.607   3.928   0.028
 1704SOL     OW 6010   0.580   1.033   1.765
 1704SOL    HW1 6011   0.635   0.953   1.786
 1704SOL    HW2 6012   0.605   1.068   1.675
 1705SOL     OW 6013   4.039   3.436   2.551
 1705SOL    HW1 6014   4.054   3.450   2.649
 1705SOL    HW2 6015   4.071   3.516   2.501
 1706SOL     OW 6016   2.606   0.268   6.919
 1706SOL    HW1 6017   2.537   0.334   6.951
 1706SOL    HW2 6018   2.662   0.239   6.996
 1707SOL     OW 6019   6.185   1.212   3.271
 1707SOL    HW1 6020   6.230   1.296   3.239
 1707SOL    HW2 6021   6.086   1.222   3.261
 1708SOL     OW 6022   0.240   4.899   2.364
 1708SOL    HW1 6023   0.270   4.803   2.355
 1708SOL    HW2 6024   0.317   4.954   2.397
 1709SOL     OW 6025   3.460   6.172   4.328
 1709SOL    HW1 6026   3.520   6.094   4.312
 1709SOL    HW2 6027   3.512   6.247   4.368
 1710SOL     OW 6028   0.429   5.903   4.023
 1710SOL    HW1 6029   0.388   5.983   4.066
 1710SOL    HW2 6030   0.473   5.931   3.937
 1711SOL     OW 6031   2.225   4.404   5.617
 1711SOL    HW1 6032   2.191   4.491   5.652
 1711SOL    HW2 6033   2.310   4.380   5.665
 1712SOL     OW 6034   1.524   4.812   0.748
 1712SOL    HW1 6035   1.483   4.902   0.762
 1712SOL    HW2 6036   1.595   4.796   0.817
 1713SOL     OW 6037   1.886   3.275   0.406
 1713SOL    HW1 6038   1.912   3.230   0.321
 1713SOL    HW2 6039   1.797   3.241   0.437
 1714SOL     OW 6040   3.665   1.829   1.136
 1714SOL    HW1 6041   3.624   1.884   1.063
 1714SOL    HW2 6042   3.764   1.832   1.127
 1715SOL     OW 6043   0.236   3.196   3.934
 1715SOL    HW1 6044   0.170   3.122   3.938
 1715SOL    HW2 6045   0.310   3.173   3.870
 1716SOL     OW 6046   0.087   6.949   0.032
 1716SOL    HW1 6047   0.141   6.922   6.972
 1716SOL    HW2 6048   7.011   6.957   0.007
 1717SOL     OW 6049   3.276   0.189   6.861
 1717SOL    HW1 6050   3.272   0.109   6.921
 1717SOL    HW2 6051   3.245   0.270   6.911
 1718SOL     OW 6052   1.242   4.842   5.530
 1718SOL    HW1 6053   1.145   4.865   5.524
 1718SOL    HW2 6054   1.262   4.767   5.467
 1719SOL     OW 6055   2.375   3.323   1.485
 1719SOL    HW1 6056   2.396   3.226   1.501
 1719SOL    HW2 6057   2.277   3.338   1.496
 1720SOL     OW 6058   6.553   1.186   2.032
 1720SOL    HW1 6059   6.555   1.278   1.994
 1720SOL    HW2 6060   6.554   1.119   1.958
 1721SOL     OW 6061   2.230   5.852   3.385
 1721SOL    HW1 6062   2.135   5.821   3.387
 1721SOL    HW2 6063   2.242   5.926   3.452
 1722SOL     OW 6064   5.587   6.695   1.722
 1722SOL    HW1 6065   5.516   6.636   1.759
 1722SOL    HW2 6066   5.668   6.641   1.701
 1723SOL     OW 6067   6.117   1.063   2.402
 1723SOL    HW1 6068   6.116   1.153   2.358
 1723SOL    HW2 6069   6.039   1.055   2.463
 1724SOL     OW 6070   5.070   0.521   0.308
 1724SOL    HW1 6071   5.093   0.553   0.399
 1724SOL    HW2 6072   5.050   0.423   0.311
 1725SOL     OW 6073   4.314   5.176   2.010
 1725SOL    HW1 6074   4.354   5.230   1.936
 1725SOL    HW2 6075   4.248   5.111   1.972
 1726SOL     OW 6076   0.306   4.904   4.648
 1726SOL    HW1 6077   0.291   4.973   4.578
 1726SOL    HW2 6078   0.268   4.935   4.735
 1727SOL     OW 6079   3.662   3.021   5.617
 1727SOL    HW1 6080   3.712   2.934   5.620
 1727SOL    HW2 6081   3.664   3.064   5.707
 1728SOL     OW 6082   4.500   4.515   3.416
 1728SOL    HW1 6083   4.463   4.596   3.370
 1728SOL    HW2 6084   4.461   4.432   3.375
 1729SOL     OW 6085   2.142   3.232   2.869
 1729SOL    HW1 6086   2.114   3.288   2.947
 1729SOL    HW2 6087   2.187   3.149   2.902
 1730SOL     OW 6088   5.721   2.409   4.290
 1730SOL    HW1 6089   5.767   2.365   4.367
 1730SOL    HW2 6090   5.630   2.369   4.278
 1731SOL     OW 6091   1.077   5.714   0.422
 1731SOL    HW1 6092   1.035   5.743   0.508
 1731SOL    HW2 6093   1.009   5.666   0.367
 1732SOL     OW 6094   0.429   4.684   6.682
 1732SOL    HW1 6095   0.509   4.674   6.741
 1732SOL    HW2 6096   0.346   4.687   6.739
 1733SOL     OW 6097   1.616   4.122   0.640
 1733SOL    HW1 6098   1.528   4.075   0.627
 1733SOL    HW2 6099   1.599   4.219   0.659
 1734SOL     OW 6100   4.723   2.728   1.457
 1734SOL    HW1 6101   4.741   2.825   1.469
 1734SOL    HW2 6102   4.625   2.713   1.444
 1735SOL     OW 6103   5.740   6.207   1.342
 1735SOL    HW1 6104   5.647   6.238   1.362
 1735SOL    HW2 6105   5.736   6.114   1.304
 1736SOL     OW 6106   2.979   3.779   0.759
 1736SOL    HW1 6107   3.004   3.876   0.766
 1736SOL    HW2 6108   2.902   3.769   0.697
 1737SOL     OW 6109   1.144   5.773   3.869
 1737SOL    HW1 6110   1.173   5.860   3.830
 1737SOL    HW2 6111   1.086   5.725   3.803
 1738SOL     OW 6112   0.826   1.690   1.167
 1738SOL    HW1 6113   0.750   1.751   1.145
 1738SOL    HW2 6114   0.903   1.744   1.202
 1739SOL     OW 6115   4.206   2.167   5.677
 1739SOL    HW1 6116   4.266   2.182   5.755
 1739SOL    HW2 6117   4.258   2.181   5.592
 1740SOL     OW 6118   0.898   0.945   5.800
 1740SOL    HW1 6119   0.868   0.928   5.706
 1740SOL    HW2 6120   0.819   0.941   5.861
 1741SOL     OW 6121   2.363   0.832   2.404
 1741SOL    HW1 6122   2.320   0.752   2.445
 1741SOL    HW2 6123   2.300   0.874   2.338
 1742SOL     OW 6124   6.192   6.188   4.368
 1742SOL    HW1 6125   6.151   6.157   4.454
 1742SOL    HW2 6126   6.128   6.172   4.293
 1743SOL     OW 6127   4.637   1.158   0.415
 1743SOL    HW1 6128   4.590   1.246   0.425
 1743SOL    HW2 6129   4.728   1.164   0.457
 1744SOL     OW 6130   3.127   0.336   1.632
 1744SOL    HW1 6131   3.190   0.286   1.691
 1744SOL    HW2 6132   3.055   0.377   1.687
 1745SOL     OW 6133   6.517   3.174   4.745
 1745SOL    HW1 6134   6.417   3.163   4.743
 1745SOL    HW2 6135   6.556   3.111   4.812
 1746SOL     OW 6136   2.802   0.688   5.960
 1746SOL    HW1 6137   2.764   0.600   5.931
 1746SOL    HW2 6138   2.786   0.700   6.059
 1747SOL     OW 6139   4.728   0.536   6.232
 1747SOL    HW1 6140   4.784   0.583   6.300
 1747SOL    HW2 6141   4.732   0.437   6.249
 1748SOL     OW 6142   6.024   1.996   1.663
 1748SOL    HW1 6143   6.101   1.987   1.726
 1748SOL    HW2 6144   6.054   1.972   1.571
 1749SOL     OW 6145   4.760   6.693   5.993
 1749SOL    HW1 6146   4.813   6.778   5.997
 1749SOL    HW2 6147   4.663   6.713   6.005
 1750SOL     OW 6148   4.822   0.501   3.797
 1750SOL    HW1 6149   4.789   0.444   3.722
 1750SOL    HW2 6150   4.916   0.531   3.777
 1751SOL     OW 6151   2.044   5.850   3.779
 1751SOL    HW1 6152   1.957   5.844   3.828
 1751SOL    HW2 6153   2.092   5.933   3.807
 1752SOL     OW 6154   6.659   2.246   7.020
 1752SOL    HW1 6155   6.562   2.247   6.995
 1752SOL    HW2 6156   6.672   2.301   0.082
 1753SOL     OW 6157   2.533   0.082   2.323
 1753SOL    HW1 6158   2.533   7.004   2.344
 1753SOL    HW2 6159   2.522   0.094   2.225
 1754SOL     OW 6160   3.732   2.455   1.225
 1754SOL    HW1 6161   3.686   2.397   1.293
 1754SOL    HW2 6162   3.664   2.511   1.178
 1755SOL     OW 6163   5.276   3.591   0.551
 1755SOL    HW1 6164   5.222   3.548   0.479
 1755SOL    HW2 6165   5.373   3.592   0.524
 1756SOL     OW 6166   5.990   5.711   4.607
 1756SOL    HW1 6167   6.014   5.676   4.697
 1756SOL    HW2 6168   5.905   5.668   4.576
 1757SOL     OW 6169   3.202   0.492   4.986
 1757SOL    HW1 6170   3.122   0.547   4.964
 1757SOL    HW2 6171   3.181   0.428   5.059
 1758SOL     OW 6172   2.411   1.273   3.599
 1758SOL    HW1 6173   2.439   1.325   3.518
 1758SOL    HW2 6174   2.410   1.175   3.576
 1759SOL     OW 6175   0.856   5.504   6.259
 1759SOL    HW1 6176   0.862   5.418   6.208
 1759SOL    HW2 6177   0.761   5.536   6.259
 1760SOL     OW 6178   5.431   0.748   2.374
 1760SOL    HW1 6179   5.466   0.833   2.414
 1760SOL    HW2 6180   5.354   0.715   2.429
 1761SOL     OW 6181   5.848   3.032   1.150
 1761SOL    HW1 6182   5.862   2.970   1.073
 1761SOL    HW2 6183   5.922   3.019   1.216
 1762SOL     OW 6184   5.731   2.413   0.599
 1762SOL    HW1 6185   5.697   2.349   0.530
 1762SOL    HW2 6186   5.804   2.468   0.559
 1763SOL     OW 6187   2.145   3.792   3.611
 1763SOL    HW1 6188   2.222   3.839   3.568
 1763SOL    HW2 6189   2.114   3.845   3.690
 1764SOL     OW 6190   6.188   2.874   4.634
 1764SOL    HW1 6191   6.217   2.790   4.588
 1764SOL    HW2 6192   6.091   2.890   4.617
 1765SOL     OW 6193   2.309   2.763   6.229
 1765SOL    HW1 6194   2.407   2.782   6.221
 1765SOL    HW2 6195   2.260   2.849   6.244
 1766SOL     OW 6196   5.942   3.148   5.531
 1766SOL    HW1 6197   5.926   3.205   5.450
 1766SOL    HW2 6198   5.955   3.206   5.611
 1767SOL     OW 6199   6.048   3.888   1.773
 1767SOL    HW1 6200   6.043   3.936   1.686
 1767SOL    HW2 6201   6.131   3.917   1.822
 1768SOL     OW 6202   5.940   6.490   3.991
 1768SOL    HW1 6203   5.996   6.449   4.063
 1768SOL    HW2 6204   5.946   6.435   3.908
 1769SOL     OW 6205   6.000   1.015   3.724
 1769SOL    HW1 6206   6.029   0.974   3.637
 1769SOL    HW2 6207   6.013   0.950   3.798
 1770SOL     OW 6208   3.285   5.527   4.659
 1770SOL    HW1 6209   3.225   5.589   4.708
 1770SOL    HW2 6210   3.380   5.556   4.669
 1771SOL     OW 6211   5.073   6.251   6.594
 1771SOL    HW1 6212   5.054   6.180   6.527
 1771SOL    HW2 6213   4.993   6.311   6.603
 1772SOL     OW 6214   3.417   6.257   2.706
 1772SOL    HW1 6215   3.334   6.310   2.722
 1772SOL    HW2 6216   3.490   6.317   2.674
 1773SOL     OW 6217   0.917   5.565   6.973
 1773SOL    HW1 6218   0.928   5.625   6.894
 1773SOL    HW2 6219   0.833   5.590   0.002
 1774SOL     OW 6220   3.512   4.951   2.050
 1774SOL    HW1 6221   3.556   4.876   2.002
 1774SOL    HW2 6222   3.417   4.959   2.021
 1775SOL     OW 6223   0.866   4.553   1.468
 1775SOL    HW1 6224   0.957   4.563   1.509
 1775SOL    HW2 6225   0.862   4.468   1.416
 1776SOL     OW 6226   3.391   5.804   4.746
 1776SOL    HW1 6227   3.404   5.900   4.772
 1776SOL    HW2 6228   3.351   5.799   4.655
 1777SOL     OW 6229   3.441   5.468   6.854
 1777SOL    HW1 6230   3.510   5.520   6.904
 1777SOL    HW2 6231   3.357   5.462   6.908
 1778SOL     OW 6232   6.536   3.875   5.679
 1778SOL    HW1 6233   6.460   3.837   5.626
 1778SOL    HW2 6234   6.610   3.808   5.686
 1779SOL     OW 6235   3.225   0.131   5.402
 1779SOL    HW1 6236   3.249   0.199   5.333
 1779SOL    HW2 6237   3.296   0.129   5.472
 1780SOL     OW 6238   3.097   3.223   6.677
 1780SOL    HW1 6239   3.068   3.172   6.758
 1780SOL    HW2 6240   3.154   3.164   6.619
 1781SOL     OW 6241   4.081   5.216   3.417
 1781SOL    HW1 6242   4.003   5.154   3.406
 1781SOL    HW2 6243   4.127   5.229   3.329
 1782SOL     OW 6244   3.514   1.908   4.452
 1782SOL    HW1 6245   3.417   1.896   4.429
 1782SOL    HW2 6246   3.522   1.979   4.523
 1783SOL     OW 6247   1.825   5.663   7.001
 1783SOL    HW1 6248   1.880   5.580   6.996
 1783SOL    HW2 6249   1.788   5.684   6.911
 1784SOL     OW 6250   3.717   6.643   5.228
 1784SOL    HW1 6251   3.711   6.637   5.328
 1784SOL    HW2 6252   3.768   6.564   5.193
 1785SOL     OW 6253   6.482   4.215   1.966
 1785SOL    HW1 6254   6.414   4.271   1.919
 1785SOL    HW2 6255   6.474   4.228   2.065
 1786SOL     OW 6256   3.738   2.641   0.902
 1786SOL    HW1 6257   3.738   2.604   0.809
 1786SOL    HW2 6258   3.664   2.597   0.954
 1787SOL     OW 6259   3.741   0.428   6.034
 1787SOL    HW1 6260   3.768   0.491   5.961
 1787SOL    HW2 6261   3.753   0.473   6.123
 1788SOL     OW 6262   2.044   4.554   5.790
 1788SOL    HW1 6263   2.071   4.577   5.884
 1788SOL    HW2 6264   1.987   4.472   5.791
 1789SOL     OW 6265   5.786   1.088   0.144
 1789SOL    HW1 6266   5.821   1.073   0.236
 1789SOL    HW2 6267   5.821   1.018   0.082
 1790SOL     OW 6268   3.453   6.975   3.163
 1790SOL    HW1 6269   3.477   6.963   3.066
 1790SOL    HW2 6270   3.432   6.886   3.203
 1791SOL     OW 6271   0.195   6.592   2.550
 1791SOL    HW1 6272   0.146   6.595   2.637
 1791SOL    HW2 6273   0.283   6.639   2.559
 1792SOL     OW 6274   1.201   3.842   5.424
 1792SOL    HW1 6275   1.199   3.875   5.329
 1792SOL    HW2 6276   1.190   3.920   5.486
 1793SOL     OW 6277   0.392   0.623   3.943
 1793SOL    HW1 6278   0.480   0.663   3.918
 1793SOL    HW2 6279   0.348   0.586   3.861
 1794SOL     OW 6280   4.871   6.217   6.350
 1794SOL    HW1 6281   4.796   6.156   6.371
 1794SOL    HW2 6282   4.929   6.177   6.279
 1795SOL     OW 6283   0.349   3.266   0.417
 1795SOL    HW1 6284   0.372   3.362   0.402
 1795SOL    HW2 6285   0.267   3.242   0.365
 1796SOL     OW 6286   3.421   0.281   6.634
 1796SOL    HW1 6287   3.395   0.260   6.728
 1796SOL    HW2 6288   3.521   0.278   6.626
 1797SOL     OW 6289   0.443   0.509   0.863
 1797SOL    HW1 6290   0.494   0.463   0.936
 1797SOL    HW2 6291   0.496   0.586   0.827
 1798SOL     OW 6292   6.061   2.626   3.216
 1798SOL    HW1 6293   6.038   2.701   3.279
 1798SOL    HW2 6294   6.109   2.555   3.266
 1799SOL     OW 6295   1.588   1.700   6.650
 1799SOL    HW1 6296   1.496   1.661   6.660
 1799SOL    HW2 6297   1.641   1.642   6.588
 1800SOL     OW 6298   4.357   5.319   2.235
 1800SOL    HW1 6299   4.355   5.263   2.152
 1800SOL    HW2 6300   4.317   5.267   2.311
 1801SOL     OW 6301   5.717   0.061   0.890
 1801SOL    HW1 6302   5.631   0.011   0.877
 1801SOL    HW2 6303   5.743   0.104   0.803
 1802SOL     OW 6304   5.410   5.257   3.997
 1802SOL    HW1 6305   5.500   5.266   4.040
 1802SOL    HW2 6306   5.360   5.344   4.006
 1803SOL     OW 6307   6.114   5.525   0.998
 1803SOL    HW1 6308   6.082   5.617   0.972
 1803SOL    HW2 6309   6.101   5.512   1.096
 1804SOL     OW 6310   3.238   3.211   5.936
 1804SOL    HW1 6311   3.189   3.281   5.884
 1804SOL    HW2 6312   3.173   3.144   5.971
 1805SOL     OW 6313   5.002   2.946   6.980
 1805SOL    HW1 6314   4.947   2.974   6.901
 1805SOL    HW2 6315   5.083   3.003   6.986
 1806SOL     OW 6316   0.784   0.030   0.893
 1806SOL    HW1 6317   0.863   0.091   0.900
 1806SOL    HW2 6318   0.705   0.081   0.858
 1807SOL     OW 6319   5.433   1.671   5.497
 1807SOL    HW1 6320   5.353   1.642   5.549
 1807SOL    HW2 6321   5.504   1.703   5.560
 1808SOL     OW 6322   2.005   4.695   4.061
 1808SOL    HW1 6323   1.921   4.643   4.081
 1808SOL    HW2 6324   2.048   4.657   3.979
 1809SOL     OW 6325   3.244   6.942   6.296
 1809SOL    HW1 6326   3.268   0.005   6.347
 1809SOL    HW2 6327   3.313   6.925   6.226
 1810SOL     OW 6328   3.152   5.980   2.590
 1810SOL    HW1 6329   3.247   5.969   2.619
 1810SOL    HW2 6330   3.094   5.914   2.638
 1811SOL     OW 6331   6.115   5.359   2.665
 1811SOL    HW1 6332   6.025   5.396   2.644
 1811SOL    HW2 6333   6.184   5.406   2.610
 1812SOL     OW 6334   4.198   5.365   6.543
 1812SOL    HW1 6335   4.123   5.354   6.479
 1812SOL    HW2 6336   4.266   5.293   6.529
 1813SOL     OW 6337   6.134   4.892   5.577
 1813SOL    HW1 6338   6.149   4.821   5.509
 1813SOL    HW2 6339   6.147   4.853   5.669
 1814SOL     OW 6340   4.957   6.703   2.319
 1814SOL    HW1 6341   4.893   6.640   2.274
 1814SOL    HW2 6342   5.002   6.656   2.395
 1815SOL     OW 6343   0.130   0.955   2.736
 1815SOL    HW1 6344   0.172   0.992   2.653
 1815SOL    HW2 6345   0.200   0.947   2.807
 1816SOL     OW 6346   0.695   4.154   0.025
 1816SOL    HW1 6347   0.716   4.242   0.066
 1816SOL    HW2 6348   0.771   4.125   6.986
 1817SOL     OW 6349   1.747   5.318   2.014
 1817SOL    HW1 6350   1.832   5.325   1.962
 1817SOL    HW2 6351   1.678   5.376   1.972
 1818SOL     OW 6352   2.271   1.161   3.098
 1818SOL    HW1 6353   2.320   1.245   3.074
 1818SOL    HW2 6354   2.335   1.095   3.138
 1819SOL     OW 6355   1.622   4.227   2.058
 1819SOL    HW1 6356   1.545   4.284   2.086
 1819SOL    HW2 6357   1.608   4.133   2.089
 1820SOL     OW 6358   5.586   0.130   2.673
 1820SOL    HW1 6359   5.498   0.113   2.719
 1820SOL    HW2 6360   5.632   0.207   2.717
 1821SOL     OW 6361   2.579   1.659   3.132
 1821SOL    HW1 6362   2.587   1.622   3.040
 1821SOL    HW2 6363   2.671   1.674   3.170
 1822SOL     OW 6364   3.417   3.293   1.321
 1822SOL    HW1 6365   3.475   3.334   1.391
 1822SOL    HW2 6366   3.375   3.365   1.265
 1823SOL     OW 6367   4.031   0.093   2.774
 1823SOL    HW1 6368   4.126   0.072   2.795
 1823SOL    HW2 6369   4.022   0.189   2.750
 1824SOL     OW 6370   5.225   2.666   1.609
 1824SOL    HW1 6371   5.285   2.706   1.540
 1824SOL    HW2 6372   5.184   2.740   1.664
 1825SOL     OW 6373   1.353   0.944   1.297
 1825SOL    HW1 6374   1.323   1.038   1.314
 1825SOL    HW2 6375   1.273   0.884   1.293
 1826SOL     OW 6376   3.114   6.288   6.402
 1826SOL    HW1 6377   3.126   6.295   6.303
 1826SOL    HW2 6378   3.167   6.210   6.436
 1827SOL     OW 6379   6.344   6.777   1.806
 1827SOL    HW1 6380   6.419   6.713   1.792
 1827SOL    HW2 6381   6.262   6.743   1.761
 1828SOL     OW 6382   1.741   2.054   0.409
 1828SOL    HW1 6383   1.641   2.061   0.404
 1828SOL    HW2 6384   1.767   1.958   0.423
 1829SOL     OW 6385   6.381   5.648   1.226
 1829SOL    HW1 6386   6.431   5.690   1.302
 1829SOL    HW2 6387   6.351   5.557   1.252
 1830SOL     OW 6388   5.208   6.055   3.703
 1830SOL    HW1 6389   5.227   6.070   3.800
 1830SOL    HW2 6390   5.241   6.133   3.650
 1831SOL     OW 6391   4.891   0.745   3.267
 1831SOL    HW1 6392   4.935   0.667   3.223
 1831SOL    HW2 6393   4.959   0.800   3.315
 1832SOL     OW 6394   5.556   2.573   0.420
 1832SOL    HW1 6395   5.571   2.525   0.507
 1832SOL    HW2 6396   5.524   2.508   0.352
 1833SOL     OW 6397   5.854   2.129   5.737
 1833SOL    HW1 6398   5.825   2.224   5.727
 1833SOL    HW2 6399   5.785   2.069   5.697
 1834SOL     OW 6400   2.930   3.581   0.960
 1834SOL    HW1 6401   2.938   3.650   0.888
 1834SOL    HW2 6402   2.861   3.514   0.934
 1835SOL     OW 6403   1.518   4.453   0.009
 1835SOL    HW1 6404   1.523   4.548   6.996
 1835SOL    HW2 6405   1.424   4.433   0.038
 1836SOL     OW 6406   0.528   6.087   0.667
 1836SOL    HW1 6407   0.480   6.006   0.702
 1836SOL    HW2 6408   0.561   6.142   0.743
 1837SOL     OW 6409   1.218   2.810   4.718
 1837SOL    HW1 6410   1.226   2.826   4.817
 1837SOL    HW2 6411   1.273   2.730   4.693
 1838SOL     OW 6412   7.019   2.746   3.997
 1838SOL    HW1 6413   0.065   2.688   4.044
 1838SOL    HW2 6414   6.950   2.778   4.063
 1839SOL     OW 6415   6.926   2.264   5.864
 1839SOL    HW1 6416   6.941   2.227   5.956
 1839SOL    HW2 6417   7.010   2.255   5.811
 1840SOL     OW 6418   1.397   5.101   0.672
 1840SOL    HW1 6419   1.478   5.137   0.626
 1840SOL    HW2 6420   1.327   5.077   0.605
 1841SOL     OW 6421   1.645   2.958   3.367
 1841SOL    HW1 6422   1.613   2.863   3.376
 1841SOL    HW2 6423   1.580   3.010   3.312
 1842SOL     OW 6424   0.936   4.599   6.733
 1842SOL    HW1 6425   0.949   4.512   6.779
 1842SOL    HW2 6426   0.949   4.587   6.634
 1843SOL     OW 6427   3.386   1.848   4.811
 1843SOL    HW1 6428   3.385   1.943   4.777
 1843SOL    HW2 6429   3.317   1.795   4.762
 1844SOL     OW 6430   5.222   3.682   3.803
 1844SOL    HW1 6431   5.239   3.583   3.796
 1844SOL    HW2 6432   5.198   3.705   3.897
 1845SOL     OW 6433   4.169   0.236   0.004
 1845SOL    HW1 6434   4.119   0.261   6.941
 1845SOL    HW2 6435   4.107   0.190   0.068
 1846SOL     OW 6436   3.236   1.287   5.413
 1846SOL    HW1 6437   3.271   1.340   5.336
 1846SOL    HW2 6438   3.136   1.283   5.408
 1847SOL     OW 6439   1.507   6.773   0.218
 1847SOL    HW1 6440   1.546   6.863   0.234
 1847SOL    HW2 6441   1.426   6.781   0.160
 1848SOL     OW 6442   3.370   6.798   2.235
 1848SOL    HW1 6443   3.312   6.718   2.224
 1848SOL    HW2 6444   3.462   6.769   2.262
 1849SOL     OW 6445   2.850   1.014   6.250
 1849SOL    HW1 6446   2.754   1.032   6.269
 1849SOL    HW2 6447   2.868   1.026   6.152
 1850SOL     OW 6448   5.687   1.674   1.927
 1850SOL    HW1 6449   5.595   1.650   1.958
 1850SOL    HW2 6450   5.709   1.767   1.956
 1851SOL     OW 6451   6.465   3.363   3.191
 1851SOL    HW1 6452   6.559   3.352   3.158
 1851SOL    HW2 6453   6.466   3.404   3.282
 1852SOL     OW 6454   5.411   3.315   0.036
 1852SOL    HW1 6455   5.350   3.336   6.979
 1852SOL    HW2 6456   5.503   3.298   0.002
 1853SOL     OW 6457   1.873   4.700   0.513
 1853SOL    HW1 6458   1.937   4.667   0.444
 1853SOL    HW2 6459   1.855   4.798   0.499
 1854SOL     OW 6460   3.104   5.486   3.997
 1854SOL    HW1 6461   3.069   5.576   3.970
 1854SOL    HW2 6462   3.081   5.467   4.092
 1855SOL     OW 6463   5.380   4.272   1.846
 1855SOL    HW1 6464   5.460   4.263   1.788
 1855SOL    HW2 6465   5.360   4.369   1.861
 1856SOL     OW 6466   4.761   2.534   5.815
 1856SOL    HW1 6467   4.834   2.497   5.758
 1856SOL    HW2 6468   4.691   2.575   5.757
 1857SOL     OW 6469   4.541   1.509   3.404
 1857SOL    HW1 6470   4.630   1.526   3.361
 1857SOL    HW2 6471   4.546   1.424   3.457
 1858SOL     OW 6472   5.036   4.220   3.246
 1858SOL    HW1 6473   5.083   4.132   3.256
 1858SOL    HW2 6474   4.989   4.223   3.158
 1859SOL     OW 6475   5.691   1.244   3.444
 1859SOL    HW1 6476   5.687   1.162   3.388
 1859SOL    HW2 6477   5.730   1.319   3.392
 1860SOL     OW 6478   4.630   1.682   5.032
 1860SOL    HW1 6479   4.566   1.634   5.092
 1860SOL    HW2 6480   4.581   1.752   4.980
 1861SOL     OW 6481   5.629   6.369   2.371
 1861SOL    HW1 6482   5.727   6.375   2.351
 1861SOL    HW2 6483   5.594   6.279   2.346
 1862SOL     OW 6484   1.714   1.780   0.443
 1862SOL    HW1 6485   1.677   1.805   0.533
 1862SOL    HW2 6486   1.727   1.681   0.439
 1863SOL     OW 6487   2.626   3.136   1.635
 1863SOL    HW1 6488   2.720   3.138   1.669
 1863SOL    HW2 6489   2.625   3.103   1.541
 1864SOL     OW 6490   0.993   6.651   3.965
 1864SOL    HW1 6491   0.984   6.555   3.993
 1864SOL    HW2 6492   0.904   6.685   3.936
 1865SOL     OW 6493   4.888   2.032   6.725
 1865SOL    HW1 6494   4.896   2.123   6.765
 1865SOL    HW2 6495   4.937   2.030   6.638
 1866SOL     OW 6496   5.145   5.300   2.805
 1866SOL    HW1 6497   5.142   5.394   2.769
 1866SOL    HW2 6498   5.238   5.278   2.832
 1867SOL     OW 6499   0.919   4.444   6.461
 1867SOL    HW1 6500   0.831   4.425   6.503
 1867SOL    HW2 6501   0.955   4.361   6.419
 1868SOL     OW 6502   5.779   4.068   5.093
 1868SOL    HW1 6503   5.715   4.064   5.170
 1868SOL    HW2 6504   5.737   4.029   5.012
 1869SOL     OW 6505   6.234   1.497   4.522
 1869SOL    HW1 6506   6.146   1.466   4.485
 1869SOL    HW2 6507   6.301   1.503   4.448
 1870SOL     OW 6508   2.135   4.606   4.451
 1870SOL    HW1 6509   2.124   4.562   4.540
 1870SOL    HW2 6510   2.082   4.692   4.449
 1871SOL     OW 6511   1.354   0.009   0.604
 1871SOL    HW1 6512   1.413   0.089   0.595
 1871SOL    HW2 6513   1.308   0.011   0.693
 1872SOL     OW 6514   2.579   4.867   0.282
 1872SOL    HW1 6515   2.650   4.816   0.233
 1872SOL    HW2 6516   2.623   4.933   0.344
 1873SOL     OW 6517   4.510   1.404   0.417
 1873SOL    HW1 6518   4.518   1.481   0.479
 1873SOL    HW2 6519   4.417   1.400   0.381
 1874SOL     OW 6520   0.772   2.908   2.874
 1874SOL    HW1 6521   0.798   2.815   2.850
 1874SOL    HW2 6522   0.742   2.957   2.792
 1875SOL     OW 6523   1.044   6.699   0.215
 1875SOL    HW1 6524   0.989   6.740   0.288
 1875SOL    HW2 6525   1.078   6.610   0.245
 1876SOL     OW 6526   2.227   6.974   4.668
 1876SOL    HW1 6527   2.151   0.005   4.627
 1876SOL    HW2 6528   2.199   6.938   4.757
 1877SOL     OW 6529   0.331   6.687   3.523
 1877SOL    HW1 6530   0.386   6.740   3.459
 1877SOL    HW2 6531   0.355   6.714   3.617
 1878SOL     OW 6532   5.548   2.471   6.008
 1878SOL    HW1 6533   5.566   2.379   5.973
 1878SOL    HW2 6534   5.451   2.491   6.002
 1879SOL     OW 6535   1.390   4.635   5.695
 1879SOL    HW1 6536   1.332   4.670   5.621
 1879SOL    HW2 6537   1.473   4.594   5.657
 1880SOL     OW 6538   6.255   0.377   5.432
 1880SOL    HW1 6539   6.214   0.286   5.435
 1880SOL    HW2 6540   6.354   0.368   5.440
 1881SOL     OW 6541   0.010   2.154   6.626
 1881SOL    HW1 6542   6.973   2.185   6.703
 1881SOL    HW2 6543   0.092   2.210   6.621
 1882SOL     OW 6544   1.034   5.943   6.475
 1882SOL    HW1 6545   0.946   5.899   6.491
 1882SOL    HW2 6546   1.108   5.886   6.510
 1883SOL     OW 6547   6.929   1.985   4.053
 1883SOL    HW1 6548   6.941   1.978   4.152
 1883SOL    HW2 6549   6.849   2.040   4.033
 1884SOL     OW 6550   6.949   2.994   1.298
 1884SOL    HW1 6551   7.019   2.926   1.319
 1884SOL    HW2 6552   6.880   2.954   1.237
 1885SOL     OW 6553   2.000   1.495   4.558
 1885SOL    HW1 6554   2.032   1.567   4.496
 1885SOL    HW2 6555   2.045   1.409   4.535
 1886SOL     OW 6556   1.279   6.858   3.214
 1886SOL    HW1 6557   1.333   6.792   3.161
 1886SOL    HW2 6558   1.225   6.809   3.283
 1887SOL     OW 6559   2.050   6.680   5.819
 1887SOL    HW1 6560   2.048   6.768   5.770
 1887SOL    HW2 6561   1.989   6.615   5.774
 1888SOL     OW 6562   2.660   1.014   3.071
 1888SOL    HW1 6563   2.688   1.046   2.981
 1888SOL    HW2 6564   2.741   0.992   3.126
 1889SOL     OW 6565   0.130   3.601   2.981
 1889SOL    HW1 6566   0.155   3.548   3.062
 1889SOL    HW2 6567   0.108   3.694   3.008
 1890SOL     OW 6568   0.945   5.697   4.446
 1890SOL    HW1 6569   1.020   5.692   4.512
 1890SOL    HW2 6570   0.966   5.638   4.368
 1891SOL     OW 6571   3.551   3.209   3.488
 1891SOL    HW1 6572   3.508   3.281   3.434
 1891SOL    HW2 6573   3.542   3.121   3.441
 1892SOL     OW 6574   1.023   0.920   2.614
 1892SOL    HW1 6575   0.963   0.911   2.693
 1892SOL    HW2 6576   0.974   0.894   2.531
 1893SOL     OW 6577   3.454   3.153   4.667
 1893SOL    HW1 6578   3.447   3.053   4.665
 1893SOL    HW2 6579   3.489   3.182   4.756
 1894SOL     OW 6580   3.189   2.947   4.030
 1894SOL    HW1 6581   3.181   2.875   4.099
 1894SOL    HW2 6582   3.181   3.037   4.075
 1895SOL     OW 6583   1.679   6.080   0.093
 1895SOL    HW1 6584   1.762   6.025   0.079
 1895SOL    HW2 6585   1.705   6.176   0.106
 1896SOL     OW 6586   5.291   2.891   1.109
 1896SOL    HW1 6587   5.376   2.904   1.161
 1896SOL    HW2 6588   5.299   2.936   1.020
 1897SOL     OW 6589   1.422   4.123   4.656
 1897SOL    HW1 6590   1.393   4.174   4.576
 1897SOL    HW2 6591   1.375   4.158   4.737
 1898SOL     OW 6592   1.609   6.598   3.352
 1898SOL    HW1 6593   1.577   6.693   3.354
 1898SOL    HW2 6594   1.691   6.590   3.407
 1899SOL     OW 6595   0.102   0.723   2.445
 1899SOL    HW1 6596   0.021   0.763   2.401
 1899SOL    HW2 6597   0.080   0.702   2.540
 1900SOL     OW 6598   2.306   6.785   0.156
 1900SOL    HW1 6599   2.356   6.824   0.233
 1900SOL    HW2 6600   2.312   6.847   0.078
 1901SOL     OW 6601   3.026   3.719   1.719
 1901SOL    HW1 6602   3.110   3.671   1.696
 1901SOL    HW2 6603   2.965   3.658   1.769
 1902SOL     OW 6604   1.182   0.003   4.205
 1902SOL    HW1 6605   1.274   0.031   4.177
 1902SOL    HW2 6606   1.160   6.935   4.162
 1903SOL     OW 6607   0.876   2.575   3.861
 1903SOL    HW1 6608   0.933   2.509   3.912
 1903SOL    HW2 6609   0.935   2.638   3.811
 1904SOL     OW 6610   6.106   5.731   1.582
 1904SOL    HW1 6611   6.026   5.687   1.625
 1904SOL    HW2 6612   6.142   5.672   1.510
 1905SOL     OW 6613   0.615   1.637   4.183
 1905SOL    HW1 6614   0.698   1.582   4.173
 1905SOL    HW2 6615   0.570   1.614   4.269
 1906SOL     OW 6616   1.517   0.115   4.975
 1906SOL    HW1 6617   1.477   0.203   4.948
 1906SOL    HW2 6618   1.467   0.041   4.930
 1907SOL     OW 6619   5.501   2.815   0.357
 1907SOL    HW1 6620   5.513   2.736   0.416
 1907SOL    HW2 6621   5.590   2.855   0.335
 1908SOL     OW 6622   3.118   1.280   0.940
 1908SOL    HW1 6623   3.154   1.215   1.008
 1908SOL    HW2 6624   3.192   1.340   0.910
 1909SOL     OW 6625   6.604   4.689   4.385
 1909SOL    HW1 6626   6.566   4.778   4.362
 1909SOL    HW2 6627   6.693   4.678   4.340
 1910SOL     OW 6628   0.679   5.841   5.649
 1910SOL    HW1 6629   0.674   5.802   5.557
 1910SOL    HW2 6630   0.604   5.805   5.705
 1911SOL     OW 6631   6.649   5.019   3.902
 1911SOL    HW1 6632   6.589   5.082   3.952
 1911SOL    HW2 6633   6.730   4.999   3.958
 1912SOL     OW 6634   3.249   5.011   1.933
 1912SOL    HW1 6635   3.293   5.091   1.892
 1912SOL    HW2 6636   3.212   4.953   1.860
 1913SOL     OW 6637   3.973   4.252   6.690
 1913SOL    HW1 6638   4.010   4.159   6.688
 1913SOL    HW2 6639   4.040   4.316   6.651
 1914SOL     OW 6640   2.964   4.484   6.682
 1914SOL    HW1 6641   2.985   4.489   6.585
 1914SOL    HW2 6642   2.868   4.458   6.694
 1915SOL     OW 6643   3.786   2.706   5.921
 1915SOL    HW1 6644   3.747   2.719   6.012
 1915SOL    HW2 6645   3.809   2.609   5.908
 1916SOL     OW 6646   3.994   0.991   2.417
 1916SOL    HW1 6647   3.996   1.012   2.515
 1916SOL    HW2 6648   4.028   1.070   2.366
 1917SOL     OW 6649   1.968   4.225   1.483
 1917SOL    HW1 6650   2.030   4.161   1.438
 1917SOL    HW2 6651   1.929   4.182   1.564
 1918SOL     OW 6652   5.732   2.425   3.879
 1918SOL    HW1 6653   5.685   2.345   3.840
 1918SOL    HW2 6654   5.683   2.455   3.961
 1919SOL     OW 6655   6.763   2.565   6.860
 1919SOL    HW1 6656   6.839   2.515   6.901
 1919SOL    HW2 6657   6.778   2.663   6.869
 1920SOL     OW 6658   4.570   2.957   1.098
 1920SOL    HW1 6659   4.536   2.875   1.050
 1920SOL    HW2 6660   4.660   2.937   1.138
 1921SOL     OW 6661   2.482   2.629   6.974
 1921SOL    HW1 6662   2.388   2.613   7.003
 1921SOL    HW2 6663   2.489   2.719   6.931
 1922SOL     OW 6664   3.134   2.979   2.514
 1922SOL    HW1 6665   3.128   2.880   2.521
 1922SOL    HW2 6666   3.230   3.006   2.502
 1923SOL     OW 6667   3.824   1.251   4.202
 1923SOL    HW1 6668   3.806   1.216   4.294
 1923SOL    HW2 6669   3.838   1.174   4.139
 1924SOL     OW 6670   4.520   1.264   0.101
 1924SOL    HW1 6671   4.438   1.270   0.044
 1924SOL    HW2 6672   4.523   1.176   0.147
 1925SOL     OW 6673   1.416   3.353   1.286
 1925SOL    HW1 6674   1.422   3.285   1.213
 1925SOL    HW2 6675   1.324   3.352   1.325
 1926SOL     OW 6676   3.976   0.141   1.526
 1926SOL    HW1 6677   3.975   0.231   1.483
 1926SOL    HW2 6678   4.068   0.122   1.562
 1927SOL     OW 6679   1.938   5.235   1.006
 1927SOL    HW1 6680   1.922   5.243   1.105
 1927SOL    HW2 6681   2.035   5.250   0.987
 1928SOL     OW 6682   5.305   4.671   3.084
 1928SOL    HW1 6683   5.302   4.573   3.065
 1928SOL    HW2 6684   5.368   4.716   3.020
 1929SOL     OW 6685   3.053   6.945   3.040
 1929SOL    HW1 6686   3.029   6.886   3.117
 1929SOL    HW2 6687   2.971   6.964   2.986
 1930SOL     OW 6688   3.817   3.403   0.239
 1930SOL    HW1 6689   3.854   3.319   0.278
 1930SOL    HW2 6690   3.737   3.431   0.292
 1931SOL     OW 6691   6.690   2.006   4.333
 1931SOL    HW1 6692   6.700   2.065   4.253
 1931SOL    HW2 6693   6.657   2.059   4.411
 1932SOL     OW 6694   4.721   1.920   2.095
 1932SOL    HW1 6695   4.691   1.910   2.000
 1932SOL    HW2 6696   4.741   2.016   2.113
 1933SOL     OW 6697   1.116   0.549   1.418
 1933SOL    HW1 6698   1.150   0.528   1.327
 1933SOL    HW2 6699   1.164   0.493   1.485
 1934SOL     OW 6700   6.868   0.646   6.433
 1934SOL    HW1 6701   6.851   0.739   6.463
 1934SOL    HW2 6702   6.783   0.603   6.403
 1935SOL     OW 6703   6.189   4.918   3.559
 1935SOL    HW1 6704   6.165   4.885   3.651
 1935SOL    HW2 6705   6.273   4.872   3.529
 1936SOL     OW 6706   4.733   2.962   6.001
 1936SOL    HW1 6707   4.639   2.937   5.977
 1936SOL    HW2 6708   4.792   2.881   5.995
 1937SOL     OW 6709   5.976   5.104   6.788
 1937SOL    HW1 6710   6.043   5.031   6.797
 1937SOL    HW2 6711   5.923   5.111   6.873
 1938SOL     OW 6712   6.561   2.975   6.884
 1938SOL    HW1 6713   6.480   2.950   6.936
 1938SOL    HW2 6714   6.555   2.937   6.792
 1939SOL     OW 6715   0.849   0.540   4.669
 1939SOL    HW1 6716   0.801   0.548   4.756
 1939SOL    HW2 6717   0.795   0.582   4.596
 1940SOL     OW 6718   6.950   5.187   0.761
 1940SOL    HW1 6719   6.956   5.119   0.834
 1940SOL    HW2 6720   7.007   5.266   0.784
 1941SOL     OW 6721   5.768   1.641   4.866
 1941SOL    HW1 6722   5.720   1.579   4.804
 1941SOL    HW2 6723   5.712   1.723   4.880
 1942SOL     OW 6724   6.645   4.303   1.718
 1942SOL    HW1 6725   6.639   4.335   1.813
 1942SOL    HW2 6726   6.557   4.266   1.690
 1943SOL     OW 6727   0.917   2.582   3.217
 1943SOL    HW1 6728   0.945   2.677   3.234
 1943SOL    HW2 6729   0.946   2.525   3.294
 1944SOL     OW 6730   0.606   3.416   3.643
 1944SOL    HW1 6731   0.690   3.445   3.598
 1944SOL    HW2 6732   0.540   3.386   3.574
 1945SOL     OW 6733   4.866   1.304   1.849
 1945SOL    HW1 6734   4.963   1.280   1.845
 1945SOL    HW2 6735   4.842   1.329   1.942
 1946SOL     OW 6736   6.541   6.353   1.003
 1946SOL    HW1 6737   6.459   6.349   0.946
 1946SOL    HW2 6738   6.608   6.287   0.968
 1947SOL     OW 6739   6.101   5.222   3.133
 1947SOL    HW1 6740   6.113   5.309   3.180
 1947SOL    HW2 6741   6.123   5.233   3.036
 1948SOL     OW 6742   5.380   3.449   3.759
 1948SOL    HW1 6743   5.301   3.401   3.720
 1948SOL    HW2 6744   5.449   3.463   3.687
 1949SOL     OW 6745   3.533   4.539   6.460
 1949SOL    HW1 6746   3.539   4.580   6.551
 1949SOL    HW2 6747   3.594   4.459   6.456
 1950SOL     OW 6748   3.797   4.013   3.326
 1950SOL    HW1 6749   3.794   4.081   3.400
 1950SOL    HW2 6750   3.719   3.951   3.334
 1951SOL     OW 6751   6.231   5.286   6.100
 1951SOL    HW1 6752   6.284   5.305   6.182
 1951SOL    HW2 6753   6.155   5.351   6.094
 1952SOL     OW 6754   6.036   5.652   0.031
 1952SOL    HW1 6755   6.015   5.568   7.001
 1952SOL    HW2 6756   6.011   5.731   6.995
 1953SOL     OW 6757   1.149   1.248   6.719
 1953SOL    HW1 6758   1.228   1.186   6.715
 1953SOL    HW2 6759   1.073   1.208   6.668
 1954SOL     OW 6760   4.708   6.873   1.648
 1954SOL    HW1 6761   4.634   6.926   1.690
 1954SOL    HW2 6762   4.788   6.932   1.636
 1955SOL     OW 6763   0.124   2.569   4.146
 1955SOL    HW1 6764   0.219   2.551   4.119
 1955SOL    HW2 6765   0.111   2.538   4.240
 1956SOL     OW 6766   5.792   0.610   1.880
 1956SOL    HW1 6767   5.828   0.623   1.788
 1956SOL    HW2 6768   5.748   0.695   1.911
 1957SOL     OW 6769   6.518   2.383   4.283
 1957SOL    HW1 6770   6.424   2.375   4.248
 1957SOL    HW2 6771   6.580   2.404   4.208
 1958SOL     OW 6772   3.656   1.631   0.720
 1958SOL    HW1 6773   3.684   1.560   0.785
 1958SOL    HW2 6774   3.737   1.676   0.682
 1959SOL     OW 6775   1.135   2.355   5.237
 1959SOL    HW1 6776   1.120   2.435   5.295
 1959SOL    HW2 6777   1.047   2.321   5.204
 1960SOL     OW 6778   5.809   4.177   3.893
 1960SOL    HW1 6779   5.844   4.125   3.816
 1960SOL    HW2 6780   5.804   4.118   3.974
 1961SOL     OW 6781   0.798   3.747   3.749
 1961SOL    HW1 6782   0.793   3.744   3.849
 1961SOL    HW2 6783   0.748   3.669   3.711
 1962SOL     OW 6784   0.615   0.604   2.536
 1962SOL    HW1 6785   0.518   0.629   2.535
 1962SOL    HW2 6786   0.643   0.580   2.629
 1963SOL     OW 6787   0.505   2.662   7.017
 1963SOL    HW1 6788   0.541   2.584   6.964
 1963SOL    HW2 6789   0.567   2.681   0.074
 1964SOL     OW 6790   5.673   3.510   0.725
 1964SOL    HW1 6791   5.731   3.568   0.782
 1964SOL    HW2 6792   5.731   3.444   0.676
 1965SOL     OW 6793   6.078   4.239   3.529
 1965SOL    HW1 6794   6.024   4.191   3.599
 1965SOL    HW2 6795   6.094   4.333   3.558
 1966SOL     OW 6796   0.986   4.320   6.798
 1966SOL    HW1 6797   0.910   4.274   6.751
 1966SOL    HW2 6798   1.069   4.309   6.744
 1967SOL     OW 6799   6.221   3.121   4.733
 1967SOL    HW1 6800   6.209   3.033   4.686
 1967SOL    HW2 6801   6.171   3.192   4.684
 1968SOL     OW 6802   2.958   1.363   5.448
 1968SOL    HW1 6803   2.892   1.290   5.470
 1968SOL    HW2 6804   2.958   1.431   5.520
 1969SOL     OW 6805   1.999   5.892   0.994
 1969SOL    HW1 6806   2.027   5.970   1.050
 1969SOL    HW2 6807   1.900   5.894   0.982
 1970SOL     OW 6808   5.533   5.405   4.636
 1970SOL    HW1 6809   5.591   5.355   4.571
 1970SOL    HW2 6810   5.591   5.450   4.704
 1971SOL     OW 6811   1.631   4.765   4.931
 1971SOL    HW1 6812   1.546   4.806   4.898
 1971SOL    HW2 6813   1.648   4.678   4.883
 1972SOL     OW 6814   6.238   2.277   2.867
 1972SOL    HW1 6815   6.237   2.180   2.843
 1972SOL    HW2 6816   6.310   2.293   2.936
 1973SOL     OW 6817   3.352   2.510   0.936
 1973SOL    HW1 6818   3.263   2.556   0.935
 1973SOL    HW2 6819   3.337   2.411   0.940
 1974SOL     OW 6820   2.333   6.524   4.725
 1974SOL    HW1 6821   2.416   6.478   4.755
 1974SOL    HW2 6822   2.355   6.618   4.697
 1975SOL     OW 6823   1.967   2.941   3.332
 1975SOL    HW1 6824   1.938   2.993   3.252
 1975SOL    HW2 6825   1.893   2.879   3.360
 1976SOL     OW 6826   0.900   0.779   5.304
 1976SOL    HW1 6827   0.886   0.774   5.403
 1976SOL    HW2 6828   0.891   0.873   5.273
 1977SOL     OW 6829   1.872   4.261   6.334
 1977SOL    HW1 6830   1.868   4.317   6.417
 1977SOL    HW2 6831   1.910   4.315   6.259
 1978SOL     OW 6832   2.872   0.130   2.326
 1978SOL    HW1 6833   2.862   0.202   2.257
 1978SOL    HW2 6834   2.799   0.063   2.316
 1979SOL     OW 6835   5.995   4.427   6.085
 1979SOL    HW1 6836   6.052   4.494   6.131
 1979SOL    HW2 6837   6.052   4.352   6.050
 1980SOL     OW 6838   3.658   0.766   0.907
 1980SOL    HW1 6839   3.748   0.746   0.869
 1980SOL    HW2 6840   3.588   0.749   0.838
 1981SOL     OW 6841   3.681   1.814   2.501
 1981SOL    HW1 6842   3.689   1.891   2.564
 1981SOL    HW2 6843   3.767   1.802   2.451
 1982SOL     OW 6844   1.256   2.856   6.094
 1982SOL    HW1 6845   1.159   2.841   6.110
 1982SOL    HW2 6846   1.306   2.847   6.179
 1983SOL     OW 6847   0.398   1.079   2.218
 1983SOL    HW1 6848   0.373   1.060   2.313
 1983SOL    HW2 6849   0.338   1.028   2.156
 1984SOL     OW 6850   4.597   3.103   5.729
 1984SOL    HW1 6851   4.527   3.037   5.754
 1984SOL    HW2 6852   4.594   3.181   5.791
 1985SOL     OW 6853   6.548   3.743   3.754
 1985SOL    HW1 6854   6.647   3.752   3.741
 1985SOL    HW2 6855   6.500   3.775   3.672
 1986SOL     OW 6856   3.139   3.655   2.182
 1986SOL    HW1 6857   3.121   3.582   2.248
 1986SOL    HW2 6858   3.217   3.708   2.213
 1987SOL     OW 6859   2.174   0.990   1.515
 1987SOL    HW1 6860   2.195   1.068   1.574
 1987SOL    HW2 6861   2.155   1.022   1.423
 1988SOL     OW 6862   0.506   1.597   2.101
 1988SOL    HW1 6863   0.456   1.520   2.141
 1988SOL    HW2 6864   0.527   1.664   2.172
 1989SOL     OW 6865   3.210   5.254   4.898
 1989SOL    HW1 6866   3.220   5.352   4.883
 1989SOL    HW2 6867   3.177   5.211   4.813
 1990SOL     OW 6868   3.957   0.706   6.846
 1990SOL    HW1 6869   3.972   0.658   6.759
 1990SOL    HW2 6870   3.859   0.715   6.862
 1991SOL     OW 6871   2.669   5.291   1.322
 1991SOL    HW1 6872   2.710   5.366   1.373
 1991SOL    HW2 6873   2.598   5.326   1.261
 1992SOL     OW 6874   1.058   6.734   2.804
 1992SOL    HW1 6875   1.153   6.762   2.790
 1992SOL    HW2 6876   1.050   6.636   2.790
 1993SOL     OW 6877   2.308   2.017   2.865
 1993SOL    HW1 6878   2.321   1.964   2.949
 1993SOL    HW2 6879   2.254   1.963   2.799
 1994SOL     OW 6880   3.761   2.531   0.610
 1994SOL    HW1 6881   3.849   2.575   0.595
 1994SOL    HW2 6882   3.768   2.434   0.587
 1995SOL     OW 6883   5.518   1.675   4.260
 1995SOL    HW1 6884   5.548   1.762   4.220
 1995SOL    HW2 6885   5.512   1.685   4.359
 1996SOL     OW 6886   4.465   1.122   0.915
 1996SOL    HW1 6887   4.509   1.116   1.005
 1996SOL    HW2 6888   4.424   1.034   0.892
 1997SOL     OW 6889   3.333   1.207   4.141
 1997SOL    HW1 6890   3.399   1.265   4.093
 1997SOL    HW2 6891   3.383   1.142   4.199
 1998SOL     OW 6892   2.212   3.936   1.616
 1998SOL    HW1 6893   2.203   3.985   1.530
 1998SOL    HW2 6894   2.309   3.915   1.632
 1999SOL     OW 6895   1.034   0.419   6.954
 1999SOL    HW1 6896   1.038   0.501   7.012
 1999SOL    HW2 6897   1.007   0.340   7.010
 2000SOL     OW 6898   4.373   4.302   5.815
 2000SOL    HW1 6899   4.316   4.260   5.886
 2000SOL    HW2 6900   4.395   4.234   5.745
 2001SOL     OW 6901   1.631   2.341   1.617
 2001SOL    HW1 6902   1.607   2.392   1.535
 2001SOL    HW2 6903   1.637   2.403   1.695
 2002SOL     OW 6904   6.831   5.692   1.056
 2002SOL    HW1 6905   6.731   5.692   1.058
 2002SOL    HW2 6906   6.862   5.702   0.962
 2003SOL     OW 6907   5.593   5.158   2.107
 2003SOL    HW1 6908   5.586   5.107   2.192
 2003SOL    HW2 6909   5.681   5.138   2.063
 2004SOL     OW 6910   3.468   6.573   2.918
 2004SOL    HW1 6911   3.539   6.640   2.940
 2004SOL    HW2 6912   3.474   6.549   2.821
 2005SOL     OW 6913   1.483   6.112   0.548
 2005SOL    HW1 6914   1.505   6.179   0.477
 2005SOL    HW2 6915   1.540   6.129   0.628
 2006SOL     OW 6916   5.549   6.590   2.213
 2006SOL    HW1 6917   5.575   6.500   2.247
 2006SOL    HW2 6918   5.629   6.634   2.172
 2007SOL     OW 6919   5.202   4.819   6.182
 2007SOL    HW1 6920   5.187   4.755   6.258
 2007SOL    HW2 6921   5.297   4.849   6.182
 2008SOL     OW 6922   2.054   3.481   3.036
 2008SOL    HW1 6923   2.052   3.509   2.940
 2008SOL    HW2 6924   1.963   3.490   3.076
 2009SOL     OW 6925   6.315   6.903   2.542
 2009SOL    HW1 6926   6.399   6.933   2.587
 2009SOL    HW2 6927   6.296   6.808   2.566
 2010SOL     OW 6928   6.645   1.935   2.027
 2010SOL    HW1 6929   6.559   1.967   1.987
 2010SOL    HW2 6930   6.705   2.014   2.045
 2011SOL     OW 6931   0.493   0.336   4.791
 2011SOL    HW1 6932   0.536   0.314   4.703
 2011SOL    HW2 6933   0.564   0.362   4.857
 2012SOL     OW 6934   0.326   3.016   1.350
 2012SOL    HW1 6935   0.421   3.027   1.319
 2012SOL    HW2 6936   0.319   3.048   1.445
 2013SOL     OW 6937   0.164   2.493   2.165
 2013SOL    HW1 6938   0.229   2.534   2.101
 2013SOL    HW2 6939   0.116   2.418   2.121
 2014SOL     OW 6940   4.140   1.040   4.395
 2014SOL    HW1 6941   4.188   0.984   4.461
 2014SOL    HW2 6942   4.045   1.054   4.425
 2015SOL     OW 6943   4.180   6.810   1.963
 2015SOL    HW1 6944   4.173   6.893   2.019
 2015SOL    HW2 6945   4.216   6.735   2.019
 2016SOL     OW 6946   1.990   0.950   4.310
 2016SOL    HW1 6947   2.086   0.924   4.303
 2016SOL    HW2 6948   1.960   0.941   4.405
 2017SOL     OW 6949   3.748   6.341   3.700
 2017SOL    HW1 6950   3.841   6.349   3.735
 2017SOL    HW2 6951   3.705   6.259   3.739
 2018SOL     OW 6952   1.100   0.596   4.149
 2018SOL    HW1 6953   1.092   0.512   4.095
 2018SOL    HW2 6954   1.188   0.639   4.130
 2019SOL     OW 6955   5.316   5.408   6.582
 2019SOL    HW1 6956   5.261   5.460   6.647
 2019SOL    HW2 6957   5.310   5.450   6.492
 2020SOL     OW 6958   1.879   0.017   0.104
 2020SOL    HW1 6959   1.896   0.105   0.059
 2020SOL    HW2 6960   1.959   6.978   0.093
 2021SOL     OW 6961   0.040   6.101   4.429
 2021SOL    HW1 6962   6.989   6.150   4.480
 2021SOL    HW2 6963   0.129   6.116   4.473
 2022SOL     OW 6964   1.889   3.349   4.473
 2022SOL    HW1 6965   1.983   3.374   4.496
 2022SOL    HW2 6966   1.827   3.388   4.541
 2023SOL     OW 6967   6.588   6.417   6.584
 2023SOL    HW1 6968   6.598   6.459   6.493
 2023SOL    HW2 6969   6.593   6.317   6.575
 2024SOL     OW 6970   0.325   5.513   3.896
 2024SOL    HW1 6971   0.327   5.580   3.970
 2024SOL    HW2 6972   0.333   5.421   3.934
 2025SOL     OW 6973   1.824   5.912   4.748
 2025SOL    HW1 6974   1.874   5.830   4.721
 2025SOL    HW2 6975   1.731   5.907   4.714
 2026SOL     OW 6976   6.772   0.517   6.046
 2026SOL    HW1 6977   6.853   0.576   6.041
 2026SOL    HW2 6978   6.775   0.451   5.971
 2027SOL     OW 6979   0.226   5.968   2.253
 2027SOL    HW1 6980   0.270   6.038   2.310
 2027SOL    HW2 6981   0.226   5.997   2.158
 2028SOL     OW 6982   3.213   5.055   4.700
 2028SOL    HW1 6983   3.151   5.011   4.635
 2028SOL    HW2 6984   3.223   4.998   4.781
 2029SOL     OW 6985   6.212   2.630   6.333
 2029SOL    HW1 6986   6.264   2.615   6.249
 2029SOL    HW2 6987   6.128   2.679   6.312
 2030SOL     OW 6988   2.377   6.809   2.447
 2030SOL    HW1 6989   2.321   6.770   2.520
 2030SOL    HW2 6990   2.323   6.816   2.364
 2031SOL     OW 6991   0.860   5.979   4.860
 2031SOL    HW1 6992   0.820   6.004   4.772
 2031SOL    HW2 6993   0.799   6.007   4.934
 2032SOL     OW 6994   2.396   2.965   5.932
 2032SOL    HW1 6995   2.317   3.000   5.982
 2032SOL    HW2 6996   2.391   2.865   5.928
 2033SOL     OW 6997   2.216   1.519   0.631
 2033SOL    HW1 6998   2.233   1.599   0.688
 2033SOL    HW2 6999   2.297   1.503   0.573
 2034SOL     OW 7000   0.711   4.567   5.403
 2034SOL    HW1 7001   0.772   4.492   5.378
 2034SOL    HW2 7002   0.645   4.583   5.330
 2035SOL     OW 7003   5.273   6.042   3.337
 2035SOL    HW1 7004   5.289   6.093   3.421
 2035SOL    HW2 7005   5.216   6.096   3.275
 2036SOL     OW 7006   0.332   4.801   6.442
 2036SOL    HW1 7007   0.256   4.743   6.412
 2036SOL    HW2 7008   0.382   4.756   6.516
 2037SOL     OW 7009   1.196   2.209   0.299
 2037SOL    HW1 7010   1.197   2.148   0.219
 2037SOL    HW2 7011   1.102   2.219   0.331
 2038SOL     OW 7012   0.761   0.856   6.033
 2038SOL    HW1 7013   0.826   0.907   6.088
 2038SOL    HW2 7014   0.668   0.873   6.066
 2039SOL     OW 7015   4.913   6.026   3.193
 2039SOL    HW1 7016   4.958   5.939   3.172
 2039SOL    HW2 7017   4.976   6.102   3.177
 2040SOL     OW 7018   2.554   2.132   0.011
 2040SOL    HW1 7019   2.543   2.189   0.092
 2040SOL    HW2 7020   2.501   2.169   6.955
 2041SOL     OW 7021   2.388   6.769   6.666
 2041SOL    HW1 7022   2.465   6.742   6.723
 2041SOL    HW2 7023   2.302   6.744   6.713
 2042SOL     OW 7024   5.976   0.736   5.831
 2042SOL    HW1 7025   5.877   0.747   5.839
 2042SOL    HW2 7026   6.001   0.640   5.843
 2043SOL     OW 7027   0.808   4.115   0.857
 2043SOL    HW1 7028   0.712   4.092   0.875
 2043SOL    HW2 7029   0.857   4.033   0.828
 2044SOL     OW 7030   4.240   0.487   1.353
 2044SOL    HW1 7031   4.330   0.507   1.393
 2044SOL    HW2 7032   4.192   0.421   1.410
 2045SOL     OW 7033   2.099   5.988   4.261
 2045SOL    HW1 7034   2.032   6.041   4.314
 2045SOL    HW2 7035   2.191   6.011   4.291
 2046SOL     OW 7036   0.556   3.392   5.546
 2046SOL    HW1 7037   0.458   3.403   5.562
 2046SOL    HW2 7038   0.571   3.317   5.480
 2047SOL     OW 7039   6.928   0.065   0.714
 2047SOL    HW1 7040   6.908   0.158   0.745
 2047SOL    HW2 7041   0.004   0.044   0.732
 2048SOL     OW 7042   2.066   1.551   3.958
 2048SOL    HW1 7043   2.087   1.534   4.054
 2048SOL    HW2 7044   2.134   1.507   3.900
 2049SOL     OW 7045   4.735   2.849   4.684
 2049SOL    HW1 7046   4.680   2.792   4.746
 2049SOL    HW2 7047   4.738   2.943   4.717
 2050SOL     OW 7048   0.438   0.884   3.511
 2050SOL    HW1 7049   0.510   0.864   3.443
 2050SOL    HW2 7050   0.477   0.937   3.586
 2051SOL     OW 7051   3.194   5.868   0.436
 2051SOL    HW1 7052   3.243   5.804   0.494
 2051SOL    HW2 7053   3.141   5.931   0.493
 2052SOL     OW 7054   0.991   3.824   0.606
 2052SOL    HW1 7055   1.058   3.888   0.644
 2052SOL    HW2 7056   1.008   3.733   0.644
 2053SOL     OW 7057   6.380   5.109   2.548
 2053SOL    HW1 7058   6.437   5.169   2.493
 2053SOL    HW2 7059   6.284   5.120   2.521
 2054SOL     OW 7060   3.268   4.004   3.246
 2054SOL    HW1 7061   3.176   3.967   3.263
 2054SOL    HW2 7062   3.296   3.980   3.153
 2055SOL     OW 7063   4.319   2.730   5.678
 2055SOL    HW1 7064   4.353   2.722   5.584
 2055SOL    HW2 7065   4.315   2.639   5.719
 2056SOL     OW 7066   3.182   5.213   1.371
 2056SOL    HW1 7067   3.247   5.289   1.376
 2056SOL    HW2 7068   3.214   5.138   1.430
 2057SOL     OW 7069   5.778   3.269   4.481
 2057SOL    HW1 7070   5.708   3.311   4.423
 2057SOL    HW2 7071   5.832   3.340   4.526
 2058SOL     OW 7072   6.227   6.440   3.862
 2058SOL    HW1 7073   6.323   6.421   3.885
 2058SOL    HW2 7074   6.207   6.536   3.881
 2059SOL     OW 7075   1.960   1.621   5.289
 2059SOL    HW1 7076   2.043   1.611   5.345
 2059SOL    HW2 7077   1.884   1.574   5.334
 2060SOL     OW 7078   1.743   2.759   6.653
 2060SOL    HW1 7079   1.715   2.680   6.708
 2060SOL    HW2 7080   1.784   2.828   6.712
 2061SOL     OW 7081   1.840   2.852   2.913
 2061SOL    HW1 7082   1.901   2.822   2.987
 2061SOL    HW2 7083   1.825   2.951   2.919
 2062SOL     OW 7084   6.141   5.098   4.351
 2062SOL    HW1 7085   6.099   5.184   4.381
 2062SOL    HW2 7086   6.155   5.101   4.252
 2063SOL     OW 7087   0.779   2.259   4.142
 2063SOL    HW1 7088   0.703   2.324   4.151
 2063SOL    HW2 7089   0.786   2.229   4.047
 2064SOL     OW 7090   0.543   3.378   4.018
 2064SOL    HW1 7091   0.518   3.302   3.958
 2064SOL    HW2 7092   0.467   3.443   4.022
 2065SOL     OW 7093   4.072   3.673   5.980
 2065SOL    HW1 7094   4.017   3.640   5.904
 2065SOL    HW2 7095   4.096   3.769   5.965
 2066SOL     OW 7096   1.247   2.916   4.974
 2066SOL    HW1 7097   1.322   2.969   4.934
 2066SOL    HW2 7098   1.183   2.978   5.020
 2067SOL     OW 7099   6.669   4.697   1.739
 2067SOL    HW1 7100   6.743   4.759   1.766
 2067SOL    HW2 7101   6.593   4.705   1.804
 2068SOL     OW 7102   4.465   0.518   4.273
 2068SOL    HW1 7103   4.499   0.459   4.346
 2068SOL    HW2 7104   4.480   0.614   4.298
 2069SOL     OW 7105   6.942   1.033   3.732
 2069SOL    HW1 7106   0.020   1.011   3.727
 2069SOL    HW2 7107   6.918   1.093   3.656
 2070SOL     OW 7108   1.487   4.876   1.261
 2070SOL    HW1 7109   1.396   4.834   1.270
 2070SOL    HW2 7110   1.483   4.970   1.294
 2071SOL     OW 7111   0.383   2.255   5.256
 2071SOL    HW1 7112   0.465   2.303   5.223
 2071SOL    HW2 7113   0.375   2.268   5.355
 2072SOL     OW 7114   5.493   4.468   5.219
 2072SOL    HW1 7115   5.482   4.401   5.292
 2072SOL    HW2 7116   5.503   4.420   5.132
 2073SOL     OW 7117   3.182   5.468   6.523
 2073SOL    HW1 7118   3.138   5.529   6.589
 2073SOL    HW2 7119   3.210   5.383   6.569
 2074SOL     OW 7120   2.297   4.877   5.893
 2074SOL    HW1 7121   2.326   4.829   5.810
 2074SOL    HW2 7122   2.204   4.912   5.880
 2075SOL     OW 7123   5.867   2.454   1.824
 2075SOL    HW1 7124   5.904   2.384   1.763
 2075SOL    HW2 7125   5.897   2.435   1.918
 2076SOL     OW 7126   6.651   6.424   4.653
 2076SOL    HW1 7127   6.566   6.372   4.643
 2076SOL    HW2 7128   6.727   6.369   4.619
 2077SOL     OW 7129   6.078   4.694   0.112
 2077SOL    HW1 7130   6.042   4.603   0.132
 2077SOL    HW2 7131   6.058   4.755   0.189
 2078SOL     OW 7132   0.708   3.367   5.776
 2078SOL    HW1 7133   0.640   3.375   5.704
 2078SOL    HW2 7134   0.779   3.301   5.749
 2079SOL     OW 7135   5.433   1.024   2.952
 2079SOL    HW1 7136   5.479   1.102   2.996
 2079SOL    HW2 7137   5.361   1.057   2.891
 2080SOL     OW 7138   2.631   3.512   6.547
 2080SOL    HW1 7139   2.709   3.554   6.501
 2080SOL    HW2 7140   2.547   3.559   6.521
 2081SOL     OW 7141   6.610   6.078   2.159
 2081SOL    HW1 7142   6.700   6.122   2.161
 2081SOL    HW2 7143   6.621   5.979   2.161
 2082SOL     OW 7144   6.945   5.188   4.250
 2082SOL    HW1 7145   7.019   5.229   4.195
 2082SOL    HW2 7146   6.910   5.256   4.313
 2083SOL     OW 7147   0.321   6.148   4.078
 2083SOL    HW1 7148   0.228   6.124   4.105
 2083SOL    HW2 7149   0.329   6.247   4.066
 2084SOL     OW 7150   6.630   1.810   1.326
 2084SOL    HW1 7151   6.538   1.782   1.355
 2084SOL    HW2 7152   6.670   1.869   1.396
 2085SOL     OW 7153   6.636   6.128   0.858
 2085SOL    HW1 7154   6.706   6.110   0.790
 2085SOL    HW2 7155   6.552   6.079   0.833
 2086SOL     OW 7156   4.802   0.639   6.662
 2086SOL    HW1 7157   4.883   0.607   6.613
 2086SOL    HW2 7158   4.800   0.597   6.753
 2087SOL     OW 7159   3.861   1.391   0.135
 2087SOL    HW1 7160   3.958   1.414   0.142
 2087SOL    HW2 7161   3.823   1.434   0.053
 2088SOL     OW 7162   0.472   4.841   5.826
 2088SOL    HW1 7163   0.553   4.784   5.813
 2088SOL    HW2 7164   0.403   4.818   5.756
 2089SOL     OW 7165   2.533   3.775   6.312
 2089SOL    HW1 7166   2.608   3.815   6.365
 2089SOL    HW2 7167   2.459   3.750   6.374
 2090SOL     OW 7168   5.280   2.857   6.783
 2090SOL    HW1 7169   5.358   2.803   6.750
 2090SOL    HW2 7170   5.284   2.863   6.883
 2091SOL     OW 7171   5.450   6.309   0.503
 2091SOL    HW1 7172   5.532   6.361   0.480
 2091SOL    HW2 7173   5.448   6.293   0.602
 2092SOL     OW 7174   3.416   3.358   2.033
 2092SOL    HW1 7175   3.341   3.424   2.037
 2092SOL    HW2 7176   3.503   3.406   2.019
 2093SOL     OW 7177   4.115   0.806   1.535
 2093SOL    HW1 7178   4.135   0.899   1.504
 2093SOL    HW2 7179   4.167   0.740   1.480
 2094SOL     OW 7180   5.499   2.065   0.231
 2094SOL    HW1 7181   5.538   2.055   0.322
 2094SOL    HW2 7182   5.572   2.064   0.163
 2095SOL     OW 7183   5.397   5.282   4.297
 2095SOL    HW1 7184   5.466   5.354   4.305
 2095SOL    HW2 7185   5.404   5.239   4.207
 2096SOL     OW 7186   3.885   6.928   2.365
 2096SOL    HW1 7187   3.874   7.019   2.406
 2096SOL    HW2 7188   3.820   6.865   2.406
 2097SOL     OW 7189   0.935   5.792   5.777
 2097SOL    HW1 7190   0.872   5.857   5.734
 2097SOL    HW2 7191   0.883   5.725   5.829
 2098SOL     OW 7192   2.857   6.848   3.849
 2098SOL    HW1 7193   2.931   6.788   3.818
 2098SOL    HW2 7194   2.879   6.884   3.940
 2099SOL     OW 7195   4.218   1.838   6.674
 2099SOL    HW1 7196   4.143   1.891   6.713
 2099SOL    HW2 7197   4.218   1.848   6.575
 2100SOL     OW 7198   4.516   0.483   0.284
 2100SOL    HW1 7199   4.439   0.450   0.229
 2100SOL    HW2 7200   4.510   0.583   0.293
 2101SOL     OW 7201   1.468   0.408   2.405
 2101SOL    HW1 7202   1.441   0.494   2.363
 2101SOL    HW2 7203   1.391   0.369   2.455
 2102SOL     OW 7204   3.895   2.639   1.349
 2102SOL    HW1 7205   3.857   2.659   1.439
 2102SOL    HW2 7206   3.849   2.559   1.311
 2103SOL     OW 7207   1.631   6.372   0.769
 2103SOL    HW1 7208   1.576   6.390   0.687
 2103SOL    HW2 7209   1.650   6.274   0.775
 2104SOL     OW 7210   1.799   3.812   3.225
 2104SOL    HW1 7211   1.821   3.851   3.314
 2104SOL    HW2 7212   1.808   3.713   3.228
 2105SOL     OW 7213   5.642   0.361   4.921
 2105SOL    HW1 7214   5.702   0.346   4.842
 2105SOL    HW2 7215   5.687   0.425   4.984
 2106SOL     OW 7216   3.919   2.911   1.365
 2106SOL    HW1 7217   3.827   2.943   1.389
 2106SOL    HW2 7218   3.912   2.826   1.313
 2107SOL     OW 7219   5.113   4.819   4.703
 2107SOL    HW1 7220   5.063   4.736   4.678
 2107SOL    HW2 7221   5.105   4.835   4.801
 2108SOL     OW 7222   5.008   6.666   5.332
 2108SOL    HW1 7223   5.092   6.642   5.283
 2108SOL    HW2 7224   4.943   6.590   5.326
 2109SOL     OW 7225   2.541   5.933   1.934
 2109SOL    HW1 7226   2.599   5.955   2.013
 2109SOL    HW2 7227   2.447   5.920   1.965
 2110SOL     OW 7228   3.578   5.915   6.952
 2110SOL    HW1 7229   3.592   5.978   0.008
 2110SOL    HW2 7230   3.590   5.963   6.865
 2111SOL     OW 7231   1.411   2.369   6.112
 2111SOL    HW1 7232   1.490   2.384   6.051
 2111SOL    HW2 7233   1.413   2.438   6.185
 2112SOL     OW 7234   0.908   6.977   6.863
 2112SOL    HW1 7235   1.004   6.989   6.840
 2112SOL    HW2 7236   0.898   6.896   6.921
 2113SOL     OW 7237   6.558   1.713   5.158
 2113SOL    HW1 7238   6.643   1.754   5.125
 2113SOL    HW2 7239   6.569   1.688   5.255
 2114SOL     OW 7240   2.166   0.918   5.545
 2114SOL    HW1 7241   2.170   0.832   5.595
 2114SOL    HW2 7242   2.169   0.900   5.447
 2115SOL     OW 7243   6.683   5.917   3.139
 2115SOL    HW1 7244   6.642   5.826   3.149
 2115SOL    HW2 7245   6.632   5.983   3.194
 2116SOL     OW 7246   1.596   1.637   6.928
 2116SOL    HW1 7247   1.571   1.540   6.919
 2116SOL    HW2 7248   1.613   1.676   6.837
 2117SOL     OW 7249   6.492   2.545   2.849
 2117SOL    HW1 7250   6.427   2.556   2.774
 2117SOL    HW2 7251   6.543   2.460   2.837
 2118SOL     OW 7252   6.983   2.248   2.739
 2118SOL    HW1 7253   6.972   2.333   2.791
 2118SOL    HW2 7254   6.974   2.170   2.800
 2119SOL     OW 7255   0.199   2.656   0.562
 2119SOL    HW1 7256   0.253   2.705   0.494
 2119SOL    HW2 7257   0.108   2.696   0.568
 2120SOL     OW 7258   5.532   2.106   0.594
 2120SOL    HW1 7259   5.547   2.082   0.689
 2120SOL    HW2 7260   5.463   2.179   0.588
 2121SOL     OW 7261   2.238   6.670   1.255
 2121SOL    HW1 7262   2.209   6.583   1.217
 2121SOL    HW2 7263   2.210   6.744   1.194
 2122SOL     OW 7264   6.238   0.831   4.575
 2122SOL    HW1 7265   6.219   0.898   4.647
 2122SOL    HW2 7266   6.327   0.851   4.534
 2123SOL     OW 7267   1.272   5.307   2.850
 2123SOL    HW1 7268   1.266   5.207   2.854
 2123SOL    HW2 7269   1.346   5.339   2.910
 2124SOL     OW 7270   4.688   3.248   6.174
 2124SOL    HW1 7271   4.772   3.298   6.192
 2124SOL    HW2 7272   4.633   3.243   6.257
 2125SOL     OW 7273   1.267   5.544   4.023
 2125SOL    HW1 7274   1.336   5.536   4.095
 2125SOL    HW2 7275   1.263   5.639   3.990
 2126SOL     OW 7276   2.791   3.470   0.601
 2126SOL    HW1 7277   2.884   3.436   0.618
 2126SOL    HW2 7278   2.796   3.552   0.543
 2127SOL     OW 7279   1.249   3.124   3.924
 2127SOL    HW1 7280   1.290   3.118   3.833
 2127SOL    HW2 7281   1.230   3.033   3.959
 2128SOL     OW 7282   5.427   3.127   2.320
 2128SOL    HW1 7283   5.518   3.125   2.362
 2128SOL    HW2 7284   5.398   3.033   2.300
 2129SOL     OW 7285   4.882   4.855   4.198
 2129SOL    HW1 7286   4.841   4.770   4.167
 2129SOL    HW2 7287   4.926   4.901   4.121
 2130SOL     OW 7288   1.996   0.570   1.691
 2130SOL    HW1 7289   1.917   0.518   1.657
 2130SOL    HW2 7290   1.984   0.666   1.668
 2131SOL     OW 7291   5.823   0.663   6.186
 2131SOL    HW1 7292   5.923   0.659   6.194
 2131SOL    HW2 7293   5.782   0.642   6.274
 2132SOL     OW 7294   2.602   2.827   0.427
 2132SOL    HW1 7295   2.642   2.828   0.336
 2132SOL    HW2 7296   2.503   2.838   0.421
 2133SOL     OW 7297   3.461   2.077   1.208
 2133SOL    HW1 7298   3.509   2.000   1.167
 2133SOL    HW2 7299   3.363   2.058   1.211
 2134SOL     OW 7300   1.613   6.473   5.343
 2134SOL    HW1 7301   1.652   6.542   5.404
 2134SOL    HW2 7302   1.685   6.434   5.286
 2135SOL     OW 7303   1.072   6.101   4.090
 2135SOL    HW1 7304   0.980   6.063   4.093
 2135SOL    HW2 7305   1.097   6.120   3.996
 2136SOL     OW 7306   1.590   4.719   3.791
 2136SOL    HW1 7307   1.550   4.651   3.729
 2136SOL    HW2 7308   1.671   4.759   3.749
 2137SOL     OW 7309   0.573   0.997   4.362
 2137SOL    HW1 7310   0.508   0.948   4.420
 2137SOL    HW2 7311   0.544   0.991   4.267
 2138SOL     OW 7312   1.005   2.551   6.001
 2138SOL    HW1 7313   1.030   2.539   6.097
 2138SOL    HW2 7314   0.976   2.645   5.986
 2139SOL     OW 7315   3.009   0.041   4.287
 2139SOL    HW1 7316   3.078   0.000   4.227
 2139SOL    HW2 7317   3.050   0.065   4.375
 2140SOL     OW 7318   1.466   6.039   3.699
 2140SOL    HW1 7319   1.494   5.966   3.636
 2140SOL    HW2 7320   1.532   6.114   3.695
 2141SOL     OW 7321   6.530   1.917   6.616
 2141SOL    HW1 7322   6.556   1.834   6.665
 2141SOL    HW2 7323   6.602   1.985   6.625
 2142SOL     OW 7324   3.256   1.252   3.797
 2142SOL    HW1 7325   3.239   1.171   3.740
 2142SOL    HW2 7326   3.181   1.263   3.862
 2143SOL     OW 7327   3.953   6.479   0.117
 2143SOL    HW1 7328   4.003   6.406   0.163
 2143SOL    HW2 7329   3.935   6.452   0.022
 2144SOL     OW 7330   1.120   0.745   1.978
 2144SOL    HW1 7331   1.094   0.702   1.891
 2144SOL    HW2 7332   1.162   0.834   1.960
 2145SOL     OW 7333   2.909   5.628   2.523
 2145SOL    HW1 7334   2.811   5.608   2.517
 2145SOL    HW2 7335   2.922   5.710   2.579
 2146SOL     OW 7336   2.531   1.867   0.766
 2146SOL    HW1 7337   2.483   1.951   0.741
 2146SOL    HW2 7338   2.534   1.859   0.866
 2147SOL     OW 7339   0.187   1.170   5.009
 2147SOL    HW1 7340   0.241   1.090   5.033
 2147SOL    HW2 7341   0.158   1.217   5.093
 2148SOL     OW 7342   5.519   3.897   3.952
 2148SOL    HW1 7343   5.522   3.996   3.936
 2148SOL    HW2 7344   5.513   3.880   4.051
 2149SOL     OW 7345   3.019   0.371   3.100
 2149SOL    HW1 7346   3.023   0.302   3.172
 2149SOL    HW2 7347   3.083   0.348   3.028
 2150SOL     OW 7348   4.211   0.199   3.428
 2150SOL    HW1 7349   4.183   0.294   3.438
 2150SOL    HW2 7350   4.143   0.149   3.375
 2151SOL     OW 7351   3.865   4.266   5.557
 2151SOL    HW1 7352   3.787   4.288   5.615
 2151SOL    HW2 7353   3.946   4.314   5.590
 2152SOL     OW 7354   6.747   6.603   2.424
 2152SOL    HW1 7355   6.801   6.687   2.424
 2152SOL    HW2 7356   6.709   6.587   2.333
 2153SOL     OW 7357   4.822   1.838   3.261
 2153SOL    HW1 7358   4.788   1.865   3.351
 2153SOL    HW2 7359   4.868   1.916   3.218
 2154SOL     OW 7360   4.044   6.607   5.287
 2154SOL    HW1 7361   4.065   6.634   5.381
 2154SOL    HW2 7362   3.995   6.520   5.287
 2155SOL     OW 7363   6.329   4.012   6.914
 2155SOL    HW1 7364   6.283   4.045   6.997
 2155SOL    HW2 7365   6.266   4.016   6.837
 2156SOL     OW 7366   6.987   0.542   1.689
 2156SOL    HW1 7367   0.060   0.505   1.687
 2156SOL    HW2 7368   6.921   0.468   1.689
 2157SOL     OW 7369   6.470   0.908   4.102
 2157SOL    HW1 7370   6.386   0.870   4.140
 2157SOL    HW2 7371   6.545   0.896   4.168
 2158SOL     OW 7372   4.975   0.263   3.498
 2158SOL    HW1 7373   5.038   0.307   3.561
 2158SOL    HW2 7374   4.895   0.322   3.484
 2159SOL     OW 7375   2.289   0.457   5.183
 2159SOL    HW1 7376   2.318   0.372   5.227
 2159SOL    HW2 7377   2.224   0.505   5.242
 2160SOL     OW 7378   2.963   2.721   0.345
 2160SOL    HW1 7379   3.059   2.731   0.320
 2160SOL    HW2 7380   2.953   2.642   0.405
 2161SOL     OW 7381   5.174   2.202   3.588
 2161SOL    HW1 7382   5.098   2.173   3.647
 2161SOL    HW2 7383   5.145   2.198   3.493
 2162SOL     OW 7384   1.751   1.011   1.045
 2162SOL    HW1 7385   1.758   1.000   1.144
 2162SOL    HW2 7386   1.838   1.046   1.009
 2163SOL     OW 7387   2.212   1.925   1.347
 2163SOL    HW1 7388   2.147   1.860   1.308
 2163SOL    HW2 7389   2.296   1.924   1.294
 2164SOL     OW 7390   6.496   6.800   1.250
 2164SOL    HW1 7391   6.565   6.865   1.281
 2164SOL    HW2 7392   6.455   6.755   1.329
 2165SOL     OW 7393   3.093   0.379   2.012
 2165SOL    HW1 7394   3.043   0.422   1.938
 2165SOL    HW2 7395   3.110   0.446   2.084
 2166SOL     OW 7396   5.864   2.674   6.066
 2166SOL    HW1 7397   5.840   2.764   6.103
 2166SOL    HW2 7398   5.805   2.653   5.989
 2167SOL     OW 7399   2.996   0.977   1.518
 2167SOL    HW1 7400   2.907   0.971   1.473
 2167SOL    HW2 7401   3.042   1.062   1.492
 2168SOL     OW 7402   5.833   6.570   4.917
 2168SOL    HW1 7403   5.930   6.579   4.894
 2168SOL    HW2 7404   5.824   6.533   5.009
 2169SOL     OW 7405   6.007   1.693   5.786
 2169SOL    HW1 7406   5.959   1.765   5.835
 2169SOL    HW2 7407   5.941   1.628   5.749
 2170SOL     OW 7408   5.216   4.424   4.569
 2170SOL    HW1 7409   5.175   4.436   4.660
 2170SOL    HW2 7410   5.159   4.471   4.501
 2171SOL     OW 7411   0.044   3.403   0.342
 2171SOL    HW1 7412   0.082   3.491   0.313
 2171SOL    HW2 7413   0.077   3.331   0.281
 2172SOL     OW 7414   2.399   0.319   1.908
 2172SOL    HW1 7415   2.463   0.272   1.969
 2172SOL    HW2 7416   2.429   0.413   1.894
 2173SOL     OW 7417   4.548   2.337   4.828
 2173SOL    HW1 7418   4.589   2.255   4.789
 2173SOL    HW2 7419   4.594   2.360   4.914
 2174SOL     OW 7420   1.371   5.520   4.890
 2174SOL    HW1 7421   1.390   5.618   4.897
 2174SOL    HW2 7422   1.339   5.486   4.978
 2175SOL     OW 7423   1.824   6.046   5.890
 2175SOL    HW1 7424   1.902   6.009   5.940
 2175SOL    HW2 7425   1.741   5.997   5.915
 2176SOL     OW 7426   1.596   2.672   2.545
 2176SOL    HW1 7427   1.607   2.590   2.602
 2176SOL    HW2 7428   1.667   2.673   2.474
 2177SOL     OW 7429   0.545   2.214   1.534
 2177SOL    HW1 7430   0.553   2.146   1.462
 2177SOL    HW2 7431   0.537   2.168   1.623
 2178SOL     OW 7432   6.624   6.547   1.132
 2178SOL    HW1 7433   6.597   6.480   1.063
 2178SOL    HW2 7434   6.550   6.614   1.144
 2179SOL     OW 7435   1.492   3.781   4.027
 2179SOL    HW1 7436   1.461   3.698   4.075
 2179SOL    HW2 7437   1.586   3.769   3.998
 2180SOL     OW 7438   3.251   2.858   1.656
 2180SOL    HW1 7439   3.340   2.905   1.659
 2180SOL    HW2 7440   3.266   2.760   1.651
 2181SOL     OW 7441   3.422   6.501   1.557
 2181SOL    HW1 7442   3.447   6.595   1.579
 2181SOL    HW2 7443   3.417   6.491   1.457
 2182SOL     OW 7444   4.955   2.204   1.045
 2182SOL    HW1 7445   5.032   2.244   1.095
 2182SOL    HW2 7446   4.951   2.244   0.953
 2183SOL     OW 7447   2.941   2.479   0.476
 2183SOL    HW1 7448   2.984   2.445   0.560
 2183SOL    HW2 7449   2.879   2.410   0.440
 2184SOL     OW 7450   4.533   3.290   6.422
 2184SOL    HW1 7451   4.480   3.358   6.472
 2184SOL    HW2 7452   4.486   3.202   6.424
 2185SOL     OW 7453   6.808   6.768   1.977
 2185SOL    HW1 7454   6.908   6.760   1.975
 2185SOL    HW2 7455   6.780   6.851   1.929
 2186SOL     OW 7456   0.269   4.461   3.216
 2186SOL    HW1 7457   0.287   4.477   3.313
 2186SOL    HW2 7458   0.237   4.546   3.174
 2187SOL     OW 7459   6.363   1.468   0.056
 2187SOL    HW1 7460   6.277   1.498   0.099
 2187SOL    HW2 7461   6.361   1.369   0.045
 2188SOL     OW 7462   4.855   1.195   4.121
 2188SOL    HW1 7463   4.772   1.171   4.171
 2188SOL    HW2 7464   4.890   1.282   4.156
 2189SOL     OW 7465   2.940   6.963   6.870
 2189SOL    HW1 7466   2.916   6.898   6.797
 2189SOL    HW2 7467   2.873   6.956   6.944
 2190SOL     OW 7468   4.998   2.389   0.826
 2190SOL    HW1 7469   4.948   2.473   0.843
 2190SOL    HW2 7470   4.997   2.368   0.728
 2191SOL     OW 7471   2.396   1.701   0.119
 2191SOL    HW1 7472   2.334   1.651   0.058
 2191SOL    HW2 7473   2.347   1.779   0.159
 2192SOL     OW 7474   3.700   5.625   2.527
 2192SOL    HW1 7475   3.759   5.683   2.471
 2192SOL    HW2 7476   3.668   5.548   2.472
 2193SOL     OW 7477   6.785   5.812   4.760
 2193SOL    HW1 7478   6.745   5.890   4.711
 2193SOL    HW2 7479   6.884   5.811   4.745
 2194SOL     OW 7480   2.699   0.427   1.701
 2194SOL    HW1 7481   2.641   0.469   1.770
 2194SOL    HW2 7482   2.660   0.443   1.610
 2195SOL     OW 7483   0.726   4.711   2.242
 2195SOL    HW1 7484   0.662   4.668   2.178
 2195SOL    HW2 7485   0.817   4.714   2.201
 2196SOL     OW 7486   4.241   3.146   0.533
 2196SOL    HW1 7487   4.235   3.128   0.631
 2196SOL    HW2 7488   4.253   3.244   0.517
 2197SOL     OW 7489   4.357   4.284   6.470
 2197SOL    HW1 7490   4.358   4.185   6.455
 2197SOL    HW2 7491   4.266   4.320   6.451
 2198SOL     OW 7492   6.191   4.469   0.456
 2198SOL    HW1 7493   6.222   4.435   0.368
 2198SOL    HW2 7494   6.230   4.412   0.529
 2199SOL     OW 7495   4.401   1.194   2.858
 2199SOL    HW1 7496   4.324   1.228   2.914
 2199SOL    HW2 7497   4.412   1.096   2.873
 2200SOL     OW 7498   2.847   6.774   4.288
 2200SOL    HW1 7499   2.892   6.766   4.378
 2200SOL    HW2 7500   2.820   6.683   4.257
 2201SOL     OW 7501   4.820   4.253   4.274
 2201SOL    HW1 7502   4.811   4.204   4.361
 2201SOL    HW2 7503   4.757   4.331   4.273
 2202SOL     OW 7504   4.571   5.808   3.928
 2202SOL    HW1 7505   4.585   5.713   3.899
 2202SOL    HW2 7506   4.558   5.810   4.027
 2203SOL     OW 7507   3.067   1.860   2.785
 2203SOL    HW1 7508   2.984   1.875   2.731
 2203SOL    HW2 7509   3.105   1.948   2.814
 2204SOL     OW 7510   2.754   2.299   0.387
 2204SOL    HW1 7511   2.707   2.256   0.464
 2204SOL    HW2 7512   2.687   2.346   0.329
 2205SOL     OW 7513   2.678   1.108   1.677
 2205SOL    HW1 7514   2.745   1.183   1.669
 2205SOL    HW2 7515   2.656   1.094   1.773
 2206SOL     OW 7516   1.734   3.047   0.242
 2206SOL    HW1 7517   1.682   3.104   0.306
 2206SOL    HW2 7518   1.818   3.016   0.286
 2207SOL     OW 7519   0.398   4.731   5.021
 2207SOL    HW1 7520   0.314   4.770   5.057
 2207SOL    HW2 7521   0.380   4.691   4.931
 2208SOL     OW 7522   6.680   4.805   2.197
 2208SOL    HW1 7523   6.687   4.726   2.257
 2208SOL    HW2 7524   6.696   4.889   2.249
 2209SOL     OW 7525   0.964   0.158   1.449
 2209SOL    HW1 7526   1.026   0.082   1.467
 2209SOL    HW2 7527   0.873   0.122   1.428
 2210SOL     OW 7528   2.149   5.197   3.540
 2210SOL    HW1 7529   2.131   5.123   3.475
 2210SOL    HW2 7530   2.174   5.280   3.490
 2211SOL     OW 7531   0.058   1.620   5.335
 2211SOL    HW1 7532   7.004   1.580   5.281
 2211SOL    HW2 7533   0.139   1.633   5.278
 2212SOL     OW 7534   1.626   6.590   6.206
 2212SOL    HW1 7535   1.579   6.615   6.290
 2212SOL    HW2 7536   1.688   6.664   6.178
 2213SOL     OW 7537   3.515   1.031   3.376
 2213SOL    HW1 7538   3.571   1.052   3.296
 2213SOL    HW2 7539   3.420   1.058   3.358
 2214SOL     OW 7540   4.452   0.712   4.532
 2214SOL    HW1 7541   4.471   0.615   4.524
 2214SOL    HW2 7542   4.487   0.760   4.451
 2215SOL     OW 7543   5.672   2.146   5.302
 2215SOL    HW1 7544   5.701   2.059   5.341
 2215SOL    HW2 7545   5.742   2.216   5.319
 2216SOL     OW 7546   2.940   0.964   2.581
 2216SOL    HW1 7547   3.007   1.032   2.610
 2216SOL    HW2 7548   2.986   0.878   2.561
 2217SOL     OW 7549   4.565   1.092   2.036
 2217SOL    HW1 7550   4.472   1.128   2.025
 2217SOL    HW2 7551   4.602   1.067   1.946
 2218SOL     OW 7552   1.012   0.372   2.716
 2218SOL    HW1 7553   1.025   0.461   2.759
 2218SOL    HW2 7554   1.091   0.314   2.735
 2219SOL     OW 7555   1.415   2.324   2.767
 2219SOL    HW1 7556   1.389   2.246   2.710
 2219SOL    HW2 7557   1.372   2.407   2.732
 2220SOL     OW 7558   0.864   0.527   1.977
 2220SOL    HW1 7559   0.910   0.532   1.888
 2220SOL    HW2 7560   0.922   0.569   2.047
 2221SOL     OW 7561   0.632   0.776   6.559
 2221SOL    HW1 7562   0.721   0.740   6.585
 2221SOL    HW2 7563   0.615   0.756   6.462
 2222SOL     OW 7564   6.406   5.532   3.429
 2222SOL    HW1 7565   6.472   5.544   3.503
 2222SOL    HW2 7566   6.314   5.548   3.464
 2223SOL     OW 7567   6.939   6.337   1.917
 2223SOL    HW1 7568   6.914   6.285   1.999
 2223SOL    HW2 7569   6.901   6.430   1.924
 2224SOL     OW 7570   1.141   4.878   1.379
 2224SOL    HW1 7571   1.042   4.865   1.375
 2224SOL    HW2 7572   1.164   4.972   1.356
 2225SOL     OW 7573   0.646   3.656   0.831
 2225SOL    HW1 7574   0.630   3.672   0.734
 2225SOL    HW2 7575   0.726   3.708   0.861
 2226SOL     OW 7576   4.068   3.831   2.105
 2226SOL    HW1 7577   4.070   3.731   2.112
 2226SOL    HW2 7578   4.143   3.869   2.159
 2227SOL     OW 7579   0.907   2.758   4.286
 2227SOL    HW1 7580   0.968   2.698   4.234
 2227SOL    HW2 7581   0.926   2.748   4.384
 2228SOL     OW 7582   2.908   4.749   4.089
 2228SOL    HW1 7583   2.813   4.779   4.078
 2228SOL    HW2 7584   2.937   4.701   4.006
 2229SOL     OW 7585   5.655   6.304   3.043
 2229SOL    HW1 7586   5.646   6.403   3.030
 2229SOL    HW2 7587   5.752   6.281   3.055
 2230SOL     OW 7588   2.748   5.064   1.563
 2230SOL    HW1 7589   2.794   5.122   1.631
 2230SOL    HW2 7590   2.727   5.119   1.482
 2231SOL     OW 7591   2.347   6.034   1.225
 2231SOL    HW1 7592   2.366   5.966   1.155
 2231SOL    HW2 7593   2.429   6.089   1.242
 2232SOL     OW 7594   5.450   2.642   3.674
 2232SOL    HW1 7595   5.529   2.701   3.655
 2232SOL    HW2 7596   5.481   2.549   3.692
 2233SOL     OW 7597   3.063   1.478   6.072
 2233SOL    HW1 7598   2.978   1.500   6.120
 2233SOL    HW2 7599   3.043   1.453   5.977
 2234SOL     OW 7600   3.490   2.623   1.143
 2234SOL    HW1 7601   3.420   2.680   1.185
 2234SOL    HW2 7602   3.452   2.579   1.061
 2235SOL     OW 7603   1.805   2.181   1.746
 2235SOL    HW1 7604   1.736   2.239   1.702
 2235SOL    HW2 7605   1.762   2.096   1.777
 2236SOL     OW 7606   1.390   5.296   5.951
 2236SOL    HW1 7607   1.360   5.310   6.046
 2236SOL    HW2 7608   1.413   5.385   5.911
 2237SOL     OW 7609   6.349   3.393   4.260
 2237SOL    HW1 7610   6.352   3.370   4.357
 2237SOL    HW2 7611   6.410   3.332   4.209
 2238SOL     OW 7612   6.253   6.238   0.881
 2238SOL    HW1 7613   6.278   6.268   0.789
 2238SOL    HW2 7614   6.201   6.311   0.926
 2239SOL     OW 7615   6.154   6.084   2.014
 2239SOL    HW1 7616   6.143   6.178   2.045
 2239SOL    HW2 7617   6.065   6.045   1.990
 2240SOL     OW 7618   5.884   3.689   1.890
 2240SOL    HW1 7619   5.934   3.753   1.832
 2240SOL    HW2 7620   5.819   3.637   1.834
 2241SOL     OW 7621   1.168   0.570   3.134
 2241SOL    HW1 7622   1.146   0.622   3.217
 2241SOL    HW2 7623   1.267   0.558   3.127
 2242SOL     OW 7624   3.485   1.737   2.347
 2242SOL    HW1 7625   3.538   1.766   2.426
 2242SOL    HW2 7626   3.546   1.726   2.268
 2243SOL     OW 7627   2.535   0.209   5.140
 2243SOL    HW1 7628   2.571   0.244   5.054
 2243SOL    HW2 7629   2.587   0.247   5.216
 2244SOL     OW 7630   3.020   1.276   5.058
 2244SOL    HW1 7631   3.038   1.364   5.102
 2244SOL    HW2 7632   2.947   1.229   5.107
 2245SOL     OW 7633   0.414   1.998   2.031
 2245SOL    HW1 7634   0.462   1.941   2.098
 2245SOL    HW2 7635   0.325   2.025   2.068
 2246SOL     OW 7636   1.784   4.935   5.195
 2246SOL    HW1 7637   1.862   4.918   5.135
 2246SOL    HW2 7638   1.710   4.873   5.171
 2247SOL     OW 7639   1.761   1.472   4.652
 2247SOL    HW1 7640   1.857   1.495   4.635
 2247SOL    HW2 7641   1.733   1.397   4.592
 2248SOL     OW 7642   4.434   3.872   5.328
 2248SOL    HW1 7643   4.376   3.910   5.400
 2248SOL    HW2 7644   4.410   3.777   5.312
 2249SOL     OW 7645   3.928   5.330   5.151
 2249SOL    HW1 7646   3.990   5.397   5.109
 2249SOL    HW2 7647   3.921   5.250   5.091
 2250SOL     OW 7648   4.317   4.849   1.467
 2250SOL    HW1 7649   4.286   4.890   1.553
 2250SOL    HW2 7650   4.408   4.885   1.445
 2251SOL     OW 7651   0.346   0.382   6.696
 2251SOL    HW1 7652   0.324   0.321   6.772
 2251SOL    HW2 7653   0.422   0.344   6.643
 2252SOL     OW 7654   3.171   0.395   6.277
 2252SOL    HW1 7655   3.112   0.468   6.242
 2252SOL    HW2 7656   3.262   0.404   6.237
 2253SOL     OW 7657   0.974   3.602   6.403
 2253SOL    HW1 7658   1.024   3.531   6.452
 2253SOL    HW2 7659   0.909   3.560   6.340
 2254SOL     OW 7660   1.961   4.671   6.350
 2254SOL    HW1 7661   2.011   4.642   6.432
 2254SOL    HW2 7662   2.020   4.728   6.293
 2255SOL     OW 7663   6.353   3.466   6.756
 2255SOL    HW1 7664   6.453   3.471   6.755
 2255SOL    HW2 7665   6.316   3.554   6.784
 2256SOL     OW 7666   2.674   4.660   2.203
 2256SOL    HW1 7667   2.734   4.667   2.283
 2256SOL    HW2 7668   2.729   4.632   2.124
 2257SOL     OW 7669   1.558   3.637   4.755
 2257SOL    HW1 7670   1.641   3.588   4.729
 2257SOL    HW2 7671   1.483   3.571   4.769
 2258SOL     OW 7672   2.178   4.943   5.213
 2258SOL    HW1 7673   2.126   4.891   5.281
 2258SOL    HW2 7674   2.272   4.910   5.211
 2259SOL     OW 7675   6.499   3.228   6.488
 2259SOL    HW1 7676   6.582   3.176   6.467
 2259SOL    HW2 7677   6.424   3.165   6.506
 2260SOL     OW 7678   4.175   2.958   1.095
 2260SOL    HW1 7679   4.215   2.952   1.186
 2260SOL    HW2 7680   4.135   2.870   1.070
 2261SOL     OW 7681   2.848   6.676   4.960
 2261SOL    HW1 7682   2.791   6.616   4.903
 2261SOL    HW2 7683   2.904   6.734   4.901
 2262SOL     OW 7684   3.807   1.508   3.009
 2262SOL    HW1 7685   3.907   1.499   3.016
 2262SOL    HW2 7686   3.782   1.604   3.021
 2263SOL     OW 7687   0.616   4.451   5.762
 2263SOL    HW1 7688   0.613   4.548   5.787
 2263SOL    HW2 7689   0.679   4.439   5.684
 2264SOL     OW 7690   3.030   3.918   3.295
 2264SOL    HW1 7691   2.994   3.825   3.296
 2264SOL    HW2 7692   3.019   3.960   3.385
 2265SOL     OW 7693   0.495   6.761   3.294
 2265SOL    HW1 7694   0.565   6.692   3.275
 2265SOL    HW2 7695   0.411   6.736   3.246
 2266SOL     OW 7696   6.212   0.476   6.151
 2266SOL    HW1 7697   6.170   0.389   6.176
 2266SOL    HW2 7698   6.186   0.500   6.057
 2267SOL     OW 7699   5.373   2.039   5.119
 2267SOL    HW1 7700   5.371   1.977   5.198
 2267SOL    HW2 7701   5.376   2.133   5.151
 2268SOL     OW 7702   6.639   5.707   6.825
 2268SOL    HW1 7703   6.587   5.685   6.907
 2268SOL    HW2 7704   6.606   5.652   6.748
 2269SOL     OW 7705   0.130   6.883   3.287
 2269SOL    HW1 7706   0.210   6.843   3.243
 2269SOL    HW2 7707   0.070   6.810   3.320
 2270SOL     OW 7708   3.509   3.252   3.122
 2270SOL    HW1 7709   3.590   3.281   3.172
 2270SOL    HW2 7710   3.465   3.176   3.170
 2271SOL     OW 7711   1.181   5.150   3.231
 2271SOL    HW1 7712   1.268   5.199   3.227
 2271SOL    HW2 7713   1.198   5.051   3.235
 2272SOL     OW 7714   5.388   2.101   5.561
 2272SOL    HW1 7715   5.410   2.140   5.650
 2272SOL    HW2 7716   5.410   2.167   5.489
 2273SOL     OW 7717   0.403   1.062   2.860
 2273SOL    HW1 7718   0.502   1.073   2.851
 2273SOL    HW2 7719   0.361   1.151   2.879
 2274SOL     OW 7720   0.932   4.609   3.283
 2274SOL    HW1 7721   0.857   4.571   3.229
 2274SOL    HW2 7722   0.963   4.541   3.349
 2275SOL     OW 7723   4.564   6.440   3.777
 2275SOL    HW1 7724   4.611   6.452   3.865
 2275SOL    HW2 7725   4.476   6.394   3.793
 2276SOL     OW 7726   3.175   5.765   2.268
 2276SOL    HW1 7727   3.136   5.839   2.323
 2276SOL    HW2 7728   3.190   5.798   2.174
 2277SOL     OW 7729   3.317   3.501   1.142
 2277SOL    HW1 7730   3.380   3.579   1.146
 2277SOL    HW2 7731   3.335   3.449   1.058
 2278SOL     OW 7732   4.594   6.152   1.345
 2278SOL    HW1 7733   4.690   6.169   1.327
 2278SOL    HW2 7734   4.538   6.207   1.284
 2279SOL     OW 7735   5.885   4.080   5.832
 2279SOL    HW1 7736   5.843   4.053   5.745
 2279SOL    HW2 7737   5.850   4.170   5.859
 2280SOL     OW 7738   5.428   0.067   6.085
 2280SOL    HW1 7739   5.525   0.041   6.080
 2280SOL    HW2 7740   5.394   0.048   6.177
 2281SOL     OW 7741   2.054   1.863   6.957
 2281SOL    HW1 7742   1.971   1.874   7.012
 2281SOL    HW2 7743   2.097   1.776   6.980
 2282SOL     OW 7744   3.870   6.096   1.756
 2282SOL    HW1 7745   3.841   6.143   1.672
 2282SOL    HW2 7746   3.834   6.002   1.755
 2283SOL     OW 7747   0.438   3.955   1.763
 2283SOL    HW1 7748   0.364   3.898   1.726
 2283SOL    HW2 7749   0.465   3.921   1.853
 2284SOL     OW 7750   2.344   1.961   1.887
 2284SOL    HW1 7751   2.358   1.878   1.940
 2284SOL    HW2 7752   2.273   2.016   1.929
 2285SOL     OW 7753   1.707   3.599   6.798
 2285SOL    HW1 7754   1.692   3.655   6.716
 2285SOL    HW2 7755   1.654   3.515   6.791
 2286SOL     OW 7756   6.660   6.239   4.360
 2286SOL    HW1 7757   6.718   6.289   4.296
 2286SOL    HW2 7758   6.567   6.275   4.356
 2287SOL     OW 7759   2.187   2.132   0.674
 2287SOL    HW1 7760   2.176   2.036   0.648
 2287SOL    HW2 7761   2.107   2.162   0.725
 2288SOL     OW 7762   2.719   5.448   4.792
 2288SOL    HW1 7763   2.761   5.382   4.854
 2288SOL    HW2 7764   2.652   5.401   4.734
 2289SOL     OW 7765   3.820   1.181   6.911
 2289SOL    HW1 7766   3.745   1.174   6.845
 2289SOL    HW2 7767   3.822   1.273   6.951
 2290SOL     OW 7768   3.407   3.678   4.148
 2290SOL    HW1 7769   3.373   3.770   4.133
 2290SOL    HW2 7770   3.502   3.683   4.179
 2291SOL     OW 7771   1.967   2.598   0.163
 2291SOL    HW1 7772   1.867   2.603   0.171
 2291SOL    HW2 7773   1.992   2.511   0.120
 2292SOL     OW 7774   4.693   1.804   3.002
 2292SOL    HW1 7775   4.622   1.873   3.016
 2292SOL    HW2 7776   4.749   1.798   3.085
 2293SOL     OW 7777   0.613   1.009   6.752
 2293SOL    HW1 7778   0.624   0.929   6.693
 2293SOL    HW2 7779   0.552   0.986   6.828
 2294SOL     OW 7780   0.220   1.032   5.513
 2294SOL    HW1 7781   0.132   1.079   5.506
 2294SOL    HW2 7782   0.237   1.009   5.608
 2295SOL     OW 7783   5.283   5.902   1.036
 2295SOL    HW1 7784   5.231   5.816   1.040
 2295SOL    HW2 7785   5.367   5.888   0.983
 2296SOL     OW 7786   3.711   5.604   4.256
 2296SOL    HW1 7787   3.691   5.669   4.329
 2296SOL    HW2 7788   3.650   5.525   4.264
 2297SOL     OW 7789   5.858   3.691   5.544
 2297SOL    HW1 7790   5.759   3.703   5.542
 2297SOL    HW2 7791   5.897   3.718   5.455
 2298SOL     OW 7792   2.890   3.221   5.114
 2298SOL    HW1 7793   2.808   3.266   5.149
 2298SOL    HW2 7794   2.907   3.137   5.165
 2299SOL     OW 7795   6.092   3.347   4.621
 2299SOL    HW1 7796   6.036   3.423   4.655
 2299SOL    HW2 7797   6.099   3.353   4.522
 2300SOL     OW 7798   5.299   0.117   2.588
 2300SOL    HW1 7799   5.338   0.149   2.502
 2300SOL    HW2 7800   5.254   0.029   2.574
 2301SOL     OW 7801   4.002   3.286   5.035
 2301SOL    HW1 7802   4.006   3.212   5.101
 2301SOL    HW2 7803   3.907   3.312   5.020
 2302SOL     OW 7804   6.299   3.354   5.986
 2302SOL    HW1 7805   6.345   3.339   6.073
 2302SOL    HW2 7806   6.234   3.429   5.994
 2303SOL     OW 7807   2.852   1.971   6.646
 2303SOL    HW1 7808   2.939   2.017   6.667
 2303SOL    HW2 7809   2.869   1.890   6.591
 2304SOL     OW 7810   6.640   6.968   2.660
 2304SOL    HW1 7811   6.718   6.911   2.635
 2304SOL    HW2 7812   6.625   0.017   2.588
 2305SOL     OW 7813   2.463   6.913   5.513
 2305SOL    HW1 7814   2.400   6.842   5.482
 2305SOL    HW2 7815   2.555   6.893   5.478
 2306SOL     OW 7816   1.940   4.466   4.742
 2306SOL    HW1 7817   1.874   4.532   4.706
 2306SOL    HW2 7818   2.031   4.487   4.708
 2307SOL     OW 7819   6.664   3.814   4.975
 2307SOL    HW1 7820   6.746   3.868   4.994
 2307SOL    HW2 7821   6.690   3.721   4.950
 2308SOL     OW 7822   0.666   5.739   2.425
 2308SOL    HW1 7823   0.698   5.832   2.410
 2308SOL    HW2 7824   0.744   5.676   2.425
 2309SOL     OW 7825   2.167   0.364   4.656
 2309SOL    HW1 7826   2.230   0.400   4.724
 2309SOL    HW2 7827   2.076   0.401   4.672
 2310SOL     OW 7828   4.386   6.892   0.662
 2310SOL    HW1 7829   4.379   6.980   0.710
 2310SOL    HW2 7830   4.310   6.833   0.689
 2311SOL     OW 7831   2.146   5.753   0.415
 2311SOL    HW1 7832   2.083   5.687   0.456
 2311SOL    HW2 7833   2.237   5.741   0.454
 2312SOL     OW 7834   3.571   5.163   2.497
 2312SOL    HW1 7835   3.583   5.077   2.447
 2312SOL    HW2 7836   3.646   5.175   2.562
 2313SOL     OW 7837   5.190   4.362   1.549
 2313SOL    HW1 7838   5.122   4.359   1.622
 2313SOL    HW2 7839   5.144   4.378   1.461
 2314SOL     OW 7840   2.629   4.751   3.990
 2314SOL    HW1 7841   2.566   4.715   4.059
 2314SOL    HW2 7842   2.609   4.847   3.973
 2315SOL     OW 7843   4.856   2.010   0.090
 2315SOL    HW1 7844   4.768   2.004   0.138
 2315SOL    HW2 7845   4.856   2.091   0.032
 2316SOL     OW 7846   4.921   3.241   2.019
 2316SOL    HW1 7847   4.906   3.295   2.102
 2316SOL    HW2 7848   4.842   3.183   2.003
 2317SOL     OW 7849   1.064   6.055   3.142
 2317SOL    HW1 7850   1.112   6.070   3.228
 2317SOL    HW2 7851   1.062   5.957   3.121
 2318SOL     OW 7852   0.275   1.601   4.272
 2318SOL    HW1 7853   0.296   1.505   4.293
 2318SOL    HW2 7854   0.235   1.607   4.180
 2319SOL     OW 7855   1.138   4.746   1.715
 2319SOL    HW1 7856   1.202   4.763   1.790
 2319SOL    HW2 7857   1.128   4.648   1.701
 2320SOL     OW 7858   6.650   4.444   4.567
 2320SOL    HW1 7859   6.604   4.507   4.505
 2320SOL    HW2 7860   6.585   4.412   4.636
 2321SOL     OW 7861   3.828   5.384   4.444
 2321SOL    HW1 7862   3.883   5.462   4.415
 2321SOL    HW2 7863   3.832   5.312   4.375
 2322SOL     OW 7864   2.960   0.494   4.615
 2322SOL    HW1 7865   2.862   0.512   4.605
 2322SOL    HW2 7866   2.988   0.512   4.709
 2323SOL     OW 7867   4.938   3.654   2.204
 2323SOL    HW1 7868   4.919   3.568   2.253
 2323SOL    HW2 7869   5.022   3.643   2.150
 2324SOL     OW 7870   0.938   5.023   3.677
 2324SOL    HW1 7871   0.940   4.955   3.603
 2324SOL    HW2 7872   1.031   5.054   3.696
 2325SOL     OW 7873   0.236   2.354   0.165
 2325SOL    HW1 7874   0.219   2.418   0.240
 2325SOL    HW2 7875   0.242   2.261   0.201
 2326SOL     OW 7876   0.635   4.016   0.261
 2326SOL    HW1 7877   0.639   4.057   0.169
 2326SOL    HW2 7878   0.715   4.046   0.314
 2327SOL     OW 7879   5.230   1.230   3.815
 2327SOL    HW1 7880   5.281   1.250   3.732
 2327SOL    HW2 7881   5.275   1.274   3.893
 2328SOL     OW 7882   6.663   5.300   3.620
 2328SOL    HW1 7883   6.713   5.374   3.574
 2328SOL    HW2 7884   6.575   5.285   3.575
 2329SOL     OW 7885   1.074   5.787   3.029
 2329SOL    HW1 7886   1.093   5.748   3.119
 2329SOL    HW2 7887   0.995   5.740   2.989
 2330SOL     OW 7888   0.574   3.971   1.238
 2330SOL    HW1 7889   0.554   4.015   1.325
 2330SOL    HW2 7890   0.585   3.872   1.253
 2331SOL     OW 7891   1.324   4.395   5.816
 2331SOL    HW1 7892   1.342   4.493   5.802
 2331SOL    HW2 7893   1.320   4.349   5.727
 2332SOL     OW 7894   5.149   2.737   5.823
 2332SOL    HW1 7895   5.175   2.704   5.732
 2332SOL    HW2 7896   5.118   2.832   5.817
 2333SOL     OW 7897   3.087   5.110   3.635
 2333SOL    HW1 7898   3.106   5.165   3.717
 2333SOL    HW2 7899   3.172   5.065   3.605
 2334SOL     OW 7900   2.629   0.422   6.521
 2334SOL    HW1 7901   2.718   0.446   6.558
 2334SOL    HW2 7902   2.632   0.329   6.483
 2335SOL     OW 7903   4.499   4.648   4.542
 2335SOL    HW1 7904   4.487   4.725   4.480
 2335SOL    HW2 7905   4.427   4.650   4.611
 2336SOL     OW 7906   4.484   3.064   5.460
 2336SOL    HW1 7907   4.516   3.089   5.552
 2336SOL    HW2 7908   4.386   3.082   5.453
 2337SOL     OW 7909   6.311   0.326   4.592
 2337SOL    HW1 7910   6.368   0.255   4.552
 2337SOL    HW2 7911   6.263   0.290   4.672
 2338SOL     OW 7912   1.425   6.911   6.851
 2338SOL    HW1 7913   1.483   6.962   6.914
 2338SOL    HW2 7914   1.470   6.905   6.761
 2339SOL     OW 7915   4.271   5.051   0.279
 2339SOL    HW1 7916   4.240   5.140   0.312
 2339SOL    HW2 7917   4.200   5.010   0.222
 2340SOL     OW 7918   3.909   4.920   4.209
 2340SOL    HW1 7919   3.816   4.941   4.238
 2340SOL    HW2 7920   3.967   4.904   4.289
 2341SOL     OW 7921   5.534   5.008   6.418
 2341SOL    HW1 7922   5.618   5.057   6.439
 2341SOL    HW2 7923   5.457   5.052   6.464
 2342SOL     OW 7924   6.866   6.937   4.967
 2342SOL    HW1 7925   6.863   6.898   5.059
 2342SOL    HW2 7926   6.892   0.013   4.972
 2343SOL     OW 7927   0.940   0.216   0.594
 2343SOL    HW1 7928   0.881   0.163   0.655
 2343SOL    HW2 7929   0.944   0.171   0.504
 2344SOL     OW 7930   2.422   1.221   2.661
 2344SOL    HW1 7931   2.488   1.150   2.636
 2344SOL    HW2 7932   2.333   1.178   2.680
 2345SOL     OW 7933   1.212   2.024   2.226
 2345SOL    HW1 7934   1.283   1.970   2.272
 2345SOL    HW2 7935   1.204   1.993   2.131
 2346SOL     OW 7936   4.978   3.095   5.160
 2346SOL    HW1 7937   4.902   3.042   5.196
 2346SOL    HW2 7938   4.989   3.179   5.213
 2347SOL     OW 7939   1.765   3.344   1.031
 2347SOL    HW1 7940   1.813   3.431   1.018
 2347SOL    HW2 7941   1.743   3.333   1.127
 2348SOL     OW 7942   2.757   6.986   1.814
 2348SOL    HW1 7943   2.670   6.948   1.847
 2348SOL    HW2 7944   2.822   6.911   1.798
 2349SOL     OW 7945   4.584   4.075   6.290
 2349SOL    HW1 7946   4.588   4.113   6.197
 2349SOL    HW2 7947   4.503   4.018   6.299
 2350SOL     OW 7948   2.478   6.322   5.216
 2350SOL    HW1 7949   2.551   6.257   5.237
 2350SOL    HW2 7950   2.408   6.277   5.160
 2351SOL     OW 7951   1.751   5.143   3.164
 2351SOL    HW1 7952   1.790   5.182   3.247
 2351SOL    HW2 7953   1.817   5.148   3.089
 2352SOL     OW 7954   5.759   4.744   0.490
 2352SOL    HW1 7955   5.753   4.799   0.407
 2352SOL    HW2 7956   5.670   4.742   0.536
 2353SOL     OW 7957   2.224   3.641   6.197
 2353SOL    HW1 7958   2.198   3.633   6.101
 2353SOL    HW2 7959   2.323   3.634   6.205
 2354SOL     OW 7960   4.380   1.868   2.350
 2354SOL    HW1 7961   4.284   1.842   2.346
 2354SOL    HW2 7962   4.417   1.872   2.257
 2355SOL     OW 7963   0.174   1.364   1.996
 2355SOL    HW1 7964   0.082   1.336   2.022
 2355SOL    HW2 7965   0.192   1.340   1.901
 2356SOL     OW 7966   3.021   5.247   3.871
 2356SOL    HW1 7967   2.923   5.242   3.889
 2356SOL    HW2 7968   3.057   5.334   3.906
 2357SOL     OW 7969   0.429   4.628   0.522
 2357SOL    HW1 7970   0.493   4.704   0.523
 2357SOL    HW2 7971   0.356   4.645   0.589
 2358SOL     OW 7972   3.177   1.026   5.141
 2358SOL    HW1 7973   3.142   1.119   5.128
 2358SOL    HW2 7974   3.274   1.030   5.167
 2359SOL     OW 7975   2.003   2.062   5.505
 2359SOL    HW1 7976   2.075   2.045   5.437
 2359SOL    HW2 7977   1.921   2.012   5.479
 2360SOL     OW 7978   3.508   5.032   0.491
 2360SOL    HW1 7979   3.432   5.035   0.556
 2360SOL    HW2 7980   3.594   5.049   0.539
 2361SOL     OW 7981   3.639   6.068   1.270
 2361SOL    HW1 7982   3.548   6.043   1.304
 2361SOL    HW2 7983   3.635   6.081   1.171
 2362SOL     OW 7984   3.412   4.979   4.001
 2362SOL    HW1 7985   3.404   5.066   3.953
 2362SOL    HW2 7986   3.394   4.904   3.937
 2363SOL     OW 7987   1.892   4.013   1.105
 2363SOL    HW1 7988   1.834   4.035   1.184
 2363SOL    HW2 7989   1.840   4.027   1.021
 2364SOL     OW 7990   3.904   1.705   2.416
 2364SOL    HW1 7991   3.976   1.743   2.358
 2364SOL    HW2 7992   3.927   1.721   2.513
 2365SOL     OW 7993   5.067   4.474   2.785
 2365SOL    HW1 7994   5.071   4.433   2.876
 2365SOL    HW2 7995   4.972   4.497   2.763
 2366SOL     OW 7996   3.105   5.088   5.370
 2366SOL    HW1 7997   3.009   5.078   5.344
 2366SOL    HW2 7998   3.157   5.125   5.294
 2367SOL     OW 7999   5.781   5.086   5.800
 2367SOL    HW1 8000   5.820   5.075   5.708
 2367SOL    HW2 8001   5.805   5.176   5.836
 2368SOL     OW 8002   5.188   0.647   5.817
 2368SOL    HW1 8003   5.189   0.578   5.744
 2368SOL    HW2 8004   5.115   0.625   5.882
 2369SOL     OW 8005   4.127   2.275   4.023
 2369SOL    HW1 8006   4.034   2.292   4.055
 2369SOL    HW2 8007   4.147   2.177   4.029
 2370SOL     OW 8008   5.389   1.802   1.881
 2370SOL    HW1 8009   5.382   1.883   1.940
 2370SOL    HW2 8010   5.421   1.830   1.791
 2371SOL     OW 8011   1.375   6.344   1.889
 2371SOL    HW1 8012   1.367   6.254   1.847
 2371SOL    HW2 8013   1.471   6.368   1.898
 2372SOL     OW 8014   6.895   0.248   6.141
 2372SOL    HW1 8015   6.914   0.150   6.144
 2372SOL    HW2 8016   6.860   0.278   6.230
 2373SOL     OW 8017   5.809   4.645   6.025
 2373SOL    HW1 8018   5.816   4.629   6.124
 2373SOL    HW2 8019   5.868   4.580   5.977
 2374SOL     OW 8020   6.293   6.441   2.271
 2374SOL    HW1 8021   6.318   6.511   2.205
 2374SOL    HW2 8022   6.372   6.383   2.289
 2375SOL     OW 8023   1.942   0.441   4.334
 2375SOL    HW1 8024   1.884   0.377   4.385
 2375SOL    HW2 8025   2.035   0.437   4.372
 2376SOL     OW 8026   5.314   2.203   3.087
 2376SOL    HW1 8027   5.377   2.161   3.152
 2376SOL    HW2 8028   5.325   2.302   3.089
 2377SOL     OW 8029   4.326   3.711   5.690
 2377SOL    HW1 8030   4.405   3.703   5.629
 2377SOL    HW2 8031   4.276   3.624   5.692
 2378SOL     OW 8032   0.743   1.485   0.226
 2378SOL    HW1 8033   0.735   1.393   0.189
 2378SOL    HW2 8034   0.824   1.530   0.188
 2379SOL     OW 8035   0.512   5.289   2.583
 2379SOL    HW1 8036   0.524   5.286   2.682
 2379SOL    HW2 8037   0.532   5.381   2.550
 2380SOL     OW 8038   4.670   5.917   6.784
 2380SOL    HW1 8039   4.573   5.901   6.802
 2380SOL    HW2 8040   4.715   5.949   6.868
 2381SOL     OW 8041   2.024   3.356   3.955
 2381SOL    HW1 8042   1.937   3.328   3.915
 2381SOL    HW2 8043   2.073   3.276   3.988
 2382SOL     OW 8044   0.259   5.172   2.901
 2382SOL    HW1 8045   0.266   5.171   3.000
 2382SOL    HW2 8046   0.351   5.180   2.862
 2383SOL     OW 8047   4.996   4.109   5.581
 2383SOL    HW1 8048   5.073   4.151   5.628
 2383SOL    HW2 8049   4.912   4.158   5.602
 2384SOL     OW 8050   0.105   2.026   2.408
 2384SOL    HW1 8051   0.050   2.109   2.416
 2384SOL    HW2 8052   0.104   1.994   2.313
 2385SOL     OW 8053   0.147   1.338   0.397
 2385SOL    HW1 8054   0.180   1.244   0.408
 2385SOL    HW2 8055   0.179   1.374   0.309
 2386SOL     OW 8056   5.954   6.120   4.536
 2386SOL    HW1 8057   5.924   6.044   4.478
 2386SOL    HW2 8058   5.950   6.092   4.632
 2387SOL     OW 8059   0.853   1.152   4.102
 2387SOL    HW1 8060   0.832   1.162   4.199
 2387SOL    HW2 8061   0.931   1.210   4.079
 2388SOL     OW 8062   0.644   3.654   5.512
 2388SOL    HW1 8063   0.573   3.722   5.493
 2388SOL    HW2 8064   0.603   3.563   5.508
 2389SOL     OW 8065   4.228   5.518   2.964
 2389SOL    HW1 8066   4.321   5.527   2.929
 2389SOL    HW2 8067   4.171   5.469   2.897
 2390SOL     OW 8068   4.712   2.780   6.778
 2390SOL    HW1 8069   4.748   2.873   6.776
 2390SOL    HW2 8070   4.785   2.716   6.801
 2391SOL     OW 8071   3.558   4.301   6.773
 2391SOL    HW1 8072   3.478   4.295   6.834
 2391SOL    HW2 8073   3.600   4.211   6.766
 2392SOL     OW 8074   4.223   4.751   5.767
 2392SOL    HW1 8075   4.238   4.832   5.710
 2392SOL    HW2 8076   4.145   4.766   5.827
 2393SOL     OW 8077   4.155   4.547   1.013
 2393SOL    HW1 8078   4.140   4.643   1.036
 2393SOL    HW2 8079   4.096   4.521   0.937
 2394SOL     OW 8080   6.723   1.475   3.599
 2394SOL    HW1 8081   6.804   1.475   3.540
 2394SOL    HW2 8082   6.710   1.566   3.638
 2395SOL     OW 8083   1.352   2.794   3.661
 2395SOL    HW1 8084   1.368   2.887   3.695
 2395SOL    HW2 8085   1.433   2.738   3.677
 2396SOL     OW 8086   6.759   0.150   6.791
 2396SOL    HW1 8087   6.746   0.242   6.828
 2396SOL    HW2 8088   6.793   0.156   6.697
 2397SOL     OW 8089   1.842   4.190   5.205
 2397SOL    HW1 8090   1.843   4.267   5.141
 2397SOL    HW2 8091   1.785   4.213   5.284
 2398SOL     OW 8092   4.375   6.740   4.153
 2398SOL    HW1 8093   4.461   6.777   4.190
 2398SOL    HW2 8094   4.326   6.813   4.105
 2399SOL     OW 8095   3.463   1.937   2.806
 2399SOL    HW1 8096   3.438   1.950   2.902
 2399SOL    HW2 8097   3.416   1.856   2.770
 2400SOL     OW 8098   1.984   3.544   0.410
 2400SOL    HW1 8099   1.982   3.597   0.325
 2400SOL    HW2 8100   1.922   3.466   0.402
 2401SOL     OW 8101   1.864   6.466   6.306
 2401SOL    HW1 8102   1.900   6.500   6.219
 2401SOL    HW2 8103   1.766   6.453   6.298
 2402SOL     OW 8104   1.260   3.810   2.363
 2402SOL    HW1 8105   1.331   3.880   2.364
 2402SOL    HW2 8106   1.215   3.810   2.274
 2403SOL     OW 8107   3.117   3.667   5.304
 2403SOL    HW1 8108   3.033   3.683   5.252
 2403SOL    HW2 8109   3.181   3.742   5.291
 2404SOL     OW 8110   5.948   1.443   0.996
 2404SOL    HW1 8111   5.983   1.351   1.014
 2404SOL    HW2 8112   6.009   1.489   0.931
 2405SOL     OW 8113   1.778   3.027   0.932
 2405SOL    HW1 8114   1.738   3.103   0.881
 2405SOL    HW2 8115   1.763   3.040   1.030
 2406SOL     OW 8116   3.787   5.675   4.983
 2406SOL    HW1 8117   3.831   5.602   4.931
 2406SOL    HW2 8118   3.694   5.647   5.006
 2407SOL     OW 8119   2.868   1.535   3.349
 2407SOL    HW1 8120   2.880   1.599   3.273
 2407SOL    HW2 8121   2.794   1.472   3.327
 2408SOL     OW 8122   2.594   0.427   5.566
 2408SOL    HW1 8123   2.534   0.349   5.548
 2408SOL    HW2 8124   2.625   0.424   5.661
 2409SOL     OW 8125   0.662   2.917   0.374
 2409SOL    HW1 8126   0.587   2.931   0.438
 2409SOL    HW2 8127   0.721   2.998   0.374
 2410SOL     OW 8128   0.400   3.164   4.435
 2410SOL    HW1 8129   0.326   3.170   4.368
 2410SOL    HW2 8130   0.479   3.216   4.401
 2411SOL     OW 8131   2.697   1.855   0.103
 2411SOL    HW1 8132   2.624   1.906   0.057
 2411SOL    HW2 8133   2.773   1.841   0.039
 2412SOL     OW 8134   3.372   2.383   5.871
 2412SOL    HW1 8135   3.319   2.394   5.787
 2412SOL    HW2 8136   3.312   2.353   5.945
 2413SOL     OW 8137   0.274   3.114   7.014
 2413SOL    HW1 8138   0.279   3.016   0.008
 2413SOL    HW2 8139   0.357   3.158   0.029
 2414SOL     OW 8140   6.643   1.105   5.183
 2414SOL    HW1 8141   6.614   1.086   5.277
 2414SOL    HW2 8142   6.742   1.094   5.176
 2415SOL     OW 8143   3.156   4.905   6.197
 2415SOL    HW1 8144   3.218   4.901   6.119
 2415SOL    HW2 8145   3.171   4.825   6.256
 2416SOL     OW 8146   6.787   2.285   3.035
 2416SOL    HW1 8147   6.826   2.368   2.995
 2416SOL    HW2 8148   6.716   2.249   2.975
 2417SOL     OW 8149   3.120   2.486   1.261
 2417SOL    HW1 8150   3.066   2.561   1.222
 2417SOL    HW2 8151   3.160   2.432   1.187
 2418SOL     OW 8152   4.866   3.806   7.010
 2418SOL    HW1 8153   4.932   3.880   0.005
 2418SOL    HW2 8154   4.905   3.738   6.949
 2419SOL     OW 8155   2.788   0.948   3.390
 2419SOL    HW1 8156   2.797   1.032   3.336
 2419SOL    HW2 8157   2.790   0.971   3.488
 2420SOL     OW 8158   1.195   3.956   2.596
 2420SOL    HW1 8159   1.206   3.915   2.506
 2420SOL    HW2 8160   1.147   3.892   2.657
 2421SOL     OW 8161   3.102   6.652   3.438
 2421SOL    HW1 8162   3.098   6.557   3.408
 2421SOL    HW2 8163   3.194   6.672   3.474
 2422SOL     OW 8164   4.456   5.112   0.526
 2422SOL    HW1 8165   4.404   5.040   0.571
 2422SOL    HW2 8166   4.494   5.077   0.440
 2423SOL     OW 8167   2.490   5.121   3.530
 2423SOL    HW1 8168   2.500   5.204   3.585
 2423SOL    HW2 8169   2.558   5.054   3.558
 2424SOL     OW 8170   4.741   6.939   6.274
 2424SOL    HW1 8171   4.832   6.981   6.272
 2424SOL    HW2 8172   4.671   7.008   6.255
 2425SOL     OW 8173   4.408   5.537   5.345
 2425SOL    HW1 8174   4.349   5.462   5.316
 2425SOL    HW2 8175   4.497   5.501   5.372
 2426SOL     OW 8176   2.679   2.372   4.972
 2426SOL    HW1 8177   2.723   2.414   4.892
 2426SOL    HW2 8178   2.748   2.322   5.025
 2427SOL     OW 8179   4.473   1.355   0.743
 2427SOL    HW1 8180   4.560   1.396   0.715
 2427SOL    HW2 8181   4.489   1.291   0.818
 2428SOL     OW 8182   1.853   1.744   2.666
 2428SOL    HW1 8183   1.773   1.713   2.717
 2428SOL    HW2 8184   1.915   1.666   2.652
 2429SOL     OW 8185   6.576   5.743   1.058
 2429SOL    HW1 8186   6.499   5.684   1.083
 2429SOL    HW2 8187   6.567   5.831   1.106
 2430SOL     OW 8188   6.146   0.915   6.190
 2430SOL    HW1 8189   6.137   0.997   6.246
 2430SOL    HW2 8190   6.130   0.938   6.094
 2431SOL     OW 8191   0.910   3.433   2.052
 2431SOL    HW1 8192   0.968   3.359   2.086
 2431SOL    HW2 8193   0.842   3.456   2.122
 2432SOL     OW 8194   2.398   4.959   1.847
 2432SOL    HW1 8195   2.431   5.047   1.883
 2432SOL    HW2 8196   2.431   4.885   1.905
 2433SOL     OW 8197   0.302   4.004   5.168
 2433SOL    HW1 8198   0.298   3.974   5.264
 2433SOL    HW2 8199   0.283   4.102   5.163
 2434SOL     OW 8200   4.631   1.130   3.392
 2434SOL    HW1 8201   4.648   1.187   3.312
 2434SOL    HW2 8202   4.657   1.035   3.371
 2435SOL     OW 8203   6.132   6.547   6.784
 2435SOL    HW1 8204   6.173   6.464   6.747
 2435SOL    HW2 8205   6.127   6.617   6.712
 2436SOL     OW 8206   0.064   2.964   0.761
 2436SOL    HW1 8207   0.095   3.046   0.714
 2436SOL    HW2 8208   0.012   2.906   0.697
 2437SOL     OW 8209   6.846   3.842   1.226
 2437SOL    HW1 8210   6.771   3.907   1.241
 2437SOL    HW2 8211   6.809   3.758   1.185
 2438SOL     OW 8212   3.592   1.642   4.520
 2438SOL    HW1 8213   3.548   1.724   4.483
 2438SOL    HW2 8214   3.550   1.561   4.480
 2439SOL     OW 8215   1.154   5.356   1.261
 2439SOL    HW1 8216   1.076   5.363   1.198
 2439SOL    HW2 8217   1.181   5.448   1.291
 2440SOL     OW 8218   6.762   0.550   5.350
 2440SOL    HW1 8219   6.693   0.486   5.318
 2440SOL    HW2 8220   6.847   0.502   5.368
 2441SOL     OW 8221   5.889   0.553   0.880
 2441SOL    HW1 8222   5.815   0.620   0.879
 2441SOL    HW2 8223   5.851   0.461   0.873
 2442SOL     OW 8224   5.736   2.884   1.666
 2442SOL    HW1 8225   5.675   2.956   1.700
 2442SOL    HW2 8226   5.819   2.881   1.722
 2443SOL     OW 8227   0.505   3.599   1.770
 2443SOL    HW1 8228   0.435   3.653   1.724
 2443SOL    HW2 8229   0.462   3.522   1.817
 2444SOL     OW 8230   3.606   5.206   2.109
 2444SOL    HW1 8231   3.546   5.236   2.184
 2444SOL    HW2 8232   3.572   5.119   2.073
 2445SOL     OW 8233   0.237   1.499   1.303
 2445SOL    HW1 8234   0.327   1.462   1.324
 2445SOL    HW2 8235   0.202   1.456   1.220
 2446SOL     OW 8236   0.487   5.479   2.069
 2446SOL    HW1 8237   0.486   5.413   2.144
 2446SOL    HW2 8238   0.485   5.572   2.106
 2447SOL     OW 8239   2.045   0.020   0.629
 2447SOL    HW1 8240   1.979   6.988   0.683
 2447SOL    HW2 8241   2.136   7.000   0.638
 2448SOL     OW 8242   5.729   1.098   5.032
 2448SOL    HW1 8243   5.665   1.175   5.038
 2448SOL    HW2 8244   5.679   1.015   5.007
 2449SOL     OW 8245   1.587   4.439   1.220
 2449SOL    HW1 8246   1.668   4.425   1.278
 2449SOL    HW2 8247   1.568   4.355   1.169
 2450SOL     OW 8248   0.821   6.313   4.690
 2450SOL    HW1 8249   0.811   6.278   4.597
 2450SOL    HW2 8250   0.732   6.316   4.735
 2451SOL     OW 8251   1.803   6.903   5.621
 2451SOL    HW1 8252   1.793   7.001   5.641
 2451SOL    HW2 8253   1.788   6.850   5.705
 2452SOL     OW 8254   2.605   1.745   3.890
 2452SOL    HW1 8255   2.561   1.832   3.907
 2452SOL    HW2 8256   2.655   1.749   3.803
 2453SOL     OW 8257   1.184   1.617   5.859
 2453SOL    HW1 8258   1.274   1.661   5.863
 2453SOL    HW2 8259   1.185   1.533   5.914
 2454SOL     OW 8260   3.254   6.184   0.980
 2454SOL    HW1 8261   3.232   6.197   0.883
 2454SOL    HW2 8262   3.240   6.089   1.005
 2455SOL     OW 8263   4.212   2.167   0.989
 2455SOL    HW1 8264   4.227   2.154   1.087
 2455SOL    HW2 8265   4.161   2.089   0.953
 2456SOL     OW 8266   0.398   3.473   6.117
 2456SOL    HW1 8267   0.374   3.514   6.029
 2456SOL    HW2 8268   0.475   3.411   6.105
 2457SOL     OW 8269   4.017   2.238   5.293
 2457SOL    HW1 8270   4.031   2.212   5.197
 2457SOL    HW2 8271   3.927   2.206   5.323
 2458SOL     OW 8272   0.327   6.991   3.023
 2458SOL    HW1 8273   0.340   6.896   3.052
 2458SOL    HW2 8274   0.273   0.020   3.090
 2459SOL     OW 8275   1.848   6.907   0.801
 2459SOL    HW1 8276   1.828   6.858   0.886
 2459SOL    HW2 8277   1.798   6.865   0.726
 2460SOL     OW 8278   0.512   0.724   4.527
 2460SOL    HW1 8279   0.526   0.752   4.622
 2460SOL    HW2 8280   0.499   0.625   4.523
 2461SOL     OW 8281   4.446   1.296   3.575
 2461SOL    HW1 8282   4.444   1.347   3.662
 2461SOL    HW2 8283   4.526   1.237   3.573
 2462SOL     OW 8284   0.482   5.465   0.440
 2462SOL    HW1 8285   0.432   5.434   0.521
 2462SOL    HW2 8286   0.486   5.390   0.373
 2463SOL     OW 8287   6.264   0.129   0.274
 2463SOL    HW1 8288   6.320   0.046   0.273
 2463SOL    HW2 8289   6.320   0.207   0.301
 2464SOL     OW 8290   0.750   2.234   4.432
 2464SOL    HW1 8291   0.803   2.240   4.347
 2464SOL    HW2 8292   0.699   2.319   4.445
 2465SOL     OW 8293   0.065   6.861   5.918
 2465SOL    HW1 8294   0.143   6.844   5.978
 2465SOL    HW2 8295   0.060   6.789   5.848
 2466SOL     OW 8296   0.900   1.629   1.625
 2466SOL    HW1 8297   0.883   1.707   1.564
 2466SOL    HW2 8298   0.821   1.568   1.623
 2467SOL     OW 8299   5.763   2.631   5.387
 2467SOL    HW1 8300   5.822   2.617   5.307
 2467SOL    HW2 8301   5.806   2.697   5.448
 2468SOL     OW 8302   3.420   6.805   5.349
 2468SOL    HW1 8303   3.403   6.791   5.252
 2468SOL    HW2 8304   3.491   6.875   5.361
 2469SOL     OW 8305   3.558   1.789   5.704
 2469SOL    HW1 8306   3.533   1.878   5.742
 2469SOL    HW2 8307   3.657   1.787   5.686
 2470SOL     OW 8308   2.302   5.365   6.309
 2470SOL    HW1 8309   2.392   5.346   6.271
 2470SOL    HW2 8310   2.235   5.370   6.235
 2471SOL     OW 8311   2.840   5.257   1.788
 2471SOL    HW1 8312   2.919   5.308   1.823
 2471SOL    HW2 8313   2.800   5.202   1.861
 2472SOL     OW 8314   4.833   1.315   3.840
 2472SOL    HW1 8315   4.862   1.282   3.930
 2472SOL    HW2 8316   4.876   1.403   3.822
 2473SOL     OW 8317   0.388   4.113   3.843
 2473SOL    HW1 8318   0.468   4.103   3.902
 2473SOL    HW2 8319   0.411   4.083   3.750
 2474SOL     OW 8320   0.829   5.889   1.968
 2474SOL    HW1 8321   0.756   5.907   2.034
 2474SOL    HW2 8322   0.815   5.944   1.886
 2475SOL     OW 8323   4.484   1.025   0.239
 2475SOL    HW1 8324   4.551   1.047   0.309
 2475SOL    HW2 8325   4.458   0.929   0.245
 2476SOL     OW 8326   4.860   0.529   0.864
 2476SOL    HW1 8327   4.792   0.482   0.920
 2476SOL    HW2 8328   4.879   0.619   0.903
 2477SOL     OW 8329   3.806   0.256   3.439
 2477SOL    HW1 8330   3.783   0.353   3.443
 2477SOL    HW2 8331   3.795   0.223   3.345
 2478SOL     OW 8332   5.030   0.203   4.973
 2478SOL    HW1 8333   5.085   0.284   4.997
 2478SOL    HW2 8334   4.954   0.195   5.037
 2479SOL     OW 8335   5.888   3.219   0.852
 2479SOL    HW1 8336   5.868   3.128   0.887
 2479SOL    HW2 8337   5.828   3.239   0.774
 2480SOL     OW 8338   3.592   2.254   1.385
 2480SOL    HW1 8339   3.539   2.206   1.316
 2480SOL    HW2 8340   3.533   2.274   1.464
 2481SOL     OW 8341   3.180   0.106   1.820
 2481SOL    HW1 8342   3.155   0.053   1.739
 2481SOL    HW2 8343   3.101   0.114   1.881
 2482SOL     OW 8344   6.251   3.240   6.920
 2482SOL    HW1 8345   6.239   3.150   6.878
 2482SOL    HW2 8346   6.291   3.304   6.854
 2483SOL     OW 8347   1.201   2.807   1.161
 2483SOL    HW1 8348   1.153   2.762   1.086
 2483SOL    HW2 8349   1.299   2.794   1.152
 2484SOL     OW 8350   4.311   1.049   0.476
 2484SOL    HW1 8351   4.406   1.050   0.508
 2484SOL    HW2 8352   4.304   1.103   0.392
 2485SOL     OW 8353   0.264   1.857   6.531
 2485SOL    HW1 8354   0.168   1.863   6.503
 2485SOL    HW2 8355   0.296   1.946   6.563
 2486SOL     OW 8356   6.980   5.751   4.203
 2486SOL    HW1 8357   7.005   5.733   4.108
 2486SOL    HW2 8358   0.043   5.764   4.257
 2487SOL     OW 8359   5.024   6.619   6.789
 2487SOL    HW1 8360   5.007   6.525   6.818
 2487SOL    HW2 8361   5.087   6.619   6.712
 2488SOL     OW 8362   6.091   4.059   0.617
 2488SOL    HW1 8363   6.115   4.038   0.712
 2488SOL    HW2 8364   6.024   3.992   0.585
 2489SOL     OW 8365   6.509   5.454   4.418
 2489SOL    HW1 8366   6.583   5.499   4.367
 2489SOL    HW2 8367   6.515   5.480   4.514
 2490SOL     OW 8368   2.712   5.664   3.319
 2490SOL    HW1 8369   2.789   5.703   3.269
 2490SOL    HW2 8370   2.701   5.568   3.294
 2491SOL     OW 8371   3.827   4.570   1.662
 2491SOL    HW1 8372   3.736   4.550   1.698
 2491SOL    HW2 8373   3.867   4.487   1.624
 2492SOL     OW 8374   6.616   5.123   1.568
 2492SOL    HW1 8375   6.670   5.094   1.647
 2492SOL    HW2 8376   6.675   5.127   1.487
 2493SOL     OW 8377   5.563   6.857   0.754
 2493SOL    HW1 8378   5.465   6.853   0.774
 2493SOL    HW2 8379   5.578   6.871   0.656
 2494SOL     OW 8380   6.369   3.750   1.967
 2494SOL    HW1 8381   6.421   3.729   1.884
 2494SOL    HW2 8382   6.320   3.837   1.954
 2495SOL     OW 8383   0.420   4.581   2.725
 2495SOL    HW1 8384   0.435   4.500   2.669
 2495SOL    HW2 8385   0.325   4.610   2.717
 2496SOL     OW 8386   5.801   4.600   6.279
 2496SOL    HW1 8387   5.872   4.628   6.344
 2496SOL    HW2 8388   5.715   4.585   6.328
 2497SOL     OW 8389   0.401   6.806   2.209
 2497SOL    HW1 8390   0.448   6.865   2.275
 2497SOL    HW2 8391   0.322   6.854   2.172
 2498SOL     OW 8392   2.329   3.909   5.688
 2498SOL    HW1 8393   2.298   3.970   5.615
 2498SOL    HW2 8394   2.409   3.949   5.733
 2499SOL     OW 8395   6.316   3.547   1.716
 2499SOL    HW1 8396   6.304   3.471   1.780
 2499SOL    HW2 8397   6.402   3.536   1.668
 2500SOL     OW 8398   3.670   3.387   0.918
 2500SOL    HW1 8399   3.574   3.416   0.910
 2500SOL    HW2 8400   3.674   3.288   0.928
 2501SOL     OW 8401   5.604   5.488   6.609
 2501SOL    HW1 8402   5.514   5.447   6.598
 2501SOL    HW2 8403   5.661   5.467   6.529
 2502SOL     OW 8404   2.564   6.047   4.416
 2502SOL    HW1 8405   2.593   5.951   4.421
 2502SOL    HW2 8406   2.521   6.073   4.503
 2503SOL     OW 8407   2.681   6.824   5.360
 2503SOL    HW1 8408   2.672   6.867   5.270
 2503SOL    HW2 8409   2.765   6.857   5.404
 2504SOL     OW 8410   3.264   6.879   3.788
 2504SOL    HW1 8411   3.203   6.878   3.867
 2504SOL    HW2 8412   3.356   6.905   3.817
 2505SOL     OW 8413   0.180   4.753   3.906
 2505SOL    HW1 8414   0.109   4.685   3.920
 2505SOL    HW2 8415   0.253   4.715   3.850
 2506SOL     OW 8416   5.036   5.267   5.593
 2506SOL    HW1 8417   5.082   5.348   5.628
 2506SOL    HW2 8418   4.998   5.215   5.669
 2507SOL     OW 8419   6.598   3.114   1.464
 2507SOL    HW1 8420   6.572   3.193   1.409
 2507SOL    HW2 8421   6.523   3.048   1.465
 2508SOL     OW 8422   5.057   2.000   4.627
 2508SOL    HW1 8423   5.141   1.993   4.574
 2508SOL    HW2 8424   5.074   1.973   4.721
 2509SOL     OW 8425   0.046   4.197   5.665
 2509SOL    HW1 8426   0.060   4.240   5.576
 2509SOL    HW2 8427   6.996   4.247   5.716
 2510SOL     OW 8428   3.415   3.824   1.826
 2510SOL    HW1 8429   3.464   3.782   1.902
 2510SOL    HW2 8430   3.426   3.767   1.744
 2511SOL     OW 8431   1.932   0.695   4.512
 2511SOL    HW1 8432   1.975   0.650   4.434
 2511SOL    HW2 8433   1.841   0.728   4.485
 2512SOL     OW 8434   3.402   4.983   4.288
 2512SOL    HW1 8435   3.397   4.970   4.189
 2512SOL    HW2 8436   3.340   4.920   4.333
 2513SOL     OW 8437   2.335   5.354   5.846
 2513SOL    HW1 8438   2.371   5.432   5.898
 2513SOL    HW2 8439   2.236   5.350   5.857
 2514SOL     OW 8440   1.493   2.187   2.522
 2514SOL    HW1 8441   1.579   2.208   2.568
 2514SOL    HW2 8442   1.472   2.258   2.455
 2515SOL     OW 8443   1.293   1.214   1.394
 2515SOL    HW1 8444   1.259   1.307   1.383
 2515SOL    HW2 8445   1.393   1.217   1.406
 2516SOL     OW 8446   6.106   1.937   4.144
 2516SOL    HW1 8447   6.155   1.913   4.228
 2516SOL    HW2 8448   6.055   1.857   4.111
 2517SOL     OW 8449   1.459   1.503   4.071
 2517SOL    HW1 8450   1.473   1.487   4.169
 2517SOL    HW2 8451   1.505   1.430   4.019
 2518SOL     OW 8452   2.797   5.070   1.057
 2518SOL    HW1 8453   2.822   4.974   1.043
 2518SOL    HW2 8454   2.829   5.101   1.146
 2519SOL     OW 8455   1.164   1.200   0.944
 2519SOL    HW1 8456   1.205   1.280   0.989
 2519SOL    HW2 8457   1.113   1.146   1.011
 2520SOL     OW 8458   2.579   2.243   0.597
 2520SOL    HW1 8459   2.523   2.225   0.678
 2520SOL    HW2 8460   2.520   2.249   0.516
 2521SOL     OW 8461   4.864   1.579   5.316
 2521SOL    HW1 8462   4.836   1.486   5.291
 2521SOL    HW2 8463   4.795   1.619   5.377
 2522SOL     OW 8464   0.941   2.782   6.136
 2522SOL    HW1 8465   0.889   2.855   6.181
 2522SOL    HW2 8466   0.951   2.704   6.198
 2523SOL     OW 8467   1.802   4.730   6.763
 2523SOL    HW1 8468   1.761   4.684   6.684
 2523SOL    HW2 8469   1.842   4.817   6.734
 2524SOL     OW 8470   1.467   0.061   4.197
 2524SOL    HW1 8471   1.461   6.992   4.242
 2524SOL    HW2 8472   1.557   0.070   4.154
 2525SOL     OW 8473   6.624   2.463   5.135
 2525SOL    HW1 8474   6.720   2.487   5.153
 2525SOL    HW2 8475   6.593   2.508   5.052
 2526SOL     OW 8476   1.246   6.496   1.009
 2526SOL    HW1 8477   1.232   6.554   1.090
 2526SOL    HW2 8478   1.341   6.466   1.007
 2527SOL     OW 8479   4.875   4.752   6.089
 2527SOL    HW1 8480   4.798   4.817   6.088
 2527SOL    HW2 8481   4.885   4.715   6.181
 2528SOL     OW 8482   4.609   5.647   6.577
 2528SOL    HW1 8483   4.548   5.593   6.636
 2528SOL    HW2 8484   4.704   5.620   6.596
 2529SOL     OW 8485   0.639   6.926   6.865
 2529SOL    HW1 8486   0.733   6.960   6.873
 2529SOL    HW2 8487   0.621   6.899   6.770
 2530SOL     OW 8488   2.041   5.772   6.358
 2530SOL    HW1 8489   2.119   5.709   6.358
 2530SOL    HW2 8490   1.957   5.721   6.374
 2531SOL     OW 8491   6.612   5.194   5.873
 2531SOL    HW1 8492   6.646   5.144   5.794
 2531SOL    HW2 8493   6.689   5.235   5.923
 2532SOL     OW 8494   5.923   6.182   0.725
 2532SOL    HW1 8495   5.940   6.269   0.771
 2532SOL    HW2 8496   5.826   6.161   0.728
 2533SOL     OW 8497   4.982   1.158   3.676
 2533SOL    HW1 8498   5.068   1.167   3.726
 2533SOL    HW2 8499   4.908   1.197   3.730
 2534SOL     OW 8500   3.859   1.256   2.939
 2534SOL    HW1 8501   3.879   1.226   3.032
 2534SOL    HW2 8502   3.831   1.352   2.940
 2535SOL     OW 8503   3.979   2.951   6.379
 2535SOL    HW1 8504   3.882   2.928   6.391
 2535SOL    HW2 8505   3.993   3.048   6.400
 2536SOL     OW 8506   1.234   0.480   0.584
 2536SOL    HW1 8507   1.289   0.548   0.633
 2536SOL    HW2 8508   1.266   0.472   0.490
 2537SOL     OW 8509   3.876   0.126   6.590
 2537SOL    HW1 8510   3.927   0.040   6.592
 2537SOL    HW2 8511   3.927   0.194   6.538
 2538SOL     OW 8512   6.439   3.511   3.863
 2538SOL    HW1 8513   6.442   3.547   3.956
 2538SOL    HW2 8514   6.481   3.576   3.800
 2539SOL     OW 8515   5.435   2.256   5.304
 2539SOL    HW1 8516   5.528   2.227   5.326
 2539SOL    HW2 8517   5.431   2.356   5.300
 2540SOL     OW 8518   3.186   1.751   2.226
 2540SOL    HW1 8519   3.253   1.811   2.269
 2540SOL    HW2 8520   3.187   1.764   2.127
 2541SOL     OW 8521   3.366   6.427   4.538
 2541SOL    HW1 8522   3.328   6.349   4.588
 2541SOL    HW2 8523   3.321   6.434   4.449
 2542SOL     OW 8524   1.547   5.139   6.278
 2542SOL    HW1 8525   1.510   5.058   6.232
 2542SOL    HW2 8526   1.641   5.154   6.248
 2543SOL     OW 8527   1.615   1.325   3.927
 2543SOL    HW1 8528   1.590   1.229   3.913
 2543SOL    HW2 8529   1.713   1.333   3.944
 2544SOL     OW 8530   0.831   4.926   7.012
 2544SOL    HW1 8531   0.733   4.921   0.013
 2544SOL    HW2 8532   0.883   4.878   0.063
 2545SOL     OW 8533   2.958   5.826   2.701
 2545SOL    HW1 8534   3.014   5.793   2.777
 2545SOL    HW2 8535   2.863   5.835   2.730
 2546SOL     OW 8536   6.516   1.361   1.120
 2546SOL    HW1 8537   6.579   1.433   1.149
 2546SOL    HW2 8538   6.566   1.275   1.110
 2547SOL     OW 8539   0.660   3.485   4.911
 2547SOL    HW1 8540   0.712   3.441   4.984
 2547SOL    HW2 8541   0.663   3.584   4.923
 2548SOL     OW 8542   0.701   6.995   4.065
 2548SOL    HW1 8543   0.712   0.014   3.974
 2548SOL    HW2 8544   0.754   0.028   4.131
 2549SOL     OW 8545   6.631   2.506   1.156
 2549SOL    HW1 8546   6.650   2.448   1.236
 2549SOL    HW2 8547   6.539   2.488   1.123
 2550SOL     OW 8548   6.384   6.033   0.226
 2550SOL    HW1 8549   6.338   6.119   0.246
 2550SOL    HW2 8550   6.334   5.984   0.155
 2551SOL     OW 8551   1.227   4.319   6.665
 2551SOL    HW1 8552   1.233   4.411   6.627
 2551SOL    HW2 8553   1.310   4.268   6.644
 2552SOL     OW 8554   1.932   5.933   3.501
 2552SOL    HW1 8555   1.930   5.835   3.482
 2552SOL    HW2 8556   1.917   5.949   3.598
 2553SOL     OW 8557   3.853   3.816   6.809
 2553SOL    HW1 8558   3.849   3.801   6.907
 2553SOL    HW2 8559   3.897   3.738   6.765
 2554SOL     OW 8560   1.368   1.406   6.884
 2554SOL    HW1 8561   1.384   1.326   6.827
 2554SOL    HW2 8562   1.359   1.487   6.826
 2555SOL     OW 8563   6.390   1.202   0.017
 2555SOL    HW1 8564   6.441   1.131   0.066
 2555SOL    HW2 8565   6.401   1.188   6.938
 2556SOL     OW 8566   2.777   6.060   0.668
 2556SOL    HW1 8567   2.698   6.056   0.729
 2556SOL    HW2 8568   2.857   6.021   0.713
 2557SOL     OW 8569   2.242   4.009   0.154
 2557SOL    HW1 8570   2.214   4.070   0.227
 2557SOL    HW2 8571   2.258   4.062   0.070
 2558SOL     OW 8572   4.051   0.398   5.864
 2558SOL    HW1 8573   4.142   0.431   5.839
 2558SOL    HW2 8574   4.028   0.430   5.956
 2559SOL     OW 8575   0.140   4.848   5.075
 2559SOL    HW1 8576   0.070   4.779   5.091
 2559SOL    HW2 8577   0.098   4.930   5.038
 2560SOL     OW 8578   6.117   1.671   0.084
 2560SOL    HW1 8579   6.106   1.730   0.004
 2560SOL    HW2 8580   6.161   1.723   0.158
 2561SOL     OW 8581   3.604   5.527   4.548
 2561SOL    HW1 8582   3.557   5.517   4.461
 2561SOL    HW2 8583   3.685   5.468   4.549
 2562SOL     OW 8584   1.872   4.063   6.765
 2562SOL    HW1 8585   1.879   4.103   6.856
 2562SOL    HW2 8586   1.779   4.030   6.750
 2563SOL     OW 8587   2.060   1.471   0.173
 2563SOL    HW1 8588   2.130   1.404   0.151
 2563SOL    HW2 8589   2.066   1.494   0.270
 2564SOL     OW 8590   1.687   5.566   1.351
 2564SOL    HW1 8591   1.642   5.571   1.440
 2564SOL    HW2 8592   1.642   5.497   1.295
 2565SOL     OW 8593   1.912   0.417   1.245
 2565SOL    HW1 8594   1.980   0.354   1.282
 2565SOL    HW2 8595   1.886   0.483   1.315
 2566SOL     OW 8596   1.255   6.488   6.239
 2566SOL    HW1 8597   1.302   6.434   6.169
 2566SOL    HW2 8598   1.275   6.450   6.330
 2567SOL     OW 8599   1.292   6.070   0.341
 2567SOL    HW1 8600   1.345   6.107   0.265
 2567SOL    HW2 8601   1.354   6.036   0.412
 2568SOL     OW 8602   4.455   3.001   6.903
 2568SOL    HW1 8603   4.482   2.905   6.916
 2568SOL    HW2 8604   4.452   3.046   6.992
 2569SOL     OW 8605   2.499   0.547   3.020
 2569SOL    HW1 8606   2.426   0.571   2.957
 2569SOL    HW2 8607   2.486   0.595   3.107
 2570SOL     OW 8608   5.466   1.993   6.361
 2570SOL    HW1 8609   5.390   1.998   6.426
 2570SOL    HW2 8610   5.431   2.008   6.268
 2571SOL     OW 8611   1.113   4.130   4.573
 2571SOL    HW1 8612   1.180   4.076   4.521
 2571SOL    HW2 8613   1.081   4.077   4.651
 2572SOL     OW 8614   1.985   4.733   3.333
 2572SOL    HW1 8615   1.948   4.736   3.240
 2572SOL    HW2 8616   2.020   4.641   3.352
 2573SOL     OW 8617   1.001   0.217   0.937
 2573SOL    HW1 8618   1.000   0.310   0.902
 2573SOL    HW2 8619   1.035   0.216   1.031
 2574SOL     OW 8620   6.162   3.087   0.126
 2574SOL    HW1 8621   6.169   3.123   0.219
 2574SOL    HW2 8622   6.159   3.163   0.061
 2575SOL     OW 8623   0.585   5.547   6.278
 2575SOL    HW1 8624   0.517   5.517   6.212
 2575SOL    HW2 8625   0.541   5.598   6.352
 2576SOL     OW 8626   4.372   6.259   3.774
 2576SOL    HW1 8627   4.375   6.199   3.854
 2576SOL    HW2 8628   4.344   6.206   3.694
 2577SOL     OW 8629   2.358   4.294   2.455
 2577SOL    HW1 8630   2.282   4.248   2.409
 2577SOL    HW2 8631   2.431   4.312   2.390
 2578SOL     OW 8632   4.063   2.034   3.700
 2578SOL    HW1 8633   4.090   2.070   3.790
 2578SOL    HW2 8634   4.057   1.934   3.705
 2579SOL     OW 8635   0.890   6.432   3.739
 2579SOL    HW1 8636   0.795   6.461   3.751
 2579SOL    HW2 8637   0.950   6.487   3.798
 2580SOL     OW 8638   1.418   2.233   6.756
 2580SOL    HW1 8639   1.431   2.137   6.782
 2580SOL    HW2 8640   1.493   2.263   6.698
 2581SOL     OW 8641   3.398   0.546   5.178
 2581SOL    HW1 8642   3.402   0.621   5.112
 2581SOL    HW2 8643   3.379   0.460   5.129
 2582SOL     OW 8644   0.035   3.075   1.833
 2582SOL    HW1 8645   0.046   2.998   1.895
 2582SOL    HW2 8646   7.009   3.044   1.749
 2583SOL     OW 8647   6.037   0.267   0.785
 2583SOL    HW1 8648   6.072   0.313   0.866
 2583SOL    HW2 8649   6.089   0.297   0.705
 2584SOL     OW 8650   4.592   4.647   5.793
 2584SOL    HW1 8651   4.594   4.729   5.735
 2584SOL    HW2 8652   4.499   4.634   5.828
 2585SOL     OW 8653   3.353   4.995   6.377
 2585SOL    HW1 8654   3.409   4.920   6.341
 2585SOL    HW2 8655   3.283   5.019   6.310
 2586SOL     OW 8656   2.368   0.830   4.043
 2586SOL    HW1 8657   2.452   0.823   3.989
 2586SOL    HW2 8658   2.295   0.867   3.986
 2587SOL     OW 8659   0.059   1.266   3.865
 2587SOL    HW1 8660   0.027   1.278   3.959
 2587SOL    HW2 8661   0.070   1.168   3.846
 2588SOL     OW 8662   4.425   0.947   6.410
 2588SOL    HW1 8663   4.392   0.969   6.502
 2588SOL    HW2 8664   4.497   1.011   6.384
 2589SOL     OW 8665   1.930   6.555   0.079
 2589SOL    HW1 8666   1.996   6.487   0.112
 2589SOL    HW2 8667   1.837   6.521   0.094
 2590SOL     OW 8668   2.751   5.088   0.413
 2590SOL    HW1 8669   2.840   5.129   0.433
 2590SOL    HW2 8670   2.688   5.159   0.382
 2591SOL     OW 8671   6.191   5.625   3.887
 2591SOL    HW1 8672   6.225   5.544   3.839
 2591SOL    HW2 8673   6.192   5.704   3.824
 2592SOL     OW 8674   2.371   3.864   1.228
 2592SOL    HW1 8675   2.399   3.955   1.198
 2592SOL    HW2 8676   2.273   3.852   1.209
 2593SOL     OW 8677   3.320   4.068   0.751
 2593SOL    HW1 8678   3.222   4.057   0.736
 2593SOL    HW2 8679   3.366   3.979   0.742
 2594SOL     OW 8680   1.606   3.471   4.370
 2594SOL    HW1 8681   1.693   3.479   4.323
 2594SOL    HW2 8682   1.595   3.378   4.405
 2595SOL     OW 8683   2.017   1.545   2.620
 2595SOL    HW1 8684   2.090   1.570   2.683
 2595SOL    HW2 8685   2.056   1.512   2.534
 2596SOL     OW 8686   1.248   2.045   0.057
 2596SOL    HW1 8687   1.345   2.069   0.059
 2596SOL    HW2 8688   1.237   1.957   0.010
 2597SOL     OW 8689   6.873   6.173   6.477
 2597SOL    HW1 8690   6.817   6.187   6.559
 2597SOL    HW2 8691   6.817   6.189   6.396
 2598SOL     OW 8692   5.752   2.483   2.733
 2598SOL    HW1 8693   5.750   2.529   2.822
 2598SOL    HW2 8694   5.699   2.537   2.667
 2599SOL     OW 8695   2.848   5.941   1.659
 2599SOL    HW1 8696   2.769   5.887   1.689
 2599SOL    HW2 8697   2.932   5.893   1.682
 2600SOL     OW 8698   5.926   4.301   4.475
 2600SOL    HW1 8699   5.968   4.391   4.465
 2600SOL    HW2 8700   5.942   4.247   4.392
 2601SOL     OW 8701   0.037   1.797   3.716
 2601SOL    HW1 8702   0.042   1.794   3.816
 2601SOL    HW2 8703   0.051   1.705   3.679
 2602SOL     OW 8704   1.442   4.445   3.304
 2602SOL    HW1 8705   1.527   4.394   3.295
 2602SOL    HW2 8706   1.393   4.413   3.386
 2603SOL     OW 8707   2.888   6.513   2.640
 2603SOL    HW1 8708   2.959   6.559   2.694
 2603SOL    HW2 8709   2.828   6.462   2.701
 2604SOL     OW 8710   4.620   2.636   3.546
 2604SOL    HW1 8711   4.646   2.715   3.601
 2604SOL    HW2 8712   4.645   2.652   3.450
 2605SOL     OW 8713   2.041   3.984   1.820
 2605SOL    HW1 8714   2.078   3.976   1.728
 2605SOL    HW2 8715   2.056   3.898   1.869
 2606SOL     OW 8716   4.378   3.310   1.291
 2606SOL    HW1 8717   4.409   3.251   1.217
 2606SOL    HW2 8718   4.319   3.382   1.254
 2607SOL     OW 8719   2.640   2.583   1.508
 2607SOL    HW1 8720   2.652   2.574   1.607
 2607SOL    HW2 8721   2.710   2.528   1.461
 2608SOL     OW 8722   2.768   4.791   5.758
 2608SOL    HW1 8723   2.805   4.877   5.723
 2608SOL    HW2 8724   2.771   4.792   5.858
 2609SOL     OW 8725   7.004   2.522   1.102
 2609SOL    HW1 8726   0.079   2.505   1.129
 2609SOL    HW2 8727   7.002   2.591   1.029
 2610SOL     OW 8728   1.606   4.263   4.888
 2610SOL    HW1 8729   1.555   4.262   4.975
 2610SOL    HW2 8730   1.552   4.218   4.817
 2611SOL     OW 8731   4.717   0.241   6.708
 2611SOL    HW1 8732   4.620   0.225   6.691
 2611SOL    HW2 8733   4.767   0.233   6.621
 2612SOL     OW 8734   6.536   0.026   5.604
 2612SOL    HW1 8735   6.606   0.098   5.598
 2612SOL    HW2 8736   6.572   6.968   5.653
 2613SOL     OW 8737   1.176   6.547   6.536
 2613SOL    HW1 8738   1.152   6.589   6.624
 2613SOL    HW2 8739   1.093   6.532   6.483
 2614SOL     OW 8740   6.267   1.610   6.423
 2614SOL    HW1 8741   6.311   1.686   6.375
 2614SOL    HW2 8742   6.313   1.596   6.511
 2615SOL     OW 8743   0.543   3.105   0.071
 2615SOL    HW1 8744   0.498   3.066   0.151
 2615SOL    HW2 8745   0.637   3.130   0.093
 2616SOL     OW 8746   1.092   1.047   5.383
 2616SOL    HW1 8747   1.145   1.013   5.461
 2616SOL    HW2 8748   0.995   1.038   5.402
 2617SOL     OW 8749   4.896   0.078   1.274
 2617SOL    HW1 8750   4.822   0.020   1.307
 2617SOL    HW2 8751   4.938   0.036   1.194
 2618SOL     OW 8752   0.772   6.405   5.774
 2618SOL    HW1 8753   0.804   6.316   5.741
 2618SOL    HW2 8754   0.838   6.442   5.839
 2619SOL     OW 8755   5.568   1.287   2.683
 2619SOL    HW1 8756   5.469   1.293   2.697
 2619SOL    HW2 8757   5.592   1.193   2.657
 2620SOL     OW 8758   5.652   1.458   1.399
 2620SOL    HW1 8759   5.645   1.518   1.479
 2620SOL    HW2 8760   5.728   1.488   1.342
 2621SOL     OW 8761   1.726   5.958   1.568
 2621SOL    HW1 8762   1.776   5.882   1.609
 2621SOL    HW2 8763   1.719   6.032   1.635
 2622SOL     OW 8764   3.225   3.488   6.674
 2622SOL    HW1 8765   3.162   3.530   6.741
 2622SOL    HW2 8766   3.212   3.389   6.675
 2623SOL     OW 8767   0.304   6.326   3.281
 2623SOL    HW1 8768   0.328   6.367   3.192
 2623SOL    HW2 8769   0.312   6.226   3.275
 2624SOL     OW 8770   0.493   1.441   5.060
 2624SOL    HW1 8771   0.578   1.483   5.032
 2624SOL    HW2 8772   0.461   1.483   5.145
 2625SOL     OW 8773   2.299   4.880   6.408
 2625SOL    HW1 8774   2.291   4.978   6.423
 2625SOL    HW2 8775   2.392   4.859   6.376
 2626SOL     OW 8776   6.671   5.982   6.767
 2626SOL    HW1 8777   6.709   5.890   6.752
 2626SOL    HW2 8778   6.704   6.018   6.853
 2627SOL     OW 8779   1.783   0.106   6.090
 2627SOL    HW1 8780   1.812   0.091   6.184
 2627SOL    HW2 8781   1.864   0.120   6.032
 2628SOL     OW 8782   0.157   4.625   1.524
 2628SOL    HW1 8783   0.161   4.541   1.470
 2628SOL    HW2 8784   0.121   4.605   1.615
 2629SOL     OW 8785   3.261   4.088   2.519
 2629SOL    HW1 8786   3.228   4.092   2.425
 2629SOL    HW2 8787   3.361   4.098   2.520
 2630SOL     OW 8788   3.583   0.773   4.292
 2630SOL    HW1 8789   3.679   0.747   4.279
 2630SOL    HW2 8790   3.531   0.695   4.324
 2631SOL     OW 8791   5.513   0.369   0.149
 2631SOL    HW1 8792   5.440   0.306   0.126
 2631SOL    HW2 8793   5.530   0.430   0.072
 2632SOL     OW 8794   5.893   5.088   2.124
 2632SOL    HW1 8795   5.993   5.088   2.122
 2632SOL    HW2 8796   5.859   4.994   2.117
 2633SOL     OW 8797   0.277   3.144   6.201
 2633SOL    HW1 8798   0.353   3.091   6.239
 2633SOL    HW2 8799   0.306   3.185   6.114
 2634SOL     OW 8800   0.345   0.623   5.810
 2634SOL    HW1 8801   0.332   0.723   5.804
 2634SOL    HW2 8802   0.430   0.603   5.858
 2635SOL     OW 8803   4.588   5.686   3.386
 2635SOL    HW1 8804   4.526   5.615   3.421
 2635SOL    HW2 8805   4.583   5.766   3.446
 2636SOL     OW 8806   3.669   6.059   5.679
 2636SOL    HW1 8807   3.608   6.081   5.755
 2636SOL    HW2 8808   3.617   6.060   5.593
 2637SOL     OW 8809   0.939   0.845   3.349
 2637SOL    HW1 8810   1.002   0.831   3.426
 2637SOL    HW2 8811   0.860   0.898   3.380
 2638SOL     OW 8812   0.821   6.198   4.437
 2638SOL    HW1 8813   0.911   6.162   4.412
 2638SOL    HW2 8814   0.754   6.172   4.367
 2639SOL     OW 8815   4.311   4.835   5.099
 2639SOL    HW1 8816   4.312   4.764   5.028
 2639SOL    HW2 8817   4.231   4.893   5.086
 2640SOL     OW 8818   1.998   0.524   3.655
 2640SOL    HW1 8819   1.913   0.522   3.601
 2640SOL    HW2 8820   2.027   0.430   3.674
 2641SOL     OW 8821   6.211   2.233   6.687
 2641SOL    HW1 8822   6.196   2.329   6.663
 2641SOL    HW2 8823   6.309   2.217   6.703
 2642SOL     OW 8824   6.088   0.268   3.586
 2642SOL    HW1 8825   6.048   0.341   3.642
 2642SOL    HW2 8826   6.014   0.219   3.539
 2643SOL     OW 8827   2.297   4.634   3.880
 2643SOL    HW1 8828   2.221   4.603   3.823
 2643SOL    HW2 8829   2.341   4.713   3.838
 2644SOL     OW 8830   5.287   5.435   4.747
 2644SOL    HW1 8831   5.230   5.356   4.726
 2644SOL    HW2 8832   5.378   5.423   4.708
 2645SOL     OW 8833   4.688   5.984   3.400
 2645SOL    HW1 8834   4.727   5.999   3.491
 2645SOL    HW2 8835   4.758   5.950   3.338
 2646SOL     OW 8836   1.150   2.731   6.554
 2646SOL    HW1 8837   1.116   2.804   6.494
 2646SOL    HW2 8838   1.186   2.656   6.498
 2647SOL     OW 8839   4.965   0.265   2.665
 2647SOL    HW1 8840   4.938   0.236   2.573
 2647SOL    HW2 8841   4.984   0.185   2.722
 2648SOL     OW 8842   0.773   6.752   6.423
 2648SOL    HW1 8843   0.785   6.663   6.468
 2648SOL    HW2 8844   0.862   6.797   6.415
 2649SOL     OW 8845   5.126   1.429   3.318
 2649SOL    HW1 8846   5.050   1.369   3.345
 2649SOL    HW2 8847   5.148   1.491   3.394
 2650SOL     OW 8848   3.186   6.534   4.105
 2650SOL    HW1 8849   3.233   6.455   4.067
 2650SOL    HW2 8850   3.250   6.589   4.159
 2651SOL     OW 8851   4.560   2.387   4.279
 2651SOL    HW1 8852   4.534   2.398   4.375
 2651SOL    HW2 8853   4.478   2.374   4.223
 2652SOL     OW 8854   4.845   4.166   4.989
 2652SOL    HW1 8855   4.882   4.073   4.990
 2652SOL    HW2 8856   4.912   4.229   5.028
 2653SOL     OW 8857   2.297   6.128   6.736
 2653SOL    HW1 8858   2.301   6.227   6.732
 2653SOL    HW2 8859   2.244   6.093   6.659
 2654SOL     OW 8860   6.966   1.042   0.434
 2654SOL    HW1 8861   6.951   0.960   0.489
 2654SOL    HW2 8862   6.881   1.068   0.389
 2655SOL     OW 8863   5.453   6.499   2.857
 2655SOL    HW1 8864   5.525   6.473   2.792
 2655SOL    HW2 8865   5.485   6.576   2.912
 2656SOL     OW 8866   4.357   6.183   3.051
 2656SOL    HW1 8867   4.428   6.161   2.984
 2656SOL    HW2 8868   4.389   6.162   3.143
 2657SOL     OW 8869   0.929   3.447   0.148
 2657SOL    HW1 8870   0.996   3.438   0.222
 2657SOL    HW2 8871   0.919   3.544   0.124
 2658SOL     OW 8872   3.737   5.041   0.787
 2658SOL    HW1 8873   3.696   5.132   0.783
 2658SOL    HW2 8874   3.792   5.026   0.705
 2659SOL     OW 8875   6.872   2.129   5.095
 2659SOL    HW1 8876   6.948   2.126   5.030
 2659SOL    HW2 8877   6.793   2.172   5.052
 2660SOL     OW 8878   0.116   1.593   1.828
 2660SOL    HW1 8879   0.105   1.503   1.870
 2660SOL    HW2 8880   0.174   1.650   1.886
 2661SOL     OW 8881   1.490   1.036   0.995
 2661SOL    HW1 8882   1.589   1.034   1.010
 2661SOL    HW2 8883   1.443   1.010   1.080
 2662SOL     OW 8884   2.835   1.683   2.422
 2662SOL    HW1 8885   2.882   1.729   2.497
 2662SOL    HW2 8886   2.828   1.585   2.442
 2663SOL     OW 8887   3.865   6.862   0.156
 2663SOL    HW1 8888   3.793   6.806   0.114
 2663SOL    HW2 8889   3.953   6.814   0.147
 2664SOL     OW 8890   5.034   3.628   5.367
 2664SOL    HW1 8891   5.003   3.723   5.364
 2664SOL    HW2 8892   5.112   3.620   5.429
 2665SOL     OW 8893   1.896   3.251   4.229
 2665SOL    HW1 8894   1.975   3.191   4.237
 2665SOL    HW2 8895   1.878   3.294   4.317
 2666SOL     OW 8896   1.844   4.170   1.711
 2666SOL    HW1 8897   1.843   4.252   1.768
 2666SOL    HW2 8898   1.902   4.100   1.754
 2667SOL     OW 8899   6.913   2.511   5.082
 2667SOL    HW1 8900   6.935   2.477   4.990
 2667SOL    HW2 8901   6.989   2.493   5.143
 2668SOL     OW 8902   6.149   0.676   3.147
 2668SOL    HW1 8903   6.232   0.669   3.093
 2668SOL    HW2 8904   6.113   0.770   3.142
 2669SOL     OW 8905   2.416   0.527   0.289
 2669SOL    HW1 8906   2.456   0.556   0.376
 2669SOL    HW2 8907   2.334   0.472   0.307
 2670SOL     OW 8908   0.363   0.147   6.452
 2670SOL    HW1 8909   0.442   0.204   6.474
 2670SOL    HW2 8910   0.312   0.188   6.376
 2671SOL     OW 8911   5.082   4.454   6.176
 2671SOL    HW1 8912   5.170   4.481   6.139
 2671SOL    HW2 8913   5.086   4.358   6.207
 2672SOL     OW 8914   3.450   1.037   2.134
 2672SOL    HW1 8915   3.457   1.128   2.174
 2672SOL    HW2 8916   3.529   1.021   2.075
 2673SOL     OW 8917   3.650   0.786   2.425
 2673SOL    HW1 8918   3.742   0.746   2.427
 2673SOL    HW2 8919   3.657   0.885   2.419
 2674SOL     OW 8920   0.286   5.615   3.006
 2674SOL    HW1 8921   0.359   5.681   3.024
 2674SOL    HW2 8922   0.299   5.575   2.916
 2675SOL     OW 8923   4.630   1.154   4.324
 2675SOL    HW1 8924   4.592   1.116   4.408
 2675SOL    HW2 8925   4.620   1.253   4.325
 2676SOL     OW 8926   3.345   4.176   3.862
 2676SOL    HW1 8927   3.300   4.209   3.945
 2676SOL    HW2 8928   3.293   4.099   3.824
 2677SOL     OW 8929   2.004   5.830   1.325
 2677SOL    HW1 8930   1.995   5.740   1.282
 2677SOL    HW2 8931   1.935   5.891   1.289
 2678SOL     OW 8932   3.703   1.732   2.784
 2678SOL    HW1 8933   3.723   1.643   2.743
 2678SOL    HW2 8934   3.605   1.750   2.779
 2679SOL     OW 8935   2.199   3.064   2.394
 2679SOL    HW1 8936   2.217   2.972   2.430
 2679SOL    HW2 8937   2.196   3.129   2.470
 2680SOL     OW 8938   5.955   2.190   0.187
 2680SOL    HW1 8939   5.968   2.159   0.281
 2680SOL    HW2 8940   5.868   2.155   0.152
 2681SOL     OW 8941   1.950   2.637   3.361
 2681SOL    HW1 8942   1.938   2.695   3.442
 2681SOL    HW2 8943   2.032   2.581   3.374
 2682SOL     OW 8944   3.812   4.344   1.521
 2682SOL    HW1 8945   3.876   4.294   1.579
 2682SOL    HW2 8946   3.821   4.313   1.426
 2683SOL     OW 8947   2.305   4.172   1.935
 2683SOL    HW1 8948   2.402   4.157   1.954
 2683SOL    HW2 8949   2.254   4.088   1.952
 2684SOL     OW 8950   6.740   0.096   4.250
 2684SOL    HW1 8951   6.770   0.037   4.175
 2684SOL    HW2 8952   6.733   0.190   4.218
 2685SOL     OW 8953   0.745   5.831   5.126
 2685SOL    HW1 8954   0.746   5.758   5.057
 2685SOL    HW2 8955   0.654   5.873   5.128
 2686SOL     OW 8956   1.197   1.092   5.140
 2686SOL    HW1 8957   1.203   1.192   5.139
 2686SOL    HW2 8958   1.161   1.062   5.229
 2687SOL     OW 8959   4.173   2.128   1.634
 2687SOL    HW1 8960   4.090   2.085   1.671
 2687SOL    HW2 8961   4.234   2.057   1.599
 2688SOL     OW 8962   3.825   2.546   6.811
 2688SOL    HW1 8963   3.806   2.637   6.773
 2688SOL    HW2 8964   3.767   2.531   6.891
 2689SOL     OW 8965   0.857   3.970   3.398
 2689SOL    HW1 8966   0.762   3.955   3.425
 2689SOL    HW2 8967   0.918   3.942   3.472
 2690SOL     OW 8968   4.651   1.097   5.756
 2690SOL    HW1 8969   4.574   1.121   5.815
 2690SOL    HW2 8970   4.616   1.071   5.666
 2691SOL     OW 8971   0.065   3.816   5.460
 2691SOL    HW1 8972   0.063   3.756   5.380
 2691SOL    HW2 8973   0.000   3.892   5.446
 2692SOL     OW 8974   2.391   5.857   2.177
 2692SOL    HW1 8975   2.317   5.857   2.245
 2692SOL    HW2 8976   2.399   5.766   2.136
 2693SOL     OW 8977   1.214   6.371   3.599
 2693SOL    HW1 8978   1.210   6.276   3.566
 2693SOL    HW2 8979   1.267   6.426   3.535
 2694SOL     OW 8980   2.515   0.220   2.555
 2694SOL    HW1 8981   2.534   0.174   2.469
 2694SOL    HW2 8982   2.591   0.281   2.578
 2695SOL     OW 8983   0.654   5.231   3.643
 2695SOL    HW1 8984   0.739   5.274   3.672
 2695SOL    HW2 8985   0.631   5.157   3.706
 2696SOL     OW 8986   4.817   5.099   6.572
 2696SOL    HW1 8987   4.739   5.160   6.590
 2696SOL    HW2 8988   4.785   5.019   6.521
 2697SOL     OW 8989   4.115   1.929   0.040
 2697SOL    HW1 8990   4.075   1.943   0.130
 2697SOL    HW2 8991   4.151   1.835   0.034
 2698SOL     OW 8992   1.707   5.581   6.007
 2698SOL    HW1 8993   1.686   5.599   6.103
 2698SOL    HW2 8994   1.675   5.657   5.951
 2699SOL     OW 8995   2.640   6.450   2.334
 2699SOL    HW1 8996   2.690   6.366   2.355
 2699SOL    HW2 8997   2.558   6.456   2.392
 2700SOL     OW 8998   4.113   1.570   1.168
 2700SOL    HW1 8999   4.090   1.624   1.087
 2700SOL    HW2 9000   4.029   1.534   1.208
 2701SOL     OW 9001   4.999   3.475   4.316
 2701SOL    HW1 9002   4.981   3.394   4.260
 2701SOL    HW2 9003   4.951   3.553   4.276
 2702SOL     OW 9004   2.507   1.258   5.137
 2702SOL    HW1 9005   2.432   1.325   5.136
 2702SOL    HW2 9006   2.538   1.242   5.043
 2703SOL     OW 9007   2.428   6.486   2.526
 2703SOL    HW1 9008   2.459   6.474   2.620
 2703SOL    HW2 9009   2.348   6.545   2.524
 2704SOL     OW 9010   4.959   0.855   3.601
 2704SOL    HW1 9011   4.949   0.895   3.509
 2704SOL    HW2 9012   5.007   0.920   3.660
 2705SOL     OW 9013   0.169   0.383   5.476
 2705SOL    HW1 9014   0.150   0.285   5.479
 2705SOL    HW2 9015   0.089   0.433   5.509
 2706SOL     OW 9016   6.495   3.875   3.522
 2706SOL    HW1 9017   6.405   3.906   3.492
 2706SOL    HW2 9018   6.563   3.893   3.451
 2707SOL     OW 9019   4.284   0.859   3.600
 2707SOL    HW1 9020   4.234   0.901   3.676
 2707SOL    HW2 9021   4.382   0.863   3.619
 2708SOL     OW 9022   5.413   3.915   5.751
 2708SOL    HW1 9023   5.445   3.862   5.829
 2708SOL    HW2 9024   5.340   3.978   5.781
 2709SOL     OW 9025   4.647   1.368   5.696
 2709SOL    HW1 9026   4.662   1.423   5.779
 2709SOL    HW2 9027   4.671   1.273   5.714
 2710SOL     OW 9028   0.702   3.015   4.545
 2710SOL    HW1 9029   0.691   3.048   4.451
 2710SOL    HW2 9030   0.766   3.075   4.594
 2711SOL     OW 9031   4.354   0.983   1.708
 2711SOL    HW1 9032   4.319   1.036   1.631
 2711SOL    HW2 9033   4.327   1.028   1.794
 2712SOL     OW 9034   4.864   6.493   2.159
 2712SOL    HW1 9035   4.813   6.430   2.218
 2712SOL    HW2 9036   4.808   6.518   2.081
 2713SOL     OW 9037   3.771   5.018   5.051
 2713SOL    HW1 9038   3.785   4.938   5.110
 2713SOL    HW2 9039   3.780   4.990   4.956
 2714SOL     OW 9040   3.199   4.708   6.390
 2714SOL    HW1 9041   3.166   4.680   6.480
 2714SOL    HW2 9042   3.264   4.641   6.356
 2715SOL     OW 9043   4.225   0.107   6.342
 2715SOL    HW1 9044   4.285   0.184   6.362
 2715SOL    HW2 9045   4.155   0.136   6.276
 2716SOL     OW 9046   3.932   1.075   2.723
 2716SOL    HW1 9047   3.883   1.006   2.778
 2716SOL    HW2 9048   3.960   1.150   2.782
 2717SOL     OW 9049   0.978   1.935   1.358
 2717SOL    HW1 9050   0.938   2.017   1.318
 2717SOL    HW2 9051   1.078   1.945   1.361
 2718SOL     OW 9052   6.925   1.403   5.675
 2718SOL    HW1 9053   6.953   1.361   5.761
 2718SOL    HW2 9054   7.006   1.420   5.619
 2719SOL     OW 9055   1.405   5.035   3.453
 2719SOL    HW1 9056   1.450   5.106   3.399
 2719SOL    HW2 9057   1.461   4.952   3.452
 2720SOL     OW 9058   1.366   6.185   6.188
 2720SOL    HW1 9059   1.267   6.180   6.200
 2720SOL    HW2 9060   1.387   6.243   6.110
 2721SOL     OW 9061   2.803   6.708   1.805
 2721SOL    HW1 9062   2.764   6.692   1.896
 2721SOL    HW2 9063   2.898   6.736   1.814
 2722SOL     OW 9064   3.619   5.406   6.460
 2722SOL    HW1 9065   3.717   5.413   6.481
 2722SOL    HW2 9066   3.606   5.398   6.361
 2723SOL     OW 9067   3.663   6.116   6.503
 2723SOL    HW1 9068   3.720   6.037   6.524
 2723SOL    HW2 9069   3.648   6.169   6.587
 2724SOL     OW 9070   0.417   5.877   0.801
 2724SOL    HW1 9071   0.446   5.899   0.894
 2724SOL    HW2 9072   0.331   5.826   0.804
 2725SOL     OW 9073   5.885   4.414   4.123
 2725SOL    HW1 9074   5.806   4.375   4.171
 2725SOL    HW2 9075   5.898   4.366   4.036
 2726SOL     OW 9076   6.554   1.785   2.253
 2726SOL    HW1 9077   6.550   1.872   2.302
 2726SOL    HW2 9078   6.608   1.796   2.169
 2727SOL     OW 9079   1.730   5.558   3.645
 2727SOL    HW1 9080   1.651   5.523   3.595
 2727SOL    HW2 9081   1.765   5.488   3.707
 2728SOL     OW 9082   4.593   5.391   6.228
 2728SOL    HW1 9083   4.544   5.303   6.227
 2728SOL    HW2 9084   4.539   5.460   6.182
 2729SOL     OW 9085   5.723   0.548   6.416
 2729SOL    HW1 9086   5.651   0.509   6.358
 2729SOL    HW2 9087   5.684   0.578   6.503
 2730SOL     OW 9088   1.161   6.089   2.740
 2730SOL    HW1 9089   1.216   6.022   2.791
 2730SOL    HW2 9090   1.175   6.076   2.642
 2731SOL     OW 9091   3.208   4.085   4.368
 2731SOL    HW1 9092   3.173   3.993   4.350
 2731SOL    HW2 9093   3.208   4.102   4.466
 2732SOL     OW 9094   5.396   0.565   1.958
 2732SOL    HW1 9095   5.455   0.484   1.962
 2732SOL    HW2 9096   5.432   0.630   1.891
 2733SOL     OW 9097   0.826   6.102   0.114
 2733SOL    HW1 9098   0.907   6.046   0.130
 2733SOL    HW2 9099   0.744   6.051   0.142
 2734SOL     OW 9100   3.692   6.151   2.433
 2734SOL    HW1 9101   3.708   6.247   2.407
 2734SOL    HW2 9102   3.690   6.144   2.533
 2735SOL     OW 9103   0.685   1.441   1.591
 2735SOL    HW1 9104   0.656   1.414   1.499
 2735SOL    HW2 9105   0.605   1.464   1.646
 2736SOL     OW 9106   5.484   4.473   3.302
 2736SOL    HW1 9107   5.521   4.491   3.393
 2736SOL    HW2 9108   5.384   4.470   3.308
 2737SOL     OW 9109   3.028   0.494   5.427
 2737SOL    HW1 9110   3.085   0.573   5.402
 2737SOL    HW2 9111   2.964   0.520   5.499
 2738SOL     OW 9112   4.898   5.631   1.437
 2738SOL    HW1 9113   4.897   5.635   1.337
 2738SOL    HW2 9114   4.808   5.605   1.470
 2739SOL     OW 9115   6.791   5.082   1.352
 2739SOL    HW1 9116   6.851   5.156   1.383
 2739SOL    HW2 9117   6.820   4.996   1.394
 2740SOL     OW 9118   0.653   5.536   3.039
 2740SOL    HW1 9119   0.733   5.588   3.072
 2740SOL    HW2 9120   0.675   5.439   3.039
 2741SOL     OW 9121   0.703   0.227   5.452
 2741SOL    HW1 9122   0.729   0.138   5.416
 2741SOL    HW2 9123   0.777   0.292   5.437
 2742SOL     OW 9124   3.321   5.562   1.900
 2742SOL    HW1 9125   3.318   5.642   1.840
 2742SOL    HW2 9126   3.382   5.493   1.861
 2743SOL     OW 9127   5.578   1.409   2.080
 2743SOL    HW1 9128   5.514   1.485   2.067
 2743SOL    HW2 9129   5.636   1.428   2.160
 2744SOL     OW 9130   3.564   4.061   2.529
 2744SOL    HW1 9131   3.615   4.051   2.444
 2744SOL    HW2 9132   3.579   3.981   2.587
 2745SOL     OW 9133   0.640   5.944   0.424
 2745SOL    HW1 9134   0.643   5.849   0.454
 2745SOL    HW2 9135   0.578   5.997   0.482
 2746SOL     OW 9136   1.829   1.251   3.359
 2746SOL    HW1 9137   1.884   1.308   3.297
 2746SOL    HW2 9138   1.771   1.310   3.416
 2747SOL     OW 9139   4.051   4.839   0.755
 2747SOL    HW1 9140   4.026   4.773   0.684
 2747SOL    HW2 9141   4.144   4.820   0.786
 2748SOL     OW 9142   4.167   0.120   0.405
 2748SOL    HW1 9143   4.253   0.080   0.374
 2748SOL    HW2 9144   4.167   0.218   0.386
 2749SOL     OW 9145   3.158   1.619   0.723
 2749SOL    HW1 9146   3.061   1.641   0.735
 2749SOL    HW2 9147   3.203   1.692   0.672
 2750SOL     OW 9148   3.274   5.518   2.172
 2750SOL    HW1 9149   3.231   5.595   2.219
 2750SOL    HW2 9150   3.263   5.529   2.073
 2751SOL     OW 9151   5.812   5.294   1.070
 2751SOL    HW1 9152   5.864   5.241   1.003
 2751SOL    HW2 9153   5.840   5.267   1.162
 2752SOL     OW 9154   4.345   5.732   6.812
 2752SOL    HW1 9155   4.326   5.796   6.887
 2752SOL    HW2 9156   4.259   5.705   6.769
 2753SOL     OW 9157   5.727   5.787   5.021
 2753SOL    HW1 9158   5.679   5.866   5.059
 2753SOL    HW2 9159   5.714   5.708   5.082
 2754SOL     OW 9160   1.498   6.876   5.694
 2754SOL    HW1 9161   1.572   6.866   5.761
 2754SOL    HW2 9162   1.478   6.973   5.681
 2755SOL     OW 9163   3.672   0.751   2.043
 2755SOL    HW1 9164   3.721   0.756   2.129
 2755SOL    HW2 9165   3.670   0.841   2.000
 2756SOL     OW 9166   4.792   5.653   0.075
 2756SOL    HW1 9167   4.765   5.736   0.122
 2756SOL    HW2 9168   4.887   5.661   0.044
 2757SOL     OW 9169   0.097   4.828   1.011
 2757SOL    HW1 9170   0.045   4.742   1.008
 2757SOL    HW2 9171   0.169   4.821   1.080
 2758SOL     OW 9172   3.768   0.659   5.856
 2758SOL    HW1 9173   3.860   0.699   5.848
 2758SOL    HW2 9174   3.742   0.618   5.768
 2759SOL     OW 9175   4.805   5.667   4.789
 2759SOL    HW1 9176   4.849   5.679   4.700
 2759SOL    HW2 9177   4.750   5.749   4.810
 2760SOL     OW 9178   2.005   6.563   3.872
 2760SOL    HW1 9179   2.008   6.627   3.795
 2760SOL    HW2 9180   1.916   6.517   3.874
 2761SOL     OW 9181   2.175   5.103   3.801
 2761SOL    HW1 9182   2.176   5.121   3.703
 2761SOL    HW2 9183   2.139   5.182   3.850
 2762SOL     OW 9184   1.281   0.565   4.894
 2762SOL    HW1 9185   1.207   0.565   4.961
 2762SOL    HW2 9186   1.264   0.495   4.825
 2763SOL     OW 9187   5.471   1.934   2.585
 2763SOL    HW1 9188   5.569   1.955   2.586
 2763SOL    HW2 9189   5.455   1.850   2.533
 2764SOL     OW 9190   6.480   0.363   1.831
 2764SOL    HW1 9191   6.453   0.432   1.897
 2764SOL    HW2 9192   6.400   0.334   1.778
 2765SOL     OW 9193   5.523   2.215   2.239
 2765SOL    HW1 9194   5.433   2.209   2.281
 2765SOL    HW2 9195   5.529   2.297   2.183
 2766SOL     OW 9196   6.087   0.483   2.691
 2766SOL    HW1 9197   6.008   0.431   2.658
 2766SOL    HW2 9198   6.105   0.459   2.786
 2767SOL     OW 9199   6.279   4.481   5.718
 2767SOL    HW1 9200   6.341   4.522   5.651
 2767SOL    HW2 9201   6.270   4.383   5.701
 2768SOL     OW 9202   5.868   1.396   6.480
 2768SOL    HW1 9203   5.891   1.486   6.444
 2768SOL    HW2 9204   5.908   1.385   6.571
 2769SOL     OW 9205   0.952   4.439   1.230
 2769SOL    HW1 9206   0.994   4.501   1.164
 2769SOL    HW2 9207   0.913   4.361   1.182
 2770SOL     OW 9208   6.433   5.906   1.728
 2770SOL    HW1 9209   6.361   5.871   1.787
 2770SOL    HW2 9210   6.426   6.006   1.723
 2771SOL     OW 9211   4.972   1.287   1.196
 2771SOL    HW1 9212   4.907   1.280   1.271
 2771SOL    HW2 9213   5.041   1.356   1.217
 2772SOL     OW 9214   3.752   2.747   6.607
 2772SOL    HW1 9215   3.663   2.720   6.569
 2772SOL    HW2 9216   3.750   2.843   6.632
 2773SOL     OW 9217   3.751   4.400   0.534
 2773SOL    HW1 9218   3.672   4.339   0.540
 2773SOL    HW2 9219   3.832   4.352   0.568
 2774SOL     OW 9220   5.716   3.212   2.595
 2774SOL    HW1 9221   5.734   3.200   2.498
 2774SOL    HW2 9222   5.733   3.308   2.620
 2775SOL     OW 9223   6.655   6.954   2.340
 2775SOL    HW1 9224   6.632   6.875   2.283
 2775SOL    HW2 9225   6.748   6.944   2.375
 2776SOL     OW 9226   3.497   5.687   5.788
 2776SOL    HW1 9227   3.422   5.721   5.731
 2776SOL    HW2 9228   3.495   5.587   5.791
 2777SOL     OW 9229   2.713   1.268   3.602
 2777SOL    HW1 9230   2.632   1.310   3.643
 2777SOL    HW2 9231   2.726   1.303   3.509
 2778SOL     OW 9232   2.277   1.774   4.721
 2778SOL    HW1 9233   2.240   1.846   4.780
 2778SOL    HW2 9234   2.353   1.729   4.768
 2779SOL     OW 9235   5.807   1.120   0.795
 2779SOL    HW1 9236   5.711   1.115   0.820
 2779SOL    HW2 9237   5.818   1.178   0.714
 2780SOL     OW 9238   4.641   5.752   0.331
 2780SOL    HW1 9239   4.691   5.673   0.367
 2780SOL    HW2 9240   4.609   5.733   0.238
 2781SOL     OW 9241   4.719   4.511   0.191
 2781SOL    HW1 9242   4.761   4.534   0.278
 2781SOL    HW2 9243   4.655   4.435   0.204
 2782SOL     OW 9244   2.580   1.657   6.228
 2782SOL    HW1 9245   2.667   1.614   6.200
 2782SOL    HW2 9246   2.590   1.756   6.225
 2783SOL     OW 9247   0.414   4.554   6.204
 2783SOL    HW1 9248   0.414   4.455   6.188
 2783SOL    HW2 9249   0.507   4.589   6.202
 2784SOL     OW 9250   2.392   2.078   2.275
 2784SOL    HW1 9251   2.319   2.022   2.236
 2784SOL    HW2 9252   2.474   2.071   2.219
 2785SOL     OW 9253   6.371   1.070   1.161
 2785SOL    HW1 9254   6.285   1.060   1.111
 2785SOL    HW2 9255   6.444   1.095   1.097
 2786SOL     OW 9256   3.177   6.964   7.000
 2786SOL    HW1 9257   3.144   6.937   0.070
 2786SOL    HW2 9258   3.105   6.948   6.932
 2787SOL     OW 9259   2.248   2.634   5.618
 2787SOL    HW1 9260   2.344   2.641   5.591
 2787SOL    HW2 9261   2.225   2.707   5.682
 2788SOL     OW 9262   1.098   3.444   0.339
 2788SOL    HW1 9263   1.167   3.516   0.331
 2788SOL    HW2 9264   1.140   3.363   0.381
 2789SOL     OW 9265   6.904   2.256   4.551
 2789SOL    HW1 9266   6.973   2.200   4.506
 2789SOL    HW2 9267   6.906   2.349   4.513
 2790SOL     OW 9268   3.931   6.090   3.507
 2790SOL    HW1 9269   3.876   6.054   3.431
 2790SOL    HW2 9270   3.872   6.100   3.587
 2791SOL     OW 9271   2.268   2.809   2.499
 2791SOL    HW1 9272   2.264   2.711   2.481
 2791SOL    HW2 9273   2.288   2.824   2.596
 2792SOL     OW 9274   1.174   2.499   4.840
 2792SOL    HW1 9275   1.198   2.535   4.750
 2792SOL    HW2 9276   1.076   2.483   4.844
 2793SOL     OW 9277   5.626   0.644   3.955
 2793SOL    HW1 9278   5.682   0.681   4.029
 2793SOL    HW2 9279   5.581   0.718   3.905
 2794SOL     OW 9280   0.624   0.771   1.256
 2794SOL    HW1 9281   0.700   0.797   1.196
 2794SOL    HW2 9282   0.653   0.780   1.351
 2795SOL     OW 9283   1.759   4.397   1.894
 2795SOL    HW1 9284   1.719   4.457   1.826
 2795SOL    HW2 9285   1.687   4.341   1.936
 2796SOL     OW 9286   5.199   4.308   2.380
 2796SOL    HW1 9287   5.261   4.238   2.416
 2796SOL    HW2 9288   5.146   4.271   2.304
 2797SOL     OW 9289   4.303   4.668   4.704
 2797SOL    HW1 9290   4.227   4.728   4.679
 2797SOL    HW2 9291   4.279   4.617   4.787
 2798SOL     OW 9292   1.579   3.479   3.811
 2798SOL    HW1 9293   1.622   3.567   3.830
 2798SOL    HW2 9294   1.524   3.451   3.890
 2799SOL     OW 9295   6.313   5.330   5.701
 2799SOL    HW1 9296   6.224   5.373   5.716
 2799SOL    HW2 9297   6.302   5.231   5.697
 2800SOL     OW 9298   2.822   2.323   6.922
 2800SOL    HW1 9299   2.898   2.382   6.897
 2800SOL    HW2 9300   2.857   2.234   6.952
 2801SOL     OW 9301   4.290   5.503   2.543
 2801SOL    HW1 9302   4.203   5.463   2.513
 2801SOL    HW2 9303   4.312   5.471   2.635
 2802SOL     OW 9304   5.684   0.804   5.868
 2802SOL    HW1 9305   5.615   0.732   5.867
 2802SOL    HW2 9306   5.685   0.848   5.958
 2803SOL     OW 9307   2.026   5.846   5.800
 2803SOL    HW1 9308   2.108   5.883   5.756
 2803SOL    HW2 9309   1.957   5.918   5.806
 2804SOL     OW 9310   0.017   4.724   2.544
 2804SOL    HW1 9311   0.069   4.679   2.472
 2804SOL    HW2 9312   6.939   4.722   2.522
 2805SOL     OW 9313   5.080   3.890   5.940
 2805SOL    HW1 9314   5.102   3.815   5.878
 2805SOL    HW2 9315   5.119   3.975   5.905
 2806SOL     OW 9316   0.087   5.815   2.970
 2806SOL    HW1 9317   0.117   5.747   3.037
 2806SOL    HW2 9318   0.009   5.780   2.919
 2807SOL     OW 9319   4.059   4.957   3.971
 2807SOL    HW1 9320   3.991   4.918   4.033
 2807SOL    HW2 9321   4.025   4.952   3.877
 2808SOL     OW 9322   4.708   6.254   3.576
 2808SOL    HW1 9323   4.668   6.169   3.610
 2808SOL    HW2 9324   4.648   6.331   3.599
 2809SOL     OW 9325   5.356   3.296   1.066
 2809SOL    HW1 9326   5.309   3.353   0.998
 2809SOL    HW2 9327   5.290   3.234   1.108
 2810SOL     OW 9328   1.380   0.331   5.205
 2810SOL    HW1 9329   1.393   0.242   5.249
 2810SOL    HW2 9330   1.352   0.398   5.274
 2811SOL     OW 9331   0.231   1.127   4.341
 2811SOL    HW1 9332   0.142   1.170   4.355
 2811SOL    HW2 9333   0.217   1.034   4.305
 2812SOL     OW 9334   5.456   3.698   2.252
 2812SOL    HW1 9335   5.518   3.621   2.266
 2812SOL    HW2 9336   5.399   3.711   2.333
 2813SOL     OW 9337   5.992   1.644   6.384
 2813SOL    HW1 9338   6.002   1.743   6.392
 2813SOL    HW2 9339   6.078   1.600   6.407
 2814SOL     OW 9340   5.059   4.296   5.089
 2814SOL    HW1 9341   5.147   4.272   5.130
 2814SOL    HW2 9342   5.046   4.395   5.093
 2815SOL     OW 9343   0.132   1.313   5.251
 2815SOL    HW1 9344   0.097   1.254   5.324
 2815SOL    HW2 9345   0.226   1.340   5.272
 2816SOL     OW 9346   5.560   6.214   3.312
 2816SOL    HW1 9347   5.571   6.288   3.246
 2816SOL    HW2 9348   5.578   6.126   3.267
 2817SOL     OW 9349   1.144   1.877   1.050
 2817SOL    HW1 9350   1.176   1.836   0.965
 2817SOL    HW2 9351   1.090   1.959   1.030
 2818SOL     OW 9352   0.496   4.008   5.619
 2818SOL    HW1 9353   0.472   3.921   5.575
 2818SOL    HW2 9354   0.505   3.994   5.718
 2819SOL     OW 9355   5.917   2.806   0.659
 2819SOL    HW1 9356   5.899   2.858   0.576
 2819SOL    HW2 9357   5.991   2.850   0.710
 2820SOL     OW 9358   6.300   2.640   4.538
 2820SOL    HW1 9359   6.362   2.662   4.462
 2820SOL    HW2 9360   6.319   2.547   4.570
 2821SOL     OW 9361   1.430   2.870   4.034
 2821SOL    HW1 9362   1.471   2.918   4.112
 2821SOL    HW2 9363   1.465   2.776   4.031
 2822SOL     OW 9364   3.183   1.773   0.251
 2822SOL    HW1 9365   3.134   1.710   0.190
 2822SOL    HW2 9366   3.277   1.783   0.220
 2823SOL     OW 9367   2.064   6.721   3.189
 2823SOL    HW1 9368   2.055   6.642   3.128
 2823SOL    HW2 9369   1.992   6.787   3.170
 2824SOL     OW 9370   2.912   1.681   4.679
 2824SOL    HW1 9371   3.009   1.694   4.657
 2824SOL    HW2 9372   2.898   1.588   4.715
 2825SOL     OW 9373   6.343   6.322   1.211
 2825SOL    HW1 9374   6.309   6.228   1.205
 2825SOL    HW2 9375   6.412   6.337   1.140
 2826SOL     OW 9376   4.564   2.577   4.539
 2826SOL    HW1 9377   4.546   2.600   4.635
 2826SOL    HW2 9378   4.570   2.661   4.485
 2827SOL     OW 9379   5.471   0.947   6.143
 2827SOL    HW1 9380   5.518   1.032   6.169
 2827SOL    HW2 9381   5.444   0.953   6.047
 2828SOL     OW 9382   2.840   2.286   6.249
 2828SOL    HW1 9383   2.793   2.375   6.252
 2828SOL    HW2 9384   2.871   2.262   6.341
 2829SOL     OW 9385   1.591   6.879   6.609
 2829SOL    HW1 9386   1.685   6.846   6.617
 2829SOL    HW2 9387   1.540   6.821   6.545
 2830SOL     OW 9388   3.589   3.278   6.586
 2830SOL    HW1 9389   3.549   3.233   6.665
 2830SOL    HW2 9390   3.551   3.238   6.502
 2831SOL     OW 9391   5.996   5.542   4.060
 2831SOL    HW1 9392   6.064   5.568   3.992
 2831SOL    HW2 9393   6.041   5.496   4.137
 2832SOL     OW 9394   0.252   0.889   2.050
 2832SOL    HW1 9395   0.247   0.802   2.100
 2832SOL    HW2 9396   0.296   0.873   1.962
 2833SOL     OW 9397   5.979   2.994   2.339
 2833SOL    HW1 9398   5.918   2.978   2.262
 2833SOL    HW2 9399   6.034   3.076   2.322
 2834SOL     OW 9400   3.438   0.735   5.935
 2834SOL    HW1 9401   3.475   0.676   5.864
 2834SOL    HW2 9402   3.428   0.828   5.900
 2835SOL     OW 9403   0.754   6.702   3.086
 2835SOL    HW1 9404   0.852   6.718   3.099
 2835SOL    HW2 9405   0.721   6.761   3.013
 2836SOL     OW 9406   6.750   0.768   0.435
 2836SOL    HW1 9407   6.772   0.709   0.513
 2836SOL    HW2 9408   6.720   0.712   0.358
 2837SOL     OW 9409   6.167   3.171   3.771
 2837SOL    HW1 9410   6.082   3.118   3.770
 2837SOL    HW2 9411   6.151   3.260   3.813
 2838SOL     OW 9412   2.366   4.898   3.800
 2838SOL    HW1 9413   2.453   4.945   3.816
 2838SOL    HW2 9414   2.291   4.965   3.801
 2839SOL     OW 9415   4.996   2.099   1.567
 2839SOL    HW1 9416   4.962   2.103   1.661
 2839SOL    HW2 9417   4.933   2.149   1.507
 2840SOL     OW 9418   0.134   1.946   5.650
 2840SOL    HW1 9419   0.135   2.046   5.645
 2840SOL    HW2 9420   0.057   1.911   5.596
 2841SOL     OW 9421   0.495   6.366   1.350
 2841SOL    HW1 9422   0.521   6.382   1.255
 2841SOL    HW2 9423   0.578   6.350   1.405
 2842SOL     OW 9424   6.189   3.213   3.287
 2842SOL    HW1 9425   6.254   3.263   3.230
 2842SOL    HW2 9426   6.235   3.181   3.370
 2843SOL     OW 9427   3.990   1.936   4.728
 2843SOL    HW1 9428   3.936   1.887   4.660
 2843SOL    HW2 9429   4.004   2.030   4.699
 2844SOL     OW 9430   0.044   3.801   5.754
 2844SOL    HW1 9431   0.071   3.878   5.812
 2844SOL    HW2 9432   0.038   3.831   5.659
 2845SOL     OW 9433   6.746   4.141   5.128
 2845SOL    HW1 9434   6.691   4.059   5.143
 2845SOL    HW2 9435   6.697   4.203   5.067
 2846SOL     OW 9436   4.706   1.767   6.495
 2846SOL    HW1 9437   4.734   1.768   6.591
 2846SOL    HW2 9438   4.612   1.734   6.488
 2847SOL     OW 9439   4.645   4.622   3.911
 2847SOL    HW1 9440   4.700   4.700   3.883
 2847SOL    HW2 9441   4.601   4.581   3.830
 2848SOL     OW 9442   1.373   6.134   4.801
 2848SOL    HW1 9443   1.346   6.069   4.873
 2848SOL    HW2 9444   1.292   6.168   4.755
 2849SOL     OW 9445   2.519   2.749   1.298
 2849SOL    HW1 9446   2.605   2.775   1.256
 2849SOL    HW2 9447   2.531   2.665   1.351
 2850SOL     OW 9448   3.526   1.264   0.017
 2850SOL    HW1 9449   3.427   1.249   0.010
 2850SOL    HW2 9450   3.546   1.361   0.001
 2851SOL     OW 9451   2.434   4.599   6.523
 2851SOL    HW1 9452   2.407   4.523   6.583
 2851SOL    HW2 9453   2.443   4.682   6.577
 2852SOL     OW 9454   0.241   3.309   6.423
 2852SOL    HW1 9455   0.253   3.250   6.343
 2852SOL    HW2 9456   0.281   3.399   6.405
 2853SOL     OW 9457   3.637   3.450   1.463
 2853SOL    HW1 9458   3.666   3.439   1.368
 2853SOL    HW2 9459   3.637   3.547   1.488
 2854SOL     OW 9460   1.193   1.228   3.683
 2854SOL    HW1 9461   1.197   1.259   3.588
 2854SOL    HW2 9462   1.114   1.269   3.728
 2855SOL     OW 9463   3.201   0.752   5.321
 2855SOL    HW1 9464   3.202   0.845   5.284
 2855SOL    HW2 9465   3.213   0.687   5.246
 2856SOL     OW 9466   2.190   1.595   4.964
 2856SOL    HW1 9467   2.125   1.660   4.925
 2856SOL    HW2 9468   2.265   1.581   4.900
 2857SOL     OW 9469   3.127   3.817   3.032
 2857SOL    HW1 9470   3.067   3.805   2.954
 2857SOL    HW2 9471   3.073   3.844   3.112
 2858SOL     OW 9472   6.116   3.279   2.838
 2858SOL    HW1 9473   6.142   3.195   2.791
 2858SOL    HW2 9474   6.056   3.258   2.915
 2859SOL     OW 9475   6.323   6.588   0.740
 2859SOL    HW1 9476   6.299   6.604   0.644
 2859SOL    HW2 9477   6.423   6.579   0.748
 2860SOL     OW 9478   4.276   1.606   1.824
 2860SOL    HW1 9479   4.299   1.644   1.734
 2860SOL    HW2 9480   4.303   1.672   1.895
 2861SOL     OW 9481   3.460   5.434   5.858
 2861SOL    HW1 9482   3.542   5.378   5.859
 2861SOL    HW2 9483   3.379   5.376   5.870
 2862SOL     OW 9484   5.803   0.330   4.706
 2862SOL    HW1 9485   5.836   0.239   4.734
 2862SOL    HW2 9486   5.880   0.393   4.704
 2863SOL     OW 9487   6.213   1.652   0.523
 2863SOL    HW1 9488   6.158   1.724   0.566
 2863SOL    HW2 9489   6.153   1.577   0.495
 2864SOL     OW 9490   3.116   1.241   6.922
 2864SOL    HW1 9491   3.100   1.169   6.854
 2864SOL    HW2 9492   3.030   1.261   6.968
 2865SOL     OW 9493   4.443   5.006   4.880
 2865SOL    HW1 9494   4.394   4.985   4.795
 2865SOL    HW2 9495   4.461   4.921   4.929
 2866SOL     OW 9496   6.962   0.060   6.472
 2866SOL    HW1 9497   6.948   0.153   6.439
 2866SOL    HW2 9498   6.902   7.017   6.421
 2867SOL     OW 9499   6.725   4.462   3.367
 2867SOL    HW1 9500   6.667   4.515   3.305
 2867SOL    HW2 9501   6.679   4.450   3.455
 2868SOL     OW 9502   1.686   4.898   5.477
 2868SOL    HW1 9503   1.765   4.837   5.487
 2868SOL    HW2 9504   1.664   4.939   5.565
 2869SOL     OW 9505   6.161   1.492   2.514
 2869SOL    HW1 9506   6.137   1.454   2.424
 2869SOL    HW2 9507   6.081   1.538   2.553
 2870SOL     OW 9508   4.853   1.916   2.794
 2870SOL    HW1 9509   4.792   1.898   2.871
 2870SOL    HW2 9510   4.836   2.008   2.758
 2871SOL     OW 9511   1.668   1.877   5.949
 2871SOL    HW1 9512   1.696   1.940   6.021
 2871SOL    HW2 9513   1.748   1.850   5.895
 2872SOL     OW 9514   2.367   6.155   4.259
 2872SOL    HW1 9515   2.454   6.112   4.284
 2872SOL    HW2 9516   2.323   6.192   4.341
 2873SOL     OW 9517   0.081   5.396   1.890
 2873SOL    HW1 9518   0.134   5.312   1.885
 2873SOL    HW2 9519   0.094   5.439   1.979
 2874SOL     OW 9520   5.985   1.775   2.168
 2874SOL    HW1 9521   5.992   1.874   2.175
 2874SOL    HW2 9522   5.982   1.747   2.072
 2875SOL     OW 9523   3.194   4.870   0.426
 2875SOL    HW1 9524   3.292   4.887   0.438
 2875SOL    HW2 9525   3.143   4.933   0.485
 2876SOL     OW 9526   6.827   1.343   2.891
 2876SOL    HW1 9527   6.836   1.268   2.825
 2876SOL    HW2 9528   6.731   1.366   2.902
 2877SOL     OW 9529   2.464   3.373   6.087
 2877SOL    HW1 9530   2.466   3.357   6.185
 2877SOL    HW2 9531   2.462   3.471   6.068
 2878SOL     OW 9532   3.080   4.256   6.844
 2878SOL    HW1 9533   3.017   4.179   6.858
 2878SOL    HW2 9534   3.041   4.318   6.776
 2879SOL     OW 9535   5.087   5.002   6.637
 2879SOL    HW1 9536   5.090   4.911   6.679
 2879SOL    HW2 9537   4.998   5.017   6.596
 2880SOL     OW 9538   1.136   6.147   1.550
 2880SOL    HW1 9539   1.043   6.166   1.520
 2880SOL    HW2 9540   1.198   6.218   1.516
 2881SOL     OW 9541   6.853   6.956   6.960
 2881SOL    HW1 9542   6.838   7.017   6.882
 2881SOL    HW2 9543   6.774   6.959   0.001
 2882SOL     OW 9544   6.954   3.443   3.418
 2882SOL    HW1 9545   6.864   3.482   3.400
 2882SOL    HW2 9546   6.985   3.393   3.337
 2883SOL     OW 9547   4.730   6.820   2.466
 2883SOL    HW1 9548   4.818   6.797   2.424
 2883SOL    HW2 9549   4.734   6.913   2.503
 2884SOL     OW 9550   1.578   6.106   3.156
 2884SOL    HW1 9551   1.593   6.013   3.122
 2884SOL    HW2 9552   1.666   6.149   3.177
 2885SOL     OW 9553   0.387   2.191   3.299
 2885SOL    HW1 9554   0.414   2.161   3.207
 2885SOL    HW2 9555   0.408   2.118   3.365
 2886SOL     OW 9556   2.036   2.518   5.976
 2886SOL    HW1 9557   2.023   2.482   5.884
 2886SOL    HW2 9558   2.130   2.550   5.987
 2887SOL     OW 9559   1.863   1.310   4.878
 2887SOL    HW1 9560   1.839   1.355   4.792
 2887SOL    HW2 9561   1.801   1.342   4.950
 2888SOL     OW 9562   6.677   4.994   6.920
 2888SOL    HW1 9563   6.770   4.958   6.931
 2888SOL    HW2 9564   6.670   5.085   6.961
 2889SOL     OW 9565   0.638   0.167   2.054
 2889SOL    HW1 9566   0.572   0.098   2.022
 2889SOL    HW2 9567   0.637   0.170   2.154
 2890SOL     OW 9568   3.493   6.628   0.975
 2890SOL    HW1 9569   3.556   6.664   1.045
 2890SOL    HW2 9570   3.475   6.700   0.908
 2891SOL     OW 9571   2.695   4.929   4.272
 2891SOL    HW1 9572   2.602   4.908   4.241
 2891SOL    HW2 9573   2.731   4.851   4.323
 2892SOL     OW 9574   4.735   4.198   5.603
 2892SOL    HW1 9575   4.709   4.286   5.643
 2892SOL    HW2 9576   4.706   4.195   5.507
 2893SOL     OW 9577   3.089   0.668   6.353
 2893SOL    HW1 9578   3.098   0.722   6.270
 2893SOL    HW2 9579   3.179   0.656   6.396
 2894SOL     OW 9580   3.291   2.821   0.979
 2894SOL    HW1 9581   3.192   2.835   0.976
 2894SOL    HW2 9582   3.320   2.813   1.074
 2895SOL     OW 9583   2.884   3.397   6.796
 2895SOL    HW1 9584   2.802   3.410   6.741
 2895SOL    HW2 9585   2.952   3.345   6.743
 2896SOL     OW 9586   2.266   5.534   0.826
 2896SOL    HW1 9587   2.178   5.561   0.788
 2896SOL    HW2 9588   2.282   5.583   0.912
 2897SOL     OW 9589   1.612   6.624   3.665
 2897SOL    HW1 9590   1.515   6.646   3.654
 2897SOL    HW2 9591   1.665   6.708   3.676
 2898SOL     OW 9592   2.853   5.032   2.315
 2898SOL    HW1 9593   2.868   4.934   2.311
 2898SOL    HW2 9594   2.936   5.078   2.345
 2899SOL     OW 9595   6.401   0.439   0.136
 2899SOL    HW1 9596   6.377   0.457   0.231
 2899SOL    HW2 9597   6.320   0.450   0.078
 2900SOL     OW 9598   2.484   5.506   6.030
 2900SOL    HW1 9599   2.468   5.475   6.123
 2900SOL    HW2 9600   2.582   5.511   6.012
 2901SOL     OW 9601   3.140   0.750   1.587
 2901SOL    HW1 9602   3.203   0.756   1.665
 2901SOL    HW2 9603   3.109   0.842   1.562
 2902SOL     OW 9604   5.580   5.594   1.639
 2902SOL    HW1 9605   5.595   5.534   1.718
 2902SOL    HW2 9606   5.518   5.549   1.574
 2903SOL     OW 9607   2.614   2.042   2.121
 2903SOL    HW1 9608   2.683   2.047   2.193
 2903SOL    HW2 9609   2.634   2.110   2.051
 2904SOL     OW 9610   1.903   3.248   4.975
 2904SOL    HW1 9611   1.866   3.194   5.051
 2904SOL    HW2 9612   2.003   3.247   4.980
 2905SOL     OW 9613   1.171   2.515   1.310
 2905SOL    HW1 9614   1.151   2.557   1.399
 2905SOL    HW2 9615   1.085   2.493   1.264
 2906SOL     OW 9616   5.380   5.903   2.089
 2906SOL    HW1 9617   5.312   5.946   2.030
 2906SOL    HW2 9618   5.340   5.823   2.134
 2907SOL     OW 9619   6.755   0.802   4.049
 2907SOL    HW1 9620   6.811   0.884   4.039
 2907SOL    HW2 9621   6.727   0.770   3.958
 2908SOL     OW 9622   4.445   6.252   4.723
 2908SOL    HW1 9623   4.384   6.322   4.686
 2908SOL    HW2 9624   4.529   6.249   4.668
 2909SOL     OW 9625   1.795   5.892   5.017
 2909SOL    HW1 9626   1.765   5.799   5.041
 2909SOL    HW2 9627   1.812   5.897   4.919
 2910SOL     OW 9628   5.254   6.362   5.794
 2910SOL    HW1 9629   5.166   6.409   5.794
 2910SOL    HW2 9630   5.244   6.272   5.753
 2911SOL     OW 9631   1.788   4.237   3.501
 2911SOL    HW1 9632   1.840   4.153   3.521
 2911SOL    HW2 9633   1.756   4.277   3.587
 2912SOL     OW 9634   3.126   5.483   0.581
 2912SOL    HW1 9635   3.071   5.400   0.577
 2912SOL    HW2 9636   3.182   5.490   0.498
 2913SOL     OW 9637   0.706   2.564   2.743
 2913SOL    HW1 9638   0.774   2.518   2.800
 2913SOL    HW2 9639   0.641   2.613   2.801
 2914SOL     OW 9640   4.885   5.472   5.397
 2914SOL    HW1 9641   4.976   5.443   5.368
 2914SOL    HW2 9642   4.862   5.559   5.352
 2915SOL     OW 9643   4.489   1.348   4.531
 2915SOL    HW1 9644   4.500   1.435   4.579
 2915SOL    HW2 9645   4.427   1.361   4.454
 2916SOL     OW 9646   5.087   5.569   4.188
 2916SOL    HW1 9647   5.154   5.552   4.261
 2916SOL    HW2 9648   4.996   5.539   4.218
 2917SOL     OW 9649   4.572   1.400   2.981
 2917SOL    HW1 9650   4.593   1.489   2.941
 2917SOL    HW2 9651   4.526   1.343   2.914
 2918SOL     OW 9652   0.113   3.865   3.682
 2918SOL    HW1 9653   0.104   3.773   3.644
 2918SOL    HW2 9654   0.034   3.920   3.654
 2919SOL     OW 9655   6.783   6.108   0.031
 2919SOL    HW1 9656   6.769   6.015   0.066
 2919SOL    HW2 9657   6.855   6.153   0.084
 2920SOL     OW 9658   4.343   2.416   3.075
 2920SOL    HW1 9659   4.370   2.442   3.167
 2920SOL    HW2 9660   4.400   2.465   3.008
 2921SOL     OW 9661   0.579   0.436   1.935
 2921SOL    HW1 9662   0.575   0.352   1.989
 2921SOL    HW2 9663   0.674   0.467   1.930
 2922SOL     OW 9664   4.100   6.894   5.739
 2922SOL    HW1 9665   4.142   6.985   5.743
 2922SOL    HW2 9666   4.027   6.888   5.807
 2923SOL     OW 9667   6.661   4.211   0.849
 2923SOL    HW1 9668   6.643   4.166   0.762
 2923SOL    HW2 9669   6.729   4.283   0.836
 2924SOL     OW 9670   5.806   0.372   5.640
 2924SOL    HW1 9671   5.749   0.368   5.722
 2924SOL    HW2 9672   5.860   0.457   5.641
 2925SOL     OW 9673   5.581   4.001   1.176
 2925SOL    HW1 9674   5.573   4.098   1.153
 2925SOL    HW2 9675   5.489   3.961   1.183
 2926SOL     OW 9676   0.025   1.285   4.398
 2926SOL    HW1 9677   6.964   1.230   4.417
 2926SOL    HW2 9678   0.028   1.363   4.461
 2927SOL     OW 9679   0.541   2.535   2.543
 2927SOL    HW1 9680   0.465   2.490   2.590
 2927SOL    HW2 9681   0.616   2.551   2.607
 2928SOL     OW 9682   5.881   6.312   0.459
 2928SOL    HW1 9683   5.837   6.227   0.428
 2928SOL    HW2 9684   5.917   6.299   0.551
 2929SOL     OW 9685   0.991   6.820   5.943
 2929SOL    HW1 9686   1.082   6.835   5.905
 2929SOL    HW2 9687   0.998   6.770   6.029
 2930SOL     OW 9688   3.820   6.635   4.574
 2930SOL    HW1 9689   3.731   6.615   4.535
 2930SOL    HW2 9690   3.888   6.641   4.501
 2931SOL     OW 9691   3.916   5.754   6.334
 2931SOL    HW1 9692   3.835   5.725   6.284
 2931SOL    HW2 9693   3.891   5.824   6.402
 2932SOL     OW 9694   1.357   4.416   1.813
 2932SOL    HW1 9695   1.347   4.433   1.912
 2932SOL    HW2 9696   1.278   4.454   1.765
 2933SOL     OW 9697   4.974   1.535   3.802
 2933SOL    HW1 9698   5.007   1.585   3.722
 2933SOL    HW2 9699   5.037   1.548   3.878
 2934SOL     OW 9700   2.759   0.622   0.100
 2934SOL    HW1 9701   2.767   0.670   0.187
 2934SOL    HW2 9702   2.793   0.529   0.110
 2935SOL     OW 9703   6.432   1.995   1.534
 2935SOL    HW1 9704   6.531   1.995   1.548
 2935SOL    HW2 9705   6.398   1.901   1.530
 2936SOL     OW 9706   4.162   6.158   0.795
 2936SOL    HW1 9707   4.242   6.111   0.758
 2936SOL    HW2 9708   4.083   6.096   0.791
 2937SOL     OW 9709   3.028   4.266   0.891
 2937SOL    HW1 9710   2.946   4.302   0.846
 2937SOL    HW2 9711   3.002   4.218   0.975
 2938SOL     OW 9712   4.642   5.329   5.389
 2938SOL    HW1 9713   4.608   5.350   5.297
 2938SOL    HW2 9714   4.732   5.370   5.401
 2939SOL     OW 9715   0.222   6.222   5.612
 2939SOL    HW1 9716   0.217   6.159   5.535
 2939SOL    HW2 9717   0.177   6.308   5.589
 2940SOL     OW 9718   4.155   0.553   5.603
 2940SOL    HW1 9719   4.246   0.593   5.591
 2940SOL    HW2 9720   4.104   0.562   5.518
 2941SOL     OW 9721   2.555   1.781   5.411
 2941SOL    HW1 9722   2.621   1.723   5.362
 2941SOL    HW2 9723   2.600   1.823   5.490
 2942SOL     OW 9724   3.987   6.607   4.364
 2942SOL    HW1 9725   4.086   6.618   4.357
 2942SOL    HW2 9726   3.951   6.572   4.278
 2943SOL     OW 9727   5.790   4.158   3.124
 2943SOL    HW1 9728   5.786   4.112   3.213
 2943SOL    HW2 9729   5.739   4.104   3.057
 2944SOL     OW 9730   3.643   6.173   6.227
 2944SOL    HW1 9731   3.651   6.104   6.155
 2944SOL    HW2 9732   3.638   6.128   6.316
 2945SOL     OW 9733   3.094   3.059   3.426
 2945SOL    HW1 9734   3.163   3.116   3.471
 2945SOL    HW2 9735   3.101   2.965   3.460
 2946SOL     OW 9736   6.749   6.131   5.947
 2946SOL    HW1 9737   6.698   6.111   5.863
 2946SOL    HW2 9738   6.803   6.052   5.972
 2947SOL     OW 9739   0.123   5.046   0.241
 2947SOL    HW1 9740   0.190   5.108   0.283
 2947SOL    HW2 9741   0.172   4.971   0.196
 2948SOL     OW 9742   6.480   4.591   4.894
 2948SOL    HW1 9743   6.576   4.613   4.876
 2948SOL    HW2 9744   6.422   4.663   4.857
 2949SOL     OW 9745   1.267   6.109   0.700
 2949SOL    HW1 9746   1.346   6.107   0.639
 2949SOL    HW2 9747   1.211   6.189   0.678
 2950SOL     OW 9748   5.412   3.526   4.600
 2950SOL    HW1 9749   5.391   3.447   4.542
 2950SOL    HW2 9750   5.493   3.506   4.656
 2951SOL     OW 9751   6.328   0.953   1.793
 2951SOL    HW1 9752   6.329   0.907   1.704
 2951SOL    HW2 9753   6.413   0.935   1.842
 2952SOL     OW 9754   1.601   3.745   1.960
 2952SOL    HW1 9755   1.622   3.810   2.033
 2952SOL    HW2 9756   1.588   3.654   1.998
 2953SOL     OW 9757   5.625   0.497   3.203
 2953SOL    HW1 9758   5.577   0.577   3.165
 2953SOL    HW2 9759   5.651   0.436   3.129
 2954SOL     OW 9760   5.921   6.302   1.818
 2954SOL    HW1 9761   5.859   6.303   1.740
 2954SOL    HW2 9762   5.891   6.233   1.884
 2955SOL     OW 9763   6.250   3.117   0.503
 2955SOL    HW1 9764   6.270   3.199   0.557
 2955SOL    HW2 9765   6.330   3.093   0.448
 2956SOL     OW 9766   6.559   5.311   2.380
 2956SOL    HW1 9767   6.574   5.384   2.313
 2956SOL    HW2 9768   6.621   5.325   2.458
 2957SOL     OW 9769   0.773   3.541   1.306
 2957SOL    HW1 9770   0.759   3.524   1.404
 2957SOL    HW2 9771   0.871   3.547   1.287
 2958SOL     OW 9772   2.790   5.197   6.440
 2958SOL    HW1 9773   2.704   5.153   6.414
 2958SOL    HW2 9774   2.852   5.198   6.361
 2959SOL     OW 9775   4.279   5.519   6.987
 2959SOL    HW1 9776   4.185   5.546   7.005
 2959SOL    HW2 9777   4.312   5.566   6.905
 2960SOL     OW 9778   2.475   1.878   6.917
 2960SOL    HW1 9779   2.434   1.819   6.986
 2960SOL    HW2 9780   2.509   1.961   6.960
 2961SOL     OW 9781   5.621   2.751   4.466
 2961SOL    HW1 9782   5.561   2.706   4.532
 2961SOL    HW2 9783   5.716   2.730   4.487
 2962SOL     OW 9784   3.816   1.045   4.029
 2962SOL    HW1 9785   3.768   1.107   3.967
 2962SOL    HW2 9786   3.767   0.958   4.034
 2963SOL     OW 9787   1.965   2.842   5.014
 2963SOL    HW1 9788   1.968   2.743   5.029
 2963SOL    HW2 9789   1.978   2.889   5.101
 2964SOL     OW 9790   3.150   5.869   0.161
 2964SOL    HW1 9791   3.158   5.859   0.260
 2964SOL    HW2 9792   3.224   5.819   0.116
 2965SOL     OW 9793   0.613   2.559   5.859
 2965SOL    HW1 9794   0.629   2.620   5.937
 2965SOL    HW2 9795   0.699   2.518   5.830
 2966SOL     OW 9796   4.520   4.486   3.697
 2966SOL    HW1 9797   4.428   4.521   3.714
 2966SOL    HW2 9798   4.542   4.497   3.600
 2967SOL     OW 9799   5.976   1.762   3.993
 2967SOL    HW1 9800   6.018   1.703   3.925
 2967SOL    HW2 9801   5.883   1.786   3.965
 2968SOL     OW 9802   6.918   4.051   3.607
 2968SOL    HW1 9803   6.823   4.053   3.639
 2968SOL    HW2 9804   6.921   4.078   3.511
 2969SOL     OW 9805   4.845   1.311   5.257
 2969SOL    HW1 9806   4.860   1.297   5.159
 2969SOL    HW2 9807   4.917   1.265   5.309
 2970SOL     OW 9808   0.994   4.689   6.377
 2970SOL    HW1 9809   0.968   4.592   6.378
 2970SOL    HW2 9810   1.033   4.712   6.288
 2971SOL     OW 9811   5.042   3.555   3.243
 2971SOL    HW1 9812   4.997   3.644   3.246
 2971SOL    HW2 9813   5.081   3.540   3.152
 2972SOL     OW 9814   0.365   4.296   6.172
 2972SOL    HW1 9815   0.403   4.268   6.084
 2972SOL    HW2 9816   0.410   4.245   6.245
 2973SOL     OW 9817   5.444   5.981   4.369
 2973SOL    HW1 9818   5.382   6.005   4.444
 2973SOL    HW2 9819   5.500   6.060   4.344
 2974SOL     OW 9820   0.469   3.760   2.238
 2974SOL    HW1 9821   0.375   3.729   2.243
 2974SOL    HW2 9822   0.519   3.706   2.171
 2975SOL     OW 9823   0.413   0.943   4.750
 2975SOL    HW1 9824   0.344   0.980   4.688
 2975SOL    HW2 9825   0.481   1.013   4.770
 2976SOL     OW 9826   3.398   6.784   1.934
 2976SOL    HW1 9827   3.400   6.800   2.033
 2976SOL    HW2 9828   3.459   6.849   1.889
 2977SOL     OW 9829   3.616   6.594   4.171
 2977SOL    HW1 9830   3.575   6.605   4.081
 2977SOL    HW2 9831   3.631   6.684   4.212
 2978SOL     OW 9832   4.250   6.423   0.026
 2978SOL    HW1 9833   4.217   6.393   0.116
 2978SOL    HW2 9834   4.190   6.493   7.010
 2979SOL     OW 9835   2.814   0.760   3.766
 2979SOL    HW1 9836   2.783   0.848   3.729
 2979SOL    HW2 9837   2.806   0.690   3.695
 2980SOL     OW 9838   6.895   6.067   3.815
 2980SOL    HW1 9839   6.844   6.020   3.888
 2980SOL    HW2 9840   6.978   6.016   3.795
 2981SOL     OW 9841   1.899   1.229   5.337
 2981SOL    HW1 9842   1.873   1.270   5.425
 2981SOL    HW2 9843   1.848   1.144   5.324
 2982SOL     OW 9844   4.786   0.148   3.160
 2982SOL    HW1 9845   4.723   0.141   3.082
 2982SOL    HW2 9846   4.813   0.056   3.189
 2983SOL     OW 9847   6.264   0.341   3.226
 2983SOL    HW1 9848   6.302   0.328   3.317
 2983SOL    HW2 9849   6.191   0.275   3.211
 2984SOL     OW 9850   5.312   4.535   1.857
 2984SOL    HW1 9851   5.273   4.550   1.766
 2984SOL    HW2 9852   5.257   4.584   1.925
 2985SOL     OW 9853   6.325   2.051   3.281
 2985SOL    HW1 9854   6.268   1.983   3.328
 2985SOL    HW2 9855   6.420   2.018   3.278
 2986SOL     OW 9856   2.194   3.863   5.272
 2986SOL    HW1 9857   2.248   3.901   5.197
 2986SOL    HW2 9858   2.099   3.893   5.263
 2987SOL     OW 9859   4.566   2.613   4.814
 2987SOL    HW1 9860   4.577   2.514   4.824
 2987SOL    HW2 9861   4.524   2.651   4.897
 2988SOL     OW 9862   0.653   0.538   2.254
 2988SOL    HW1 9863   0.577   0.478   2.229
 2988SOL    HW2 9864   0.657   0.548   2.353
 2989SOL     OW 9865   6.410   5.195   0.944
 2989SOL    HW1 9866   6.432   5.175   0.848
 2989SOL    HW2 9867   6.403   5.293   0.956
 2990SOL     OW 9868   3.556   0.034   1.025
 2990SOL    HW1 9869   3.499   0.057   1.104
 2990SOL    HW2 9870   3.652   0.030   1.053
 2991SOL     OW 9871   6.339   4.744   0.450
 2991SOL    HW1 9872   6.380   4.769   0.538
 2991SOL    HW2 9873   6.254   4.693   0.465
 2992SOL     OW 9874   4.152   4.454   6.496
 2992SOL    HW1 9875   4.190   4.541   6.527
 2992SOL    HW2 9876   4.080   4.471   6.429
 2993SOL     OW 9877   2.025   5.509   0.473
 2993SOL    HW1 9878   2.072   5.441   0.529
 2993SOL    HW2 9879   1.954   5.554   0.528
 2994SOL     OW 9880   4.277   6.886   0.127
 2994SOL    HW1 9881   4.323   6.932   0.203
 2994SOL    HW2 9882   4.207   6.824   0.163
 2995SOL     OW 9883   3.056   1.361   5.821
 2995SOL    HW1 9884   2.962   1.390   5.805
 2995SOL    HW2 9885   3.074   1.276   5.770
 2996SOL     OW 9886   3.747   5.652   5.892
 2996SOL    HW1 9887   3.690   5.697   5.822
 2996SOL    HW2 9888   3.702   5.660   5.981
 2997SOL     OW 9889   5.358   6.674   0.267
 2997SOL    HW1 9890   5.345   6.594   0.325
 2997SOL    HW2 9891   5.337   6.650   0.172
 2998SOL     OW 9892   6.681   5.742   5.233
 2998SOL    HW1 9893   6.631   5.818   5.276
 2998SOL    HW2 9894   6.677   5.663   5.293
 2999SOL     OW 9895   3.200   6.317   2.440
 2999SOL    HW1 9896   3.107   6.282   2.447
 2999SOL    HW2 9897   3.261   6.261   2.496
 3000SOL     OW 9898   1.834   2.991   4.830
 3000SOL    HW1 9899   1.859   3.085   4.852
 3000SOL    HW2 9900   1.866   2.930   4.902
 3001SOL     OW 9901   4.401   0.282   6.073
 3001SOL    HW1 9902   4.354   0.332   6.146
 3001SOL    HW2 9903   4.383   0.328   5.986
 3002SOL     OW 9904   3.668   0.109   5.694
 3002SOL    HW1 9905   3.764   0.138   5.690
 3002SOL    HW2 9906   3.649   0.045   5.619
 3003SOL     OW 9907   2.678   0.162   6.402
 3003SOL    HW1 9908   2.724   0.129   6.320
 3003SOL    HW2 9909   2.585   0.125   6.404
 3004SOL     OW 9910   6.472   3.628   4.870
 3004SOL    HW1 9911   6.478   3.717   4.916
 3004SOL    HW2 9912   6.430   3.640   4.780
 3005SOL     OW 9913   4.453   2.456   1.689
 3005SOL    HW1 9914   4.460   2.552   1.715
 3005SOL    HW2 9915   4.419   2.448   1.595
 3006SOL     OW 9916   5.291   0.675   1.515
 3006SOL    HW1 9917   5.330   0.744   1.454
 3006SOL    HW2 9918   5.256   0.599   1.461
 3007SOL     OW 9919   6.581   5.806   2.192
 3007SOL    HW1 9920   6.567   5.828   2.288
 3007SOL    HW2 9921   6.493   5.808   2.144
 3008SOL     OW 9922   4.166   5.555   6.089
 3008SOL    HW1 9923   4.158   5.639   6.142
 3008SOL    HW2 9924   4.125   5.569   5.998
 3009SOL     OW 9925   1.089   1.476   3.156
 3009SOL    HW1 9926   1.001   1.460   3.112
 3009SOL    HW2 9927   1.161   1.484   3.086
 3010SOL     OW 9928   3.919   6.984   2.117
 3010SOL    HW1 9929   3.827   7.015   2.094
 3010SOL    HW2 9930   3.921   6.954   2.212
 3011SOL     OW 9931   5.325   0.636   6.567
 3011SOL    HW1 9932   5.306   0.652   6.664
 3011SOL    HW2 9933   5.359   0.721   6.526
 3012SOL     OW 9934   0.137   4.574   2.347
 3012SOL    HW1 9935   0.059   4.521   2.313
 3012SOL    HW2 9936   0.199   4.594   2.271
 3013SOL     OW 9937   5.676   4.342   2.257
 3013SOL    HW1 9938   5.758   4.298   2.220
 3013SOL    HW2 9939   5.597   4.314   2.202
 3014SOL     OW 9940   4.865   1.170   5.014
 3014SOL    HW1 9941   4.870   1.077   5.051
 3014SOL    HW2 9942   4.950   1.191   4.966
 3015SOL     OW 9943   2.986   2.523   6.892
 3015SOL    HW1 9944   2.916   2.574   6.941
 3015SOL    HW2 9945   2.998   2.562   6.801
 3016SOL     OW 9946   3.603   6.149   3.195
 3016SOL    HW1 9947   3.552   6.194   3.269
 3016SOL    HW2 9948   3.556   6.164   3.108
 3017SOL     OW 9949   6.876   5.909   1.494
 3017SOL    HW1 9950   6.872   5.977   1.567
 3017SOL    HW2 9951   6.863   5.817   1.532
 3018SOL     OW 9952   3.491   6.983   6.166
 3018SOL    HW1 9953   3.542   6.967   6.082
 3018SOL    HW2 9954   3.531   6.928   6.240
 3019SOL     OW 9955   5.390   0.049   1.972
 3019SOL    HW1 9956   5.308   0.102   1.996
 3019SOL    HW2 9957   5.423   0.077   1.882
 3020SOL     OW 9958   1.449   1.570   0.754
 3020SOL    HW1 9959   1.365   1.621   0.772
 3020SOL    HW2 9960   1.446   1.482   0.803
 3021SOL     OW 9961   3.538   0.972   6.178
 3021SOL    HW1 9962   3.614   0.941   6.121
 3021SOL    HW2 9963   3.533   1.072   6.177
 3022SOL     OW 9964   4.989   6.859   2.964
 3022SOL    HW1 9965   5.031   6.932   3.018
 3022SOL    HW2 9966   5.029   6.771   2.990
 3023SOL     OW 9967   5.744   6.826   2.211
 3023SOL    HW1 9968   5.813   6.881   2.257
 3023SOL    HW2 9969   5.758   6.830   2.112
 3024SOL     OW 9970   2.958   6.235   6.841
 3024SOL    HW1 9971   2.895   6.162   6.813
 3024SOL    HW2 9972   3.038   6.195   6.886
 3025SOL     OW 9973   1.715   2.521   1.842
 3025SOL    HW1 9974   1.770   2.462   1.900
 3025SOL    HW2 9975   1.755   2.613   1.840
 3026SOL     OW 9976   2.191   4.477   1.098
 3026SOL    HW1 9977   2.190   4.377   1.104
 3026SOL    HW2 9978   2.097   4.511   1.094
 3027SOL     OW 9979   1.298   1.816   4.052
 3027SOL    HW1 9980   1.323   1.860   4.138
 3027SOL    HW2 9981   1.204   1.842   4.027
 3028SOL     OW 9982   1.807   0.262   4.482
 3028SOL    HW1 9983   1.731   0.202   4.457
 3028SOL    HW2 9984   1.783   0.314   4.563
 3029SOL     OW 9985   5.185   6.473   5.535
 3029SOL    HW1 9986   5.092   6.461   5.569
 3029SOL    HW2 9987   5.250   6.430   5.597
 3030SOL     OW 9988   1.270   2.203   5.957
 3030SOL    HW1 9989   1.314   2.274   6.012
 3030SOL    HW2 9990   1.246   2.241   5.868
 3031SOL     OW 9991   1.532   4.713   6.942
 3031SOL    HW1 9992   1.515   4.758   0.010
 3031SOL    HW2 9993   1.578   4.778   6.881
 3032SOL     OW 9994   4.832   0.355   5.874
 3032SOL    HW1 9995   4.803   0.260   5.887
 3032SOL    HW2 9996   4.764   0.416   5.915
 3033SOL     OW 9997   5.188   4.682   6.420
 3033SOL    HW1 9998   5.166   4.733   6.503
 3033SOL    HW2 9999   5.136   4.597   6.419
 3034SOL     OW10000   2.170   0.180   4.433
 3034SOL    HW110001   2.204   0.096   4.475
 3034SOL    HW210002   2.183   0.257   4.496
 3035SOL     OW10003   6.258   0.013   6.704
 3035SOL    HW110004   6.358   0.011   6.707
 3035SOL    HW210005   6.222   6.942   6.726
 3036SOL     OW10006   1.369   4.684   6.228
 3036SOL    HW110007   1.359   4.720   6.321
 3036SOL    HW210008   1.380   4.760   6.164
 3037SOL     OW10009   6.604   6.327   5.556
 3037SOL    HW110010   6.658   6.375   5.487
 3037SOL    HW210011   6.656   6.249   5.591
 3038SOL     OW10012   5.918   0.090   5.632
 3038SOL    HW110013   5.874   0.179   5.624
 3038SOL    HW210014   5.902   0.037   5.549
 3039SOL     OW10015   0.712   5.148   0.845
 3039SOL    HW110016   0.809   5.169   0.859
 3039SOL    HW210017   0.697   5.051   0.865
 3040SOL     OW10018   2.556   2.780   6.624
 3040SOL    HW110019   2.465   2.743   6.607
 3040SOL    HW210020   2.589   2.829   6.543
 3041SOL     OW10021   1.771   2.057   6.137
 3041SOL    HW110022   1.773   2.125   6.211
 3041SOL    HW210023   1.862   2.048   6.097
 3042SOL     OW10024   4.686   0.506   1.801
 3042SOL    HW110025   4.607   0.487   1.859
 3042SOL    HW210026   4.738   0.584   1.838
 3043SOL     OW10027   0.198   5.371   0.591
 3043SOL    HW110028   0.168   5.295   0.534
 3043SOL    HW210029   0.219   5.337   0.683
 3044SOL     OW10030   3.267   3.905   6.316
 3044SOL    HW110031   3.313   3.866   6.395
 3044SOL    HW210032   3.187   3.851   6.293
 3045SOL     OW10033   5.606   2.059   3.505
 3045SOL    HW110034   5.655   1.994   3.446
 3045SOL    HW210035   5.563   2.130   3.449
 3046SOL     OW10036   2.039   2.357   5.751
 3046SOL    HW110037   2.134   2.351   5.721
 3046SOL    HW210038   1.979   2.359   5.671
 3047SOL     OW10039   6.719   4.488   2.118
 3047SOL    HW110040   6.794   4.484   2.052
 3047SOL    HW210041   6.681   4.397   2.131
 3048SOL     OW10042   3.344   2.584   1.673
 3048SOL    HW110043   3.429   2.535   1.689
 3048SOL    HW210044   3.267   2.524   1.693
 3049SOL     OW10045   0.992   0.494   2.247
 3049SOL    HW110046   0.988   0.398   2.219
 3049SOL    HW210047   0.899   0.532   2.249
 3050SOL     OW10048   3.831   5.395   3.791
 3050SOL    HW110049   3.836   5.414   3.889
 3050SOL    HW210050   3.751   5.441   3.753
 3051SOL     OW10051   2.795   3.970   5.998
 3051SOL    HW110052   2.705   3.967   6.041
 3051SOL    HW210053   2.821   4.065   5.981
 3052SOL     OW10054   4.367   6.923   2.971
 3052SOL    HW110055   4.276   6.883   2.965
 3052SOL    HW210056   4.433   6.862   2.927
 3053SOL     OW10057   5.090   6.535   0.535
 3053SOL    HW110058   5.146   6.496   0.463
 3053SOL    HW210059   5.149   6.577   0.605
 3054SOL     OW10060   1.739   3.698   6.175
 3054SOL    HW110061   1.747   3.614   6.122
 3054SOL    HW210062   1.646   3.705   6.212
 3055SOL     OW10063   6.049   5.955   2.959
 3055SOL    HW110064   6.134   5.906   2.940
 3055SOL    HW210065   6.056   6.002   3.047
 3056SOL     OW10066   6.627   0.872   1.046
 3056SOL    HW110067   6.620   0.787   1.099
 3056SOL    HW210068   6.545   0.883   0.990
 3057SOL     OW10069   6.242   5.718   2.586
 3057SOL    HW110070   6.264   5.621   2.572
 3057SOL    HW210071   6.145   5.733   2.567
 3058SOL     OW10072   6.302   4.609   1.534
 3058SOL    HW110073   6.286   4.706   1.516
 3058SOL    HW210074   6.401   4.592   1.533
 3059SOL     OW10075   1.917   2.731   4.700
 3059SOL    HW110076   1.857   2.807   4.725
 3059SOL    HW210077   1.969   2.702   4.781
 3060SOL     OW10078   6.715   6.922   0.767
 3060SOL    HW110079   6.786   6.982   0.729
 3060SOL    HW210080   6.667   6.876   0.693
 3061SOL     OW10081   0.205   0.385   5.832
 3061SOL    HW110082   0.111   0.400   5.803
 3061SOL    HW210083   0.255   0.472   5.827
 3062SOL     OW10084   2.865   6.168   6.350
 3062SOL    HW110085   2.825   6.205   6.266
 3062SOL    HW210086   2.935   6.231   6.385
 3063SOL     OW10087   1.682   5.341   0.937
 3063SOL    HW110088   1.643   5.318   0.848
 3063SOL    HW210089   1.752   5.274   0.961
 3064SOL     OW10090   6.778   4.355   2.848
 3064SOL    HW110091   6.862   4.369   2.900
 3064SOL    HW210092   6.784   4.401   2.760
 3065SOL     OW10093   1.747   0.918   0.745
 3065SOL    HW110094   1.672   0.937   0.809
 3065SOL    HW210095   1.804   0.844   0.781
 3066SOL     OW10096   6.044   5.111   1.395
 3066SOL    HW110097   5.959   5.159   1.372
 3066SOL    HW210098   6.088   5.080   1.311
 3067SOL     OW10099   5.126   6.620   3.458
 3067SOL    HW110100   5.090   6.542   3.508
 3067SOL    HW210101   5.098   6.705   3.503
 3068SOL     OW10102   5.999   4.969   0.322
 3068SOL    HW110103   6.085   4.992   0.277
 3068SOL    HW210104   5.969   5.045   0.380
 3069SOL     OW10105   1.207   5.621   3.299
 3069SOL    HW110106   1.184   5.615   3.397
 3069SOL    HW210107   1.129   5.589   3.245
 3070SOL     OW10108   4.142   1.630   4.492
 3070SOL    HW110109   4.077   1.554   4.489
 3070SOL    HW210110   4.226   1.604   4.444
 3071SOL     OW10111   6.016   6.684   3.557
 3071SOL    HW110112   6.100   6.635   3.532
 3071SOL    HW210113   6.024   6.718   3.651
 3072SOL     OW10114   0.503   6.990   2.410
 3072SOL    HW110115   0.437   6.988   2.486
 3072SOL    HW210116   0.519   0.065   2.383
 3073SOL     OW10117   1.403   3.583   4.511
 3073SOL    HW110118   1.481   3.546   4.460
 3073SOL    HW210119   1.437   3.638   4.588
 3074SOL     OW10120   5.307   3.206   6.065
 3074SOL    HW110121   5.399   3.196   6.104
 3074SOL    HW210122   5.241   3.161   6.125
 3075SOL     OW10123   1.539   5.435   1.903
 3075SOL    HW110124   1.547   5.463   1.807
 3075SOL    HW210125   1.444   5.410   1.922
 3076SOL     OW10126   0.242   0.415   5.015
 3076SOL    HW110127   0.235   0.357   4.934
 3076SOL    HW210128   0.211   0.363   5.095
 3077SOL     OW10129   4.982   4.934   3.942
 3077SOL    HW110130   5.075   4.963   3.964
 3077SOL    HW210131   4.984   4.864   3.871
 3078SOL     OW10132   2.327   3.066   1.137
 3078SOL    HW110133   2.402   3.125   1.168
 3078SOL    HW210134   2.262   3.120   1.084
 3079SOL     OW10135   6.127   2.630   6.002
 3079SOL    HW110136   6.033   2.641   6.036
 3079SOL    HW210137   6.136   2.679   5.915
 3080SOL     OW10138   6.454   5.928   0.730
 3080SOL    HW110139   6.478   5.890   0.641
 3080SOL    HW210140   6.357   5.910   0.749
 3081SOL     OW10141   6.509   4.850   5.669
 3081SOL    HW110142   6.520   4.752   5.686
 3081SOL    HW210143   6.513   4.867   5.570
 3082SOL     OW10144   2.494   6.998   2.719
 3082SOL    HW110145   2.417   6.940   2.694
 3082SOL    HW210146   2.492   0.063   2.666
 3083SOL     OW10147   3.512   0.514   2.185
 3083SOL    HW110148   3.522   0.608   2.152
 3083SOL    HW210149   3.454   0.462   2.122
 3084SOL     OW10150   4.965   6.524   4.924
 3084SOL    HW110151   4.925   6.503   4.835
 3084SOL    HW210152   4.895   6.561   4.985
 3085SOL     OW10153   0.739   5.797   1.562
 3085SOL    HW110154   0.818   5.790   1.622
 3085SOL    HW210155   0.661   5.831   1.613
 3086SOL     OW10156   5.311   0.972   3.966
 3086SOL    HW110157   5.260   1.047   3.923
 3086SOL    HW210158   5.389   0.948   3.908
 3087SOL     OW10159   5.960   3.256   3.063
 3087SOL    HW110160   5.950   3.272   3.161
 3087SOL    HW210161   5.888   3.193   3.032
 3088SOL     OW10162   3.214   4.435   6.223
 3088SOL    HW110163   3.189   4.344   6.256
 3088SOL    HW210164   3.155   4.460   6.147
 3089SOL     OW10165   1.479   2.391   0.435
 3089SOL    HW110166   1.466   2.469   0.375
 3089SOL    HW210167   1.532   2.419   0.516
 3090SOL     OW10168   0.901   1.424   1.127
 3090SOL    HW110169   0.893   1.524   1.124
 3090SOL    HW210170   0.905   1.394   1.222
 3091SOL     OW10171   2.284   6.883   0.626
 3091SOL    HW110172   2.208   6.818   0.628
 3091SOL    HW210173   2.354   6.853   0.692
 3092SOL     OW10174   4.295   6.640   0.930
 3092SOL    HW110175   4.374   6.603   0.979
 3092SOL    HW210176   4.279   6.587   0.847
 3093SOL     OW10177   5.259   6.076   3.972
 3093SOL    HW110178   5.218   6.128   4.048
 3093SOL    HW210179   5.358   6.075   3.983
 3094SOL     OW10180   3.306   5.567   5.488
 3094SOL    HW110181   3.381   5.548   5.425
 3094SOL    HW210182   3.224   5.590   5.435
 3095SOL     OW10183   3.162   4.860   4.867
 3095SOL    HW110184   3.215   4.857   4.952
 3095SOL    HW210185   3.143   4.767   4.836
 3096SOL     OW10186   0.819   0.786   5.580
 3096SOL    HW110187   0.841   0.688   5.588
 3096SOL    HW210188   0.722   0.796   5.557
 3097SOL     OW10189   1.256   3.031   0.321
 3097SOL    HW110190   1.325   3.087   0.275
 3097SOL    HW210191   1.282   2.935   0.317
 3098SOL     OW10192   3.951   1.975   0.271
 3098SOL    HW110193   3.908   2.060   0.243
 3098SOL    HW210194   3.888   1.921   0.327
 3099SOL     OW10195   1.123   6.001   4.847
 3099SOL    HW110196   1.155   5.970   4.937
 3099SOL    HW210197   1.024   5.985   4.840
 3100SOL     OW10198   6.709   6.844   0.489
 3100SOL    HW110199   6.688   6.747   0.478
 3100SOL    HW210200   6.731   6.884   0.400
 3101SOL     OW10201   4.405   0.140   0.790
 3101SOL    HW110202   4.360   0.227   0.765
 3101SOL    HW210203   4.502   0.146   0.769
 3102SOL     OW10204   1.674   5.053   1.106
 3102SOL    HW110205   1.727   5.091   1.182
 3102SOL    HW210206   1.604   4.991   1.142
 3103SOL     OW10207   3.642   3.333   2.241
 3103SOL    HW110208   3.657   3.245   2.286
 3103SOL    HW210209   3.655   3.322   2.142
 3104SOL     OW10210   6.727   5.112   3.363
 3104SOL    HW110211   6.724   5.140   3.266
 3104SOL    HW210212   6.655   5.161   3.413
 3105SOL     OW10213   6.502   6.115   3.882
 3105SOL    HW110214   6.540   6.086   3.794
 3105SOL    HW210215   6.501   6.214   3.887
 3106SOL     OW10216   7.003   2.864   4.348
 3106SOL    HW110217   6.922   2.831   4.397
 3106SOL    HW210218   0.016   2.948   4.390
 3107SOL     OW10219   2.826   0.071   4.068
 3107SOL    HW110220   2.854   0.162   4.037
 3107SOL    HW210221   2.874   0.049   4.153
 3108SOL     OW10222   3.365   0.150   3.359
 3108SOL    HW110223   3.269   0.166   3.334
 3108SOL    HW210224   3.402   0.078   3.301
 3109SOL     OW10225   4.817   5.991   2.822
 3109SOL    HW110226   4.808   6.083   2.859
 3109SOL    HW210227   4.743   5.974   2.756
 3110SOL     OW10228   0.635   2.823   2.432
 3110SOL    HW110229   0.706   2.814   2.362
 3110SOL    HW210230   0.605   2.732   2.460
 3111SOL     OW10231   6.474   4.777   3.420
 3111SOL    HW110232   6.496   4.719   3.342
 3111SOL    HW210233   6.551   4.778   3.484
 3112SOL     OW10234   3.499   3.552   6.616
 3112SOL    HW110235   3.401   3.548   6.637
 3112SOL    HW210236   3.536   3.459   6.614
 3113SOL     OW10237   3.392   0.239   3.653
 3113SOL    HW110238   3.397   0.336   3.677
 3113SOL    HW210239   3.398   0.229   3.554
 3114SOL     OW10240   5.523   5.860   0.912
 3114SOL    HW110241   5.528   5.822   0.820
 3114SOL    HW210242   5.611   5.904   0.934
 3115SOL     OW10243   2.654   3.490   1.337
 3115SOL    HW110244   2.738   3.435   1.331
 3115SOL    HW210245   2.674   3.584   1.311
 3116SOL     OW10246   6.882   1.765   0.032
 3116SOL    HW110247   6.934   1.813   6.981
 3116SOL    HW210248   6.882   1.819   0.116
 3117SOL     OW10249   3.895   4.071   5.031
 3117SOL    HW110250   3.905   4.152   5.088
 3117SOL    HW210251   3.951   3.997   5.069
 3118SOL     OW10252   6.216   5.024   0.190
 3118SOL    HW110253   6.236   5.097   0.124
 3118SOL    HW210254   6.302   4.982   0.220
 3119SOL     OW10255   1.863   4.685   5.632
 3119SOL    HW110256   1.932   4.638   5.687
 3119SOL    HW210257   1.844   4.631   5.550
 3120SOL     OW10258   3.282   5.634   4.939
 3120SOL    HW110259   3.353   5.592   4.995
 3120SOL    HW210260   3.321   5.711   4.887
 3121SOL     OW10261   0.625   6.523   2.549
 3121SOL    HW110262   0.712   6.566   2.526
 3121SOL    HW210263   0.553   6.593   2.548
 3122SOL     OW10264   3.302   5.437   0.790
 3122SOL    HW110265   3.249   5.429   0.706
 3122SOL    HW210266   3.241   5.437   0.869
 3123SOL     OW10267   4.258   6.840   4.842
 3123SOL    HW110268   4.216   6.807   4.927
 3123SOL    HW210269   4.210   6.800   4.764
 3124SOL     OW10270   3.652   0.013   5.957
 3124SOL    HW110271   3.740   6.985   5.957
 3124SOL    HW210272   3.638   0.057   5.868
 3125SOL     OW10273   6.935   1.669   5.922
 3125SOL    HW110274   7.016   1.719   5.890
 3125SOL    HW210275   6.936   1.663   6.021
 3126SOL     OW10276   4.112   6.317   0.277
 3126SOL    HW110277   4.093   6.219   0.281
 3126SOL    HW210278   4.126   6.352   0.370
 3127SOL     OW10279   0.651   1.503   3.742
 3127SOL    HW110280   0.643   1.538   3.648
 3127SOL    HW210281   0.622   1.574   3.806
 3128SOL     OW10282   1.396   1.431   0.124
 3128SOL    HW110283   1.333   1.500   0.160
 3128SOL    HW210284   1.375   1.413   0.028
 3129SOL     OW10285   1.283   2.969   4.335
 3129SOL    HW110286   1.274   3.007   4.243
 3129SOL    HW210287   1.262   2.871   4.333
 3130SOL     OW10288   1.972   5.672   2.738
 3130SOL    HW110289   1.892   5.721   2.774
 3130SOL    HW210290   2.042   5.668   2.809
 3131SOL     OW10291   6.805   3.311   3.651
 3131SOL    HW110292   6.781   3.215   3.637
 3131SOL    HW210293   6.867   3.341   3.578
 3132SOL     OW10294   5.179   6.296   5.302
 3132SOL    HW110295   5.166   6.357   5.380
 3132SOL    HW210296   5.134   6.209   5.320
 3133SOL     OW10297   2.870   1.709   3.148
 3133SOL    HW110298   2.951   1.663   3.112
 3133SOL    HW210299   2.857   1.795   3.099
 3134SOL     OW10300   4.912   3.169   2.735
 3134SOL    HW110301   4.888   3.162   2.639
 3134SOL    HW210302   5.003   3.210   2.745
 3135SOL     OW10303   3.258   1.827   3.335
 3135SOL    HW110304   3.322   1.796   3.265
 3135SOL    HW210305   3.308   1.871   3.410
 3136SOL     OW10306   6.116   6.498   5.118
 3136SOL    HW110307   6.055   6.444   5.175
 3136SOL    HW210308   6.148   6.578   5.169
 3137SOL     OW10309   6.666   1.549   4.421
 3137SOL    HW110310   6.578   1.526   4.378
 3137SOL    HW210311   6.668   1.511   4.514
 3138SOL     OW10312   5.142   1.767   5.167
 3138SOL    HW110313   5.188   1.704   5.104
 3138SOL    HW210314   5.206   1.793   5.240
 3139SOL     OW10315   4.842   6.150   5.354
 3139SOL    HW110316   4.770   6.124   5.418
 3139SOL    HW210317   4.931   6.124   5.391
 3140SOL     OW10318   6.539   6.546   6.822
 3140SOL    HW110319   6.614   6.545   6.888
 3140SOL    HW210320   6.562   6.489   6.744
 3141SOL     OW10321   0.737   5.234   0.493
 3141SOL    HW110322   0.770   5.147   0.529
 3141SOL    HW210323   0.668   5.272   0.555
 3142SOL     OW10324   3.529   6.570   6.789
 3142SOL    HW110325   3.546   6.614   6.701
 3142SOL    HW210326   3.448   6.611   6.832
 3143SOL     OW10327   0.321   1.706   1.014
 3143SOL    HW110328   0.359   1.631   1.067
 3143SOL    HW210329   0.314   1.787   1.073
 3144SOL     OW10330   1.740   3.753   6.555
 3144SOL    HW110331   1.758   3.683   6.485
 3144SOL    HW210332   1.732   3.843   6.511
 3145SOL     OW10333   3.877   6.788   3.990
 3145SOL    HW110334   3.887   6.708   4.048
 3145SOL    HW210335   3.821   6.765   3.910
 3146SOL     OW10336   2.257   0.586   3.978
 3146SOL    HW110337   2.314   0.506   3.992
 3146SOL    HW210338   2.298   0.665   4.023
 3147SOL     OW10339   3.882   3.712   0.575
 3147SOL    HW110340   3.904   3.781   0.506
 3147SOL    HW210341   3.963   3.657   0.595
 3148SOL     OW10342   4.038   5.723   5.214
 3148SOL    HW110343   3.990   5.748   5.130
 3148SOL    HW210344   3.980   5.664   5.270
 3149SOL     OW10345   3.644   6.392   5.631
 3149SOL    HW110346   3.689   6.369   5.544
 3149SOL    HW210347   3.709   6.438   5.691
 3150SOL     OW10348   6.467   0.155   4.473
 3150SOL    HW110349   6.492   0.061   4.451
 3150SOL    HW210350   6.471   0.211   4.390
 3151SOL     OW10351   3.689   0.663   6.833
 3151SOL    HW110352   3.608   0.719   6.854
 3151SOL    HW210353   3.680   0.574   6.879
 3152SOL     OW10354   1.643   5.093   0.472
 3152SOL    HW110355   1.733   5.077   0.434
 3152SOL    HW210356   1.586   5.011   0.461
 3153SOL     OW10357   0.138   4.369   2.594
 3153SOL    HW110358   0.232   4.348   2.570
 3153SOL    HW210359   0.082   4.371   2.511
 3154SOL     OW10360   5.730   1.934   6.675
 3154SOL    HW110361   5.644   1.903   6.714
 3154SOL    HW210362   5.734   1.908   6.578
 3155SOL     OW10363   4.865   5.950   0.129
 3155SOL    HW110364   4.891   5.994   0.215
 3155SOL    HW210365   4.931   5.877   0.108
 3156SOL     OW10366   3.235   3.729   3.489
 3156SOL    HW110367   3.171   3.720   3.413
 3156SOL    HW210368   3.272   3.822   3.491
 3157SOL     OW10369   2.342   2.821   4.608
 3157SOL    HW110370   2.353   2.812   4.707
 3157SOL    HW210371   2.411   2.766   4.561
 3158SOL     OW10372   4.435   6.335   1.205
 3158SOL    HW110373   4.481   6.301   1.123
 3158SOL    HW210374   4.336   6.319   1.197
 3159SOL     OW10375   5.799   4.668   0.980
 3159SOL    HW110376   5.760   4.758   0.998
 3159SOL    HW210377   5.756   4.600   1.039
 3160SOL     OW10378   5.485   4.651   0.101
 3160SOL    HW110379   5.468   4.597   0.019
 3160SOL    HW210380   5.540   4.597   0.166
 3161SOL     OW10381   0.825   1.863   2.634
 3161SOL    HW110382   0.781   1.912   2.709
 3161SOL    HW210383   0.907   1.816   2.668
 3162SOL     OW10384   6.309   6.525   6.377
 3162SOL    HW110385   6.297   6.430   6.407
 3162SOL    HW210386   6.308   6.528   6.277
 3163SOL     OW10387   2.717   4.201   5.485
 3163SOL    HW110388   2.740   4.104   5.492
 3163SOL    HW210389   2.785   4.247   5.428
 3164SOL     OW10390   5.607   5.550   6.212
 3164SOL    HW110391   5.526   5.556   6.271
 3164SOL    HW210392   5.592   5.482   6.140
 3165SOL     OW10393   0.146   2.852   1.625
 3165SOL    HW110394   0.224   2.790   1.620
 3165SOL    HW210395   0.076   2.824   1.560
 3166SOL     OW10396   5.871   2.828   6.580
 3166SOL    HW110397   5.846   2.820   6.676
 3166SOL    HW210398   5.794   2.801   6.523
 3167SOL     OW10399   1.404   4.412   2.682
 3167SOL    HW110400   1.350   4.439   2.603
 3167SOL    HW210401   1.358   4.441   2.766
 3168SOL     OW10402   5.314   3.044   0.867
 3168SOL    HW110403   5.243   3.106   0.833
 3168SOL    HW210404   5.328   2.971   0.800
 3169SOL     OW10405   1.577   2.003   4.949
 3169SOL    HW110406   1.614   2.026   5.039
 3169SOL    HW210407   1.567   1.904   4.941
 3170SOL     OW10408   4.694   0.558   5.978
 3170SOL    HW110409   4.697   0.540   6.076
 3170SOL    HW210410   4.642   0.642   5.961
 3171SOL     OW10411   6.153   6.924   3.339
 3171SOL    HW110412   6.190   6.879   3.420
 3171SOL    HW210413   6.111   6.856   3.279
 3172SOL     OW10414   6.032   0.248   6.159
 3172SOL    HW110415   5.948   0.285   6.119
 3172SOL    HW210416   6.051   0.158   6.119
 3173SOL     OW10417   1.618   1.560   1.484
 3173SOL    HW110418   1.600   1.502   1.406
 3173SOL    HW210419   1.627   1.655   1.454
 3174SOL     OW10420   1.957   4.365   6.088
 3174SOL    HW110421   1.895   4.309   6.033
 3174SOL    HW210422   1.908   4.442   6.127
 3175SOL     OW10423   0.081   5.918   1.043
 3175SOL    HW110424   0.145   5.993   1.061
 3175SOL    HW210425   7.019   5.931   1.099
 3176SOL     OW10426   1.554   5.488   6.232
 3176SOL    HW110427   1.505   5.558   6.284
 3176SOL    HW210428   1.497   5.408   6.221
 3177SOL     OW10429   0.003   6.705   4.360
 3177SOL    HW110430   6.972   6.791   4.363
 3177SOL    HW210431   0.076   6.707   4.428
 3178SOL     OW10432   1.684   3.250   0.774
 3178SOL    HW110433   1.738   3.294   0.846
 3178SOL    HW210434   1.635   3.320   0.722
 3179SOL     OW10435   1.131   2.202   3.323
 3179SOL    HW110436   1.049   2.195   3.266
 3179SOL    HW210437   1.157   2.112   3.356
 3180SOL     OW10438   5.408   0.975   5.883
 3180SOL    HW110439   5.333   1.017   5.833
 3180SOL    HW210440   5.490   0.973   5.826
 3181SOL     OW10441   0.408   1.891   3.195
 3181SOL    HW110442   0.410   1.791   3.192
 3181SOL    HW210443   0.489   1.927   3.148
 3182SOL     OW10444   1.767   4.522   5.140
 3182SOL    HW110445   1.697   4.593   5.153
 3182SOL    HW210446   1.849   4.563   5.101
 3183SOL     OW10447   4.355   3.283   1.572
 3183SOL    HW110448   4.390   3.272   1.479
 3183SOL    HW210449   4.257   3.261   1.573
 3184SOL     OW10450   2.644   1.361   3.277
 3184SOL    HW110451   2.669   1.313   3.193
 3184SOL    HW210452   2.545   1.371   3.281
 3185SOL     OW10453   0.404   6.658   5.888
 3185SOL    HW110454   0.390   6.561   5.869
 3185SOL    HW210455   0.493   6.671   5.932
 3186SOL     OW10456   3.353   0.429   1.891
 3186SOL    HW110457   3.261   0.402   1.921
 3186SOL    HW210458   3.355   0.528   1.876
 3187SOL     OW10459   2.932   4.505   6.951
 3187SOL    HW110460   2.963   4.500   6.856
 3187SOL    HW210461   3.009   4.526   7.011
 3188SOL     OW10462   4.754   0.407   3.258
 3188SOL    HW110463   4.825   0.460   3.212
 3188SOL    HW210464   4.755   0.313   3.224
 3189SOL     OW10465   0.347   0.156   1.703
 3189SOL    HW110466   0.281   0.103   1.650
 3189SOL    HW210467   0.396   0.218   1.642
 3190SOL     OW10468   0.893   6.874   1.389
 3190SOL    HW110469   0.929   6.795   1.339
 3190SOL    HW210470   0.794   6.868   1.395
 3191SOL     OW10471   3.458   0.390   1.144
 3191SOL    HW110472   3.409   0.476   1.161
 3191SOL    HW210473   3.448   0.364   1.048
 3192SOL     OW10474   5.988   2.498   3.815
 3192SOL    HW110475   6.014   2.542   3.900
 3192SOL    HW210476   5.888   2.494   3.808
 3193SOL     OW10477   4.716   4.204   6.933
 3193SOL    HW110478   4.745   4.266   6.860
 3193SOL    HW210479   4.758   4.232   7.020
 3194SOL     OW10480   1.424   4.860   5.862
 3194SOL    HW110481   1.467   4.919   5.795
 3194SOL    HW210482   1.404   4.771   5.821
 3195SOL     OW10483   0.688   3.922   2.971
 3195SOL    HW110484   0.719   3.840   3.018
 3195SOL    HW210485   0.745   4.000   2.997
 3196SOL     OW10486   0.504   6.294   5.472
 3196SOL    HW110487   0.487   6.260   5.565
 3196SOL    HW210488   0.521   6.217   5.411
 3197SOL     OW10489   0.973   3.903   4.440
 3197SOL    HW110490   0.994   3.843   4.362
 3197SOL    HW210491   1.023   3.989   4.430
 3198SOL     OW10492   5.636   0.677   0.163
 3198SOL    HW110493   5.567   0.719   0.223
 3198SOL    HW210494   5.653   0.583   0.192
 3199SOL     OW10495   3.651   2.049   2.626
 3199SOL    HW110496   3.613   2.104   2.551
 3199SOL    HW210497   3.577   1.998   2.670
 3200SOL     OW10498   6.881   1.992   0.948
 3200SOL    HW110499   6.815   1.999   1.024
 3200SOL    HW210500   6.832   1.996   0.861
 3201SOL     OW10501   4.607   4.588   3.112
 3201SOL    HW110502   4.551   4.644   3.173
 3201SOL    HW210503   4.700   4.626   3.109
 3202SOL     OW10504   1.722   5.748   2.117
 3202SOL    HW110505   1.639   5.693   2.106
 3202SOL    HW210506   1.763   5.730   2.206
 3203SOL     OW10507   5.744   6.952   1.368
 3203SOL    HW110508   5.757   7.001   1.282
 3203SOL    HW210509   5.679   7.002   1.425
 3204SOL     OW10510   6.419   6.183   1.684
 3204SOL    HW110511   6.370   6.261   1.645
 3204SOL    HW210512   6.479   6.144   1.615
 3205SOL     OW10513   1.398   3.832   3.041
 3205SOL    HW110514   1.304   3.845   3.071
 3205SOL    HW210515   1.414   3.883   2.957
 3206SOL     OW10516   1.585   6.346   0.118
 3206SOL    HW110517   1.571   6.358   0.217
 3206SOL    HW210518   1.504   6.302   0.078
 3207SOL     OW10519   0.805   1.338   3.097
 3207SOL    HW110520   0.757   1.257   3.132
 3207SOL    HW210521   0.746   1.418   3.106
 3208SOL     OW10522   6.178   0.577   5.255
 3208SOL    HW110523   6.198   0.500   5.315
 3208SOL    HW210524   6.223   0.659   5.291
 3209SOL     OW10525   2.695   0.265   2.917
 3209SOL    HW110526   2.778   0.229   2.875
 3209SOL    HW210527   2.640   0.189   2.951
 3210SOL     OW10528   0.545   4.946   2.898
 3210SOL    HW110529   0.456   4.953   2.852
 3210SOL    HW210530   0.615   4.918   2.832
 3211SOL     OW10531   0.719   4.250   2.892
 3211SOL    HW110532   0.762   4.317   2.953
 3211SOL    HW210533   0.789   4.196   2.847
 3212SOL     OW10534   5.052   3.127   4.913
 3212SOL    HW110535   5.021   3.112   5.007
 3212SOL    HW210536   5.001   3.202   4.872
 3213SOL     OW10537   5.043   6.778   1.551
 3213SOL    HW110538   5.128   6.730   1.573
 3213SOL    HW210539   4.982   6.716   1.502
 3214SOL     OW10540   4.193   4.198   6.004
 3214SOL    HW110541   4.226   4.120   6.058
 3214SOL    HW210542   4.168   4.273   6.065
 3215SOL     OW10543   5.945   1.018   0.421
 3215SOL    HW110544   5.935   0.925   0.454
 3215SOL    HW210545   6.038   1.032   0.387
 3216SOL     OW10546   6.153   6.612   4.859
 3216SOL    HW110547   6.210   6.601   4.940
 3216SOL    HW210548   6.159   6.530   4.802
 3217SOL     OW10549   7.014   4.142   0.502
 3217SOL    HW110550   6.968   4.229   0.515
 3217SOL    HW210551   6.962   4.085   0.439
 3218SOL     OW10552   3.650   1.002   1.932
 3218SOL    HW110553   3.621   0.938   1.860
 3218SOL    HW210554   3.621   1.095   1.907
 3219SOL     OW10555   6.691   6.716   4.290
 3219SOL    HW110556   6.724   6.722   4.384
 3219SOL    HW210557   6.758   6.667   4.234
 3220SOL     OW10558   6.163   2.998   6.340
 3220SOL    HW110559   6.117   2.913   6.314
 3220SOL    HW210560   6.223   3.027   6.266
 3221SOL     OW10561   4.063   0.364   2.697
 3221SOL    HW110562   4.158   0.359   2.666
 3221SOL    HW210563   4.016   0.439   2.650
 3222SOL     OW10564   5.999   3.927   2.478
 3222SOL    HW110565   6.025   3.979   2.397
 3222SOL    HW210566   6.009   3.985   2.559
 3223SOL     OW10567   2.363   4.635   4.171
 3223SOL    HW110568   2.301   4.618   4.094
 3223SOL    HW210569   2.413   4.551   4.193
 3224SOL     OW10570   3.766   5.905   1.463
 3224SOL    HW110571   3.711   5.821   1.465
 3224SOL    HW210572   3.736   5.962   1.386
 3225SOL     OW10573   2.500   2.272   1.048
 3225SOL    HW110574   2.530   2.351   0.994
 3225SOL    HW210575   2.405   2.286   1.078
 3226SOL     OW10576   0.431   1.304   4.356
 3226SOL    HW110577   0.521   1.262   4.348
 3226SOL    HW210578   0.361   1.233   4.359
 3227SOL     OW10579   2.285   1.811   5.460
 3227SOL    HW110580   2.379   1.807   5.427
 3227SOL    HW210581   2.250   1.718   5.474
 3228SOL     OW10582   4.992   3.355   4.558
 3228SOL    HW110583   4.951   3.264   4.552
 3228SOL    HW210584   4.994   3.397   4.467
 3229SOL     OW10585   3.968   1.877   5.201
 3229SOL    HW110586   4.013   1.864   5.290
 3229SOL    HW210587   4.036   1.901   5.132
 3230SOL     OW10588   1.380   0.558   3.852
 3230SOL    HW110589   1.349   0.616   3.927
 3230SOL    HW210590   1.474   0.583   3.827
 3231SOL     OW10591   4.994   5.367   0.305
 3231SOL    HW110592   5.069   5.372   0.239
 3231SOL    HW210593   5.025   5.316   0.385
 3232SOL     OW10594   2.522   4.452   3.261
 3232SOL    HW110595   2.446   4.454   3.196
 3232SOL    HW210596   2.560   4.360   3.264
 3233SOL     OW10597   1.681   3.686   1.057
 3233SOL    HW110598   1.596   3.716   1.099
 3233SOL    HW210599   1.753   3.680   1.126
 3234SOL     OW10600   6.506   2.099   4.739
 3234SOL    HW110601   6.557   2.130   4.659
 3234SOL    HW210602   6.440   2.029   4.711
 3235SOL     OW10603   5.256   0.661   2.557
 3235SOL    HW110604   5.215   0.583   2.510
 3235SOL    HW210605   5.307   0.630   2.637
 3236SOL     OW10606   0.288   2.839   1.875
 3236SOL    HW110607   0.321   2.925   1.913
 3236SOL    HW210608   0.229   2.856   1.797
 3237SOL     OW10609   2.864   6.480   4.630
 3237SOL    HW110610   2.791   6.477   4.699
 3237SOL    HW210611   2.825   6.462   4.540
 3238SOL     OW10612   5.923   6.498   6.467
 3238SOL    HW110613   5.907   6.590   6.502
 3238SOL    HW210614   5.869   6.484   6.384
 3239SOL     OW10615   0.848   5.453   5.788
 3239SOL    HW110616   0.813   5.536   5.833
 3239SOL    HW210617   0.806   5.373   5.830
 3240SOL     OW10618   0.285   1.975   5.182
 3240SOL    HW110619   0.202   1.971   5.126
 3240SOL    HW210620   0.312   2.070   5.195
 3241SOL     OW10621   4.924   0.148   5.410
 3241SOL    HW110622   4.966   0.059   5.430
 3241SOL    HW210623   4.982   0.220   5.447
 3242SOL     OW10624   3.381   6.404   0.282
 3242SOL    HW110625   3.475   6.411   0.315
 3242SOL    HW210626   3.318   6.404   0.360
 3243SOL     OW10627   3.671   5.304   0.730
 3243SOL    HW110628   3.652   5.358   0.812
 3243SOL    HW210629   3.741   5.351   0.675
 3244SOL     OW10630   1.539   5.935   5.469
 3244SOL    HW110631   1.504   6.009   5.526
 3244SOL    HW210632   1.550   5.968   5.375
 3245SOL     OW10633   2.545   2.127   5.751
 3245SOL    HW110634   2.465   2.084   5.710
 3245SOL    HW210635   2.620   2.061   5.754
 3246SOL     OW10636   5.400   6.193   3.534
 3246SOL    HW110637   5.465   6.192   3.458
 3246SOL    HW210638   5.388   6.287   3.566
 3247SOL     OW10639   6.728   1.799   5.504
 3247SOL    HW110640   6.652   1.859   5.530
 3247SOL    HW210641   6.704   1.705   5.526
 3248SOL     OW10642   5.338   4.129   2.820
 3248SOL    HW110643   5.425   4.162   2.782
 3248SOL    HW210644   5.264   4.149   2.756
 3249SOL     OW10645   3.263   4.244   5.326
 3249SOL    HW110646   3.267   4.181   5.404
 3249SOL    HW210647   3.167   4.264   5.304
 3250SOL     OW10648   4.670   5.547   1.531
 3250SOL    HW110649   4.581   5.501   1.525
 3250SOL    HW210650   4.659   5.637   1.574
 3251SOL     OW10651   3.198   1.047   3.633
 3251SOL    HW110652   3.267   1.071   3.565
 3251SOL    HW210653   3.193   0.948   3.642
 3252SOL     OW10654   3.158   2.142   3.728
 3252SOL    HW110655   3.140   2.045   3.744
 3252SOL    HW210656   3.094   2.197   3.783
 3253SOL     OW10657   4.261   4.021   1.276
 3253SOL    HW110658   4.292   4.064   1.361
 3253SOL    HW210659   4.283   3.924   1.277
 3254SOL     OW10660   5.495   4.469   2.765
 3254SOL    HW110661   5.516   4.566   2.774
 3254SOL    HW210662   5.401   4.458   2.730
 3255SOL     OW10663   4.435   4.772   1.049
 3255SOL    HW110664   4.410   4.709   1.122
 3255SOL    HW210665   4.496   4.726   0.984
 3256SOL     OW10666   6.316   6.126   5.648
 3256SOL    HW110667   6.327   6.031   5.679
 3256SOL    HW210668   6.312   6.127   5.548
 3257SOL     OW10669   2.535   1.838   1.052
 3257SOL    HW110670   2.572   1.928   1.074
 3257SOL    HW210671   2.562   1.772   1.122
 3258SOL     OW10672   5.263   6.658   1.663
 3258SOL    HW110673   5.291   6.574   1.710
 3258SOL    HW210674   5.281   6.736   1.722
 3259SOL     OW10675   6.185   6.494   2.966
 3259SOL    HW110676   6.194   6.537   2.876
 3259SOL    HW210677   6.276   6.482   3.006
 3260SOL     OW10678   1.587   2.505   0.678
 3260SOL    HW110679   1.609   2.442   0.752
 3260SOL    HW210680   1.573   2.597   0.715
 3261SOL     OW10681   4.105   0.216   3.694
 3261SOL    HW110682   4.184   0.215   3.755
 3261SOL    HW210683   4.134   0.190   3.602
 3262SOL     OW10684   4.017   1.380   4.418
 3262SOL    HW110685   4.086   1.320   4.377
 3262SOL    HW210686   3.955   1.413   4.346
 3263SOL     OW10687   3.305   5.282   2.842
 3263SOL    HW110688   3.279   5.379   2.842
 3263SOL    HW210689   3.229   5.227   2.876
 3264SOL     OW10690   4.919   4.569   5.627
 3264SOL    HW110691   4.834   4.570   5.680
 3264SOL    HW210692   4.898   4.584   5.530
 3265SOL     OW10693   5.281   0.392   6.450
 3265SOL    HW110694   5.298   0.473   6.507
 3265SOL    HW210695   5.244   0.420   6.362
 3266SOL     OW10696   0.830   2.491   0.317
 3266SOL    HW110697   0.910   2.444   0.278
 3266SOL    HW210698   0.801   2.443   0.400
 3267SOL     OW10699   4.952   2.661   1.905
 3267SOL    HW110700   5.047   2.682   1.926
 3267SOL    HW210701   4.906   2.744   1.871
 3268SOL     OW10702   1.944   4.486   6.870
 3268SOL    HW110703   1.862   4.428   6.868
 3268SOL    HW210704   1.918   4.581   6.854
 3269SOL     OW10705   4.421   3.748   0.992
 3269SOL    HW110706   4.418   3.792   1.081
 3269SOL    HW210707   4.516   3.726   0.970
 3270SOL     OW10708   0.370   5.256   4.012
 3270SOL    HW110709   0.457   5.293   4.044
 3270SOL    HW210710   0.358   5.164   4.049
 3271SOL     OW10711   4.859   0.699   1.941
 3271SOL    HW110712   4.908   0.627   1.989
 3271SOL    HW210713   4.888   0.788   1.976
 3272SOL     OW10714   4.960   6.999   0.109
 3272SOL    HW110715   4.962   6.925   0.042
 3272SOL    HW210716   4.930   6.963   0.198
 3273SOL     OW10717   1.181   1.110   3.138
 3273SOL    HW110718   1.139   1.020   3.128
 3273SOL    HW210719   1.132   1.176   3.082
 3274SOL     OW10720   2.871   1.835   6.906
 3274SOL    HW110721   2.810   1.821   6.828
 3274SOL    HW210722   2.958   1.788   6.889
 3275SOL     OW10723   4.185   0.827   0.283
 3275SOL    HW110724   4.108   0.763   0.283
 3275SOL    HW210725   4.172   0.895   0.355
 3276SOL     OW10726   2.283   6.118   0.091
 3276SOL    HW110727   2.241   6.110   0.182
 3276SOL    HW210728   2.223   6.076   0.023
 3277SOL     OW10729   0.223   5.624   5.936
 3277SOL    HW110730   0.170   5.646   6.018
 3277SOL    HW210731   0.263   5.533   5.946
 3278SOL     OW10732   1.172   1.028   0.740
 3278SOL    HW110733   1.214   1.106   0.786
 3278SOL    HW210734   1.076   1.021   0.767
 3279SOL     OW10735   2.249   5.856   1.415
 3279SOL    HW110736   2.304   5.916   1.357
 3279SOL    HW210737   2.153   5.866   1.392
 3280SOL     OW10738   2.974   6.152   4.268
 3280SOL    HW110739   2.926   6.110   4.191
 3280SOL    HW210740   2.911   6.209   4.320
 3281SOL     OW10741   2.890   6.259   0.514
 3281SOL    HW110742   2.840   6.188   0.565
 3281SOL    HW210743   2.824   6.321   0.472
 3282SOL     OW10744   2.276   6.019   2.707
 3282SOL    HW110745   2.178   6.023   2.725
 3282SOL    HW210746   2.302   6.093   2.645
 3283SOL     OW10747   2.130   0.227   4.173
 3283SOL    HW110748   2.203   0.179   4.124
 3283SOL    HW210749   2.141   0.212   4.272
 3284SOL     OW10750   1.098   5.179   5.940
 3284SOL    HW110751   1.047   5.160   5.856
 3284SOL    HW210752   1.133   5.272   5.937
 3285SOL     OW10753   0.298   2.690   4.887
 3285SOL    HW110754   0.271   2.604   4.844
 3285SOL    HW210755   0.266   2.691   4.982
 3286SOL     OW10756   4.405   4.895   6.058
 3286SOL    HW110757   4.403   4.846   5.971
 3286SOL    HW210758   4.500   4.907   6.087
 3287SOL     OW10759   0.761   3.865   1.659
 3287SOL    HW110760   0.740   3.812   1.576
 3287SOL    HW210761   0.686   3.857   1.724
 3288SOL     OW10762   1.073   6.276   6.057
 3288SOL    HW110763   1.063   6.373   6.031
 3288SOL    HW210764   1.080   6.269   6.156
 3289SOL     OW10765   1.487   5.518   4.215
 3289SOL    HW110766   1.433   5.465   4.280
 3289SOL    HW210767   1.580   5.483   4.212
 3290SOL     OW10768   0.235   4.519   3.503
 3290SOL    HW110769   0.144   4.483   3.527
 3290SOL    HW210770   0.245   4.611   3.541
 3291SOL     OW10771   1.588   0.593   1.685
 3291SOL    HW110772   1.671   0.538   1.676
 3291SOL    HW210773   1.585   0.662   1.613
 3292SOL     OW10774   0.073   5.350   4.917
 3292SOL    HW110775   0.113   5.420   4.976
 3292SOL    HW210776   0.117   5.353   4.827
 3293SOL     OW10777   5.738   0.731   2.566
 3293SOL    HW110778   5.831   0.740   2.530
 3293SOL    HW210779   5.708   0.636   2.558
 3294SOL     OW10780   0.817   6.342   0.635
 3294SOL    HW110781   0.750   6.415   0.623
 3294SOL    HW210782   0.899   6.378   0.680
 3295SOL     OW10783   1.661   2.199   6.547
 3295SOL    HW110784   1.703   2.287   6.527
 3295SOL    HW210785   1.604   2.170   6.470
 3296SOL     OW10786   0.991   6.794   2.025
 3296SOL    HW110787   1.014   6.759   1.934
 3296SOL    HW210788   0.928   6.871   2.016
 3297SOL     OW10789   2.830   1.504   6.236
 3297SOL    HW110790   2.825   1.516   6.335
 3297SOL    HW210791   2.788   1.418   6.210
 3298SOL     OW10792   6.581   4.224   2.719
 3298SOL    HW110793   6.663   4.270   2.754
 3298SOL    HW210794   6.534   4.176   2.793
 3299SOL     OW10795   0.664   1.026   4.941
 3299SOL    HW110796   0.611   1.108   4.921
 3299SOL    HW210797   0.759   1.052   4.959
 3300SOL     OW10798   0.171   6.903   4.889
 3300SOL    HW110799   0.072   6.910   4.880
 3300SOL    HW210800   0.208   6.846   4.816
 3301SOL     OW10801   0.001   3.841   2.590
 3301SOL    HW110802   7.004   3.768   2.523
 3301SOL    HW210803   6.956   3.832   2.665
 3302SOL     OW10804   1.184   5.754   5.304
 3302SOL    HW110805   1.117   5.799   5.363
 3302SOL    HW210806   1.255   5.713   5.360
 3303SOL     OW10807   2.981   3.382   3.558
 3303SOL    HW110808   3.060   3.323   3.577
 3303SOL    HW210809   2.941   3.413   3.644
 3304SOL     OW10810   1.636   1.147   3.041
 3304SOL    HW110811   1.653   1.101   2.954
 3304SOL    HW210812   1.631   1.079   3.114
 3305SOL     OW10813   0.302   2.408   0.493
 3305SOL    HW110814   0.400   2.395   0.481
 3305SOL    HW210815   0.283   2.502   0.520
 3306SOL     OW10816   1.235   3.502   2.182
 3306SOL    HW110817   1.329   3.533   2.194
 3306SOL    HW210818   1.175   3.553   2.244
 3307SOL     OW10819   0.515   0.082   0.442
 3307SOL    HW110820   0.501   0.174   0.407
 3307SOL    HW210821   0.462   0.017   0.388
 3308SOL     OW10822   5.443   6.350   0.771
 3308SOL    HW110823   5.408   6.296   0.848
 3308SOL    HW210824   5.537   6.379   0.790
 3309SOL     OW10825   1.353   5.618   2.252
 3309SOL    HW110826   1.316   5.546   2.194
 3309SOL    HW210827   1.307   5.616   2.340
 3310SOL     OW10828   1.476   6.741   1.599
 3310SOL    HW110829   1.433   6.807   1.661
 3310SOL    HW210830   1.559   6.704   1.642
 3311SOL     OW10831   4.030   6.052   1.043
 3311SOL    HW110832   3.947   6.108   1.041
 3311SOL    HW210833   4.073   6.052   0.953
 3312SOL     OW10834   2.246   3.011   0.143
 3312SOL    HW110835   2.176   3.078   0.168
 3312SOL    HW210836   2.307   3.051   0.075
 3313SOL     OW10837   6.323   6.083   5.026
 3313SOL    HW110838   6.297   6.005   5.083
 3313SOL    HW210839   6.320   6.167   5.080
 3314SOL     OW10840   0.808   4.170   6.662
 3314SOL    HW110841   0.716   4.200   6.635
 3314SOL    HW210842   0.857   4.139   6.581
 3315SOL     OW10843   6.269   3.633   3.413
 3315SOL    HW110844   6.243   3.721   3.453
 3315SOL    HW210845   6.219   3.618   3.328
 3316SOL     OW10846   3.975   1.589   0.373
 3316SOL    HW110847   3.979   1.497   0.413
 3316SOL    HW210848   4.061   1.608   0.325
 3317SOL     OW10849   4.030   2.907   1.643
 3317SOL    HW110850   4.120   2.877   1.676
 3317SOL    HW210851   4.025   2.895   1.544
 3318SOL     OW10852   2.758   5.292   5.320
 3318SOL    HW110853   2.703   5.295   5.237
 3318SOL    HW210854   2.745   5.203   5.365
 3319SOL     OW10855   6.840   6.518   6.617
 3319SOL    HW110856   6.754   6.469   6.627
 3319SOL    HW210857   6.891   6.514   6.702
 3320SOL     OW10858   0.435   0.311   0.279
 3320SOL    HW110859   0.364   0.255   0.237
 3320SOL    HW210860   0.394   0.388   0.327
 3321SOL     OW10861   4.035   3.256   4.136
 3321SOL    HW110862   4.071   3.302   4.055
 3321SOL    HW210863   4.092   3.277   4.215
 3322SOL     OW10864   4.173   2.180   2.045
 3322SOL    HW110865   4.094   2.120   2.033
 3322SOL    HW210866   4.199   2.221   1.958
 3323SOL     OW10867   2.560   4.374   0.162
 3323SOL    HW110868   2.553   4.426   0.077
 3323SOL    HW210869   2.560   4.276   0.141
 3324SOL     OW10870   6.017   3.300   1.771
 3324SOL    HW110871   5.976   3.353   1.844
 3324SOL    HW210872   5.971   3.322   1.684
 3325SOL     OW10873   1.098   4.317   6.236
 3325SOL    HW110874   1.095   4.359   6.146
 3325SOL    HW210875   1.140   4.226   6.230
 3326SOL     OW10876   6.012   1.109   1.607
 3326SOL    HW110877   6.057   1.158   1.682
 3326SOL    HW210878   6.080   1.058   1.555
 3327SOL     OW10879   4.075   5.652   1.599
 3327SOL    HW110880   4.147   5.653   1.668
 3327SOL    HW210881   4.067   5.743   1.558
 3328SOL     OW10882   6.327   0.050   4.158
 3328SOL    HW110883   6.341   7.001   4.229
 3328SOL    HW210884   6.352   0.140   4.194
 3329SOL     OW10885   4.868   0.993   6.335
 3329SOL    HW110886   4.939   0.993   6.265
 3329SOL    HW210887   4.910   1.003   6.425
 3330SOL     OW10888   6.770   6.342   3.217
 3330SOL    HW110889   6.816   6.394   3.288
 3330SOL    HW210890   6.824   6.261   3.193
 3331SOL     OW10891   1.716   3.821   2.943
 3331SOL    HW110892   1.723   3.816   3.043
 3331SOL    HW210893   1.678   3.735   2.909
 3332SOL     OW10894   3.422   5.484   0.174
 3332SOL    HW110895   3.499   5.433   0.135
 3332SOL    HW210896   3.340   5.467   0.120
 3333SOL     OW10897   2.106   3.333   1.521
 3333SOL    HW110898   2.104   3.354   1.619
 3333SOL    HW210899   2.119   3.235   1.508
 3334SOL     OW10900   1.446   2.577   1.896
 3334SOL    HW110901   1.401   2.605   1.812
 3334SOL    HW210902   1.540   2.549   1.876
 3335SOL     OW10903   3.411   4.188   5.107
 3335SOL    HW110904   3.365   4.221   5.190
 3335SOL    HW210905   3.348   4.130   5.055
 3336SOL     OW10906   4.343   6.054   5.224
 3336SOL    HW110907   4.302   5.964   5.240
 3336SOL    HW210908   4.285   6.105   5.160
 3337SOL     OW10909   3.785   2.978   3.324
 3337SOL    HW110910   3.767   2.984   3.226
 3337SOL    HW210911   3.844   2.899   3.342
 3338SOL     OW10912   3.031   2.957   1.499
 3338SOL    HW110913   3.099   2.905   1.549
 3338SOL    HW210914   2.943   2.910   1.504
 3339SOL     OW10915   1.173   0.007   6.826
 3339SOL    HW110916   1.166   0.088   6.768
 3339SOL    HW210917   1.269   7.001   6.835
 3340SOL     OW10918   3.737   1.421   5.795
 3340SOL    HW110919   3.682   1.483   5.851
 3340SOL    HW210920   3.772   1.470   5.715
 3341SOL     OW10921   1.078   4.342   1.477
 3341SOL    HW110922   1.086   4.370   1.381
 3341SOL    HW210923   1.109   4.247   1.486
 3342SOL     OW10924   6.384   0.633   2.710
 3342SOL    HW110925   6.472   0.595   2.682
 3342SOL    HW210926   6.311   0.573   2.680
 3343SOL     OW10927   3.682   5.640   0.449
 3343SOL    HW110928   3.725   5.558   0.484
 3343SOL    HW210929   3.749   5.715   0.447
 3344SOL     OW10930   1.047   3.615   1.934
 3344SOL    HW110931   0.985   3.563   1.993
 3344SOL    HW210932   1.106   3.553   1.884
 3345SOL     OW10933   5.812   5.235   1.396
 3345SOL    HW110934   5.810   5.335   1.402
 3345SOL    HW210935   5.793   5.196   1.487
 3346SOL     OW10936   1.168   0.774   0.058
 3346SOL    HW110937   1.195   0.864   0.092
 3346SOL    HW210938   1.242   0.709   0.073
 3347SOL     OW10939   0.766   3.801   5.773
 3347SOL    HW110940   0.687   3.848   5.811
 3347SOL    HW210941   0.736   3.736   5.702
 3348SOL     OW10942   3.748   4.305   6.185
 3348SOL    HW110943   3.660   4.324   6.143
 3348SOL    HW210944   3.746   4.216   6.230
 3349SOL     OW10945   1.904   5.124   2.532
 3349SOL    HW110946   2.002   5.105   2.535
 3349SOL    HW210947   1.889   5.219   2.504
 3350SOL     OW10948   1.987   4.878   5.013
 3350SOL    HW110949   2.067   4.917   5.057
 3350SOL    HW210950   1.995   4.778   5.011
 3351SOL     OW10951   5.673   0.868   2.006
 3351SOL    HW110952   5.626   0.955   2.016
 3351SOL    HW210953   5.685   0.825   2.096
 3352SOL     OW10954   5.456   1.407   6.974
 3352SOL    HW110955   5.388   1.456   0.009
 3352SOL    HW210956   5.415   1.379   6.887
 3353SOL     OW10957   4.012   1.014   6.796
 3353SOL    HW110958   3.974   0.922   6.809
 3353SOL    HW210959   3.946   1.082   6.827
 3354SOL     OW10960   2.088   3.302   0.786
 3354SOL    HW110961   2.078   3.254   0.873
 3354SOL    HW210962   2.184   3.325   0.771
 3355SOL     OW10963   1.092   0.532   4.544
 3355SOL    HW110964   1.142   0.618   4.531
 3355SOL    HW210965   1.014   0.547   4.604
 3356SOL     OW10966   2.258   0.897   6.483
 3356SOL    HW110967   2.172   0.846   6.484
 3356SOL    HW210968   2.328   0.845   6.532
 3357SOL     OW10969   3.088   3.096   2.893
 3357SOL    HW110970   2.991   3.117   2.878
 3357SOL    HW210971   3.144   3.156   2.837
 3358SOL     OW10972   0.506   1.742   1.454
 3358SOL    HW110973   0.549   1.677   1.391
 3358SOL    HW210974   0.482   1.696   1.539
 3359SOL     OW10975   0.937   6.773   4.593
 3359SOL    HW110976   1.008   6.835   4.560
 3359SOL    HW210977   0.930   6.694   4.533
 3360SOL     OW10978   2.305   5.265   4.453
 3360SOL    HW110979   2.268   5.201   4.386
 3360SOL    HW210980   2.270   5.243   4.544
 3361SOL     OW10981   6.998   6.612   4.726
 3361SOL    HW110982   6.935   6.634   4.652
 3361SOL    HW210983   6.946   6.589   4.809
 3362SOL     OW10984   3.807   0.593   4.096
 3362SOL    HW110985   3.811   0.496   4.073
 3362SOL    HW210986   3.853   0.609   4.183
 3363SOL     OW10987   5.028   4.031   6.999
 3363SOL    HW110988   5.121   4.068   6.996
 3363SOL    HW210989   4.969   4.093   0.029
 3364SOL     OW10990   1.295   3.401   1.928
 3364SOL    HW110991   1.273   3.427   2.022
 3364SOL    HW210992   1.282   3.303   1.916
 3365SOL     OW10993   1.037   2.838   3.285
 3365SOL    HW110994   1.056   2.935   3.273
 3365SOL    HW210995   1.019   2.819   3.381
 3366SOL     OW10996   6.705   2.881   4.351
 3366SOL    HW110997   6.619   2.831   4.364
 3366SOL    HW210998   6.694   2.975   4.384
 3367SOL     OW10999   3.676   2.883   3.726
 3367SOL    HW111000   3.696   2.785   3.732
 3367SOL    HW211001   3.578   2.896   3.707
 3368SOL     OW11002   2.460   1.016   3.444
 3368SOL    HW111003   2.560   1.018   3.453
 3368SOL    HW211004   2.435   0.985   3.352
 3369SOL     OW11005   4.839   2.923   1.173
 3369SOL    HW111006   4.895   2.842   1.190
 3369SOL    HW211007   4.892   3.005   1.195
 3370SOL     OW11008   1.081   6.254   2.966
 3370SOL    HW111009   1.088   6.174   3.026
 3370SOL    HW211010   1.122   6.233   2.877
 3371SOL     OW11011   2.081   2.574   1.213
 3371SOL    HW111012   2.167   2.625   1.207
 3371SOL    HW211013   2.027   2.589   1.131
 3372SOL     OW11014   5.932   2.999   3.848
 3372SOL    HW111015   5.967   2.948   3.927
 3372SOL    HW211016   5.852   3.052   3.877
 3373SOL     OW11017   6.990   4.040   0.988
 3373SOL    HW111018   6.900   4.033   1.029
 3373SOL    HW211019   6.995   4.124   0.933
 3374SOL     OW11020   0.672   6.121   4.225
 3374SOL    HW111021   0.678   6.180   4.145
 3374SOL    HW211022   0.577   6.113   4.255
 3375SOL     OW11023   0.349   6.205   6.165
 3375SOL    HW111024   0.328   6.247   6.076
 3375SOL    HW211025   0.375   6.276   6.230
 3376SOL     OW11026   3.084   3.010   5.077
 3376SOL    HW111027   3.039   3.036   4.991
 3376SOL    HW211028   3.183   3.018   5.067
 3377SOL     OW11029   6.788   5.340   4.400
 3377SOL    HW111030   6.782   5.436   4.371
 3377SOL    HW211031   6.715   5.320   4.466
 3378SOL     OW11032   1.152   5.851   0.755
 3378SOL    HW111033   1.183   5.942   0.727
 3378SOL    HW211034   1.214   5.782   0.718
 3379SOL     OW11035   5.806   4.008   4.126
 3379SOL    HW111036   5.889   4.035   4.175
 3379SOL    HW211037   5.726   4.025   4.184
 3380SOL     OW11038   2.442   5.225   1.106
 3380SOL    HW111039   2.365   5.171   1.139
 3380SOL    HW211040   2.502   5.167   1.050
 3381SOL     OW11041   2.900   3.534   6.528
 3381SOL    HW111042   2.934   3.448   6.490
 3381SOL    HW211043   2.903   3.605   6.458
 3382SOL     OW11044   6.907   4.074   6.645
 3382SOL    HW111045   6.821   4.078   6.595
 3382SOL    HW211046   6.911   3.990   6.700
 3383SOL     OW11047   3.680   5.607   0.927
 3383SOL    HW111048   3.720   5.687   0.972
 3383SOL    HW211049   3.748   5.535   0.920
 3384SOL     OW11050   2.630   2.951   6.424
 3384SOL    HW111051   2.629   2.899   6.339
 3384SOL    HW211052   2.537   2.984   6.444
 3385SOL     OW11053   6.349   2.177   4.142
 3385SOL    HW111054   6.338   2.092   4.090
 3385SOL    HW211055   6.304   2.167   4.231
 3386SOL     OW11056   0.676   5.793   4.464
 3386SOL    HW111057   0.766   5.750   4.473
 3386SOL    HW211058   0.651   5.797   4.368
 3387SOL     OW11059   6.166   0.995   2.773
 3387SOL    HW111060   6.262   0.983   2.749
 3387SOL    HW211061   6.120   0.906   2.774
 3388SOL     OW11062   6.753   3.480   0.607
 3388SOL    HW111063   6.816   3.558   0.597
 3388SOL    HW211064   6.688   3.499   0.680
 3389SOL     OW11065   6.245   5.439   6.524
 3389SOL    HW111066   6.168   5.402   6.576
 3389SOL    HW211067   6.306   5.364   6.498
 3390SOL     OW11068   3.247   5.249   0.340
 3390SOL    HW111069   3.323   5.209   0.289
 3390SOL    HW211070   3.282   5.314   0.408
 3391SOL     OW11071   5.158   3.793   4.947
 3391SOL    HW111072   5.103   3.782   4.864
 3391SOL    HW211073   5.137   3.881   4.988
 3392SOL     OW11074   5.047   6.332   6.048
 3392SOL    HW111075   5.114   6.328   6.123
 3392SOL    HW211076   5.050   6.247   5.997
 3393SOL     OW11077   3.671   6.558   0.228
 3393SOL    HW111078   3.757   6.530   0.186
 3393SOL    HW211079   3.646   6.493   0.300
 3394SOL     OW11080   3.201   5.088   1.057
 3394SOL    HW111081   3.209   5.070   1.155
 3394SOL    HW211082   3.280   5.141   1.026
 3395SOL     OW11083   2.232   6.688   2.945
 3395SOL    HW111084   2.208   6.783   2.967
 3395SOL    HW211085   2.331   6.677   2.953
 3396SOL     OW11086   4.882   0.386   4.304
 3396SOL    HW111087   4.889   0.485   4.313
 3396SOL    HW211088   4.915   0.358   4.214
 3397SOL     OW11089   2.506   6.400   0.687
 3397SOL    HW111090   2.573   6.387   0.760
 3397SOL    HW211091   2.546   6.458   0.615
 3398SOL     OW11092   6.140   1.375   6.320
 3398SOL    HW111093   6.185   1.445   6.376
 3398SOL    HW211094   6.111   1.415   6.233
 3399SOL     OW11095   6.878   6.202   2.163
 3399SOL    HW111096   6.920   6.250   2.240
 3399SOL    HW211097   6.899   6.104   2.169
 3400SOL     OW11098   3.752   2.734   5.256
 3400SOL    HW111099   3.844   2.769   5.273
 3400SOL    HW211100   3.690   2.811   5.239
 3401SOL     OW11101   6.907   3.337   4.256
 3401SOL    HW111102   6.889   3.239   4.243
 3401SOL    HW211103   6.965   3.370   4.182
 3402SOL     OW11104   5.681   3.414   0.319
 3402SOL    HW111105   5.773   3.380   0.298
 3402SOL    HW211106   5.621   3.337   0.340
 3403SOL     OW11107   5.613   6.445   5.742
 3403SOL    HW111108   5.673   6.452   5.822
 3403SOL    HW211109   5.538   6.511   5.751
 3404SOL     OW11110   4.957   5.059   3.154
 3404SOL    HW111111   4.944   5.125   3.080
 3404SOL    HW211112   5.053   5.059   3.182
 3405SOL     OW11113   4.156   6.034   0.314
 3405SOL    HW111114   4.227   5.995   0.255
 3405SOL    HW211115   4.198   6.065   0.399
 3406SOL     OW11116   3.779   5.078   1.069
 3406SOL    HW111117   3.776   5.057   0.972
 3406SOL    HW211118   3.873   5.072   1.102
 3407SOL     OW11119   1.005   2.939   0.218
 3407SOL    HW111120   1.096   2.956   0.255
 3407SOL    HW211121   0.941   3.007   0.254
 3408SOL     OW11122   4.281   6.710   4.430
 3408SOL    HW111123   4.306   6.679   4.338
 3408SOL    HW211124   4.365   6.733   4.481
 3409SOL     OW11125   3.771   1.777   0.367
 3409SOL    HW111126   3.848   1.715   0.381
 3409SOL    HW211127   3.685   1.726   0.380
 3410SOL     OW11128   6.437   0.776   3.025
 3410SOL    HW111129   6.531   0.809   3.031
 3410SOL    HW211130   6.418   0.744   2.932
 3411SOL     OW11131   6.035   2.963   5.992
 3411SOL    HW111132   6.026   3.051   5.946
 3411SOL    HW211133   6.026   2.889   5.926
 3412SOL     OW11134   5.645   2.839   3.653
 3412SOL    HW111135   5.600   2.919   3.694
 3412SOL    HW211136   5.742   2.840   3.677
 3413SOL     OW11137   6.784   2.373   0.949
 3413SOL    HW111138   6.874   2.331   0.955
 3413SOL    HW211139   6.758   2.408   1.040
 3414SOL     OW11140   3.573   3.097   1.955
 3414SOL    HW111141   3.501   3.165   1.970
 3414SOL    HW211142   3.661   3.144   1.944
 3415SOL     OW11143   2.245   1.421   6.385
 3415SOL    HW111144   2.220   1.517   6.372
 3415SOL    HW211145   2.184   1.363   6.331
 3416SOL     OW11146   6.218   6.855   6.242
 3416SOL    HW111147   6.299   6.825   6.293
 3416SOL    HW211148   6.153   6.779   6.236
 3417SOL     OW11149   5.851   0.498   2.351
 3417SOL    HW111150   5.871   0.417   2.405
 3417SOL    HW211151   5.936   0.533   2.311
 3418SOL     OW11152   4.383   5.886   0.722
 3418SOL    HW111153   4.385   5.933   0.810
 3418SOL    HW211154   4.474   5.849   0.703
 3419SOL     OW11155   2.821   4.803   5.259
 3419SOL    HW111156   2.785   4.864   5.189
 3419SOL    HW211157   2.853   4.719   5.217
 3420SOL     OW11158   4.349   0.991   2.248
 3420SOL    HW111159   4.281   0.924   2.218
 3420SOL    HW211160   4.441   0.958   2.225
 3421SOL     OW11161   0.213   1.639   5.114
 3421SOL    HW111162   0.311   1.659   5.116
 3421SOL    HW211163   0.190   1.592   5.029
 3422SOL     OW11164   3.367   5.818   1.772
 3422SOL    HW111165   3.466   5.834   1.772
 3422SOL    HW211166   3.323   5.885   1.712
 3423SOL     OW11167   2.764   4.249   5.741
 3423SOL    HW111168   2.728   4.323   5.797
 3423SOL    HW211169   2.746   4.268   5.644
 3424SOL     OW11170   5.404   1.168   2.281
 3424SOL    HW111171   5.419   1.169   2.182
 3424SOL    HW211172   5.469   1.105   2.323
 3425SOL     OW11173   6.513   2.755   6.324
 3425SOL    HW111174   6.595   2.800   6.288
 3425SOL    HW211175   6.446   2.746   6.250
 3426SOL     OW11176   6.529   5.166   0.215
 3426SOL    HW111177   6.585   5.177   0.133
 3426SOL    HW211178   6.512   5.069   0.230
 3427SOL     OW11179   1.777   1.576   6.472
 3427SOL    HW111180   1.819   1.557   6.561
 3427SOL    HW211181   1.849   1.601   6.407
 3428SOL     OW11182   5.221   0.336   4.569
 3428SOL    HW111183   5.178   0.254   4.609
 3428SOL    HW211184   5.268   0.311   4.485
 3429SOL     OW11185   4.156   6.783   0.672
 3429SOL    HW111186   4.115   6.739   0.752
 3429SOL    HW211187   4.112   6.871   0.656
 3430SOL     OW11188   2.719   4.084   6.320
 3430SOL    HW111189   2.661   4.022   6.372
 3430SOL    HW211190   2.801   4.105   6.373
 3431SOL     OW11191   0.610   4.594   2.954
 3431SOL    HW111192   0.690   4.545   2.918
 3431SOL    HW211193   0.540   4.601   2.882
 3432SOL     OW11194   0.534   4.970   0.226
 3432SOL    HW111195   0.529   4.929   0.135
 3432SOL    HW211196   0.552   5.068   0.218
 3433SOL     OW11197   0.988   0.928   0.356
 3433SOL    HW111198   1.020   0.919   0.261
 3433SOL    HW211199   1.054   0.885   0.418
 3434SOL     OW11200   3.780   2.456   1.681
 3434SOL    HW111201   3.829   2.541   1.699
 3434SOL    HW211202   3.744   2.420   1.768
 3435SOL     OW11203   1.903   2.346   1.290
 3435SOL    HW111204   1.979   2.393   1.246
 3435SOL    HW211205   1.863   2.279   1.227
 3436SOL     OW11206   4.090   6.543   6.029
 3436SOL    HW111207   4.048   6.555   6.119
 3436SOL    HW211208   4.130   6.451   6.024
 3437SOL     OW11209   1.392   6.614   0.436
 3437SOL    HW111210   1.412   6.663   0.352
 3437SOL    HW211211   1.416   6.672   0.515
 3438SOL     OW11212   2.514   4.186   0.828
 3438SOL    HW111213   2.527   4.151   0.735
 3438SOL    HW211214   2.417   4.207   0.843
 3439SOL     OW11215   3.376   5.769   0.033
 3439SOL    HW111216   3.411   5.705   0.101
 3439SOL    HW211217   3.452   5.815   7.008
 3440SOL     OW11218   3.774   3.924   5.605
 3440SOL    HW111219   3.805   4.015   5.632
 3440SOL    HW211220   3.749   3.872   5.686
 3441SOL     OW11221   6.979   4.877   4.543
 3441SOL    HW111222   7.010   4.902   4.451
 3441SOL    HW211223   0.029   4.822   4.588
 3442SOL     OW11224   1.007   2.536   0.726
 3442SOL    HW111225   0.950   2.612   0.694
 3442SOL    HW211226   1.101   2.550   0.695
 3443SOL     OW11227   0.676   6.253   2.493
 3443SOL    HW111228   0.625   6.339   2.484
 3443SOL    HW211229   0.632   6.183   2.437
 3444SOL     OW11230   0.305   3.971   6.035
 3444SOL    HW111231   0.214   3.934   6.052
 3444SOL    HW211232   0.306   4.023   5.950
 3445SOL     OW11233   6.313   4.761   4.748
 3445SOL    HW111234   6.324   4.830   4.677
 3445SOL    HW211235   6.225   4.714   4.737
 3446SOL     OW11236   4.544   1.596   0.596
 3446SOL    HW111237   4.632   1.567   0.633
 3446SOL    HW211238   4.520   1.686   0.635
 3447SOL     OW11239   4.579   1.782   5.953
 3447SOL    HW111240   4.610   1.688   5.965
 3447SOL    HW211241   4.610   1.817   5.864
 3448SOL     OW11242   0.809   5.068   5.578
 3448SOL    HW111243   0.877   5.140   5.585
 3448SOL    HW211244   0.749   5.070   5.658
 3449SOL     OW11245   0.887   3.674   5.363
 3449SOL    HW111246   0.976   3.693   5.406
 3449SOL    HW211247   0.816   3.674   5.433
 3450SOL     OW11248   2.668   6.854   2.390
 3450SOL    HW111249   2.578   6.817   2.410
 3450SOL    HW211250   2.724   6.785   2.344
 3451SOL     OW11251   1.968   2.235   0.831
 3451SOL    HW111252   1.896   2.192   0.777
 3451SOL    HW211253   1.972   2.333   0.812
 3452SOL     OW11254   4.324   1.684   5.999
 3452SOL    HW111255   4.289   1.774   5.974
 3452SOL    HW211256   4.421   1.678   5.978
 3453SOL     OW11257   4.635   6.340   6.100
 3453SOL    HW111258   4.701   6.390   6.157
 3453SOL    HW211259   4.592   6.268   6.154
 3454SOL     OW11260   1.018   3.341   2.464
 3454SOL    HW111261   1.028   3.435   2.498
 3454SOL    HW211262   0.931   3.303   2.495
 3455SOL     OW11263   0.955   4.138   6.413
 3455SOL    HW111264   0.931   4.041   6.414
 3455SOL    HW211265   1.052   4.148   6.388
 3456SOL     OW11266   4.200   5.563   3.238
 3456SOL    HW111267   4.128   5.632   3.233
 3456SOL    HW211268   4.222   5.531   3.146
 3457SOL     OW11269   4.313   4.611   0.414
 3457SOL    HW111270   4.273   4.565   0.493
 3457SOL    HW211271   4.303   4.554   0.333
 3458SOL     OW11272   4.710   1.658   1.509
 3458SOL    HW111273   4.698   1.639   1.606
 3458SOL    HW211274   4.758   1.745   1.498
 3459SOL     OW11275   6.080   6.337   2.121
 3459SOL    HW111276   6.155   6.383   2.169
 3459SOL    HW211277   6.065   6.381   2.033
 3460SOL     OW11278   3.732   2.000   5.336
 3460SOL    HW111279   3.712   2.040   5.247
 3460SOL    HW211280   3.800   1.928   5.326
 3461SOL     OW11281   4.714   4.887   3.909
 3461SOL    HW111282   4.799   4.932   3.936
 3461SOL    HW211283   4.648   4.893   3.985
 3462SOL     OW11284   0.979   4.971   6.354
 3462SOL    HW111285   1.001   4.875   6.373
 3462SOL    HW211286   0.903   4.975   6.288
 3463SOL     OW11287   5.742   3.663   0.201
 3463SOL    HW111288   5.662   3.721   0.188
 3463SOL    HW211289   5.715   3.575   0.239
 3464SOL     OW11290   0.243   4.348   3.890
 3464SOL    HW111291   0.298   4.406   3.950
 3464SOL    HW211292   0.294   4.265   3.868
 3465SOL     OW11293   0.430   2.998   2.539
 3465SOL    HW111294   0.492   3.037   2.607
 3465SOL    HW211295   0.481   2.936   2.479
 3466SOL     OW11296   6.459   3.446   3.449
 3466SOL    HW111297   6.377   3.501   3.437
 3466SOL    HW211298   6.456   3.399   3.537
 3467SOL     OW11299   1.782   2.569   6.011
 3467SOL    HW111300   1.783   2.666   5.987
 3467SOL    HW211301   1.874   2.531   6.003
 3468SOL     OW11302   4.898   6.008   1.998
 3468SOL    HW111303   4.814   6.014   2.053
 3468SOL    HW211304   4.876   5.976   1.906
 3469SOL     OW11305   5.504   4.258   0.327
 3469SOL    HW111306   5.604   4.253   0.336
 3469SOL    HW211307   5.480   4.287   0.234
 3470SOL     OW11308   6.279   4.854   1.448
 3470SOL    HW111309   6.332   4.935   1.423
 3470SOL    HW211310   6.202   4.843   1.385
 3471SOL     OW11311   4.479   6.779   4.571
 3471SOL    HW111312   4.474   6.766   4.670
 3471SOL    HW211313   4.513   6.872   4.551
 3472SOL     OW11314   4.140   1.226   5.101
 3472SOL    HW111315   4.130   1.211   5.002
 3472SOL    HW211316   4.126   1.140   5.149
 3473SOL     OW11317   4.537   0.101   3.975
 3473SOL    HW111318   4.576   0.182   4.017
 3473SOL    HW211319   4.595   0.022   3.994
 3474SOL     OW11320   4.541   4.304   0.288
 3474SOL    HW111321   4.514   4.249   0.209
 3474SOL    HW211322   4.466   4.306   0.354
 3475SOL     OW11323   1.661   5.193   5.171
 3475SOL    HW111324   1.706   5.240   5.095
 3475SOL    HW211325   1.693   5.098   5.175
 3476SOL     OW11326   4.350   2.047   4.260
 3476SOL    HW111327   4.305   1.984   4.323
 3476SOL    HW211328   4.332   2.141   4.289
 3477SOL     OW11329   4.431   5.391   1.853
 3477SOL    HW111330   4.519   5.405   1.899
 3477SOL    HW211331   4.426   5.451   1.773
 3478SOL     OW11332   4.044   4.026   0.559
 3478SOL    HW111333   3.999   3.972   0.489
 3478SOL    HW211334   4.136   4.050   0.529
 3479SOL     OW11335   1.546   0.194   0.654
 3479SOL    HW111336   1.581   0.287   0.649
 3479SOL    HW211337   1.528   0.170   0.749
 3480SOL     OW11338   1.326   6.859   3.960
 3480SOL    HW111339   1.402   6.820   4.012
 3480SOL    HW211340   1.239   6.826   3.999
 3481SOL     OW11341   1.929   6.081   6.908
 3481SOL    HW111342   1.962   6.025   6.833
 3481SOL    HW211343   1.882   6.162   6.872
 3482SOL     OW11344   0.348   2.362   1.810
 3482SOL    HW111345   0.365   2.409   1.723
 3482SOL    HW211346   0.267   2.305   1.802
 3483SOL     OW11347   3.354   1.446   0.509
 3483SOL    HW111348   3.350   1.351   0.540
 3483SOL    HW211349   3.320   1.506   0.581
 3484SOL     OW11350   3.731   4.097   3.603
 3484SOL    HW111351   3.737   4.185   3.650
 3484SOL    HW211352   3.677   4.034   3.659
 3485SOL     OW11353   6.164   1.639   5.124
 3485SOL    HW111354   6.240   1.575   5.113
 3485SOL    HW211355   6.077   1.588   5.123
 3486SOL     OW11356   5.532   0.819   3.353
 3486SOL    HW111357   5.502   0.871   3.273
 3486SOL    HW211358   5.631   0.827   3.363
 3487SOL     OW11359   0.620   0.233   0.727
 3487SOL    HW111360   0.564   0.160   0.765
 3487SOL    HW211361   0.563   0.293   0.671
 3488SOL     OW11362   6.056   4.124   4.231
 3488SOL    HW111363   6.125   4.052   4.232
 3488SOL    HW211364   6.093   4.206   4.189
 3489SOL     OW11365   2.521   5.164   6.925
 3489SOL    HW111366   2.619   5.143   6.921
 3489SOL    HW211367   2.506   5.256   6.888
 3490SOL     OW11368   4.591   3.501   0.665
 3490SOL    HW111369   4.623   3.470   0.755
 3490SOL    HW211370   4.573   3.600   0.669
 3491SOL     OW11371   6.195   3.010   5.337
 3491SOL    HW111372   6.196   3.089   5.398
 3491SOL    HW211373   6.159   2.930   5.386
 3492SOL     OW11374   6.157   4.878   6.856
 3492SOL    HW111375   6.173   4.819   6.776
 3492SOL    HW211376   6.245   4.905   6.896
 3493SOL     OW11377   6.907   4.883   1.797
 3493SOL    HW111378   6.870   4.976   1.800
 3493SOL    HW211379   7.003   4.886   1.770
 3494SOL     OW11380   3.014   6.219   1.340
 3494SOL    HW111381   2.994   6.176   1.428
 3494SOL    HW211382   3.111   6.211   1.319
 3495SOL     OW11383   5.546   4.248   6.699
 3495SOL    HW111384   5.565   4.300   6.782
 3495SOL    HW211385   5.526   4.153   6.723
 3496SOL     OW11386   0.743   4.909   0.610
 3496SOL    HW111387   0.703   4.855   0.537
 3496SOL    HW211388   0.840   4.928   0.590
 3497SOL     OW11389   4.840   0.177   4.771
 3497SOL    HW111390   4.916   0.183   4.836
 3497SOL    HW211391   4.876   0.170   4.678
 3498SOL     OW11392   0.802   1.658   0.580
 3498SOL    HW111393   0.797   1.559   0.566
 3498SOL    HW211394   0.830   1.677   0.674
 3499SOL     OW11395   0.391   4.126   4.437
 3499SOL    HW111396   0.387   4.026   4.425
 3499SOL    HW211397   0.349   4.170   4.358
 3500SOL     OW11398   5.573   3.114   0.941
 3500SOL    HW111399   5.577   3.212   0.919
 3500SOL    HW211400   5.486   3.077   0.908
 3501SOL     OW11401   0.736   4.991   3.114
 3501SOL    HW111402   0.706   4.990   3.209
 3501SOL    HW211403   0.656   4.995   3.054
 3502SOL     OW11404   0.546   5.198   1.801
 3502SOL    HW111405   0.578   5.290   1.823
 3502SOL    HW211406   0.453   5.202   1.766
 3503SOL     OW11407   3.383   6.718   3.274
 3503SOL    HW111408   3.320   6.760   3.339
 3503SOL    HW211409   3.447   6.659   3.323
 3504SOL     OW11410   1.935   2.990   2.714
 3504SOL    HW111411   1.882   2.980   2.629
 3504SOL    HW211412   1.903   2.923   2.781
 3505SOL     OW11413   4.902   6.919   5.135
 3505SOL    HW111414   4.855   7.006   5.155
 3505SOL    HW211415   4.999   6.928   5.156
 3506SOL     OW11416   6.281   4.916   2.291
 3506SOL    HW111417   6.233   4.981   2.348
 3506SOL    HW211418   6.230   4.830   2.288
 3507SOL     OW11419   6.894   0.276   5.873
 3507SOL    HW111420   6.952   0.212   5.823
 3507SOL    HW211421   6.890   0.249   5.969
 3508SOL     OW11422   6.300   4.338   0.211
 3508SOL    HW111423   6.364   4.384   0.273
 3508SOL    HW211424   6.347   4.317   0.125
 3509SOL     OW11425   5.644   0.148   6.472
 3509SOL    HW111426   5.546   0.145   6.493
 3509SOL    HW211427   5.691   0.203   6.540
 3510SOL     OW11428   1.489   1.847   2.113
 3510SOL    HW111429   1.499   1.747   2.118
 3510SOL    HW211430   1.420   1.869   2.044
 3511SOL     OW11431   0.791   0.749   4.428
 3511SOL    HW111432   0.801   0.759   4.329
 3511SOL    HW211433   0.694   0.754   4.452
 3512SOL     OW11434   3.633   3.127   1.105
 3512SOL    HW111435   3.571   3.202   1.129
 3512SOL    HW211436   3.592   3.040   1.132
 3513SOL     OW11437   5.592   4.261   1.117
 3513SOL    HW111438   5.647   4.268   1.034
 3513SOL    HW211439   5.498   4.288   1.098
 3514SOL     OW11440   2.388   6.500   1.868
 3514SOL    HW111441   2.374   6.463   1.777
 3514SOL    HW211442   2.479   6.473   1.901
 3515SOL     OW11443   4.023   6.464   3.104
 3515SOL    HW111444   4.080   6.395   3.060
 3515SOL    HW211445   3.973   6.423   3.180
 3516SOL     OW11446   1.944   1.017   0.337
 3516SOL    HW111447   1.999   1.086   0.385
 3516SOL    HW211448   1.995   0.931   0.333
 3517SOL     OW11449   0.973   0.357   6.707
 3517SOL    HW111450   1.001   0.374   6.801
 3517SOL    HW211451   0.883   0.314   6.705
 3518SOL     OW11452   4.206   3.589   6.210
 3518SOL    HW111453   4.142   3.624   6.141
 3518SOL    HW211454   4.288   3.554   6.164
 3519SOL     OW11455   3.313   6.626   0.129
 3519SOL    HW111456   3.350   6.695   0.192
 3519SOL    HW211457   3.320   6.536   0.171
 3520SOL     OW11458   3.643   5.060   1.564
 3520SOL    HW111459   3.565   5.110   1.526
 3520SOL    HW211460   3.662   4.979   1.508
 3521SOL     OW11461   6.590   2.437   6.157
 3521SOL    HW111462   6.604   2.447   6.256
 3521SOL    HW211463   6.515   2.496   6.128
 3522SOL     OW11464   2.892   0.573   0.824
 3522SOL    HW111465   2.794   0.571   0.801
 3522SOL    HW211466   2.903   0.601   0.919
 3523SOL     OW11467   2.657   4.479   5.294
 3523SOL    HW111468   2.684   4.389   5.330
 3523SOL    HW211469   2.735   4.520   5.246
 3524SOL     OW11470   2.415   0.772   2.760
 3524SOL    HW111471   2.360   0.846   2.721
 3524SOL    HW211472   2.359   0.718   2.823
 3525SOL     OW11473   1.232   3.199   2.860
 3525SOL    HW111474   1.269   3.218   2.769
 3525SOL    HW211475   1.143   3.154   2.851
 3526SOL     OW11476   3.569   6.576   3.412
 3526SOL    HW111477   3.553   6.477   3.411
 3526SOL    HW211478   3.588   6.606   3.506
 3527SOL     OW11479   5.261   3.533   6.793
 3527SOL    HW111480   5.346   3.567   6.834
 3527SOL    HW211481   5.253   3.435   6.811
 3528SOL     OW11482   1.835   6.621   4.732
 3528SOL    HW111483   1.763   6.614   4.801
 3528SOL    HW211484   1.922   6.592   4.772
 3529SOL     OW11485   3.873   5.835   0.149
 3529SOL    HW111486   3.886   5.919   0.201
 3529SOL    HW211487   3.789   5.789   0.178
 3530SOL     OW11488   2.014   6.520   2.960
 3530SOL    HW111489   1.968   6.517   2.872
 3530SOL    HW211490   2.109   6.547   2.947
 3531SOL     OW11491   5.055   4.523   6.863
 3531SOL    HW111492   4.963   4.539   6.899
 3531SOL    HW211493   5.087   4.433   6.892
 3532SOL     OW11494   2.101   6.606   0.966
 3532SOL    HW111495   2.086   6.522   0.913
 3532SOL    HW211496   2.198   6.629   0.966
 3533SOL     OW11497   1.467   0.627   3.476
 3533SOL    HW111498   1.565   0.642   3.459
 3533SOL    HW211499   1.431   0.702   3.531
 3534SOL     OW11500   5.412   0.460   5.304
 3534SOL    HW111501   5.448   0.456   5.397
 3534SOL    HW211502   5.377   0.371   5.277
 3535SOL     OW11503   4.979   6.584   0.229
 3535SOL    HW111504   4.916   6.645   0.277
 3535SOL    HW211505   5.070   6.625   0.227
 3536SOL     OW11506   0.783   3.253   2.578
 3536SOL    HW111507   0.702   3.272   2.523
 3536SOL    HW211508   0.779   3.159   2.613
 3537SOL     OW11509   3.371   5.017   1.286
 3537SOL    HW111510   3.294   4.954   1.296
 3537SOL    HW211511   3.373   5.080   1.364
 3538SOL     OW11512   3.925   0.718   3.711
 3538SOL    HW111513   3.919   0.803   3.658
 3538SOL    HW211514   3.970   0.736   3.799
 3539SOL     OW11515   4.798   5.443   5.714
 3539SOL    HW111516   4.735   5.365   5.717
 3539SOL    HW211517   4.876   5.420   5.656
 3540SOL     OW11518   3.848   4.533   6.322
 3540SOL    HW111519   3.809   4.455   6.274
 3540SOL    HW211520   3.855   4.611   6.260
 3541SOL     OW11521   1.469   2.632   2.203
 3541SOL    HW111522   1.398   2.701   2.212
 3541SOL    HW211523   1.455   2.580   2.118
 3542SOL     OW11524   6.011   1.404   0.006
 3542SOL    HW111525   6.028   1.502   0.008
 3542SOL    HW211526   5.914   1.386   7.009
 3543SOL     OW11527   0.549   2.676   3.747
 3543SOL    HW111528   0.627   2.696   3.689
 3543SOL    HW211529   0.567   2.709   3.840
 3544SOL     OW11530   2.911   4.322   0.223
 3544SOL    HW111531   2.879   4.398   0.280
 3544SOL    HW211532   2.949   4.358   0.138
 3545SOL     OW11533   3.860   6.536   0.545
 3545SOL    HW111534   3.779   6.518   0.602
 3545SOL    HW211535   3.863   6.633   0.522
 3546SOL     OW11536   6.782   4.818   1.139
 3546SOL    HW111537   6.706   4.883   1.130
 3546SOL    HW211538   6.835   4.838   1.221
 3547SOL     OW11539   1.057   4.179   4.999
 3547SOL    HW111540   1.026   4.132   4.916
 3547SOL    HW211541   1.149   4.215   4.985
 3548SOL     OW11542   6.182   0.042   6.053
 3548SOL    HW111543   6.270   0.090   6.053
 3548SOL    HW211544   6.182   6.993   6.125
 3549SOL     OW11545   2.404   6.389   6.611
 3549SOL    HW111546   2.373   6.415   6.520
 3549SOL    HW211547   2.480   6.324   6.603
 3550SOL     OW11548   5.608   1.717   5.702
 3550SOL    HW111549   5.642   1.809   5.681
 3550SOL    HW211550   5.685   1.654   5.710
 3551SOL     OW11551   5.832   1.917   4.959
 3551SOL    HW111552   5.752   1.911   5.019
 3551SOL    HW211553   5.913   1.941   5.013
 3552SOL     OW11554   6.821   0.082   3.054
 3552SOL    HW111555   6.880   0.011   3.092
 3552SOL    HW211556   6.742   0.095   3.114
 3553SOL     OW11557   6.030   5.821   6.479
 3553SOL    HW111558   6.016   5.897   6.543
 3553SOL    HW211559   6.022   5.856   6.386
 3554SOL     OW11560   4.560   4.427   6.664
 3554SOL    HW111561   4.645   4.473   6.639
 3554SOL    HW211562   4.549   4.344   6.610
 3555SOL     OW11563   2.911   1.595   5.601
 3555SOL    HW111564   2.997   1.630   5.564
 3555SOL    HW211565   2.897   1.633   5.692
 3556SOL     OW11566   5.830   1.243   0.532
 3556SOL    HW111567   5.861   1.149   0.517
 3556SOL    HW211568   5.874   1.304   0.466
 3557SOL     OW11569   5.308   6.348   2.084
 3557SOL    HW111570   5.311   6.406   2.165
 3557SOL    HW211571   5.214   6.316   2.069
 3558SOL     OW11572   3.492   5.800   2.459
 3558SOL    HW111573   3.563   5.733   2.478
 3558SOL    HW211574   3.421   5.757   2.403
 3559SOL     OW11575   3.851   6.614   6.492
 3559SOL    HW111576   3.818   6.529   6.452
 3559SOL    HW211577   3.780   6.654   6.550
 3560SOL     OW11578   2.325   5.552   4.628
 3560SOL    HW111579   2.306   5.478   4.563
 3560SOL    HW211580   2.264   5.629   4.609
 3561SOL     OW11581   4.649   3.240   5.321
 3561SOL    HW111582   4.624   3.336   5.332
 3561SOL    HW211583   4.578   3.183   5.363
 3562SOL     OW11584   2.769   1.216   0.480
 3562SOL    HW111585   2.815   1.128   0.485
 3562SOL    HW211586   2.723   1.224   0.391
 3563SOL     OW11587   0.293   2.107   6.643
 3563SOL    HW111588   0.357   2.176   6.610
 3563SOL    HW211589   0.310   2.089   6.740
 3564SOL     OW11590   6.281   3.682   2.831
 3564SOL    HW111591   6.258   3.775   2.860
 3564SOL    HW211592   6.380   3.668   2.838
 3565SOL     OW11593   4.972   6.485   5.723
 3565SOL    HW111594   4.920   6.459   5.804
 3565SOL    HW211595   4.914   6.537   5.660
 3566SOL     OW11596   1.582   0.900   5.579
 3566SOL    HW111597   1.579   0.812   5.532
 3566SOL    HW211598   1.489   0.931   5.598
 3567SOL     OW11599   6.790   4.001   6.971
 3567SOL    HW111600   6.874   3.970   6.928
 3567SOL    HW211601   6.745   4.069   6.913
 3568SOL     OW11602   4.304   3.409   5.733
 3568SOL    HW111603   4.378   3.373   5.790
 3568SOL    HW211604   4.218   3.365   5.757
 3569SOL     OW11605   1.704   0.465   3.280
 3569SOL    HW111606   1.640   0.415   3.222
 3569SOL    HW211607   1.756   0.400   3.336
 3570SOL     OW11608   5.986   1.469   4.400
 3570SOL    HW111609   5.977   1.559   4.444
 3570SOL    HW211610   5.978   1.480   4.301
 3571SOL     OW11611   6.538   5.188   4.392
 3571SOL    HW111612   6.514   5.281   4.363
 3571SOL    HW211613   6.591   5.193   4.476
 3572SOL     OW11614   6.271   6.641   5.489
 3572SOL    HW111615   6.233   6.657   5.398
 3572SOL    HW211616   6.289   6.729   5.533
 3573SOL     OW11617   0.237   1.748   1.403
 3573SOL    HW111618   0.227   1.660   1.356
 3573SOL    HW211619   0.333   1.762   1.427
 3574SOL     OW11620   6.105   3.884   0.318
 3574SOL    HW111621   6.156   3.970   0.316
 3574SOL    HW211622   6.130   3.833   0.400
 3575SOL     OW11623   6.055   6.642   2.099
 3575SOL    HW111624   6.034   6.738   2.083
 3575SOL    HW211625   6.093   6.602   2.015
 3576SOL     OW11626   6.280   0.845   6.964
 3576SOL    HW111627   6.236   0.821   0.031
 3576SOL    HW211628   6.305   0.762   6.915
 3577SOL     OW11629   2.689   4.025   0.331
 3577SOL    HW111630   2.788   4.029   0.316
 3577SOL    HW211631   2.645   4.100   0.281
 3578SOL     OW11632   3.604   4.313   1.758
 3578SOL    HW111633   3.608   4.406   1.794
 3578SOL    HW211634   3.513   4.295   1.721
 3579SOL     OW11635   2.022   4.440   5.436
 3579SOL    HW111636   2.074   4.413   5.516
 3579SOL    HW211637   2.004   4.359   5.379
 3580SOL     OW11638   6.255   2.893   1.117
 3580SOL    HW111639   6.302   2.932   1.195
 3580SOL    HW211640   6.212   2.966   1.064
 3581SOL     OW11641   6.422   0.427   3.567
 3581SOL    HW111642   6.337   0.478   3.554
 3581SOL    HW211643   6.401   0.330   3.581
 3582SOL     OW11644   0.201   0.070   5.492
 3582SOL    HW111645   0.294   0.075   5.529
 3582SOL    HW211646   0.198   0.003   5.418
 3583SOL     OW11647   1.281   5.347   1.799
 3583SOL    HW111648   1.333   5.264   1.818
 3583SOL    HW211649   1.216   5.329   1.725
 3584SOL     OW11650   6.055   0.101   5.105
 3584SOL    HW111651   5.997   0.180   5.123
 3584SOL    HW211652   6.000   0.017   5.112
 3585SOL     OW11653   2.327   4.557   3.469
 3585SOL    HW111654   2.339   4.594   3.377
 3585SOL    HW211655   2.357   4.626   3.536
 3586SOL     OW11656   1.124   0.778   5.747
 3586SOL    HW111657   1.052   0.841   5.774
 3586SOL    HW211658   1.105   0.687   5.784
 3587SOL     OW11659   3.723   6.393   6.420
 3587SOL    HW111660   3.663   6.446   6.360
 3587SOL    HW211661   3.706   6.295   6.406
 3588SOL     OW11662   1.757   1.989   5.389
 3588SOL    HW111663   1.680   1.926   5.384
 3588SOL    HW211664   1.781   2.020   5.297
 3589SOL     OW11665   3.666   0.274   4.467
 3589SOL    HW111666   3.753   0.282   4.419
 3589SOL    HW211667   3.591   0.293   4.404
 3590SOL     OW11668   1.279   4.871   6.750
 3590SOL    HW111669   1.179   4.860   6.755
 3590SOL    HW211670   1.320   4.842   6.836
 3591SOL     OW11671   5.472   2.082   4.868
 3591SOL    HW111672   5.419   2.076   4.953
 3591SOL    HW211673   5.559   2.128   4.886
 3592SOL     OW11674   5.274   2.267   2.010
 3592SOL    HW111675   5.225   2.306   1.932
 3592SOL    HW211676   5.218   2.276   2.092
 3593SOL     OW11677   1.496   5.799   4.270
 3593SOL    HW111678   1.431   5.810   4.194
 3593SOL    HW211679   1.547   5.714   4.257
 3594SOL     OW11680   3.816   1.869   4.525
 3594SOL    HW111681   3.727   1.828   4.506
 3594SOL    HW211682   3.814   1.966   4.499
 3595SOL     OW11683   2.093   6.984   5.550
 3595SOL    HW111684   1.994   6.976   5.561
 3595SOL    HW211685   2.135   7.002   5.639
 3596SOL     OW11686   0.603   3.884   3.488
 3596SOL    HW111687   0.616   3.809   3.553
 3596SOL    HW211688   0.530   3.944   3.522
 3597SOL     OW11689   3.592   6.961   3.834
 3597SOL    HW111690   3.531   6.975   3.912
 3597SOL    HW211691   3.600   0.027   3.783
 3598SOL     OW11692   1.404   0.319   0.005
 3598SOL    HW111693   1.497   0.290   0.030
 3598SOL    HW211694   1.338   0.265   0.057
 3599SOL     OW11695   0.023   1.619   4.560
 3599SOL    HW111696   0.064   1.710   4.560
 3599SOL    HW211697   6.980   1.611   4.483
 3600SOL     OW11698   6.668   0.006   1.326
 3600SOL    HW111699   6.761   0.039   1.307
 3600SOL    HW211700   6.601   0.073   1.295
 3601SOL     OW11701   6.301   3.823   5.555
 3601SOL    HW111702   6.267   3.884   5.483
 3601SOL    HW211703   6.225   3.795   5.614
 3602SOL     OW11704   2.800   1.542   1.288
 3602SOL    HW111705   2.826   1.493   1.205
 3602SOL    HW211706   2.757   1.478   1.353
 3603SOL     OW11707   4.132   5.899   4.337
 3603SOL    HW111708   4.121   5.871   4.242
 3603SOL    HW211709   4.072   5.976   4.357
 3604SOL     OW11710   6.361   4.149   3.648
 3604SOL    HW111711   6.322   4.109   3.566
 3604SOL    HW211712   6.290   4.157   3.719
 3605SOL     OW11713   6.108   2.685   6.660
 3605SOL    HW111714   6.065   2.599   6.631
 3605SOL    HW211715   6.052   2.762   6.629
 3606SOL     OW11716   1.732   4.473   3.356
 3606SOL    HW111717   1.741   4.454   3.258
 3606SOL    HW211718   1.766   4.395   3.408
 3607SOL     OW11719   4.296   0.027   6.859
 3607SOL    HW111720   4.226   6.978   6.840
 3607SOL    HW211721   4.254   0.104   6.908
 3608SOL     OW11722   0.603   3.035   3.038
 3608SOL    HW111723   0.667   2.973   2.992
 3608SOL    HW211724   0.604   3.016   3.137
 3609SOL     OW11725   6.527   6.846   4.673
 3609SOL    HW111726   6.458   6.785   4.635
 3609SOL    HW211727   6.485   6.934   4.696
 3610SOL     OW11728   2.104   5.488   5.468
 3610SOL    HW111729   2.189   5.535   5.445
 3610SOL    HW211730   2.120   5.425   5.544
 3611SOL     OW11731   4.671   5.634   5.534
 3611SOL    HW111732   4.573   5.623   5.551
 3611SOL    HW211733   4.722   5.565   5.586
 3612SOL     OW11734   2.150   6.360   1.315
 3612SOL    HW111735   2.250   6.356   1.316
 3612SOL    HW211736   2.113   6.279   1.360
 3613SOL     OW11737   5.012   5.028   6.308
 3613SOL    HW111738   5.047   4.974   6.231
 3613SOL    HW211739   4.935   4.980   6.349
 3614SOL     OW11740   3.840   3.392   4.685
 3614SOL    HW111741   3.803   3.340   4.608
 3614SOL    HW211742   3.936   3.367   4.699
 3615SOL     OW11743   6.080   6.504   5.920
 3615SOL    HW111744   6.124   6.483   5.832
 3615SOL    HW211745   6.096   6.429   5.984
 3616SOL     OW11746   5.766   0.586   5.081
 3616SOL    HW111747   5.806   0.617   5.167
 3616SOL    HW211748   5.792   0.648   5.007
 3617SOL     OW11749   7.000   0.521   0.238
 3617SOL    HW111750   6.983   0.503   0.141
 3617SOL    HW211751   0.026   0.609   0.248
 3618SOL     OW11752   2.771   6.558   6.522
 3618SOL    HW111753   2.829   6.478   6.534
 3618SOL    HW211754   2.816   6.638   6.560
 3619SOL     OW11755   5.050   4.385   4.005
 3619SOL    HW111756   5.137   4.392   3.957
 3619SOL    HW211757   5.063   4.401   4.102
 3620SOL     OW11758   6.054   1.520   4.792
 3620SOL    HW111759   6.130   1.582   4.772
 3620SOL    HW211760   5.968   1.572   4.794
 3621SOL     OW11761   1.497   3.303   5.583
 3621SOL    HW111762   1.521   3.208   5.605
 3621SOL    HW211763   1.565   3.365   5.620
 3622SOL     OW11764   0.476   3.287   1.492
 3622SOL    HW111765   0.386   3.250   1.513
 3622SOL    HW211766   0.479   3.311   1.395
 3623SOL     OW11767   6.758   5.030   3.665
 3623SOL    HW111768   6.719   5.012   3.755
 3623SOL    HW211769   6.717   5.112   3.626
 3624SOL     OW11770   1.811   1.354   1.908
 3624SOL    HW111771   1.758   1.369   1.992
 3624SOL    HW211772   1.754   1.373   1.828
 3625SOL     OW11773   0.578   3.338   4.340
 3625SOL    HW111774   0.550   3.410   4.277
 3625SOL    HW211775   0.624   3.264   4.290
 3626SOL     OW11776   2.783   3.918   5.204
 3626SOL    HW111777   2.690   3.932   5.171
 3626SOL    HW211778   2.784   3.917   5.304
 3627SOL     OW11779   3.365   3.257   3.807
 3627SOL    HW111780   3.322   3.170   3.832
 3627SOL    HW211781   3.308   3.333   3.838
 3628SOL     OW11782   2.868   5.488   3.131
 3628SOL    HW111783   2.904   5.469   3.039
 3628SOL    HW211784   2.877   5.586   3.150
 3629SOL     OW11785   5.502   3.039   5.257
 3629SOL    HW111786   5.532   2.977   5.185
 3629SOL    HW211787   5.407   3.017   5.282
 3630SOL     OW11788   5.917   1.523   5.062
 3630SOL    HW111789   5.942   1.429   5.036
 3630SOL    HW211790   5.879   1.570   4.983
 3631SOL     OW11791   2.111   0.920   3.995
 3631SOL    HW111792   2.093   0.832   4.039
 3631SOL    HW211793   2.037   0.942   3.932
 3632SOL     OW11794   3.787   6.965   6.277
 3632SOL    HW111795   3.729   7.006   6.348
 3632SOL    HW211796   3.848   0.016   6.239
 3633SOL     OW11797   1.274   3.252   5.407
 3633SOL    HW111798   1.364   3.271   5.448
 3633SOL    HW211799   1.238   3.167   5.446
 3634SOL     OW11800   3.156   5.554   6.268
 3634SOL    HW111801   3.244   5.599   6.255
 3634SOL    HW211802   3.157   5.502   6.354
 3635SOL     OW11803   1.689   1.043   5.076
 3635SOL    HW111804   1.751   0.993   5.136
 3635SOL    HW211805   1.703   1.141   5.087
 3636SOL     OW11806   1.524   5.886   6.558
 3636SOL    HW111807   1.458   5.961   6.567
 3636SOL    HW211808   1.616   5.924   6.544
 3637SOL     OW11809   4.982   1.202   1.550
 3637SOL    HW111810   4.941   1.289   1.521
 3637SOL    HW211811   5.035   1.216   1.634
 3638SOL     OW11812   6.063   4.958   3.100
 3638SOL    HW111813   6.083   5.055   3.108
 3638SOL    HW211814   6.140   4.905   3.135
 3639SOL     OW11815   2.484   5.529   6.641
 3639SOL    HW111816   2.523   5.621   6.650
 3639SOL    HW211817   2.389   5.536   6.611
 3640SOL     OW11818   2.562   6.941   1.559
 3640SOL    HW111819   2.463   6.945   1.567
 3640SOL    HW211820   2.599   6.878   1.626
 3641SOL     OW11821   2.113   0.645   4.718
 3641SOL    HW111822   2.070   0.707   4.783
 3641SOL    HW211823   2.057   0.640   4.635
 3642SOL     OW11824   5.941   6.657   2.344
 3642SOL    HW111825   5.993   6.618   2.268
 3642SOL    HW211826   5.879   6.728   2.310
 3643SOL     OW11827   3.644   5.001   5.922
 3643SOL    HW111828   3.678   4.908   5.913
 3643SOL    HW211829   3.614   5.034   5.833
 3644SOL     OW11830   6.786   0.175   0.317
 3644SOL    HW111831   6.746   0.231   0.245
 3644SOL    HW211832   6.853   0.229   0.368
 3645SOL     OW11833   3.778   6.520   2.827
 3645SOL    HW111834   3.784   6.432   2.874
 3645SOL    HW211835   3.747   6.590   2.891
 3646SOL     OW11836   6.742   5.580   4.285
 3646SOL    HW111837   6.753   5.602   4.188
 3646SOL    HW211838   6.831   5.584   4.331
 3647SOL     OW11839   2.352   2.572   1.567
 3647SOL    HW111840   2.318   2.650   1.515
 3647SOL    HW211841   2.451   2.579   1.577
 3648SOL     OW11842   3.090   5.969   3.548
 3648SOL    HW111843   3.100   5.891   3.609
 3648SOL    HW211844   3.180   5.998   3.516
 3649SOL     OW11845   3.355   3.073   2.430
 3649SOL    HW111846   3.438   3.121   2.458
 3649SOL    HW211847   3.325   3.107   2.341
 3650SOL     OW11848   5.404   6.703   1.437
 3650SOL    HW111849   5.504   6.708   1.446
 3650SOL    HW211850   5.365   6.668   1.522
 3651SOL     OW11851   1.203   6.484   2.537
 3651SOL    HW111852   1.147   6.422   2.482
 3651SOL    HW211853   1.171   6.485   2.631
 3652SOL     OW11854   4.590   5.177   2.592
 3652SOL    HW111855   4.677   5.134   2.617
 3652SOL    HW211856   4.542   5.119   2.526
 3653SOL     OW11857   6.928   3.138   4.675
 3653SOL    HW111858   6.983   3.221   4.682
 3653SOL    HW211859   6.889   3.115   4.764
 3654SOL     OW11860   1.117   5.635   1.293
 3654SOL    HW111861   1.192   5.616   1.229
 3654SOL    HW211862   1.144   5.709   1.354
 3655SOL     OW11863   0.279   1.241   3.629
 3655SOL    HW111864   0.378   1.258   3.633
 3655SOL    HW211865   0.257   1.165   3.689
 3656SOL     OW11866   2.653   1.323   2.774
 3656SOL    HW111867   2.558   1.323   2.744
 3656SOL    HW211868   2.704   1.252   2.726
 3657SOL     OW11869   4.089   4.947   2.008
 3657SOL    HW111870   4.003   4.897   2.019
 3657SOL    HW211871   4.166   4.884   2.018
 3658SOL     OW11872   2.328   5.666   5.487
 3658SOL    HW111873   2.401   5.603   5.459
 3658SOL    HW211874   2.338   5.687   5.584
 3659SOL     OW11875   0.904   4.175   0.367
 3659SOL    HW111876   0.948   4.100   0.317
 3659SOL    HW211877   0.940   4.178   0.460
 3660SOL     OW11878   4.451   5.284   1.231
 3660SOL    HW111879   4.483   5.191   1.213
 3660SOL    HW211880   4.428   5.293   1.328
 3661SOL     OW11881   4.703   1.786   0.944
 3661SOL    HW111882   4.772   1.725   0.905
 3661SOL    HW211883   4.688   1.763   1.040
 3662SOL     OW11884   2.860   6.289   4.938
 3662SOL    HW111885   2.830   6.332   5.024
 3662SOL    HW211886   2.951   6.323   4.914
 3663SOL     OW11887   1.509   3.712   6.307
 3663SOL    HW111888   1.536   3.627   6.354
 3663SOL    HW211889   1.412   3.730   6.326
 3664SOL     OW11890   4.141   0.077   1.228
 3664SOL    HW111891   4.102   0.019   1.299
 3664SOL    HW211892   4.241   0.079   1.238
 3665SOL     OW11893   1.583   7.011   5.200
 3665SOL    HW111894   1.507   6.967   5.248
 3665SOL    HW211895   1.550   0.031   5.114
 3666SOL     OW11896   0.901   4.678   4.065
 3666SOL    HW111897   0.804   4.679   4.041
 3666SOL    HW211898   0.926   4.585   4.093
 3667SOL     OW11899   0.010   1.549   6.445
 3667SOL    HW111900   6.943   1.551   6.494
 3667SOL    HW211901   0.079   1.598   6.498
 3668SOL     OW11902   1.730   6.158   1.823
 3668SOL    HW111903   1.692   6.235   1.874
 3668SOL    HW211904   1.758   6.086   1.887
 3669SOL     OW11905   5.921   1.812   3.668
 3669SOL    HW111906   5.969   1.897   3.688
 3669SOL    HW211907   5.978   1.734   3.697
 3670SOL     OW11908   2.077   5.441   6.158
 3670SOL    HW111909   2.003   5.450   6.224
 3670SOL    HW211910   2.061   5.501   6.080
 3671SOL     OW11911   1.673   1.031   2.795
 3671SOL    HW111912   1.597   1.055   2.734
 3671SOL    HW211913   1.755   1.015   2.741
 3672SOL     OW11914   6.608   0.083   0.492
 3672SOL    HW111915   6.679   0.131   0.440
 3672SOL    HW211916   6.645   7.016   0.525
 3673SOL     OW11917   4.011   0.506   6.637
 3673SOL    HW111918   4.050   0.576   6.577
 3673SOL    HW211919   4.006   0.419   6.588
 3674SOL     OW11920   1.525   6.479   1.017
 3674SOL    HW111921   1.571   6.467   1.105
 3674SOL    HW211922   1.575   6.430   0.946
 3675SOL     OW11923   1.591   1.737   4.671
 3675SOL    HW111924   1.660   1.665   4.681
 3675SOL    HW211925   1.500   1.696   4.672
 3676SOL     OW11926   1.948   5.011   2.928
 3676SOL    HW111927   1.855   4.983   2.905
 3676SOL    HW211928   1.950   5.110   2.943
 3677SOL     OW11929   6.475   6.743   3.740
 3677SOL    HW111930   6.479   6.821   3.803
 3677SOL    HW211931   6.547   6.679   3.763
 3678SOL     OW11932   1.024   1.522   3.451
 3678SOL    HW111933   1.058   1.549   3.361
 3678SOL    HW211934   1.052   1.589   3.519
 3679SOL     OW11935   0.259   0.775   1.460
 3679SOL    HW111936   0.292   0.774   1.366
 3679SOL    HW211937   0.172   0.824   1.465
 3680SOL     OW11938   6.423   4.065   4.494
 3680SOL    HW111939   6.362   4.043   4.570
 3680SOL    HW211940   6.516   4.038   4.517
 3681SOL     OW11941   5.334   6.368   5.068
 3681SOL    HW111942   5.391   6.305   5.122
 3681SOL    HW211943   5.242   6.372   5.108
 3682SOL     OW11944   0.413   2.321   6.515
 3682SOL    HW111945   0.411   2.288   6.420
 3682SOL    HW211946   0.507   2.346   6.539
 3683SOL     OW11947   5.051   5.855   3.608
 3683SOL    HW111948   5.089   5.941   3.641
 3683SOL    HW211949   5.123   5.802   3.562
 3684SOL     OW11950   1.454   2.990   0.912
 3684SOL    HW111951   1.537   2.977   0.858
 3684SOL    HW211952   1.375   2.958   0.860
 3685SOL     OW11953   6.440   6.806   6.421
 3685SOL    HW111954   6.420   6.773   6.513
 3685SOL    HW211955   6.481   6.897   6.426
 3686SOL     OW11956   5.947   4.504   1.739
 3686SOL    HW111957   6.010   4.456   1.801
 3686SOL    HW211958   5.995   4.531   1.656
 3687SOL     OW11959   3.092   1.076   6.708
 3687SOL    HW111960   3.190   1.054   6.701
 3687SOL    HW211961   3.057   1.097   6.617
 3688SOL     OW11962   6.918   3.254   0.065
 3688SOL    HW111963   6.876   3.232   6.997
 3688SOL    HW211964   6.860   3.220   0.139
 3689SOL     OW11965   2.855   0.168   3.740
 3689SOL    HW111966   2.866   0.171   3.839
 3689SOL    HW211967   2.774   0.114   3.717
 3690SOL     OW11968   4.274   6.354   5.303
 3690SOL    HW111969   4.347   6.417   5.279
 3690SOL    HW211970   4.243   6.306   5.220
 3691SOL     OW11971   3.774   2.678   0.207
 3691SOL    HW111972   3.750   2.639   0.296
 3691SOL    HW211973   3.854   2.630   0.171
 3692SOL     OW11974   1.300   6.998   6.465
 3692SOL    HW111975   1.367   0.042   6.428
 3692SOL    HW211976   1.237   0.027   6.525
 3693SOL     OW11977   2.565   1.633   3.438
 3693SOL    HW111978   2.566   1.603   3.342
 3693SOL    HW211979   2.657   1.622   3.477
 3694SOL     OW11980   2.140   5.675   2.942
 3694SOL    HW111981   2.203   5.753   2.933
 3694SOL    HW211982   2.188   5.597   2.979
 3695SOL     OW11983   1.721   2.561   1.408
 3695SOL    HW111984   1.803   2.601   1.448
 3695SOL    HW211985   1.746   2.482   1.352
 3696SOL     OW11986   3.014   5.848   5.710
 3696SOL    HW111987   3.102   5.836   5.664
 3696SOL    HW211988   3.026   5.905   5.792
 3697SOL     OW11989   5.338   0.224   4.370
 3697SOL    HW111990   5.425   0.225   4.321
 3697SOL    HW211991   5.312   0.129   4.390
 3698SOL     OW11992   3.047   0.461   5.948
 3698SOL    HW111993   3.032   0.373   5.993
 3698SOL    HW211994   2.967   0.521   5.964
 3699SOL     OW11995   1.511   4.380   2.308
 3699SOL    HW111996   1.561   4.448   2.362
 3699SOL    HW211997   1.489   4.302   2.366
 3700SOL     OW11998   0.469   0.354   4.058
 3700SOL    HW111999   0.437   0.391   3.971
 3700SOL    HW212000   0.402   0.287   4.092
 3701SOL     OW12001   5.407   0.336   3.631
 3701SOL    HW112002   5.324   0.360   3.682
 3701SOL    HW212003   5.483   0.392   3.664
 3702SOL     OW12004   4.276   0.941   6.628
 3702SOL    HW112005   4.217   0.967   6.705
 3702SOL    HW212006   4.269   0.842   6.612
 3703SOL     OW12007   4.435   4.462   7.017
 3703SOL    HW112008   4.439   4.401   6.938
 3703SOL    HW212009   4.370   4.424   0.064
 3704SOL     OW12010   2.537   0.401   2.260
 3704SOL    HW112011   2.542   0.301   2.261
 3704SOL    HW212012   2.444   0.429   2.236
 3705SOL     OW12013   5.720   1.288   4.341
 3705SOL    HW112014   5.792   1.348   4.377
 3705SOL    HW212015   5.641   1.290   4.403
 3706SOL     OW12016   2.244   1.978   3.333
 3706SOL    HW112017   2.215   2.056   3.277
 3706SOL    HW212018   2.188   1.974   3.415
 3707SOL     OW12019   4.395   2.305   5.171
 3707SOL    HW112020   4.320   2.330   5.110
 3707SOL    HW212021   4.448   2.231   5.129
 3708SOL     OW12022   6.480   6.770   5.951
 3708SOL    HW112023   6.499   6.744   5.857
 3708SOL    HW212024   6.383   6.796   5.960
 3709SOL     OW12025   4.572   0.375   6.903
 3709SOL    HW112026   4.625   0.316   6.843
 3709SOL    HW212027   4.597   0.357   6.998
 3710SOL     OW12028   6.993   5.214   0.444
 3710SOL    HW112029   6.980   5.165   0.530
 3710SOL    HW212030   0.010   5.151   0.376
 3711SOL     OW12031   6.655   5.162   2.848
 3711SOL    HW112032   6.718   5.085   2.835
 3711SOL    HW212033   6.561   5.129   2.842
 3712SOL     OW12034   1.951   0.353   0.801
 3712SOL    HW112035   1.969   0.316   0.892
 3712SOL    HW212036   1.865   0.317   0.766
 3713SOL     OW12037   4.172   5.962   6.050
 3713SOL    HW112038   4.168   5.942   5.952
 3713SOL    HW212039   4.231   6.042   6.065
 3714SOL     OW12040   4.169   1.314   5.523
 3714SOL    HW112041   4.137   1.376   5.451
 3714SOL    HW212042   4.249   1.354   5.568
 3715SOL     OW12043   5.214   4.006   4.014
 3715SOL    HW112044   5.242   3.911   4.025
 3715SOL    HW212045   5.149   4.014   3.939
 3716SOL     OW12046   0.358   1.814   4.906
 3716SOL    HW112047   0.301   1.733   4.917
 3716SOL    HW212048   0.429   1.814   4.977
 3717SOL     OW12049   6.149   0.430   7.018
 3717SOL    HW112050   6.143   0.336   6.985
 3717SOL    HW212051   6.064   0.478   6.997
 3718SOL     OW12052   0.836   5.471   0.327
 3718SOL    HW112053   0.818   5.380   0.364
 3718SOL    HW212054   0.769   5.493   0.257
 3719SOL     OW12055   3.928   5.438   6.374
 3719SOL    HW112056   3.970   5.397   6.294
 3719SOL    HW212057   3.939   5.538   6.371
 3720SOL     OW12058   0.385   1.655   5.972
 3720SOL    HW112059   0.433   1.568   5.970
 3720SOL    HW212060   0.450   1.730   5.967
 3721SOL     OW12061   4.607   3.165   0.822
 3721SOL    HW112062   4.601   3.162   0.922
 3721SOL    HW212063   4.641   3.255   0.794
 3722SOL     OW12064   6.019   5.925   1.404
 3722SOL    HW112065   6.017   6.023   1.425
 3722SOL    HW212066   6.032   5.874   1.488
 3723SOL     OW12067   3.945   1.312   0.416
 3723SOL    HW112068   3.849   1.320   0.390
 3723SOL    HW212069   3.952   1.256   0.499
 3724SOL     OW12070   6.914   5.007   5.913
 3724SOL    HW112071   6.970   4.929   5.885
 3724SOL    HW212072   6.817   4.985   5.900
 3725SOL     OW12073   6.506   0.448   0.558
 3725SOL    HW112074   6.597   0.443   0.515
 3725SOL    HW212075   6.488   0.362   0.606
 3726SOL     OW12076   5.701   3.535   1.668
 3726SOL    HW112077   5.776   3.491   1.619
 3726SOL    HW212078   5.675   3.619   1.621
 3727SOL     OW12079   2.446   2.735   5.265
 3727SOL    HW112080   2.349   2.709   5.263
 3727SOL    HW212081   2.454   2.834   5.258
 3728SOL     OW12082   0.413   3.343   6.786
 3728SOL    HW112083   0.488   3.408   6.799
 3728SOL    HW212084   0.330   3.393   6.758
 3729SOL     OW12085   0.309   2.898   3.310
 3729SOL    HW112086   0.319   2.907   3.211
 3729SOL    HW212087   0.276   2.985   3.348
 3730SOL     OW12088   2.218   0.826   0.651
 3730SOL    HW112089   2.250   0.919   0.671
 3730SOL    HW212090   2.122   0.818   0.677
 3731SOL     OW12091   3.128   6.305   6.121
 3731SOL    HW112092   3.069   6.352   6.056
 3731SOL    HW212093   3.118   6.206   6.109
 3732SOL     OW12094   1.933   3.668   4.550
 3732SOL    HW112095   2.003   3.717   4.499
 3732SOL    HW212096   1.975   3.618   4.626
 3733SOL     OW12097   3.066   3.559   1.195
 3733SOL    HW112098   3.162   3.530   1.196
 3733SOL    HW212099   3.030   3.551   1.102
 3734SOL     OW12100   5.200   7.005   3.341
 3734SOL    HW112101   5.162   6.972   3.255
 3734SOL    HW212102   5.132   6.997   3.414
 3735SOL     OW12103   3.446   1.820   1.849
 3735SOL    HW112104   3.482   1.741   1.799
 3735SOL    HW212105   3.507   1.898   1.837
 3736SOL     OW12106   4.631   1.499   5.930
 3736SOL    HW112107   4.552   1.455   5.973
 3736SOL    HW212108   4.715   1.452   5.958
 3737SOL     OW12109   3.809   6.716   3.360
 3737SOL    HW112110   3.813   6.804   3.407
 3737SOL    HW212111   3.715   6.682   3.363
 3738SOL     OW12112   6.847   6.688   4.048
 3738SOL    HW112113   6.848   6.788   4.050
 3738SOL    HW212114   6.927   6.655   3.999
 3739SOL     OW12115   0.970   3.874   1.804
 3739SOL    HW112116   0.889   3.863   1.746
 3739SOL    HW212117   0.977   3.797   1.867
 3740SOL     OW12118   5.515   0.986   0.053
 3740SOL    HW112119   5.526   1.042   6.990
 3740SOL    HW212120   5.589   1.008   0.117
 3741SOL     OW12121   3.606   2.162   6.782
 3741SOL    HW112122   3.521   2.209   6.806
 3741SOL    HW212123   3.586   2.089   6.717
 3742SOL     OW12124   3.200   3.469   5.521
 3742SOL    HW112125   3.196   3.552   5.464
 3742SOL    HW212126   3.278   3.413   5.493
 3743SOL     OW12127   0.892   6.036   6.076
 3743SOL    HW112128   0.810   5.995   6.035
 3743SOL    HW212129   0.907   6.127   6.038
 3744SOL     OW12130   0.041   5.478   3.044
 3744SOL    HW112131   7.000   5.551   3.010
 3744SOL    HW212132   0.136   5.507   3.034
 3745SOL     OW12133   5.108   5.716   1.578
 3745SOL    HW112134   5.019   5.687   1.544
 3745SOL    HW212135   5.114   5.695   1.676
 3746SOL     OW12136   4.168   1.468   2.278
 3746SOL    HW112137   4.222   1.507   2.352
 3746SOL    HW212138   4.115   1.540   2.234
 3747SOL     OW12139   2.564   0.300   0.896
 3747SOL    HW112140   2.600   0.212   0.864
 3747SOL    HW212141   2.470   0.310   0.863
 3748SOL     OW12142   5.613   0.989   2.387
 3748SOL    HW112143   5.625   1.008   2.484
 3748SOL    HW212144   5.676   0.915   2.359
 3749SOL     OW12145   1.678   0.767   4.472
 3749SOL    HW112146   1.647   0.743   4.381
 3749SOL    HW212147   1.609   0.741   4.540
 3750SOL     OW12148   0.291   4.750   6.932
 3750SOL    HW112149   0.236   4.669   6.954
 3750SOL    HW212150   0.270   4.824   6.995
 3751SOL     OW12151   1.731   4.022   1.324
 3751SOL    HW112152   1.672   3.952   1.366
 3751SOL    HW212153   1.713   4.111   1.368
 3752SOL     OW12154   5.496   6.321   6.985
 3752SOL    HW112155   5.570   6.277   0.016
 3752SOL    HW212156   5.420   6.257   6.976
 3753SOL     OW12157   6.938   0.078   3.496
 3753SOL    HW112158   6.955   0.158   3.439
 3753SOL    HW212159   6.916   0.107   3.589
 3754SOL     OW12160   1.899   1.297   1.441
 3754SOL    HW112161   1.982   1.342   1.475
 3754SOL    HW212162   1.876   1.333   1.351
 3755SOL     OW12163   3.320   5.262   4.212
 3755SOL    HW112164   3.223   5.259   4.187
 3755SOL    HW212165   3.353   5.170   4.230
 3756SOL     OW12166   1.873   6.525   0.759
 3756SOL    HW112167   1.936   6.455   0.727
 3756SOL    HW212168   1.779   6.493   0.746
 3757SOL     OW12169   0.459   4.443   1.300
 3757SOL    HW112170   0.535   4.400   1.252
 3757SOL    HW212171   0.457   4.541   1.277
 3758SOL     OW12172   1.934   0.111   3.883
 3758SOL    HW112173   1.979   0.200   3.879
 3758SOL    HW212174   2.003   0.039   3.871
 3759SOL     OW12175   5.235   0.295   3.927
 3759SOL    HW112176   5.305   0.226   3.942
 3759SOL    HW212177   5.251   0.373   3.987
 3760SOL     OW12178   1.023   1.242   2.974
 3760SOL    HW112179   0.939   1.275   3.018
 3760SOL    HW212180   1.027   1.277   2.880
 3761SOL     OW12181   4.436   1.877   5.444
 3761SOL    HW112182   4.370   1.805   5.423
 3761SOL    HW212183   4.506   1.881   5.373
 3762SOL     OW12184   0.042   3.008   3.920
 3762SOL    HW112185   0.051   2.908   3.924
 3762SOL    HW212186   0.018   3.035   3.827
 3763SOL     OW12187   0.682   4.681   6.798
 3763SOL    HW112188   0.672   4.671   6.897
 3763SOL    HW212189   0.770   4.644   6.769
 3764SOL     OW12190   2.677   0.751   2.848
 3764SOL    HW112191   2.583   0.770   2.819
 3764SOL    HW212192   2.732   0.833   2.836
 3765SOL     OW12193   5.799   2.472   3.119
 3765SOL    HW112194   5.868   2.431   3.059
 3765SOL    HW212195   5.837   2.555   3.161
 3766SOL     OW12196   1.632   3.344   2.040
 3766SOL    HW112197   1.561   3.341   1.969
 3766SOL    HW212198   1.631   3.434   2.084
 3767SOL     OW12199   1.582   5.993   6.059
 3767SOL    HW112200   1.547   6.061   6.124
 3767SOL    HW212201   1.509   5.965   5.997
 3768SOL     OW12202   1.420   7.008   2.527
 3768SOL    HW112203   1.379   6.980   2.440
 3768SOL    HW212204   1.481   6.936   2.560
 3769SOL     OW12205   5.254   5.537   4.407
 3769SOL    HW112206   5.306   5.608   4.360
 3769SOL    HW212207   5.277   5.537   4.504
 3770SOL     OW12208   2.438   0.844   1.507
 3770SOL    HW112209   2.498   0.907   1.458
 3770SOL    HW212210   2.352   0.891   1.528
 3771SOL     OW12211   6.400   5.274   5.427
 3771SOL    HW112212   6.336   5.324   5.485
 3771SOL    HW212213   6.368   5.274   5.333
 3772SOL     OW12214   1.363   5.637   1.553
 3772SOL    HW112215   1.355   5.639   1.653
 3772SOL    HW212216   1.305   5.708   1.514
 3773SOL     OW12217   5.110   4.941   6.963
 3773SOL    HW112218   5.011   4.935   6.953
 3773SOL    HW212219   5.139   5.036   6.949
 3774SOL     OW12220   6.533   4.767   1.969
 3774SOL    HW112221   6.492   4.852   1.936
 3774SOL    HW212222   6.592   4.787   2.048
 3775SOL     OW12223   4.741   4.983   5.230
 3775SOL    HW112224   4.641   4.985   5.218
 3775SOL    HW212225   4.780   5.069   5.198
 3776SOL     OW12226   4.392   3.065   6.397
 3776SOL    HW112227   4.346   3.031   6.480
 3776SOL    HW212228   4.454   2.996   6.362
 3777SOL     OW12229   2.983   4.940   4.520
 3777SOL    HW112230   2.896   4.892   4.533
 3777SOL    HW212231   3.013   4.928   4.425
 3778SOL     OW12232   3.507   5.288   6.695
 3778SOL    HW112233   3.544   5.338   6.616
 3778SOL    HW212234   3.479   5.353   6.766
 3779SOL     OW12235   6.574   4.498   6.960
 3779SOL    HW112236   6.586   4.585   7.009
 3779SOL    HW212237   6.548   4.516   6.865
 3780SOL     OW12238   5.836   3.658   2.160
 3780SOL    HW112239   5.875   3.664   2.069
 3780SOL    HW212240   5.910   3.661   2.228
 3781SOL     OW12241   1.582   6.017   5.187
 3781SOL    HW112242   1.527   6.039   5.107
 3781SOL    HW212243   1.669   5.976   5.158
 3782SOL     OW12244   4.178   4.825   1.133
 3782SOL    HW112245   4.131   4.829   1.221
 3782SOL    HW212246   4.252   4.759   1.138
 3783SOL     OW12247   4.570   5.232   4.782
 3783SOL    HW112248   4.519   5.162   4.831
 3783SOL    HW212249   4.584   5.203   4.687
 3784SOL     OW12250   5.947   2.890   5.547
 3784SOL    HW112251   5.960   2.986   5.525
 3784SOL    HW212252   5.855   2.876   5.583
 3785SOL     OW12253   1.175   2.662   2.915
 3785SOL    HW112254   1.191   2.618   3.003
 3785SOL    HW212255   1.195   2.597   2.841
 3786SOL     OW12256   2.154   3.294   4.744
 3786SOL    HW112257   2.188   3.203   4.769
 3786SOL    HW212258   2.169   3.357   4.820
 3787SOL     OW12259   5.209   6.409   3.828
 3787SOL    HW112260   5.305   6.419   3.803
 3787SOL    HW212261   5.199   6.342   3.901
 3788SOL     OW12262   5.053   3.036   6.089
 3788SOL    HW112263   5.000   3.013   6.007
 3788SOL    HW212264   5.126   2.968   6.101
 3789SOL     OW12265   2.735   2.822   1.115
 3789SOL    HW112266   2.652   2.837   1.061
 3789SOL    HW212267   2.771   2.910   1.146
 3790SOL     OW12268   0.731   6.361   1.492
 3790SOL    HW112269   0.823   6.389   1.462
 3790SOL    HW212270   0.734   6.266   1.522
 3791SOL     OW12271   5.032   0.362   5.549
 3791SOL    HW112272   4.945   0.409   5.562
 3791SOL    HW212273   5.107   0.428   5.555
 3792SOL     OW12274   6.895   6.937   4.416
 3792SOL    HW112275   6.853   7.011   4.364
 3792SOL    HW212276   6.899   6.963   4.513
 3793SOL     OW12277   4.004   4.610   0.587
 3793SOL    HW112278   3.944   4.599   0.666
 3793SOL    HW212279   4.085   4.553   0.597
 3794SOL     OW12280   1.189   5.059   6.196
 3794SOL    HW112281   1.100   5.045   6.240
 3794SOL    HW212282   1.176   5.079   6.099
 3795SOL     OW12283   2.971   5.954   0.866
 3795SOL    HW112284   2.915   5.948   0.949
 3795SOL    HW212285   3.067   5.938   0.889
 3796SOL     OW12286   4.667   0.725   0.391
 3796SOL    HW112287   4.579   0.753   0.354
 3796SOL    HW212288   4.731   0.706   0.316
 3797SOL     OW12289   0.149   3.392   1.454
 3797SOL    HW112290   0.150   3.380   1.554
 3797SOL    HW212291   0.077   3.335   1.415
 3798SOL     OW12292   1.589   5.279   3.917
 3798SOL    HW112293   1.507   5.246   3.870
 3798SOL    HW212294   1.593   5.239   4.008
 3799SOL     OW12295   6.926   1.176   3.507
 3799SOL    HW112296   6.865   1.253   3.485
 3799SOL    HW212297   0.000   1.202   3.487
 3800SOL     OW12298   5.530   2.114   3.217
 3800SOL    HW112299   5.541   2.049   3.142
 3800SOL    HW212300   5.605   2.180   3.215
 3801SOL     OW12301   6.164   0.759   1.230
 3801SOL    HW112302   6.150   0.705   1.147
 3801SOL    HW212303   6.167   0.698   1.309
 3802SOL     OW12304   6.155   3.640   1.526
 3802SOL    HW112305   6.191   3.731   1.501
 3802SOL    HW212306   6.204   3.606   1.607
 3803SOL     OW12307   3.493   3.909   4.806
 3803SOL    HW112308   3.416   3.969   4.831
 3803SOL    HW212309   3.458   3.830   4.756
 3804SOL     OW12310   3.639   6.322   3.444
 3804SOL    HW112311   3.651   6.316   3.543
 3804SOL    HW212312   3.728   6.311   3.399
 3805SOL     OW12313   2.337   2.528   6.688
 3805SOL    HW112314   2.262   2.534   6.754
 3805SOL    HW212315   2.319   2.588   6.610
 3806SOL     OW12316   2.351   5.068   1.309
 3806SOL    HW112317   2.301   4.983   1.323
 3806SOL    HW212318   2.444   5.058   1.344
 3807SOL     OW12319   1.599   4.193   3.974
 3807SOL    HW112320   1.629   4.204   4.069
 3807SOL    HW212321   1.499   4.200   3.970
 3808SOL     OW12322   3.037   6.668   5.149
 3808SOL    HW112323   2.953   6.687   5.099
 3808SOL    HW212324   3.084   6.753   5.171
 3809SOL     OW12325   5.703   1.938   1.998
 3809SOL    HW112326   5.675   2.021   1.950
 3809SOL    HW212327   5.646   1.925   2.079
 3810SOL     OW12328   4.721   2.134   2.976
 3810SOL    HW112329   4.815   2.116   3.006
 3810SOL    HW212330   4.722   2.179   2.887
 3811SOL     OW12331   6.903   5.477   5.320
 3811SOL    HW112332   6.933   5.384   5.295
 3811SOL    HW212333   6.863   5.521   5.240
 3812SOL     OW12334   4.562   5.387   0.358
 3812SOL    HW112335   4.520   5.296   0.360
 3812SOL    HW212336   4.585   5.411   0.264
 3813SOL     OW12337   6.046   4.416   0.122
 3813SOL    HW112338   6.017   4.368   0.039
 3813SOL    HW212339   6.131   4.375   0.155
 3814SOL     OW12340   6.915   0.030   4.669
 3814SOL    HW112341   6.879   0.010   4.760
 3814SOL    HW212342   6.865   0.107   4.630
 3815SOL     OW12343   6.059   3.495   6.054
 3815SOL    HW112344   6.025   3.430   6.121
 3815SOL    HW212345   6.120   3.561   6.100
 3816SOL     OW12346   6.804   6.160   1.728
 3816SOL    HW112347   6.784   6.220   1.805
 3816SOL    HW212348   6.899   6.129   1.734
 3817SOL     OW12349   4.600   3.418   1.488
 3817SOL    HW112350   4.545   3.471   1.552
 3817SOL    HW212351   4.541   3.367   1.426
 3818SOL     OW12352   6.012   5.956   2.677
 3818SOL    HW112353   5.931   5.905   2.649
 3818SOL    HW212354   6.015   5.961   2.777
 3819SOL     OW12355   5.953   3.411   3.663
 3819SOL    HW112356   6.017   3.435   3.736
 3819SOL    HW212357   5.944   3.489   3.600
 3820SOL     OW12358   3.362   6.478   4.993
 3820SOL    HW112359   3.365   6.406   5.062
 3820SOL    HW212360   3.314   6.446   4.912
 3821SOL     OW12361   1.680   7.020   0.284
 3821SOL    HW112362   1.687   0.085   0.335
 3821SOL    HW212363   1.750   7.019   0.212
 3822SOL     OW12364   5.124   0.275   2.033
 3822SOL    HW112365   5.052   0.221   2.076
 3822SOL    HW212366   5.116   0.270   1.934
 3823SOL     OW12367   6.007   6.022   5.703
 3823SOL    HW112368   6.090   6.074   5.685
 3823SOL    HW212369   5.934   6.084   5.732
 3824SOL     OW12370   2.453   2.898   0.910
 3824SOL    HW112371   2.454   2.952   0.826
 3824SOL    HW212372   2.421   2.955   0.986
 3825SOL     OW12373   0.614   5.099   5.764
 3825SOL    HW112374   0.569   5.011   5.778
 3825SOL    HW212375   0.604   5.155   5.847
 3826SOL     OW12376   5.516   4.113   3.522
 3826SOL    HW112377   5.450   4.108   3.447
 3826SOL    HW212378   5.499   4.039   3.587
 3827SOL     OW12379   0.294   2.159   0.353
 3827SOL    HW112380   0.283   2.242   0.408
 3827SOL    HW212381   0.384   2.119   0.370
 3828SOL     OW12382   4.008   3.455   3.464
 3828SOL    HW112383   3.963   3.367   3.450
 3828SOL    HW212384   4.050   3.456   3.555
 3829SOL     OW12385   0.822   3.753   2.327
 3829SOL    HW112386   0.729   3.790   2.321
 3829SOL    HW212387   0.820   3.656   2.302
 3830SOL     OW12388   5.941   0.457   3.733
 3830SOL    HW112389   5.888   0.527   3.686
 3830SOL    HW212390   5.882   0.380   3.757
 3831SOL     OW12391   4.391   2.487   3.613
 3831SOL    HW112392   4.353   2.424   3.681
 3831SOL    HW212393   4.470   2.534   3.651
 3832SOL     OW12394   6.823   0.757   3.559
 3832SOL    HW112395   6.745   0.813   3.585
 3832SOL    HW212396   6.845   0.773   3.462
 3833SOL     OW12397   1.323   2.734   5.325
 3833SOL    HW112398   1.290   2.684   5.244
 3833SOL    HW212399   1.302   2.831   5.314
 3834SOL     OW12400   4.790   4.236   0.478
 3834SOL    HW112401   4.712   4.270   0.425
 3834SOL    HW212402   4.759   4.212   0.570
 3835SOL     OW12403   4.296   5.784   5.234
 3835SOL    HW112404   4.339   5.708   5.282
 3835SOL    HW212405   4.200   5.764   5.219
 3836SOL     OW12406   6.939   6.113   5.321
 3836SOL    HW112407   0.012   6.125   5.285
 3836SOL    HW212408   6.944   6.078   5.414
 3837SOL     OW12409   4.624   4.386   5.736
 3837SOL    HW112410   4.531   4.354   5.753
 3837SOL    HW212411   4.633   4.481   5.768
 3838SOL     OW12412   0.244   0.556   4.246
 3838SOL    HW112413   0.308   0.554   4.169
 3838SOL    HW212414   0.262   0.477   4.305
 3839SOL     OW12415   5.113   0.344   3.710
 3839SOL    HW112416   5.085   0.439   3.726
 3839SOL    HW212417   5.150   0.306   3.794
 3840SOL     OW12418   2.904   1.108   6.502
 3840SOL    HW112419   2.882   1.085   6.407
 3840SOL    HW212420   2.834   1.171   6.537
 3841SOL     OW12421   6.123   4.793   4.376
 3841SOL    HW112422   6.198   4.859   4.367
 3841SOL    HW212423   6.044   4.825   4.322
 3842SOL     OW12424   1.939   3.926   5.260
 3842SOL    HW112425   1.877   3.874   5.320
 3842SOL    HW212426   1.900   4.016   5.242
 3843SOL     OW12427   4.851   2.229   6.963
 3843SOL    HW112428   4.775   2.259   6.904
 3843SOL    HW212429   4.917   2.303   6.971
 3844SOL     OW12430   0.282   6.944   1.269
 3844SOL    HW112431   0.195   6.950   1.221
 3844SOL    HW212432   0.289   6.854   1.313
 3845SOL     OW12433   2.235   5.257   0.311
 3845SOL    HW112434   2.296   5.183   0.283
 3845SOL    HW212435   2.288   5.339   0.330
 3846SOL     OW12436   0.442   3.355   3.063
 3846SOL    HW112437   0.360   3.412   3.073
 3846SOL    HW212438   0.451   3.326   2.968
 3847SOL     OW12439   6.874   2.085   0.123
 3847SOL    HW112440   6.864   2.145   0.202
 3847SOL    HW212441   6.808   2.111   0.053
 3848SOL     OW12442   5.497   3.957   2.179
 3848SOL    HW112443   5.504   4.001   2.269
 3848SOL    HW212444   5.484   3.859   2.191
 3849SOL     OW12445   6.599   4.597   6.356
 3849SOL    HW112446   6.664   4.610   6.281
 3849SOL    HW212447   6.647   4.610   6.443
 3850SOL     OW12448   2.802   2.395   1.396
 3850SOL    HW112449   2.781   2.376   1.300
 3850SOL    HW212450   2.887   2.350   1.421
 3851SOL     OW12451   0.127   6.415   2.352
 3851SOL    HW112452   0.076   6.337   2.388
 3851SOL    HW212453   0.148   6.479   2.427
 3852SOL     OW12454   1.861   6.770   5.123
 3852SOL    HW112455   1.842   6.839   5.054
 3852SOL    HW212456   1.918   6.810   5.196
 3853SOL     OW12457   2.792   6.854   3.060
 3853SOL    HW112458   2.707   6.885   3.103
 3853SOL    HW212459   2.776   6.843   2.962
 3854SOL     OW12460   0.686   2.486   1.963
 3854SOL    HW112461   0.741   2.413   1.923
 3854SOL    HW212462   0.606   2.446   2.008
 3855SOL     OW12463   3.538   6.758   0.365
 3855SOL    HW112464   3.537   6.730   0.461
 3855SOL    HW212465   3.608   6.707   0.316
 3856SOL     OW12466   0.172   2.727   6.592
 3856SOL    HW112467   0.124   2.743   6.678
 3856SOL    HW212468   0.227   2.644   6.599
 3857SOL     OW12469   2.181   0.327   6.356
 3857SOL    HW112470   2.261   0.282   6.396
 3857SOL    HW212471   2.207   0.368   6.269
 3858SOL     OW12472   4.971   0.285   4.033
 3858SOL    HW112473   5.050   0.252   3.981
 3858SOL    HW212474   4.903   0.322   3.970
 3859SOL     OW12475   6.343   6.958   2.007
 3859SOL    HW112476   6.371   6.891   1.939
 3859SOL    HW212477   6.252   6.935   2.040
 3860SOL     OW12478   1.557   6.767   4.055
 3860SOL    HW112479   1.620   6.826   4.006
 3860SOL    HW212480   1.553   6.677   4.010
 3861SOL     OW12481   2.807   5.458   1.460
 3861SOL    HW112482   2.777   5.484   1.552
 3861SOL    HW212483   2.906   5.459   1.456
 3862SOL     OW12484   1.803   0.463   3.907
 3862SOL    HW112485   1.772   0.445   4.001
 3862SOL    HW212486   1.901   0.441   3.900
 3863SOL     OW12487   3.471   0.001   0.355
 3863SOL    HW112488   3.530   0.042   0.424
 3863SOL    HW212489   3.487   6.922   0.353
 3864SOL     OW12490   1.869   0.580   4.979
 3864SOL    HW112491   1.925   0.548   4.903
 3864SOL    HW212492   1.783   0.617   4.943
 3865SOL     OW12493   3.644   1.138   0.580
 3865SOL    HW112494   3.673   1.047   0.607
 3865SOL    HW212495   3.547   1.150   0.601
 3866SOL     OW12496   2.590   2.091   6.594
 3866SOL    HW112497   2.687   2.068   6.598
 3866SOL    HW212498   2.568   2.155   6.668
 3867SOL     OW12499   0.842   2.808   2.150
 3867SOL    HW112500   0.755   2.762   2.131
 3867SOL    HW212501   0.918   2.745   2.133
 3868SOL     OW12502   4.431   0.732   0.238
 3868SOL    HW112503   4.339   0.761   0.263
 3868SOL    HW212504   4.442   0.740   0.139
 3869SOL     OW12505   5.355   2.017   3.640
 3869SOL    HW112506   5.444   2.027   3.594
 3869SOL    HW212507   5.299   2.097   3.621
 3870SOL     OW12508   0.208   0.716   4.709
 3870SOL    HW112509   0.121   0.756   4.735
 3870SOL    HW212510   0.231   0.744   4.616
 3871SOL     OW12511   2.878   5.550   4.572
 3871SOL    HW112512   2.822   5.499   4.637
 3871SOL    HW212513   2.833   5.549   4.482
 3872SOL     OW12514   2.847   3.397   5.497
 3872SOL    HW112515   2.927   3.436   5.452
 3872SOL    HW212516   2.874   3.315   5.548
 3873SOL     OW12517   4.313   1.945   0.452
 3873SOL    HW112518   4.289   1.850   0.432
 3873SOL    HW212519   4.393   1.972   0.398
 3874SOL     OW12520   2.695   1.143   6.911
 3874SOL    HW112521   2.596   1.133   6.901
 3874SOL    HW212522   2.727   1.091   6.990
 3875SOL     OW12523   1.215   2.508   6.422
 3875SOL    HW112524   1.215   2.427   6.479
 3875SOL    HW212525   1.300   2.511   6.368
 3876SOL     OW12526   3.841   5.160   2.013
 3876SOL    HW112527   3.765   5.180   2.074
 3876SOL    HW212528   3.870   5.065   2.026
 3877SOL     OW12529   6.853   1.194   6.987
 3877SOL    HW112530   6.864   1.173   6.890
 3877SOL    HW212531   6.913   1.270   7.012
 3878SOL     OW12532   5.045   0.913   4.661
 3878SOL    HW112533   5.000   0.872   4.740
 3878SOL    HW212534   5.038   0.850   4.583
 3879SOL     OW12535   6.197   5.840   0.782
 3879SOL    HW112536   6.152   5.802   0.862
 3879SOL    HW212537   6.162   5.932   0.764
 3880SOL     OW12538   4.475   4.914   4.079
 3880SOL    HW112539   4.396   4.854   4.074
 3880SOL    HW212540   4.445   5.010   4.084
 3881SOL     OW12541   0.835   3.499   0.467
 3881SOL    HW112542   0.925   3.478   0.429
 3881SOL    HW212543   0.765   3.444   0.422
 3882SOL     OW12544   0.665   1.938   6.859
 3882SOL    HW112545   0.674   1.848   6.903
 3882SOL    HW212546   0.755   1.968   6.828
 3883SOL     OW12547   5.061   5.478   3.188
 3883SOL    HW112548   4.977   5.503   3.235
 3883SOL    HW212549   5.102   5.398   3.231
 3884SOL     OW12550   0.574   4.631   2.009
 3884SOL    HW112551   0.670   4.610   1.992
 3884SOL    HW212552   0.540   4.691   1.937
 3885SOL     OW12553   5.226   5.562   2.809
 3885SOL    HW112554   5.302   5.604   2.858
 3885SOL    HW212555   5.141   5.576   2.860
 3886SOL     OW12556   3.225   6.649   5.440
 3886SOL    HW112557   3.199   6.581   5.372
 3886SOL    HW212558   3.302   6.703   5.405
 3887SOL     OW12559   0.916   6.551   2.127
 3887SOL    HW112560   0.997   6.506   2.162
 3887SOL    HW212561   0.939   6.645   2.100
 3888SOL     OW12562   6.217   5.408   4.196
 3888SOL    HW112563   6.240   5.433   4.290
 3888SOL    HW212564   6.301   5.407   4.141
 3889SOL     OW12565   4.693   3.587   6.682
 3889SOL    HW112566   4.730   3.523   6.615
 3889SOL    HW212567   4.706   3.549   6.774
 3890SOL     OW12568   5.497   2.952   4.301
 3890SOL    HW112569   5.544   2.871   4.337
 3890SOL    HW212570   5.399   2.945   4.318
 3891SOL     OW12571   6.170   5.607   3.037
 3891SOL    HW112572   6.088   5.574   2.990
 3891SOL    HW212573   6.235   5.642   2.970
 3892SOL     OW12574   6.848   1.482   1.524
 3892SOL    HW112575   6.891   1.561   1.568
 3892SOL    HW212576   6.749   1.485   1.539
 3893SOL     OW12577   4.091   3.695   2.411
 3893SOL    HW112578   3.993   3.710   2.403
 3893SOL    HW212579   4.125   3.743   2.492
 3894SOL     OW12580   4.539   0.771   5.920
 3894SOL    HW112581   4.578   0.791   5.830
 3894SOL    HW212582   4.439   0.774   5.914
 3895SOL     OW12583   1.739   0.394   4.161
 3895SOL    HW112584   1.713   0.301   4.185
 3895SOL    HW212585   1.813   0.425   4.221
 3896SOL     OW12586   0.840   0.662   6.809
 3896SOL    HW112587   0.799   0.578   6.846
 3896SOL    HW212588   0.814   0.740   6.867
 3897SOL     OW12589   4.410   6.503   1.804
 3897SOL    HW112590   4.424   6.564   1.726
 3897SOL    HW212591   4.453   6.543   1.885
 3898SOL     OW12592   4.136   3.028   0.333
 3898SOL    HW112593   4.184   2.943   0.311
 3898SOL    HW212594   4.183   3.074   0.407
 3899SOL     OW12595   3.290   6.519   6.166
 3899SOL    HW112596   3.382   6.481   6.175
 3899SOL    HW212597   3.234   6.457   6.111
 3900SOL     OW12598   5.128   3.963   3.298
 3900SOL    HW112599   5.179   3.883   3.266
 3900SOL    HW212600   5.158   3.988   3.390
 3901SOL     OW12601   2.706   0.174   0.155
 3901SOL    HW112602   2.712   0.089   0.103
 3901SOL    HW212603   2.705   0.153   0.253
 3902SOL     OW12604   6.471   3.195   2.782
 3902SOL    HW112605   6.525   3.279   2.772
 3902SOL    HW212606   6.379   3.210   2.746
 3903SOL     OW12607   3.281   4.895   6.719
 3903SOL    HW112608   3.312   4.929   6.630
 3903SOL    HW212609   3.188   4.859   6.709
 3904SOL     OW12610   1.211   0.490   0.292
 3904SOL    HW112611   1.282   0.546   0.249
 3904SOL    HW212612   1.204   0.402   0.244
 3905SOL     OW12613   6.900   5.932   5.069
 3905SOL    HW112614   6.920   5.969   5.160
 3905SOL    HW212615   6.986   5.904   5.025
 3906SOL     OW12616   6.696   6.458   5.320
 3906SOL    HW112617   6.765   6.526   5.345
 3906SOL    HW212618   6.630   6.498   5.257
 3907SOL     OW12619   6.546   1.297   4.348
 3907SOL    HW112620   6.612   1.348   4.291
 3907SOL    HW212621   6.576   1.300   4.443
 3908SOL     OW12622   1.621   3.116   6.069
 3908SOL    HW112623   1.570   3.038   6.033
 3908SOL    HW212624   1.675   3.158   5.996
 3909SOL     OW12625   5.939   5.272   4.225
 3909SOL    HW112626   5.995   5.352   4.247
 3909SOL    HW212627   5.975   5.227   4.143
 3910SOL     OW12628   4.075   3.790   2.669
 3910SOL    HW112629   4.063   3.852   2.747
 3910SOL    HW212630   4.005   3.719   2.672
 3911SOL     OW12631   6.236   2.067   5.811
 3911SOL    HW112632   6.168   2.139   5.822
 3911SOL    HW212633   6.216   2.014   5.728
 3912SOL     OW12634   5.515   2.693   6.756
 3912SOL    HW112635   5.568   2.774   6.731
 3912SOL    HW212636   5.509   2.631   6.678
 3913SOL     OW12637   0.993   6.641   0.642
 3913SOL    HW112638   1.071   6.602   0.593
 3913SOL    HW212639   0.998   6.740   0.639
 3914SOL     OW12640   3.015   5.580   5.826
 3914SOL    HW112641   3.014   5.672   5.786
 3914SOL    HW212642   2.935   5.529   5.793
 3915SOL     OW12643   6.470   5.798   1.440
 3915SOL    HW112644   6.531   5.853   1.383
 3915SOL    HW212645   6.425   5.856   1.508
 3916SOL     OW12646   1.054   0.597   2.887
 3916SOL    HW112647   1.094   0.593   2.979
 3916SOL    HW212648   1.114   0.651   2.827
 3917SOL     OW12649   2.241   6.986   6.621
 3917SOL    HW112650   2.171   6.955   6.557
 3917SOL    HW212651   2.319   6.923   6.618
 3918SOL     OW12652   5.807   3.730   0.798
 3918SOL    HW112653   5.880   3.758   0.736
 3918SOL    HW212654   5.762   3.812   0.834
 3919SOL     OW12655   3.181   6.385   6.982
 3919SOL    HW112656   3.139   6.349   0.046
 3919SOL    HW212657   3.112   6.436   6.931
 3920SOL     OW12658   1.992   1.776   6.653
 3920SOL    HW112659   1.927   1.848   6.628
 3920SOL    HW212660   2.055   1.811   6.722
 3921SOL     OW12661   1.340   3.742   1.712
 3921SOL    HW112662   1.369   3.648   1.734
 3921SOL    HW212663   1.310   3.787   1.796
 3922SOL     OW12664   1.068   4.753   0.781
 3922SOL    HW112665   0.974   4.739   0.811
 3922SOL    HW212666   1.117   4.807   0.849
 3923SOL     OW12667   6.571   0.330   6.820
 3923SOL    HW112668   6.571   0.428   6.844
 3923SOL    HW212669   6.502   0.283   6.874
 3924SOL     OW12670   0.098   4.594   4.661
 3924SOL    HW112671   0.040   4.556   4.733
 3924SOL    HW212672   0.194   4.595   4.692
 3925SOL     OW12673   1.693   5.266   2.337
 3925SOL    HW112674   1.759   5.304   2.402
 3925SOL    HW212675   1.738   5.254   2.248
 3926SOL     OW12676   4.443   4.708   2.213
 3926SOL    HW112677   4.388   4.763   2.152
 3926SOL    HW212678   4.527   4.680   2.166
 3927SOL     OW12679   0.647   3.726   6.479
 3927SOL    HW112680   0.561   3.750   6.524
 3927SOL    HW212681   0.628   3.665   6.402
 3928SOL     OW12682   5.346   5.809   6.359
 3928SOL    HW112683   5.256   5.767   6.372
 3928SOL    HW212684   5.345   5.866   6.277
 3929SOL     OW12685   1.166   1.902   4.750
 3929SOL    HW112686   1.222   1.877   4.671
 3929SOL    HW212687   1.222   1.956   4.814
 3930SOL     OW12688   2.359   1.568   3.570
 3930SOL    HW112689   2.444   1.574   3.517
 3930SOL    HW212690   2.283   1.602   3.514
 3931SOL     OW12691   5.588   1.254   1.551
 3931SOL    HW112692   5.658   1.192   1.514
 3931SOL    HW212693   5.592   1.342   1.503
 3932SOL     OW12694   1.823   2.372   4.190
 3932SOL    HW112695   1.726   2.389   4.205
 3932SOL    HW212696   1.844   2.377   4.092
 3933SOL     OW12697   1.128   6.844   5.380
 3933SOL    HW112698   1.076   6.929   5.387
 3933SOL    HW212699   1.139   6.804   5.471
 3934SOL     OW12700   5.363   0.138   6.518
 3934SOL    HW112701   5.278   0.099   6.553
 3934SOL    HW212702   5.346   0.232   6.487
 3935SOL     OW12703   4.888   0.795   0.903
 3935SOL    HW112704   4.861   0.873   0.958
 3935SOL    HW212705   4.894   0.822   0.807
 3936SOL     OW12706   0.291   5.167   3.168
 3936SOL    HW112707   0.339   5.227   3.232
 3936SOL    HW212708   0.257   5.087   3.217
 3937SOL     OW12709   0.338   1.363   2.558
 3937SOL    HW112710   0.437   1.363   2.575
 3937SOL    HW212711   0.299   1.449   2.593
 3938SOL     OW12712   0.133   2.065   2.093
 3938SOL    HW112713   0.058   2.008   2.060
 3938SOL    HW212714   0.102   2.159   2.102
 3939SOL     OW12715   2.933   1.850   1.671
 3939SOL    HW112716   2.956   1.941   1.636
 3939SOL    HW212717   2.834   1.845   1.687
 3940SOL     OW12718   4.048   3.307   1.325
 3940SOL    HW112719   3.999   3.253   1.257
 3940SOL    HW212720   4.054   3.255   1.410
 3941SOL     OW12721   4.242   3.965   6.485
 3941SOL    HW112722   4.202   3.968   6.577
 3941SOL    HW212723   4.198   4.035   6.428
 3942SOL     OW12724   6.680   6.454   6.295
 3942SOL    HW112725   6.649   6.376   6.241
 3942SOL    HW212726   6.628   6.535   6.269
 3943SOL     OW12727   0.324   3.567   4.013
 3943SOL    HW112728   0.227   3.545   4.007
 3943SOL    HW212729   0.336   3.666   4.009
 3944SOL     OW12730   5.198   2.403   4.829
 3944SOL    HW112731   5.221   2.338   4.757
 3944SOL    HW212732   5.118   2.456   4.802
 3945SOL     OW12733   6.892   0.357   0.716
 3945SOL    HW112734   6.839   0.442   0.710
 3945SOL    HW212735   6.960   0.366   0.789
 3946SOL     OW12736   4.119   4.861   3.042
 3946SOL    HW112737   4.187   4.812   2.987
 3946SOL    HW212738   4.109   4.954   3.006
 3947SOL     OW12739   6.017   5.393   6.944
 3947SOL    HW112740   6.037   5.358   6.852
 3947SOL    HW212741   5.948   5.336   6.988
 3948SOL     OW12742   6.239   4.621   0.849
 3948SOL    HW112743   6.279   4.620   0.941
 3948SOL    HW212744   6.166   4.553   0.844
 3949SOL     OW12745   5.022   6.455   3.252
 3949SOL    HW112746   5.061   6.511   3.326
 3949SOL    HW212747   4.963   6.385   3.291
 3950SOL     OW12748   1.350   5.729   0.436
 3950SOL    HW112749   1.366   5.801   0.369
 3950SOL    HW212750   1.255   5.700   0.432
 3951SOL     OW12751   5.714   0.286   2.224
 3951SOL    HW112752   5.713   0.369   2.279
 3951SOL    HW212753   5.736   0.208   2.283
 3952SOL     OW12754   6.498   2.207   0.367
 3952SOL    HW112755   6.507   2.123   0.313
 3952SOL    HW212756   6.404   2.214   0.401
 3953SOL     OW12757   3.551   4.095   2.883
 3953SOL    HW112758   3.462   4.120   2.920
 3953SOL    HW212759   3.549   4.103   2.783
 3954SOL     OW12760   3.884   4.738   5.680
 3954SOL    HW112761   3.932   4.673   5.622
 3954SOL    HW212762   3.944   4.816   5.698
 3955SOL     OW12763   3.966   0.948   5.151
 3955SOL    HW112764   3.992   0.923   5.058
 3955SOL    HW212765   3.918   0.871   5.194
 3956SOL     OW12766   1.820   1.064   1.551
 3956SOL    HW112767   1.835   1.091   1.646
 3956SOL    HW212768   1.843   1.140   1.491
 3957SOL     OW12769   3.353   0.787   4.654
 3957SOL    HW112770   3.273   0.847   4.658
 3957SOL    HW212771   3.325   0.693   4.672
 3958SOL     OW12772   5.491   0.964   5.373
 3958SOL    HW112773   5.587   0.983   5.396
 3958SOL    HW212774   5.481   0.867   5.352
 3959SOL     OW12775   4.615   4.950   0.732
 3959SOL    HW112776   4.548   4.993   0.792
 3959SOL    HW212777   4.569   4.880   0.677
 3960SOL     OW12778   5.246   2.355   4.267
 3960SOL    HW112779   5.255   2.448   4.302
 3960SOL    HW212780   5.333   2.307   4.278
 3961SOL     OW12781   5.608   6.252   3.783
 3961SOL    HW112782   5.705   6.230   3.770
 3961SOL    HW212783   5.553   6.192   3.725
 3962SOL     OW12784   6.996   5.224   5.263
 3962SOL    HW112785   6.951   5.196   5.179
 3962SOL    HW212786   0.066   5.180   5.270
 3963SOL     OW12787   4.670   6.934   1.993
 3963SOL    HW112788   4.650   6.977   1.905
 3963SOL    HW212789   4.693   7.005   2.060
 3964SOL     OW12790   5.504   3.409   3.502
 3964SOL    HW112791   5.540   3.317   3.514
 3964SOL    HW212792   5.422   3.407   3.446
 3965SOL     OW12793   5.017   3.908   4.577
 3965SOL    HW112794   5.012   3.827   4.635
 3965SOL    HW212795   4.936   3.965   4.593
 3966SOL     OW12796   2.567   5.856   6.275
 3966SOL    HW112797   2.531   5.891   6.361
 3966SOL    HW212798   2.655   5.813   6.291
 3967SOL     OW12799   2.119   4.801   2.914
 3967SOL    HW112800   2.198   4.829   2.860
 3967SOL    HW212801   2.076   4.882   2.953
 3968SOL     OW12802   4.038   0.011   0.628
 3968SOL    HW112803   4.100   0.034   0.553
 3968SOL    HW212804   3.956   0.068   0.622
 3969SOL     OW12805   1.327   5.391   2.106
 3969SOL    HW112806   1.395   5.319   2.113
 3969SOL    HW212807   1.235   5.350   2.104
 3970SOL     OW12808   5.434   6.162   2.471
 3970SOL    HW112809   5.467   6.129   2.383
 3970SOL    HW212810   5.369   6.237   2.456
 3971SOL     OW12811   2.609   5.519   3.977
 3971SOL    HW112812   2.626   5.606   3.932
 3971SOL    HW212813   2.520   5.483   3.950
 3972SOL     OW12814   2.006   3.907   0.027
 3972SOL    HW112815   1.939   3.980   0.013
 3972SOL    HW212816   2.095   3.947   0.045
 3973SOL     OW12817   1.087   5.346   0.316
 3973SOL    HW112818   1.017   5.415   0.332
 3973SOL    HW212819   1.139   5.331   0.400
 3974SOL     OW12820   2.055   1.052   5.082
 3974SOL    HW112821   2.097   1.064   5.172
 3974SOL    HW212822   2.092   1.120   5.019
 3975SOL     OW12823   5.663   2.281   6.392
 3975SOL    HW112824   5.754   2.267   6.354
 3975SOL    HW212825   5.622   2.192   6.414
 3976SOL     OW12826   2.047   5.524   2.263
 3976SOL    HW112827   2.095   5.596   2.314
 3976SOL    HW212828   2.107   5.445   2.253
 3977SOL     OW12829   0.681   3.526   6.732
 3977SOL    HW112830   0.696   3.569   6.643
 3977SOL    HW212831   0.681   3.597   6.803
 3978SOL     OW12832   6.593   4.329   3.568
 3978SOL    HW112833   6.500   4.301   3.590
 3978SOL    HW212834   6.641   4.355   3.651
 3979SOL     OW12835   3.730   0.425   6.366
 3979SOL    HW112836   3.635   0.394   6.362
 3979SOL    HW212837   3.743   0.482   6.447
 3980SOL     OW12838   6.204   6.433   5.705
 3980SOL    HW112839   6.224   6.335   5.710
 3980SOL    HW212840   6.240   6.469   5.618
 3981SOL     OW12841   4.679   6.820   0.363
 3981SOL    HW112842   4.610   6.751   0.382
 3981SOL    HW212843   4.760   6.803   0.419
 3982SOL     OW12844   3.035   5.974   2.358
 3982SOL    HW112845   2.938   5.995   2.374
 3982SOL    HW212846   3.087   5.995   2.440
 3983SOL     OW12847   3.559   5.908   3.415
 3983SOL    HW112848   3.626   5.934   3.346
 3983SOL    HW212849   3.598   5.923   3.506
 3984SOL     OW12850   6.701   2.647   2.987
 3984SOL    HW112851   6.668   2.695   3.068
 3984SOL    HW212852   6.625   2.628   2.925
 3985SOL     OW12853   4.071   5.611   6.620
 3985SOL    HW112854   4.084   5.698   6.573
 3985SOL    HW212855   4.119   5.539   6.569
 3986SOL     OW12856   5.066   0.615   1.653
 3986SOL    HW112857   5.162   0.633   1.631
 3986SOL    HW212858   5.058   0.526   1.698
 3987SOL     OW12859   3.293   5.139   5.165
 3987SOL    HW112860   3.390   5.150   5.142
 3987SOL    HW212861   3.236   5.184   5.097
 3988SOL     OW12862   4.226   5.270   0.508
 3988SOL    HW112863   4.312   5.270   0.559
 3988SOL    HW212864   4.231   5.338   0.435
 3989SOL     OW12865   6.224   2.108   0.130
 3989SOL    HW112866   6.205   2.015   0.100
 3989SOL    HW212867   6.140   2.152   0.161
 3990SOL     OW12868   6.036   2.143   2.549
 3990SOL    HW112869   6.027   2.243   2.551
 3990SOL    HW212870   6.080   2.115   2.464
 3991SOL     OW12871   6.906   0.631   3.311
 3991SOL    HW112872   6.932   0.703   3.246
 3991SOL    HW212873   6.812   0.602   3.292
 3992SOL     OW12874   3.294   2.260   1.021
 3992SOL    HW112875   3.322   2.199   1.095
 3992SOL    HW212876   3.257   2.207   0.945
 3993SOL     OW12877   1.294   3.071   1.613
 3993SOL    HW112878   1.389   3.103   1.620
 3993SOL    HW212879   1.232   3.147   1.627
 3994SOL     OW12880   2.602   6.431   4.781
 3994SOL    HW112881   2.605   6.435   4.681
 3994SOL    HW212882   2.618   6.337   4.811
 3995SOL     OW12883   1.686   2.791   5.403
 3995SOL    HW112884   1.661   2.786   5.500
 3995SOL    HW212885   1.727   2.705   5.374
 3996SOL     OW12886   0.278   6.047   4.927
 3996SOL    HW112887   0.205   6.095   4.877
 3996SOL    HW212888   0.359   6.041   4.869
 3997SOL     OW12889   5.430   0.109   4.692
 3997SOL    HW112890   5.471   0.182   4.637
 3997SOL    HW212891   5.479   0.023   4.676
 3998SOL     OW12892   4.256   2.338   3.770
 3998SOL    HW112893   4.205   2.315   3.853
 3998SOL    HW212894   4.210   2.298   3.691
 3999SOL     OW12895   5.341   2.187   4.658
 3999SOL    HW112896   5.402   2.148   4.727
 3999SOL    HW212897   5.336   2.125   4.580
 4000SOL     OW12898   3.899   0.052   3.753
 4000SOL    HW112899   3.956   0.135   3.754
 4000SOL    HW212900   3.803   0.078   3.750
 4001SOL     OW12901   1.042   2.438   3.452
 4001SOL    HW112902   1.071   2.483   3.536
 4001SOL    HW212903   1.092   2.351   3.442
 4002SOL     OW12904   2.116   3.682   1.937
 4002SOL    HW112905   2.061   3.672   1.854
 4002SOL    HW212906   2.170   3.598   1.952
 4003SOL     OW12907   3.374   1.290   4.751
 4003SOL    HW112908   3.292   1.256   4.797
 4003SOL    HW212909   3.417   1.360   4.808
 4004SOL     OW12910   6.977   1.848   5.416
 4004SOL    HW112911   7.009   1.754   5.411
 4004SOL    HW212912   6.881   1.850   5.445
 4005SOL     OW12913   5.647   5.335   5.594
 4005SOL    HW112914   5.700   5.352   5.677
 4005SOL    HW212915   5.565   5.282   5.618
 4006SOL     OW12916   3.626   6.421   2.609
 4006SOL    HW112917   3.699   6.435   2.676
 4006SOL    HW212918   3.665   6.396   2.521
 4007SOL     OW12919   6.752   1.908   6.438
 4007SOL    HW112920   6.850   1.903   6.451
 4007SOL    HW212921   6.728   1.997   6.399
 4008SOL     OW12922   2.563   2.202   5.278
 4008SOL    HW112923   2.619   2.275   5.239
 4008SOL    HW212924   2.538   2.226   5.372
 4009SOL     OW12925   3.812   2.952   2.797
 4009SOL    HW112926   3.744   2.910   2.738
 4009SOL    HW212927   3.885   2.993   2.741
 4010SOL     OW12928   2.140   2.952   6.396
 4010SOL    HW112929   2.104   3.045   6.406
 4010SOL    HW212930   2.065   2.887   6.390
 4011SOL     OW12931   0.561   2.599   1.247
 4011SOL    HW112932   0.595   2.598   1.341
 4011SOL    HW212933   0.577   2.688   1.206
 4012SOL     OW12934   6.707   3.046   3.686
 4012SOL    HW112935   6.617   3.007   3.665
 4012SOL    HW212936   6.702   3.095   3.773
 4013SOL     OW12937   4.452   2.455   3.336
 4013SOL    HW112938   4.403   2.472   3.421
 4013SOL    HW212939   4.520   2.527   3.321
 4014SOL     OW12940   5.420   5.648   2.431
 4014SOL    HW112941   5.444   5.559   2.470
 4014SOL    HW212942   5.379   5.634   2.340
 4015SOL     OW12943   4.289   3.335   0.037
 4015SOL    HW112944   4.288   3.242   0.075
 4015SOL    HW212945   4.345   3.336   6.973
 4016SOL     OW12946   3.234   6.658   4.774
 4016SOL    HW112947   3.203   6.752   4.758
 4016SOL    HW212948   3.256   6.615   4.687
 4017SOL     OW12949   6.827   6.309   6.864
 4017SOL    HW112950   6.803   6.373   6.937
 4017SOL    HW212951   6.813   6.215   6.896
 4018SOL     OW12952   2.771   6.353   0.303
 4018SOL    HW112953   2.851   6.325   0.250
 4018SOL    HW212954   2.688   6.330   0.252
 4019SOL     OW12955   5.297   5.301   3.241
 4019SOL    HW112956   5.361   5.364   3.195
 4019SOL    HW212957   5.291   5.325   3.338
 4020SOL     OW12958   5.427   2.386   4.988
 4020SOL    HW112959   5.347   2.397   4.928
 4020SOL    HW212960   5.405   2.419   5.079
 4021SOL     OW12961   4.104   4.699   6.812
 4021SOL    HW112962   4.058   4.782   6.781
 4021SOL    HW212963   4.181   4.680   6.751
 4022SOL     OW12964   5.280   0.487   1.126
 4022SOL    HW112965   5.284   0.402   1.073
 4022SOL    HW212966   5.226   0.472   1.209
 4023SOL     OW12967   6.717   0.232   5.605
 4023SOL    HW112968   6.756   0.284   5.681
 4023SOL    HW212969   6.788   0.176   5.563
 4024SOL     OW12970   4.153   4.782   4.339
 4024SOL    HW112971   4.138   4.765   4.436
 4024SOL    HW212972   4.180   4.877   4.325
 4025SOL     OW12973   1.629   3.922   2.703
 4025SOL    HW112974   1.697   3.957   2.639
 4025SOL    HW212975   1.675   3.880   2.781
 4026SOL     OW12976   5.161   0.132   4.730
 4026SOL    HW112977   5.143   0.142   4.828
 4026SOL    HW212978   5.258   0.109   4.717
 4027SOL     OW12979   4.403   5.494   1.586
 4027SOL    HW112980   4.342   5.486   1.507
 4027SOL    HW212981   4.398   5.587   1.623
 4028SOL     OW12982   2.481   6.534   3.994
 4028SOL    HW112983   2.531   6.607   3.947
 4028SOL    HW212984   2.387   6.563   4.011
 4029SOL     OW12985   2.043   3.945   3.833
 4029SOL    HW112986   2.013   3.895   3.915
 4029SOL    HW212987   1.994   4.032   3.827
 4030SOL     OW12988   1.260   1.609   6.245
 4030SOL    HW112989   1.264   1.578   6.150
 4030SOL    HW212990   1.305   1.542   6.304
 4031SOL     OW12991   5.280   5.813   4.005
 4031SOL    HW112992   5.226   5.774   3.930
 4031SOL    HW212993   5.274   5.912   4.003
 4032SOL     OW12994   4.820   6.924   4.840
 4032SOL    HW112995   4.867   6.933   4.928
 4032SOL    HW212996   4.794   7.015   4.807
 4033SOL     OW12997   3.126   3.927   5.603
 4033SOL    HW112998   3.060   3.888   5.667
 4033SOL    HW212999   3.171   4.005   5.646
 4034SOL     OW13000   6.419   2.626   4.091
 4034SOL    HW113001   6.421   2.701   4.025
 4034SOL    HW213002   6.373   2.547   4.050
 4035SOL     OW13003   0.596   5.365   0.964
 4035SOL    HW113004   0.577   5.423   0.884
 4035SOL    HW213005   0.626   5.275   0.933
 4036SOL     OW13006   6.339   6.115   2.805
 4036SOL    HW113007   6.283   6.198   2.806
 4036SOL    HW213008   6.309   6.056   2.730
 4037SOL     OW13009   6.410   4.153   6.003
 4037SOL    HW113010   6.385   4.159   5.906
 4037SOL    HW213011   6.446   4.062   6.023
 4038SOL     OW13012   6.497   5.276   3.422
 4038SOL    HW113013   6.482   5.374   3.407
 4038SOL    HW213014   6.409   5.232   3.441
 4039SOL     OW13015   4.319   5.967   0.971
 4039SOL    HW113016   4.345   6.058   1.003
 4039SOL    HW213017   4.255   5.926   1.036
 4040SOL     OW13018   3.619   6.373   0.403
 4040SOL    HW113019   3.571   6.390   0.489
 4040SOL    HW213020   3.707   6.330   0.423
 4041SOL     OW13021   1.361   0.025   3.767
 4041SOL    HW113022   1.356   6.970   3.833
 4041SOL    HW213023   1.363   0.112   3.816
 4042SOL     OW13024   6.081   5.394   1.919
 4042SOL    HW113025   6.179   5.408   1.902
 4042SOL    HW213026   6.049   5.317   1.864
 4043SOL     OW13027   6.197   4.024   1.973
 4043SOL    HW113028   6.173   4.104   1.919
 4043SOL    HW213029   6.144   4.024   2.058
 4044SOL     OW13030   6.740   5.335   2.610
 4044SOL    HW113031   6.736   5.338   2.710
 4044SOL    HW213032   6.744   5.428   2.575
 4045SOL     OW13033   2.206   4.631   6.016
 4045SOL    HW113034   2.202   4.623   6.115
 4045SOL    HW213035   2.244   4.720   5.991
 4046SOL     OW13036   0.075   2.735   0.934
 4046SOL    HW113037   0.156   2.727   0.992
 4046SOL    HW213038   0.080   2.818   0.880
 4047SOL     OW13039   3.267   4.048   1.890
 4047SOL    HW113040   3.194   4.017   1.951
 4047SOL    HW213041   3.322   3.970   1.860
 4048SOL     OW13042   4.635   2.434   1.295
 4048SOL    HW113043   4.672   2.346   1.327
 4048SOL    HW213044   4.704   2.481   1.241
 4049SOL     OW13045   6.920   0.781   5.596
 4049SOL    HW113046   6.968   0.776   5.684
 4049SOL    HW213047   6.883   0.873   5.584
 4050SOL     OW13048   2.459   0.433   1.498
 4050SOL    HW113049   2.476   0.341   1.464
 4050SOL    HW213050   2.399   0.429   1.578
 4051SOL     OW13051   1.590   4.368   0.812
 4051SOL    HW113052   1.669   4.430   0.807
 4051SOL    HW213053   1.506   4.423   0.817
 4052SOL     OW13054   1.471   5.911   1.498
 4052SOL    HW113055   1.570   5.903   1.511
 4052SOL    HW213056   1.442   6.005   1.517
 4053SOL     OW13057   2.834   4.887   3.356
 4053SOL    HW113058   2.807   4.817   3.289
 4053SOL    HW213059   2.897   4.847   3.423
 4054SOL     OW13060   5.412   1.744   6.913
 4054SOL    HW113061   5.384   1.837   6.893
 4054SOL    HW213062   5.452   1.702   6.831
 4055SOL     OW13063   4.208   3.053   0.814
 4055SOL    HW113064   4.168   2.972   0.771
 4055SOL    HW213065   4.193   3.049   0.913
 4056SOL     OW13066   3.716   2.910   0.887
 4056SOL    HW113067   3.696   2.813   0.894
 4056SOL    HW213068   3.710   2.952   0.978
 4057SOL     OW13069   6.443   1.934   0.740
 4057SOL    HW113070   6.513   1.999   0.713
 4057SOL    HW213071   6.418   1.949   0.836
 4058SOL     OW13072   1.144   1.586   4.756
 4058SOL    HW113073   1.202   1.550   4.830
 4058SOL    HW213074   1.202   1.619   4.682
 4059SOL     OW13075   6.067   1.941   5.349
 4059SOL    HW113076   6.156   1.899   5.336
 4059SOL    HW213077   6.076   2.020   5.410
 4060SOL     OW13078   3.692   6.202   5.130
 4060SOL    HW113079   3.675   6.108   5.101
 4060SOL    HW213080   3.657   6.264   5.060
 4061SOL     OW13081   2.687   3.059   1.368
 4061SOL    HW113082   2.632   3.062   1.285
 4061SOL    HW213083   2.783   3.046   1.343
 4062SOL     OW13084   3.990   6.409   2.657
 4062SOL    HW113085   3.995   6.451   2.566
 4062SOL    HW213086   3.929   6.463   2.715
 4063SOL     OW13087   2.561   4.840   6.308
 4063SOL    HW113088   2.590   4.883   6.222
 4063SOL    HW213089   2.640   4.835   6.370
 4064SOL     OW13090   5.882   6.747   4.219
 4064SOL    HW113091   5.876   6.672   4.153
 4064SOL    HW213092   5.922   6.827   4.175
 4065SOL     OW13093   6.676   4.756   0.200
 4065SOL    HW113094   6.696   4.673   0.252
 4065SOL    HW213095   6.746   4.825   0.219
 4066SOL     OW13096   6.275   5.336   1.267
 4066SOL    HW113097   6.226   5.269   1.212
 4066SOL    HW213098   6.372   5.311   1.270
 4067SOL     OW13099   5.789   1.091   1.462
 4067SOL    HW113100   5.816   1.035   1.383
 4067SOL    HW213101   5.865   1.096   1.527
 4068SOL     OW13102   6.127   1.335   4.994
 4068SOL    HW113103   6.079   1.251   4.970
 4068SOL    HW213104   6.120   1.400   4.919
 4069SOL     OW13105   6.947   6.093   0.817
 4069SOL    HW113106   6.978   6.174   0.867
 4069SOL    HW213107   6.998   6.013   0.849
 4070SOL     OW13108   6.858   3.587   2.995
 4070SOL    HW113109   6.791   3.662   2.995
 4070SOL    HW213110   6.943   3.619   2.955
 4071SOL     OW13111   2.228   0.641   3.691
 4071SOL    HW113112   2.132   0.618   3.677
 4071SOL    HW213113   2.252   0.628   3.787
 4072SOL     OW13114   0.899   0.177   3.949
 4072SOL    HW113115   0.869   0.148   3.859
 4072SOL    HW213116   0.825   0.229   3.994
 4073SOL     OW13117   2.846   4.829   1.397
 4073SOL    HW113118   2.841   4.740   1.440
 4073SOL    HW213119   2.837   4.901   1.466
 4074SOL     OW13120   0.410   2.983   0.766
 4074SOL    HW113121   0.453   2.998   0.855
 4074SOL    HW213122   0.386   2.887   0.756
 4075SOL     OW13123   5.151   0.052   3.593
 4075SOL    HW113124   5.161   0.086   3.686
 4075SOL    HW213125   5.120   0.126   3.534
 4076SOL     OW13126   1.859   2.370   2.954
 4076SOL    HW113127   1.864   2.286   2.901
 4076SOL    HW213128   1.847   2.348   3.051
 4077SOL     OW13129   3.306   0.955   0.849
 4077SOL    HW113130   3.311   0.977   0.946
 4077SOL    HW213131   3.335   0.861   0.834
 4078SOL     OW13132   4.891   4.004   2.891
 4078SOL    HW113133   4.985   4.021   2.918
 4078SOL    HW213134   4.877   4.034   2.797
 4079SOL     OW13135   6.121   0.515   4.463
 4079SOL    HW113136   6.179   0.442   4.500
 4079SOL    HW213137   6.117   0.506   4.363
 4080SOL     OW13138   3.495   2.878   3.079
 4080SOL    HW113139   3.466   2.794   3.033
 4080SOL    HW213140   3.580   2.911   3.038
 4081SOL     OW13141   2.552   2.453   6.526
 4081SOL    HW113142   2.471   2.504   6.557
 4081SOL    HW213143   2.579   2.387   6.596
 4082SOL     OW13144   1.146   2.343   5.747
 4082SOL    HW113145   1.149   2.442   5.763
 4082SOL    HW213146   1.106   2.324   5.658
 4083SOL     OW13147   6.158   5.185   2.873
 4083SOL    HW113148   6.072   5.134   2.873
 4083SOL    HW213149   6.160   5.247   2.795
 4084SOL     OW13150   4.746   0.528   2.545
 4084SOL    HW113151   4.820   0.539   2.478
 4084SOL    HW213152   4.751   0.602   2.612
 4085SOL     OW13153   2.702   4.686   2.622
 4085SOL    HW113154   2.675   4.645   2.709
 4085SOL    HW213155   2.620   4.706   2.568
 4086SOL     OW13156   5.980   4.770   4.709
 4086SOL    HW113157   5.895   4.779   4.657
 4086SOL    HW213158   5.978   4.684   4.760
 4087SOL     OW13159   1.931   0.936   1.993
 4087SOL    HW113160   1.840   0.901   2.015
 4087SOL    HW213161   1.991   0.859   1.968
 4088SOL     OW13162   0.546   1.906   5.939
 4088SOL    HW113163   0.637   1.909   5.978
 4088SOL    HW213164   0.541   1.966   5.859
 4089SOL     OW13165   0.943   0.810   2.180
 4089SOL    HW113166   1.007   0.766   2.117
 4089SOL    HW213167   0.938   0.907   2.159
 4090SOL     OW13168   2.492   2.652   5.805
 4090SOL    HW113169   2.411   2.615   5.851
 4090SOL    HW213170   2.483   2.640   5.706
 4091SOL     OW13171   3.155   5.889   1.969
 4091SOL    HW113172   3.184   5.980   1.996
 4091SOL    HW213173   3.223   5.848   1.909
 4092SOL     OW13174   5.316   2.017   6.118
 4092SOL    HW113175   5.372   1.951   6.068
 4092SOL    HW213176   5.220   1.991   6.112
 4093SOL     OW13177   5.357   4.135   3.290
 4093SOL    HW113178   5.376   4.201   3.218
 4093SOL    HW213179   5.278   4.079   3.265
 4094SOL     OW13180   0.033   6.440   0.044
 4094SOL    HW113181   7.003   6.483   0.120
 4094SOL    HW213182   7.003   6.456   6.979
 4095SOL     OW13183   1.508   4.851   0.459
 4095SOL    HW113184   1.505   4.818   0.554
 4095SOL    HW213185   1.433   4.809   0.407
 4096SOL     OW13186   0.836   0.412   6.460
 4096SOL    HW113187   0.894   0.403   6.541
 4096SOL    HW213188   0.845   0.331   6.403
 4097SOL     OW13189   0.458   3.554   4.676
 4097SOL    HW113190   0.557   3.556   4.669
 4097SOL    HW213191   0.432   3.517   4.765
 4098SOL     OW13192   1.150   5.829   1.496
 4098SOL    HW113193   1.084   5.791   1.561
 4098SOL    HW213194   1.156   5.928   1.509
 4099SOL     OW13195   6.482   3.313   5.679
 4099SOL    HW113196   6.412   3.255   5.637
 4099SOL    HW213197   6.568   3.263   5.682
 4100SOL     OW13198   2.157   1.636   2.837
 4100SOL    HW113199   2.117   1.719   2.877
 4100SOL    HW213200   2.257   1.638   2.849
 4101SOL     OW13201   6.596   6.154   6.555
 4101SOL    HW113202   6.601   6.088   6.630
 4101SOL    HW213203   6.619   6.108   6.469
 4102SOL     OW13204   1.239   5.702   0.096
 4102SOL    HW113205   1.334   5.733   0.097
 4102SOL    HW213206   1.223   5.646   0.015
 4103SOL     OW13207   2.295   6.103   3.032
 4103SOL    HW113208   2.278   6.116   2.934
 4103SOL    HW213209   2.348   6.020   3.046
 4104SOL     OW13210   1.896   6.159   5.273
 4104SOL    HW113211   1.837   6.096   5.324
 4104SOL    HW213212   1.840   6.224   5.222
 4105SOL     OW13213   4.302   0.484   2.518
 4105SOL    HW113214   4.347   0.435   2.592
 4105SOL    HW213215   4.368   0.541   2.470
 4106SOL     OW13216   1.448   0.006   1.967
 4106SOL    HW113217   1.409   0.090   2.006
 4106SOL    HW213218   1.381   6.983   1.907
 4107SOL     OW13219   1.403   0.813   0.863
 4107SOL    HW113220   1.446   0.741   0.917
 4107SOL    HW213221   1.436   0.902   0.893
 4108SOL     OW13222   6.360   5.879   5.761
 4108SOL    HW113223   6.303   5.806   5.798
 4108SOL    HW213224   6.456   5.852   5.765
 4109SOL     OW13225   5.316   6.209   4.526
 4109SOL    HW113226   5.325   6.124   4.578
 4109SOL    HW213227   5.394   6.269   4.545
 4110SOL     OW13228   4.867   2.853   0.413
 4110SOL    HW113229   4.833   2.881   0.323
 4110SOL    HW213230   4.821   2.905   0.484
 4111SOL     OW13231   5.923   4.885   4.166
 4111SOL    HW113232   5.867   4.815   4.122
 4111SOL    HW213233   5.972   4.937   4.097
 4112SOL     OW13234   4.596   6.086   4.202
 4112SOL    HW113235   4.619   6.129   4.115
 4112SOL    HW213236   4.497   6.074   4.209
 4113SOL     OW13237   4.332   5.466   4.787
 4113SOL    HW113238   4.422   5.428   4.811
 4113SOL    HW213239   4.340   5.565   4.775
 4114SOL     OW13240   0.306   1.073   1.643
 4114SOL    HW113241   0.342   1.070   1.550
 4114SOL    HW213242   0.381   1.067   1.709
 4115SOL     OW13243   4.453   5.898   3.565
 4115SOL    HW113244   4.379   5.965   3.571
 4115SOL    HW213245   4.433   5.821   3.626
 4116SOL     OW13246   5.510   3.120   3.746
 4116SOL    HW113247   5.466   3.106   3.835
 4116SOL    HW213248   5.557   3.208   3.746
 4117SOL     OW13249   0.754   1.045   3.412
 4117SOL    HW113250   0.827   1.103   3.448
 4117SOL    HW213251   0.686   1.029   3.484
 4118SOL     OW13252   1.504   6.730   0.936
 4118SOL    HW113253   1.475   6.756   0.844
 4118SOL    HW213254   1.519   6.631   0.939
 4119SOL     OW13255   6.671   0.543   4.380
 4119SOL    HW113256   6.654   0.505   4.289
 4119SOL    HW213257   6.594   0.520   4.440
 4120SOL     OW13258   2.569   0.796   6.275
 4120SOL    HW113259   2.666   0.775   6.264
 4120SOL    HW213260   2.529   0.736   6.343
 4121SOL     OW13261   6.549   0.831   2.278
 4121SOL    HW113262   6.582   0.746   2.236
 4121SOL    HW213263   6.450   0.836   2.270
 4122SOL     OW13264   0.943   5.216   3.382
 4122SOL    HW113265   1.023   5.207   3.323
 4122SOL    HW213266   0.936   5.136   3.441
 4123SOL     OW13267   5.108   4.039   1.111
 4123SOL    HW113268   5.163   4.121   1.092
 4123SOL    HW213269   5.168   3.964   1.137
 4124SOL     OW13270   6.482   6.479   0.062
 4124SOL    HW113271   6.419   6.493   7.005
 4124SOL    HW213272   6.505   6.382   0.069
 4125SOL     OW13273   6.882   2.634   0.208
 4125SOL    HW113274   6.808   2.567   0.208
 4125SOL    HW213275   6.845   2.726   0.195
 4126SOL     OW13276   1.111   3.802   3.993
 4126SOL    HW113277   1.189   3.862   4.009
 4126SOL    HW213278   1.110   3.773   3.897
 4127SOL     OW13279   5.341   2.527   4.044
 4127SOL    HW113280   5.278   2.464   4.089
 4127SOL    HW213281   5.305   2.620   4.049
 4128SOL     OW13282   6.866   2.521   6.574
 4128SOL    HW113283   6.951   2.573   6.574
 4128SOL    HW213284   6.837   2.504   6.668
 4129SOL     OW13285   2.893   1.416   1.052
 4129SOL    HW113286   2.917   1.513   1.063
 4129SOL    HW213287   2.977   1.363   1.037
 4130SOL     OW13288   6.254   2.515   0.336
 4130SOL    HW113289   6.213   2.577   0.404
 4130SOL    HW213290   6.268   2.425   0.378
 4131SOL     OW13291   4.485   6.514   3.057
 4131SOL    HW113292   4.522   6.432   3.101
 4131SOL    HW213293   4.512   6.595   3.110
 4132SOL     OW13294   6.562   4.608   3.226
 4132SOL    HW113295   6.557   4.671   3.148
 4132SOL    HW213296   6.527   4.518   3.199
 4133SOL     OW13297   5.633   6.467   2.618
 4133SOL    HW113298   5.564   6.538   2.627
 4133SOL    HW213299   5.625   6.423   2.529
 4134SOL     OW13300   1.685   3.351   1.296
 4134SOL    HW113301   1.587   3.348   1.277
 4134SOL    HW213302   1.715   3.446   1.298
 4135SOL     OW13303   6.055   0.990   1.091
 4135SOL    HW113304   6.089   0.919   1.153
 4135SOL    HW213305   5.975   1.034   1.131
 4136SOL     OW13306   0.287   4.493   0.959
 4136SOL    HW113307   0.214   4.476   1.025
 4136SOL    HW213308   0.325   4.405   0.928
 4137SOL     OW13309   0.445   2.998   6.349
 4137SOL    HW113310   0.494   2.911   6.360
 4137SOL    HW213311   0.481   3.065   6.414
 4138SOL     OW13312   4.380   6.780   6.539
 4138SOL    HW113313   4.468   6.823   6.559
 4138SOL    HW213314   4.350   6.806   6.448
 4139SOL     OW13315   2.057   4.292   2.674
 4139SOL    HW113316   2.156   4.296   2.683
 4139SOL    HW213317   2.018   4.249   2.756
 4140SOL     OW13318   2.392   0.146   6.466
 4140SOL    HW113319   2.340   0.097   6.536
 4140SOL    HW213320   2.392   0.092   6.381
 4141SOL     OW13321   5.128   1.643   5.873
 4141SOL    HW113322   5.038   1.624   5.832
 4141SOL    HW213323   5.141   1.583   5.952
 4142SOL     OW13324   6.250   5.177   1.539
 4142SOL    HW113325   6.161   5.152   1.501
 4142SOL    HW213326   6.322   5.151   1.475
 4143SOL     OW13327   6.142   3.834   6.580
 4143SOL    HW113328   6.111   3.816   6.673
 4143SOL    HW213329   6.224   3.781   6.562
 4144SOL     OW13330   4.205   1.087   1.465
 4144SOL    HW113331   4.293   1.131   1.450
 4144SOL    HW213332   4.135   1.157   1.483
 4145SOL     OW13333   6.057   0.165   1.418
 4145SOL    HW113334   6.080   0.159   1.515
 4145SOL    HW213335   6.096   0.086   1.370
 4146SOL     OW13336   4.675   6.936   1.375
 4146SOL    HW113337   4.618   6.871   1.325
 4146SOL    HW213338   4.686   6.904   1.469
 4147SOL     OW13339   4.851   4.948   6.937
 4147SOL    HW113340   4.833   4.911   6.846
 4147SOL    HW213341   4.803   5.035   6.948
 4148SOL     OW13342   2.807   1.451   5.920
 4148SOL    HW113343   2.716   1.458   5.878
 4148SOL    HW213344   2.799   1.402   6.007
 4149SOL     OW13345   1.345   3.716   6.625
 4149SOL    HW113346   1.327   3.762   6.712
 4149SOL    HW213347   1.339   3.783   6.551
 4150SOL     OW13348   5.241   1.576   0.030
 4150SOL    HW113349   5.294   1.647   7.004
 4150SOL    HW213350   5.221   1.604   0.124
 4151SOL     OW13351   2.508   6.066   4.991
 4151SOL    HW113352   2.544   6.044   5.081
 4151SOL    HW213353   2.574   6.039   4.920
 4152SOL     OW13354   2.417   4.203   1.445
 4152SOL    HW113355   2.405   4.275   1.513
 4152SOL    HW213356   2.486   4.231   1.378
 4153SOL     OW13357   6.911   5.909   2.189
 4153SOL    HW113358   6.963   5.927   2.106
 4153SOL    HW213359   6.857   5.826   2.178
 4154SOL     OW13360   0.245   6.493   3.801
 4154SOL    HW113361   0.309   6.562   3.768
 4154SOL    HW213362   0.256   6.409   3.748
 4155SOL     OW13363   6.692   0.235   1.911
 4155SOL    HW113364   6.625   0.282   1.854
 4155SOL    HW213365   6.651   0.215   2.000
 4156SOL     OW13366   0.198   5.339   5.585
 4156SOL    HW113367   0.137   5.286   5.643
 4156SOL    HW213368   0.146   5.409   5.537
 4157SOL     OW13369   5.557   6.068   0.626
 4157SOL    HW113370   5.475   6.125   0.639
 4157SOL    HW213371   5.534   5.973   0.646
 4158SOL     OW13372   0.182   3.019   1.121
 4158SOL    HW113373   0.227   3.019   1.210
 4158SOL    HW213374   0.206   2.935   1.072
 4159SOL     OW13375   2.986   0.935   4.344
 4159SOL    HW113376   3.026   1.026   4.340
 4159SOL    HW213377   2.970   0.910   4.440
 4160SOL     OW13378   0.881   6.543   5.972
 4160SOL    HW113379   0.904   6.541   6.069
 4160SOL    HW213380   0.933   6.616   5.927
 4161SOL     OW13381   3.221   3.413   3.064
 4161SOL    HW113382   3.162   3.486   3.100
 4161SOL    HW213383   3.189   3.324   3.096
 4162SOL     OW13384   5.540   5.748   1.368
 4162SOL    HW113385   5.506   5.782   1.455
 4162SOL    HW213386   5.532   5.648   1.365
 4163SOL     OW13387   4.042   5.912   1.485
 4163SOL    HW113388   3.948   5.918   1.450
 4163SOL    HW213389   4.077   6.004   1.500
 4164SOL     OW13390   5.491   1.541   6.385
 4164SOL    HW113391   5.559   1.574   6.320
 4164SOL    HW213392   5.402   1.583   6.363
 4165SOL     OW13393   3.517   1.396   4.359
 4165SOL    HW113394   3.576   1.317   4.344
 4165SOL    HW213395   3.450   1.403   4.284
 4166SOL     OW13396   6.608   1.561   1.612
 4166SOL    HW113397   6.663   1.639   1.644
 4166SOL    HW213398   6.520   1.593   1.579
 4167SOL     OW13399   4.180   5.304   4.606
 4167SOL    HW113400   4.243   5.232   4.578
 4167SOL    HW213401   4.227   5.369   4.666
 4168SOL     OW13402   4.920   4.315   0.058
 4168SOL    HW113403   4.904   4.407   0.095
 4168SOL    HW213404   4.955   4.256   0.130
 4169SOL     OW13405   5.447   3.188   6.506
 4169SOL    HW113406   5.496   3.128   6.570
 4169SOL    HW213407   5.467   3.160   6.412
 4170SOL     OW13408   0.886   2.622   5.531
 4170SOL    HW113409   0.852   2.560   5.460
 4170SOL    HW213410   0.879   2.578   5.620
 4171SOL     OW13411   0.666   1.626   6.526
 4171SOL    HW113412   0.664   1.707   6.467
 4171SOL    HW213413   0.642   1.653   6.620
 4172SOL     OW13414   2.799   2.812   6.786
 4172SOL    HW113415   2.768   2.885   6.848
 4172SOL    HW213416   2.727   2.792   6.720
 4173SOL     OW13417   4.473   1.721   5.679
 4173SOL    HW113418   4.454   1.793   5.613
 4173SOL    HW213419   4.403   1.722   5.750
 4174SOL     OW13420   4.582   6.901   4.234
 4174SOL    HW113421   4.682   6.894   4.237
 4174SOL    HW213422   4.546   6.907   4.327
 4175SOL     OW13423   1.425   4.920   6.110
 4175SOL    HW113424   1.435   4.912   6.011
 4175SOL    HW213425   1.338   4.963   6.131
 4176SOL     OW13426   5.200   6.757   5.881
 4176SOL    HW113427   5.191   6.842   5.933
 4176SOL    HW213428   5.134   6.690   5.914
 4177SOL     OW13429   3.989   4.776   2.797
 4177SOL    HW113430   3.989   4.810   2.891
 4177SOL    HW213431   4.066   4.714   2.783
 4178SOL     OW13432   4.288   6.687   1.460
 4178SOL    HW113433   4.265   6.590   1.470
 4178SOL    HW213434   4.372   6.707   1.510
 4179SOL     OW13435   4.113   2.468   6.907
 4179SOL    HW113436   4.027   2.480   6.859
 4179SOL    HW213437   4.127   2.371   6.927
 4180SOL     OW13438   4.505   3.720   0.381
 4180SOL    HW113439   4.431   3.661   0.348
 4180SOL    HW213440   4.502   3.724   0.481
 4181SOL     OW13441   5.725   6.796   5.806
 4181SOL    HW113442   5.645   6.856   5.804
 4181SOL    HW213443   5.706   6.717   5.865
 4182SOL     OW13444   0.951   5.618   5.168
 4182SOL    HW113445   0.928   5.696   5.227
 4182SOL    HW213446   0.989   5.652   5.081
 4183SOL     OW13447   4.154   1.862   0.857
 4183SOL    HW113448   4.118   1.771   0.871
 4183SOL    HW213449   4.254   1.859   0.857
 4184SOL     OW13450   3.602   5.630   3.422
 4184SOL    HW113451   3.583   5.727   3.408
 4184SOL    HW213452   3.537   5.575   3.370
 4185SOL     OW13453   4.676   4.316   3.260
 4185SOL    HW113454   4.641   4.399   3.217
 4185SOL    HW213455   4.703   4.251   3.189
 4186SOL     OW13456   1.866   5.895   0.094
 4186SOL    HW113457   1.856   5.798   0.068
 4186SOL    HW213458   1.908   5.945   0.018
 4187SOL     OW13459   2.347   3.515   5.744
 4187SOL    HW113460   2.438   3.473   5.738
 4187SOL    HW213461   2.284   3.469   5.681
 4188SOL     OW13462   4.379   6.728   6.848
 4188SOL    HW113463   4.311   6.667   6.889
 4188SOL    HW213464   4.364   6.732   6.749
 4189SOL     OW13465   4.336   4.921   3.332
 4189SOL    HW113466   4.375   4.903   3.422
 4189SOL    HW213467   4.390   4.992   3.286
 4190SOL     OW13468   6.289   6.413   1.609
 4190SOL    HW113469   6.253   6.485   1.550
 4190SOL    HW213470   6.372   6.445   1.654
 4191SOL     OW13471   4.446   3.379   6.834
 4191SOL    HW113472   4.544   3.369   6.853
 4191SOL    HW213473   4.433   3.399   6.737
 4192SOL     OW13474   1.530   3.798   6.948
 4192SOL    HW113475   1.447   3.789   6.894
 4192SOL    HW213476   1.587   3.717   6.937
 4193SOL     OW13477   0.178   0.228   6.875
 4193SOL    HW113478   0.091   0.222   6.924
 4193SOL    HW213479   0.253   0.220   6.940
 4194SOL     OW13480   5.261   1.990   5.808
 4194SOL    HW113481   5.270   1.994   5.709
 4194SOL    HW213482   5.347   1.960   5.848
 4195SOL     OW13483   3.193   6.835   1.075
 4195SOL    HW113484   3.163   6.863   1.166
 4195SOL    HW213485   3.292   6.830   1.073
 4196SOL     OW13486   6.564   2.965   2.484
 4196SOL    HW113487   6.581   2.914   2.399
 4196SOL    HW213488   6.570   3.063   2.465
 4197SOL     OW13489   3.431   0.722   6.850
 4197SOL    HW113490   3.376   0.761   6.924
 4197SOL    HW213491   3.423   0.622   6.852
 4198SOL     OW13492   6.210   2.611   2.103
 4198SOL    HW113493   6.258   2.595   2.189
 4198SOL    HW213494   6.155   2.531   2.080
 4199SOL     OW13495   0.389   3.807   6.547
 4199SOL    HW113496   0.305   3.782   6.594
 4199SOL    HW213497   0.379   3.899   6.508
 4200SOL     OW13498   4.848   1.921   3.954
 4200SOL    HW113499   4.876   1.906   4.049
 4200SOL    HW213500   4.758   1.964   3.952
 4201SOL     OW13501   5.980   6.987   4.106
 4201SOL    HW113502   5.976   6.964   4.009
 4201SOL    HW213503   6.061   6.945   4.147
 4202SOL     OW13504   4.675   3.776   1.722
 4202SOL    HW113505   4.606   3.706   1.703
 4202SOL    HW213506   4.658   3.857   1.666
 4203SOL     OW13507   5.976   4.496   5.330
 4203SOL    HW113508   5.938   4.442   5.405
 4203SOL    HW213509   6.029   4.573   5.367
 4204SOL     OW13510   1.505   4.247   6.637
 4204SOL    HW113511   1.483   4.214   6.545
 4204SOL    HW213512   1.543   4.172   6.691
 4205SOL     OW13513   4.587   6.485   6.393
 4205SOL    HW113514   4.658   6.555   6.381
 4205SOL    HW213515   4.530   6.509   6.471
 4206SOL     OW13516   2.007   2.139   4.024
 4206SOL    HW113517   1.938   2.169   4.089
 4206SOL    HW213518   2.044   2.051   4.054
 4207SOL     OW13519   0.397   2.101   2.615
 4207SOL    HW113520   0.391   2.201   2.618
 4207SOL    HW213521   0.305   2.062   2.617
 4208SOL     OW13522   1.982   2.179   3.513
 4208SOL    HW113523   2.042   2.108   3.549
 4208SOL    HW213524   2.003   2.266   3.558
 4209SOL     OW13525   0.174   6.202   2.062
 4209SOL    HW113526   0.212   6.196   2.154
 4209SOL    HW213527   0.103   6.272   2.060
 4210SOL     OW13528   2.916   3.885   4.874
 4210SOL    HW113529   2.903   3.932   4.786
 4210SOL    HW213530   2.848   3.917   4.939
 4211SOL     OW13531   4.008   2.757   5.325
 4211SOL    HW113532   4.072   2.707   5.267
 4211SOL    HW213533   4.000   2.710   5.413
 4212SOL     OW13534   0.019   2.229   3.195
 4212SOL    HW113535   6.955   2.254   3.147
 4212SOL    HW213536   0.081   2.307   3.198
 4213SOL     OW13537   3.372   0.215   3.920
 4213SOL    HW113538   3.377   0.235   3.822
 4213SOL    HW213539   3.404   0.295   3.972
 4214SOL     OW13540   6.852   5.648   2.967
 4214SOL    HW113541   6.794   5.650   3.048
 4214SOL    HW213542   6.799   5.614   2.889
 4215SOL     OW13543   5.901   6.699   5.578
 4215SOL    HW113544   5.849   6.624   5.538
 4215SOL    HW213545   5.849   6.740   5.653
 4216SOL     OW13546   2.508   5.208   1.927
 4216SOL    HW113547   2.550   5.161   2.004
 4216SOL    HW213548   2.555   5.294   1.909
 4217SOL     OW13549   1.425   0.088   3.315
 4217SOL    HW113550   1.341   0.045   3.280
 4217SOL    HW213551   1.402   0.151   3.389
 4218SOL     OW13552   2.161   0.966   0.911
 4218SOL    HW113553   2.154   1.044   0.973
 4218SOL    HW213554   2.251   0.924   0.921
 4219SOL     OW13555   3.590   5.317   2.907
 4219SOL    HW113556   3.502   5.324   2.860
 4219SOL    HW213557   3.621   5.222   2.905
 4220SOL     OW13558   5.383   1.698   0.944
 4220SOL    HW113559   5.480   1.721   0.928
 4220SOL    HW213560   5.346   1.758   1.015
 4221SOL     OW13561   0.974   6.487   0.854
 4221SOL    HW113562   1.061   6.461   0.895
 4221SOL    HW213563   0.988   6.565   0.793
 4222SOL     OW13564   4.964   3.423   3.951
 4222SOL    HW113565   4.925   3.494   4.009
 4222SOL    HW213566   4.989   3.344   4.006
 4223SOL     OW13567   3.622   3.852   2.705
 4223SOL    HW113568   3.570   3.766   2.704
 4223SOL    HW213569   3.613   3.895   2.794
 4224SOL     OW13570   4.606   5.146   4.519
 4224SOL    HW113571   4.701   5.115   4.510
 4224SOL    HW213572   4.575   5.184   4.432
 4225SOL     OW13573   1.020   1.479   6.375
 4225SOL    HW113574   1.114   1.482   6.340
 4225SOL    HW213575   1.017   1.518   6.467
 4226SOL     OW13576   0.566   5.163   5.079
 4226SOL    HW113577   0.616   5.080   5.106
 4226SOL    HW213578   0.603   5.242   5.128
 4227SOL     OW13579   5.289   5.231   2.024
 4227SOL    HW113580   5.302   5.292   2.102
 4227SOL    HW213581   5.202   5.183   2.034
 4228SOL     OW13582   1.732   4.797   4.358
 4228SOL    HW113583   1.809   4.834   4.409
 4228SOL    HW213584   1.765   4.729   4.292
 4229SOL     OW13585   5.932   5.546   5.355
 4229SOL    HW113586   5.867   5.578   5.424
 4229SOL    HW213587   6.002   5.490   5.399
 4230SOL     OW13588   6.894   1.009   1.807
 4230SOL    HW113589   6.929   1.011   1.901
 4230SOL    HW213590   6.945   0.942   1.754
 4231SOL     OW13591   0.249   1.575   6.619
 4231SOL    HW113592   0.338   1.620   6.610
 4231SOL    HW213593   0.208   1.600   6.707
 4232SOL     OW13594   1.748   4.921   4.033
 4232SOL    HW113595   1.693   4.885   4.109
 4232SOL    HW213596   1.715   4.882   3.947
 4233SOL     OW13597   4.829   5.547   2.296
 4233SOL    HW113598   4.845   5.585   2.387
 4233SOL    HW213599   4.753   5.483   2.299
 4234SOL     OW13600   3.514   5.056   5.690
 4234SOL    HW113601   3.566   5.031   5.608
 4234SOL    HW213602   3.418   5.069   5.666
 4235SOL     OW13603   0.101   5.814   6.186
 4235SOL    HW113604   0.065   5.825   6.279
 4235SOL    HW213605   0.120   5.904   6.147
 4236SOL     OW13606   0.853   5.751   2.867
 4236SOL    HW113607   0.798   5.752   2.783
 4236SOL    HW213608   0.793   5.767   2.946
 4237SOL     OW13609   0.344   4.658   4.376
 4237SOL    HW113610   0.307   4.711   4.299
 4237SOL    HW213611   0.270   4.604   4.417
 4238SOL     OW13612   3.444   6.444   2.194
 4238SOL    HW113613   3.532   6.423   2.153
 4238SOL    HW213614   3.411   6.365   2.246
 4239SOL     OW13615   4.437   1.707   4.142
 4239SOL    HW113616   4.437   1.653   4.058
 4239SOL    HW213617   4.440   1.804   4.119
 4240SOL     OW13618   5.769   6.548   1.984
 4240SOL    HW113619   5.774   6.648   1.982
 4240SOL    HW213620   5.845   6.510   1.930
 4241SOL     OW13621   6.257   4.101   0.398
 4241SOL    HW113622   6.304   4.189   0.398
 4241SOL    HW213623   6.196   4.096   0.478
 4242SOL     OW13624   3.098   2.167   3.445
 4242SOL    HW113625   3.144   2.171   3.534
 4242SOL    HW213626   3.062   2.075   3.430
 4243SOL     OW13627   4.722   1.287   3.183
 4243SOL    HW113628   4.761   1.357   3.242
 4243SOL    HW213629   4.676   1.329   3.106
 4244SOL     OW13630   3.218   2.933   4.338
 4244SOL    HW113631   3.216   2.906   4.434
 4244SOL    HW213632   3.312   2.953   4.311
 4245SOL     OW13633   5.591   0.602   6.641
 4245SOL    HW113634   5.495   0.589   6.617
 4245SOL    HW213635   5.599   0.661   6.721
 4246SOL     OW13636   6.949   3.609   6.979
 4246SOL    HW113637   6.959   3.511   6.959
 4246SOL    HW213638   6.981   3.628   0.052
 4247SOL     OW13639   0.495   5.552   5.138
 4247SOL    HW113640   0.439   5.572   5.218
 4247SOL    HW213641   0.579   5.505   5.166
 4248SOL     OW13642   2.178   3.803   5.895
 4248SOL    HW113643   2.185   3.878   5.961
 4248SOL    HW213644   2.238   3.822   5.817
 4249SOL     OW13645   5.319   4.566   5.686
 4249SOL    HW113646   5.382   4.601   5.617
 4249SOL    HW213647   5.293   4.640   5.748
 4250SOL     OW13648   1.075   4.850   2.896
 4250SOL    HW113649   1.168   4.835   2.930
 4250SOL    HW213650   1.036   4.930   2.941
 4251SOL     OW13651   5.367   3.947   0.360
 4251SOL    HW113652   5.343   4.040   0.332
 4251SOL    HW213653   5.333   3.929   0.452
 4252SOL     OW13654   0.374   5.592   5.401
 4252SOL    HW113655   0.275   5.590   5.417
 4252SOL    HW213656   0.417   5.515   5.449
 4253SOL     OW13657   4.144   6.772   2.942
 4253SOL    HW113658   4.095   6.761   3.028
 4253SOL    HW213659   4.079   6.796   2.869
 4254SOL     OW13660   2.666   4.358   1.517
 4254SOL    HW113661   2.718   4.299   1.579
 4254SOL    HW213662   2.588   4.397   1.567
 4255SOL     OW13663   0.880   2.194   4.726
 4255SOL    HW113664   0.928   2.183   4.638
 4255SOL    HW213665   0.809   2.264   4.717
 4256SOL     OW13666   1.961   0.832   1.649
 4256SOL    HW113667   1.917   0.911   1.606
 4256SOL    HW213668   2.060   0.836   1.632
 4257SOL     OW13669   4.047   2.229   4.689
 4257SOL    HW113670   4.121   2.288   4.720
 4257SOL    HW213671   4.061   2.206   4.592
 4258SOL     OW13672   5.275   6.826   2.196
 4258SOL    HW113673   5.367   6.863   2.206
 4258SOL    HW213674   5.270   6.735   2.239
 4259SOL     OW13675   1.457   2.782   1.092
 4259SOL    HW113676   1.465   2.854   1.023
 4259SOL    HW213677   1.546   2.767   1.135
 4260SOL     OW13678   4.305   5.848   3.181
 4260SOL    HW113679   4.287   5.773   3.244
 4260SOL    HW213680   4.245   5.925   3.204
 4261SOL     OW13681   2.004   1.486   3.420
 4261SOL    HW113682   2.055   1.569   3.402
 4261SOL    HW213683   2.052   1.408   3.379
 4262SOL     OW13684   0.189   6.025   6.607
 4262SOL    HW113685   0.120   5.992   6.543
 4262SOL    HW213686   0.145   6.068   6.686
 4263SOL     OW13687   4.140   5.315   6.233
 4263SOL    HW113688   4.135   5.391   6.168
 4263SOL    HW213689   4.232   5.275   6.230
 4264SOL     OW13690   0.158   0.152   0.787
 4264SOL    HW113691   0.207   0.172   0.702
 4264SOL    HW213692   0.224   0.126   0.858
 4265SOL     OW13693   0.536   2.319   0.091
 4265SOL    HW113694   0.478   2.326   0.009
 4265SOL    HW213695   0.520   2.399   0.149
 4266SOL     OW13696   3.398   4.678   1.376
 4266SOL    HW113697   3.303   4.702   1.397
 4266SOL    HW213698   3.400   4.593   1.324
 4267SOL     OW13699   2.245   4.327   6.017
 4267SOL    HW113700   2.283   4.407   5.971
 4267SOL    HW213701   2.154   4.350   6.054
 4268SOL     OW13702   1.497   0.925   0.263
 4268SOL    HW113703   1.405   0.942   0.299
 4268SOL    HW213704   1.564   0.933   0.336
 4269SOL     OW13705   2.760   3.781   0.600
 4269SOL    HW113706   2.684   3.838   0.633
 4269SOL    HW213707   2.758   3.779   0.500
 4270SOL     OW13708   4.071   2.919   5.759
 4270SOL    HW113709   3.983   2.939   5.714
 4270SOL    HW213710   4.102   2.828   5.732
 4271SOL     OW13711   1.278   6.769   0.056
 4271SOL    HW113712   1.285   6.813   6.987
 4271SOL    HW213713   1.181   6.756   0.079
 4272SOL     OW13714   6.903   4.178   3.386
 4272SOL    HW113715   6.834   4.250   3.393
 4272SOL    HW213716   6.970   4.202   3.316
 4273SOL     OW13717   5.365   6.016   4.709
 4273SOL    HW113718   5.351   6.009   4.808
 4273SOL    HW213719   5.433   5.948   4.680
 4274SOL     OW13720   2.070   0.397   3.948
 4274SOL    HW113721   2.102   0.345   4.027
 4274SOL    HW213722   2.137   0.468   3.925
 4275SOL     OW13723   1.390   6.745   6.401
 4275SOL    HW113724   1.327   6.676   6.437
 4275SOL    HW213725   1.348   6.835   6.409
 4276SOL     OW13726   1.837   4.289   2.495
 4276SOL    HW113727   1.823   4.328   2.404
 4276SOL    HW213728   1.935   4.291   2.518
 4277SOL     OW13729   0.772   5.226   4.180
 4277SOL    HW113730   0.807   5.168   4.106
 4277SOL    HW213731   0.699   5.284   4.145
 4278SOL     OW13732   0.928   6.327   5.458
 4278SOL    HW113733   0.896   6.260   5.525
 4278SOL    HW213734   0.861   6.335   5.385
 4279SOL     OW13735   3.297   5.690   4.084
 4279SOL    HW113736   3.277   5.660   4.177
 4279SOL    HW213737   3.373   5.635   4.047
 4280SOL     OW13738   4.966   3.724   3.662
 4280SOL    HW113739   5.053   3.710   3.709
 4280SOL    HW213740   4.965   3.814   3.618
 4281SOL     OW13741   2.516   3.784   5.402
 4281SOL    HW113742   2.421   3.779   5.432
 4281SOL    HW213743   2.521   3.840   5.319
 4282SOL     OW13744   0.592   3.137   1.203
 4282SOL    HW113745   0.688   3.119   1.182
 4282SOL    HW213746   0.579   3.236   1.215
 4283SOL     OW13747   2.010   0.680   4.113
 4283SOL    HW113748   2.076   0.631   4.056
 4283SOL    HW213749   2.000   0.633   4.201
 4284SOL     OW13750   6.402   1.432   3.057
 4284SOL    HW113751   6.329   1.375   3.020
 4284SOL    HW213752   6.475   1.441   2.988
 4285SOL     OW13753   1.144   6.259   5.094
 4285SOL    HW113754   1.218   6.234   5.157
 4285SOL    HW213755   1.159   6.352   5.060
 4286SOL     OW13756   5.655   5.600   0.049
 4286SOL    HW113757   5.697   5.638   6.986
 4286SOL    HW213758   5.726   5.586   0.119
 4287SOL     OW13759   4.045   6.455   4.971
 4287SOL    HW113760   4.105   6.536   4.973
 4287SOL    HW213761   4.041   6.418   4.879
 4288SOL     OW13762   1.553   6.787   2.685
 4288SOL    HW113763   1.638   6.817   2.729
 4288SOL    HW213764   1.533   6.692   2.710
 4289SOL     OW13765   6.059   3.407   0.726
 4289SOL    HW113766   6.146   3.370   0.694
 4289SOL    HW213767   6.013   3.338   0.782
 4290SOL     OW13768   2.217   1.351   2.159
 4290SOL    HW113769   2.150   1.283   2.130
 4290SOL    HW213770   2.302   1.340   2.107
 4291SOL     OW13771   6.022   4.835   1.211
 4291SOL    HW113772   5.938   4.869   1.254
 4291SOL    HW213773   6.025   4.867   1.116
 4292SOL     OW13774   5.856   5.794   5.798
 4292SOL    HW113775   5.910   5.744   5.866
 4292SOL    HW213776   5.914   5.863   5.754
 4293SOL     OW13777   0.200   2.425   6.660
 4293SOL    HW113778   0.273   2.380   6.609
 4293SOL    HW213779   0.234   2.453   6.750
 4294SOL     OW13780   5.198   2.688   6.295
 4294SOL    HW113781   5.264   2.727   6.231
 4294SOL    HW213782   5.152   2.610   6.252
 4295SOL     OW13783   3.848   6.394   4.743
 4295SOL    HW113784   3.925   6.358   4.689
 4295SOL    HW213785   3.814   6.477   4.701
 4296SOL     OW13786   2.247   1.029   1.246
 4296SOL    HW113787   2.335   0.996   1.212
 4296SOL    HW213788   2.180   0.954   1.242
 4297SOL     OW13789   5.968   0.740   6.512
 4297SOL    HW113790   5.989   0.727   6.415
 4297SOL    HW213791   6.043   0.789   6.556
 4298SOL     OW13792   2.925   5.214   1.235
 4298SOL    HW113793   2.846   5.258   1.277
 4298SOL    HW213794   2.992   5.191   1.305
 4299SOL     OW13795   1.191   4.063   6.357
 4299SOL    HW113796   1.260   4.136   6.355
 4299SOL    HW213797   1.221   3.988   6.298
 4300SOL     OW13798   5.709   0.035   6.093
 4300SOL    HW113799   5.761   0.047   6.177
 4300SOL    HW213800   5.772   0.033   6.015
 4301SOL     OW13801   2.586   1.566   0.277
 4301SOL    HW113802   2.520   1.621   0.225
 4301SOL    HW213803   2.642   1.626   0.333
 4302SOL     OW13804   1.048   6.480   6.936
 4302SOL    HW113805   1.040   6.535   6.853
 4302SOL    HW213806   1.141   6.444   6.944
 4303SOL     OW13807   6.877   3.626   1.979
 4303SOL    HW113808   6.899   3.687   1.903
 4303SOL    HW213809   6.795   3.574   1.958
 4304SOL     OW13810   3.372   2.909   5.084
 4304SOL    HW113811   3.406   2.938   5.173
 4304SOL    HW213812   3.449   2.893   5.022
 4305SOL     OW13813   6.337   1.150   4.925
 4305SOL    HW113814   6.278   1.081   4.883
 4305SOL    HW213815   6.288   1.237   4.929
 4306SOL     OW13816   6.041   5.955   6.228
 4306SOL    HW113817   6.005   6.016   6.157
 4306SOL    HW213818   6.136   5.931   6.206
 4307SOL     OW13819   5.251   3.262   6.829
 4307SOL    HW113820   5.211   3.200   6.896
 4307SOL    HW213821   5.237   3.226   6.737
 4308SOL     OW13822   4.224   6.657   5.050
 4308SOL    HW113823   4.305   6.608   5.083
 4308SOL    HW213824   4.160   6.671   5.125
 4309SOL     OW13825   1.533   1.205   0.780
 4309SOL    HW113826   1.461   1.215   0.712
 4309SOL    HW213827   1.512   1.127   0.839
 4310SOL     OW13828   1.413   1.034   2.393
 4310SOL    HW113829   1.362   1.007   2.311
 4310SOL    HW213830   1.367   1.110   2.438
 4311SOL     OW13831   1.474   6.027   3.981
 4311SOL    HW113832   1.550   6.088   4.003
 4311SOL    HW213833   1.454   6.033   3.883
 4312SOL     OW13834   1.515   5.196   2.075
 4312SOL    HW113835   1.600   5.237   2.041
 4312SOL    HW213836   1.535   5.139   2.154
 4313SOL     OW13837   4.674   0.314   1.634
 4313SOL    HW113838   4.760   0.287   1.591
 4313SOL    HW213839   4.690   0.391   1.696
 4314SOL     OW13840   5.124   3.450   2.990
 4314SOL    HW113841   5.136   3.392   2.910
 4314SOL    HW213842   5.049   3.414   3.046
 4315SOL     OW13843   2.659   1.800   1.873
 4315SOL    HW113844   2.585   1.867   1.884
 4315SOL    HW213845   2.653   1.759   1.782
 4316SOL     OW13846   0.356   0.374   2.306
 4316SOL    HW113847   0.334   0.371   2.403
 4316SOL    HW213848   0.271   0.372   2.253
 4317SOL     OW13849   4.301   0.580   3.321
 4317SOL    HW113850   4.222   0.518   3.323
 4317SOL    HW213851   4.385   0.527   3.317
 4318SOL     OW13852   0.239   3.076   4.209
 4318SOL    HW113853   0.259   3.087   4.112
 4318SOL    HW213854   0.142   3.058   4.221
 4319SOL     OW13855   2.586   3.398   5.661
 4319SOL    HW113856   2.668   3.426   5.611
 4319SOL    HW213857   2.594   3.302   5.688
 4320SOL     OW13858   0.601   6.452   2.822
 4320SOL    HW113859   0.687   6.428   2.866
 4320SOL    HW213860   0.615   6.459   2.723
 4321SOL     OW13861   0.868   0.745   5.024
 4321SOL    HW113862   0.782   0.771   4.981
 4321SOL    HW213863   0.867   0.770   5.121
 4322SOL     OW13864   5.474   1.350   0.743
 4322SOL    HW113865   5.406   1.421   0.728
 4322SOL    HW213866   5.559   1.392   0.775
 4323SOL     OW13867   6.699   2.493   4.078
 4323SOL    HW113868   6.772   2.447   4.028
 4323SOL    HW213869   6.665   2.570   4.024
 4324SOL     OW13870   6.597   3.548   5.982
 4324SOL    HW113871   6.522   3.609   6.005
 4324SOL    HW213872   6.566   3.453   5.984
 4325SOL     OW13873   1.968   1.679   5.662
 4325SOL    HW113874   1.872   1.706   5.648
 4325SOL    HW213875   2.003   1.721   5.745
 4326SOL     OW13876   6.136   2.357   5.838
 4326SOL    HW113877   6.090   2.372   5.751
 4326SOL    HW213878   6.159   2.445   5.880
 4327SOL     OW13879   5.439   0.105   3.438
 4327SOL    HW113880   5.354   0.054   3.421
 4327SOL    HW213881   5.421   0.178   3.504
 4328SOL     OW13882   5.515   5.451   0.668
 4328SOL    HW113883   5.592   5.509   0.642
 4328SOL    HW213884   5.507   5.449   0.767
 4329SOL     OW13885   3.893   1.453   6.100
 4329SOL    HW113886   3.848   1.541   6.085
 4329SOL    HW213887   3.983   1.469   6.141
 4330SOL     OW13888   1.096   0.159   6.317
 4330SOL    HW113889   1.024   0.198   6.259
 4330SOL    HW213890   1.181   0.210   6.303
 4331SOL     OW13891   5.463   2.825   0.707
 4331SOL    HW113892   5.408   2.822   0.623
 4331SOL    HW213893   5.489   2.732   0.733
 4332SOL     OW13894   5.342   3.540   1.412
 4332SOL    HW113895   5.389   3.453   1.395
 4332SOL    HW213896   5.249   3.536   1.376
 4333SOL     OW13897   5.334   1.912   5.378
 4333SOL    HW113898   5.358   1.987   5.439
 4333SOL    HW213899   5.350   1.825   5.424
 4334SOL     OW13900   4.542   0.463   2.061
 4334SOL    HW113901   4.541   0.472   2.160
 4334SOL    HW213902   4.449   0.451   2.027
 4335SOL     OW13903   3.666   3.827   5.376
 4335SOL    HW113904   3.713   3.853   5.460
 4335SOL    HW213905   3.584   3.775   5.398
 4336SOL     OW13906   1.886   6.563   4.156
 4336SOL    HW113907   1.875   6.464   4.164
 4336SOL    HW213908   1.857   6.593   4.066
 4337SOL     OW13909   0.286   4.932   0.807
 4337SOL    HW113910   0.198   4.932   0.854
 4337SOL    HW213911   0.328   4.841   0.814
 4338SOL     OW13912   6.663   6.116   3.633
 4338SOL    HW113913   6.668   6.061   3.549
 4338SOL    HW213914   6.750   6.110   3.681
 4339SOL     OW13915   5.897   1.082   6.363
 4339SOL    HW113916   5.987   1.061   6.403
 4339SOL    HW213917   5.894   1.179   6.338
 4340SOL     OW13918   4.883   3.028   2.244
 4340SOL    HW113919   4.824   3.038   2.164
 4340SOL    HW213920   4.972   2.993   2.215
 4341SOL     OW13921   0.488   3.782   0.366
 4341SOL    HW113922   0.545   3.829   0.299
 4341SOL    HW213923   0.534   3.783   0.455
 4342SOL     OW13924   6.867   2.868   2.909
 4342SOL    HW113925   6.834   2.906   2.995
 4342SOL    HW213926   6.810   2.789   2.884
 4343SOL     OW13927   2.225   1.766   1.589
 4343SOL    HW113928   2.236   1.830   1.513
 4343SOL    HW213929   2.128   1.756   1.610
 4344SOL     OW13930   2.315   4.169   3.146
 4344SOL    HW113931   2.269   4.090   3.107
 4344SOL    HW213932   2.247   4.241   3.164
 4345SOL     OW13933   2.050   1.683   6.169
 4345SOL    HW113934   1.967   1.737   6.185
 4345SOL    HW213935   2.130   1.743   6.174
 4346SOL     OW13936   0.371   2.738   1.505
 4346SOL    HW113937   0.377   2.767   1.409
 4346SOL    HW213938   0.458   2.759   1.551
 4347SOL     OW13939   6.282   5.781   2.853
 4347SOL    HW113940   6.366   5.836   2.856
 4347SOL    HW213941   6.278   5.732   2.766
 4348SOL     OW13942   1.173   3.658   0.085
 4348SOL    HW113943   1.132   3.703   0.007
 4348SOL    HW213944   1.243   3.716   0.126
 4349SOL     OW13945   0.150   0.136   3.313
 4349SOL    HW113946   0.190   0.156   3.403
 4349SOL    HW213947   0.138   0.037   3.303
 4350SOL     OW13948   5.400   1.422   3.956
 4350SOL    HW113949   5.464   1.407   4.032
 4350SOL    HW213950   5.441   1.486   3.891
 4351SOL     OW13951   3.168   6.277   0.434
 4351SOL    HW113952   3.227   6.276   0.514
 4351SOL    HW213953   3.078   6.312   0.459
 4352SOL     OW13954   6.128   1.343   2.279
 4352SOL    HW113955   6.061   1.349   2.205
 4352SOL    HW213956   6.215   1.381   2.249
 4353SOL     OW13957   3.431   5.686   0.827
 4353SOL    HW113958   3.525   5.655   0.840
 4353SOL    HW213959   3.371   5.606   0.817
 4354SOL     OW13960   1.544   0.491   1.297
 4354SOL    HW113961   1.587   0.562   1.241
 4354SOL    HW213962   1.509   0.532   1.382
 4355SOL     OW13963   4.758   1.330   0.989
 4355SOL    HW113964   4.682   1.372   1.037
 4355SOL    HW213965   4.833   1.314   1.053
 4356SOL     OW13966   4.148   4.151   0.296
 4356SOL    HW113967   4.053   4.135   0.272
 4356SOL    HW213968   4.207   4.088   0.245
 4357SOL     OW13969   6.375   1.165   6.635
 4357SOL    HW113970   6.352   1.252   6.679
 4357SOL    HW213971   6.419   1.105   6.702
 4358SOL     OW13972   6.888   0.284   1.562
 4358SOL    HW113973   6.906   0.244   1.472
 4358SOL    HW213974   6.924   0.224   1.633
 4359SOL     OW13975   6.508   2.691   4.365
 4359SOL    HW113976   6.551   2.603   4.386
 4359SOL    HW213977   6.464   2.687   4.276
 4360SOL     OW13978   2.491   3.254   1.201
 4360SOL    HW113979   2.531   3.320   1.265
 4360SOL    HW213980   2.427   3.301   1.140
 4361SOL     OW13981   5.409   1.611   2.062
 4361SOL    HW113982   5.322   1.592   2.106
 4361SOL    HW213983   5.400   1.689   2.000
 4362SOL     OW13984   5.635   4.395   3.794
 4362SOL    HW113985   5.559   4.380   3.730
 4362SOL    HW213986   5.694   4.314   3.793
 4363SOL     OW13987   4.900   1.586   5.757
 4363SOL    HW113988   4.835   1.616   5.688
 4363SOL    HW213989   4.883   1.490   5.780
 4364SOL     OW13990   3.437   3.365   5.354
 4364SOL    HW113991   3.462   3.311   5.434
 4364SOL    HW213992   3.424   3.305   5.275
 4365SOL     OW13993   3.115   1.225   1.469
 4365SOL    HW113994   3.167   1.279   1.536
 4365SOL    HW213995   3.122   1.269   1.379
 4366SOL     OW13996   5.189   5.311   1.200
 4366SOL    HW113997   5.120   5.333   1.131
 4366SOL    HW213998   5.174   5.218   1.234
 4367SOL     OW13999   0.385   6.217   0.465
 4367SOL    HW114000   0.444   6.293   0.440
 4367SOL    HW214001   0.432   6.160   0.533
 4368SOL     OW14002   5.129   3.426   1.651
 4368SOL    HW114003   5.045   3.441   1.702
 4368SOL    HW214004   5.191   3.503   1.664
 4369SOL     OW14005   3.052   5.709   1.626
 4369SOL    HW114006   3.036   5.676   1.719
 4369SOL    HW214007   3.082   5.633   1.568
 4370SOL     OW14008   5.597   5.064   2.828
 4370SOL    HW114009   5.567   5.037   2.920
 4370SOL    HW214010   5.539   5.020   2.760
 4371SOL     OW14011   6.817   1.589   2.330
 4371SOL    HW114012   6.782   1.506   2.287
 4371SOL    HW214013   6.740   1.648   2.357
 4372SOL     OW14014   4.750   6.934   3.554
 4372SOL    HW114015   4.843   6.920   3.587
 4372SOL    HW214016   4.692   6.858   3.585
 4373SOL     OW14017   0.299   1.672   6.239
 4373SOL    HW114018   0.225   1.615   6.276
 4373SOL    HW214019   0.303   1.661   6.140
 4374SOL     OW14020   2.942   2.120   1.142
 4374SOL    HW114021   2.850   2.082   1.134
 4374SOL    HW214022   3.008   2.046   1.147
 4375SOL     OW14023   3.686   6.825   4.275
 4375SOL    HW114024   3.779   6.846   4.305
 4375SOL    HW214025   3.626   6.902   4.296
 4376SOL     OW14026   6.409   1.648   3.975
 4376SOL    HW114027   6.363   1.564   4.004
 4376SOL    HW214028   6.391   1.664   3.878
 4377SOL     OW14029   6.020   5.346   6.651
 4377SOL    HW114030   6.026   5.256   6.693
 4377SOL    HW214031   5.933   5.355   6.603
 4378SOL     OW14032   2.146   1.346   3.736
 4378SOL    HW114033   2.240   1.364   3.705
 4378SOL    HW214034   2.149   1.286   3.816
 4379SOL     OW14035   2.837   1.921   5.380
 4379SOL    HW114036   2.881   1.832   5.391
 4379SOL    HW214037   2.869   1.964   5.296
 4380SOL     OW14038   0.312   1.405   2.244
 4380SOL    HW114039   0.354   1.336   2.303
 4380SOL    HW214040   0.277   1.362   2.161
 4381SOL     OW14041   1.793   5.978   6.595
 4381SOL    HW114042   1.828   6.012   6.508
 4381SOL    HW214043   1.861   5.917   6.636
 4382SOL     OW14044   0.623   4.253   4.828
 4382SOL    HW114045   0.590   4.233   4.736
 4382SOL    HW214046   0.707   4.308   4.822
 4383SOL     OW14047   6.629   3.431   6.842
 4383SOL    HW114048   6.603   3.445   6.937
 4383SOL    HW214049   6.668   3.340   6.831
 4384SOL     OW14050   5.625   6.744   3.788
 4384SOL    HW114051   5.579   6.832   3.774
 4384SOL    HW214052   5.615   6.687   3.706
 4385SOL     OW14053   4.205   1.659   5.334
 4385SOL    HW114054   4.174   1.582   5.278
 4385SOL    HW214055   4.130   1.723   5.346
 4386SOL     OW14056   2.123   3.629   5.169
 4386SOL    HW114057   2.110   3.662   5.075
 4386SOL    HW214058   2.152   3.705   5.227
 4387SOL     OW14059   6.528   1.944   0.263
 4387SOL    HW114060   6.528   1.872   0.332
 4387SOL    HW214061   6.622   1.963   0.234
 4388SOL     OW14062   5.006   3.517   6.893
 4388SOL    HW114063   4.948   3.472   6.826
 4388SOL    HW214064   5.091   3.547   6.849
 4389SOL     OW14065   0.683   3.254   0.912
 4389SOL    HW114066   0.738   3.206   0.981
 4389SOL    HW214067   0.586   3.234   0.927
 4390SOL     OW14068   0.151   1.079   0.869
 4390SOL    HW114069   0.156   1.047   0.774
 4390SOL    HW214070   0.098   1.163   0.873
 4391SOL     OW14071   1.386   5.712   0.716
 4391SOL    HW114072   1.444   5.641   0.754
 4391SOL    HW214073   1.401   5.719   0.617
 4392SOL     OW14074   1.443   2.993   5.600
 4392SOL    HW114075   1.481   2.909   5.640
 4392SOL    HW214076   1.356   3.015   5.643
 4393SOL     OW14077   5.246   0.691   2.184
 4393SOL    HW114078   5.315   0.721   2.250
 4393SOL    HW214079   5.289   0.674   2.095
 4394SOL     OW14080   1.460   0.257   2.102
 4394SOL    HW114081   1.553   0.288   2.085
 4394SOL    HW214082   1.428   0.292   2.191
 4395SOL     OW14083   2.473   4.994   1.577
 4395SOL    HW114084   2.564   5.024   1.605
 4395SOL    HW214085   2.417   4.978   1.659
 4396SOL     OW14086   2.974   1.050   2.999
 4396SOL    HW114087   3.035   0.972   3.014
 4396SOL    HW214088   2.955   1.095   3.087
 4397SOL     OW14089   3.269   1.796   4.362
 4397SOL    HW114090   3.283   1.699   4.381
 4397SOL    HW214091   3.171   1.815   4.357
 4398SOL     OW14092   1.979   3.022   5.374
 4398SOL    HW114093   1.925   2.952   5.420
 4398SOL    HW214094   2.062   2.981   5.336
 4399SOL     OW14095   2.720   6.314   1.649
 4399SOL    HW114096   2.805   6.326   1.700
 4399SOL    HW214097   2.656   6.260   1.704
 4400SOL     OW14098   1.943   5.711   4.639
 4400SOL    HW114099   2.001   5.715   4.558
 4400SOL    HW214100   1.931   5.616   4.667
 4401SOL     OW14101   3.544   6.119   6.754
 4401SOL    HW114102   3.496   6.041   6.715
 4401SOL    HW214103   3.479   6.194   6.769
 4402SOL     OW14104   1.736   0.334   2.894
 4402SOL    HW114105   1.704   0.306   2.984
 4402SOL    HW214106   1.658   0.342   2.832
 4403SOL     OW14107   0.842   5.015   2.044
 4403SOL    HW114108   0.860   4.936   1.985
 4403SOL    HW214109   0.889   5.095   2.007
 4404SOL     OW14110   0.078   6.737   6.279
 4404SOL    HW114111   0.057   6.640   6.273
 4404SOL    HW214112   0.141   6.762   6.206
 4405SOL     OW14113   2.030   5.930   2.453
 4405SOL    HW114114   2.009   5.972   2.542
 4405SOL    HW214115   1.966   5.856   2.435
 4406SOL     OW14116   5.695   3.969   1.846
 4406SOL    HW114117   5.725   3.911   1.922
 4406SOL    HW214118   5.762   4.042   1.830
 4407SOL     OW14119   5.926   6.744   1.433
 4407SOL    HW114120   5.880   6.833   1.431
 4407SOL    HW214121   5.922   6.702   1.343
 4408SOL     OW14122   4.232   0.971   6.965
 4408SOL    HW114123   4.197   0.975   0.039
 4408SOL    HW214124   4.156   0.961   6.901
 4409SOL     OW14125   2.649   0.661   3.353
 4409SOL    HW114126   2.692   0.750   3.368
 4409SOL    HW214127   2.707   0.605   3.294
 4410SOL     OW14128   0.559   6.710   1.104
 4410SOL    HW114129   0.569   6.729   1.201
 4410SOL    HW214130   0.581   6.792   1.051
 4411SOL     OW14131   3.966   4.574   5.254
 4411SOL    HW114132   3.949   4.476   5.265
 4411SOL    HW214133   4.014   4.609   5.334
 4412SOL     OW14134   4.558   6.602   2.432
 4412SOL    HW114135   4.579   6.577   2.337
 4412SOL    HW214136   4.619   6.677   2.460
 4413SOL     OW14137   4.895   6.060   3.885
 4413SOL    HW114138   4.873   6.087   3.791
 4413SOL    HW214139   4.911   5.962   3.889
 4414SOL     OW14140   5.067   3.751   1.628
 4414SOL    HW114141   5.026   3.824   1.683
 4414SOL    HW214142   5.137   3.704   1.682
 4415SOL     OW14143   2.175   3.101   1.898
 4415SOL    HW114144   2.156   3.194   1.864
 4415SOL    HW214145   2.240   3.057   1.837
 4416SOL     OW14146   5.020   2.391   3.201
 4416SOL    HW114147   5.073   2.422   3.122
 4416SOL    HW214148   4.922   2.405   3.183
 4417SOL     OW14149   6.904   4.063   2.394
 4417SOL    HW114150   6.920   3.996   2.467
 4417SOL    HW214151   6.973   4.135   2.399
 4418SOL     OW14152   6.496   6.445   5.907
 4418SOL    HW114153   6.590   6.424   5.880
 4418SOL    HW214154   6.473   6.537   5.875
 4419SOL     OW14155   6.406   5.595   6.642
 4419SOL    HW114156   6.350   5.535   6.585
 4419SOL    HW214157   6.387   5.577   6.738
 4420SOL     OW14158   3.638   2.243   0.918
 4420SOL    HW114159   3.581   2.267   0.997
 4420SOL    HW214160   3.734   2.261   0.940
 4421SOL     OW14161   1.894   2.898   0.456
 4421SOL    HW114162   1.889   2.805   0.420
 4421SOL    HW214163   1.954   2.900   0.536
 4422SOL     OW14164   6.575   3.628   6.308
 4422SOL    HW114165   6.505   3.658   6.243
 4422SOL    HW214166   6.665   3.630   6.264
 4423SOL     OW14167   6.421   4.335   5.283
 4423SOL    HW114168   6.327   4.351   5.256
 4423SOL    HW214169   6.483   4.365   5.210
 4424SOL     OW14170   5.078   5.807   2.365
 4424SOL    HW114171   5.099   5.754   2.447
 4424SOL    HW214172   5.133   5.890   2.362
 4425SOL     OW14173   1.498   5.139   1.339
 4425SOL    HW114174   1.524   5.141   1.435
 4425SOL    HW214175   1.512   5.229   1.298
 4426SOL     OW14176   0.524   0.465   4.486
 4426SOL    HW114177   0.587   0.391   4.508
 4426SOL    HW214178   0.431   0.430   4.486
 4427SOL     OW14179   2.382   5.610   2.055
 4427SOL    HW114180   2.331   5.655   1.982
 4427SOL    HW214181   2.465   5.568   2.018
 4428SOL     OW14182   5.811   6.019   3.783
 4428SOL    HW114183   5.742   6.006   3.855
 4428SOL    HW214184   5.766   6.043   3.697
 4429SOL     OW14185   2.700   6.053   3.484
 4429SOL    HW114186   2.671   5.957   3.479
 4429SOL    HW214187   2.716   6.088   3.392
 4430SOL     OW14188   5.651   4.057   5.327
 4430SOL    HW114189   5.554   4.054   5.304
 4430SOL    HW214190   5.662   4.052   5.426
 4431SOL     OW14191   4.123   6.694   4.660
 4431SOL    HW114192   4.023   6.700   4.649
 4431SOL    HW214193   4.167   6.710   4.572
 4432SOL     OW14194   0.912   3.852   6.532
 4432SOL    HW114195   0.942   3.770   6.483
 4432SOL    HW214196   0.817   3.842   6.559
 4433SOL     OW14197   1.107   1.151   5.752
 4433SOL    HW114198   1.029   1.090   5.768
 4433SOL    HW214199   1.078   1.246   5.760
 4434SOL     OW14200   0.359   0.320   2.578
 4434SOL    HW114201   0.272   0.357   2.612
 4434SOL    HW214202   0.435   0.364   2.625
 4435SOL     OW14203   2.277   3.987   0.473
 4435SOL    HW114204   2.316   3.898   0.449
 4435SOL    HW214205   2.179   3.977   0.490
 4436SOL     OW14206   4.574   2.164   1.600
 4436SOL    HW114207   4.562   2.213   1.687
 4436SOL    HW214208   4.613   2.074   1.619
 4437SOL     OW14209   6.452   4.267   0.020
 4437SOL    HW114210   6.493   4.191   6.990
 4437SOL    HW214211   6.497   4.353   7.013
 4438SOL     OW14212   3.910   0.869   5.509
 4438SOL    HW114213   3.918   0.824   5.598
 4438SOL    HW214214   3.915   0.968   5.520
 4439SOL     OW14215   2.778   6.311   2.843
 4439SOL    HW114216   2.707   6.257   2.798
 4439SOL    HW214217   2.863   6.259   2.846
 4440SOL     OW14218   1.240   4.537   6.500
 4440SOL    HW114219   1.313   4.604   6.513
 4440SOL    HW214220   1.168   4.577   6.443
 4441SOL     OW14221   0.086   1.945   1.257
 4441SOL    HW114222   0.158   1.969   1.192
 4441SOL    HW214223   0.123   1.885   1.327
 4442SOL     OW14224   2.155   5.277   6.883
 4442SOL    HW114225   2.229   5.299   6.946
 4442SOL    HW214226   2.176   5.193   6.834
 4443SOL     OW14227   0.752   5.652   5.963
 4443SOL    HW114228   0.750   5.699   6.051
 4443SOL    HW214229   0.659   5.647   5.926
 4444SOL     OW14230   5.938   5.297   0.253
 4444SOL    HW114231   6.029   5.331   0.275
 4444SOL    HW214232   5.942   5.241   0.170
 4445SOL     OW14233   0.956   4.574   0.372
 4445SOL    HW114234   1.002   4.581   0.461
 4445SOL    HW214235   0.893   4.497   0.374
 4446SOL     OW14236   4.446   1.802   0.852
 4446SOL    HW114237   4.543   1.812   0.872
 4446SOL    HW214238   4.414   1.713   0.885
 4447SOL     OW14239   4.176   5.670   5.499
 4447SOL    HW114240   4.237   5.614   5.444
 4447SOL    HW214241   4.086   5.626   5.505
 4448SOL     OW14242   3.758   6.416   1.268
 4448SOL    HW114243   3.705   6.491   1.228
 4448SOL    HW214244   3.790   6.442   1.359
 4449SOL     OW14245   3.533   1.584   5.881
 4449SOL    HW114246   3.448   1.534   5.864
 4449SOL    HW214247   3.535   1.667   5.827
 4450SOL     OW14248   2.540   6.640   0.121
 4450SOL    HW114249   2.444   6.664   0.139
 4450SOL    HW214250   2.544   6.547   0.084
 4451SOL     OW14251   4.584   5.308   3.299
 4451SOL    HW114252   4.627   5.341   3.215
 4451SOL    HW214253   4.653   5.300   3.371
 4452SOL     OW14254   4.819   5.881   4.188
 4452SOL    HW114255   4.915   5.908   4.198
 4452SOL    HW214256   4.764   5.961   4.163
 4453SOL     OW14257   6.773   4.508   0.319
 4453SOL    HW114258   6.772   4.416   0.281
 4453SOL    HW214259   6.867   4.542   0.323
 4454SOL     OW14260   1.198   3.005   0.708
 4454SOL    HW114261   1.266   3.068   0.670
 4454SOL    HW214262   1.201   2.919   0.657
 4455SOL     OW14263   1.152   0.294   4.809
 4455SOL    HW114264   1.054   0.285   4.827
 4455SOL    HW214265   1.178   0.231   4.736
 4456SOL     OW14266   2.411   6.981   4.334
 4456SOL    HW114267   2.349   6.904   4.319
 4456SOL    HW214268   2.498   6.963   4.290
 4457SOL     OW14269   1.552   1.497   4.364
 4457SOL    HW114270   1.647   1.530   4.367
 4457SOL    HW214271   1.549   1.400   4.386
 4458SOL     OW14272   1.210   3.419   6.913
 4458SOL    HW114273   1.211   3.491   6.982
 4458SOL    HW214274   1.117   3.403   6.882
 4459SOL     OW14275   0.504   3.183   3.284
 4459SOL    HW114276   0.472   3.215   3.195
 4459SOL    HW214277   0.425   3.170   3.344
 4460SOL     OW14278   0.177   2.263   5.003
 4460SOL    HW114279   0.149   2.204   4.928
 4460SOL    HW214280   0.275   2.283   4.994
 4461SOL     OW14281   1.710   0.503   0.886
 4461SOL    HW114282   1.713   0.426   0.950
 4461SOL    HW214283   1.802   0.538   0.871
 4462SOL     OW14284   6.695   4.135   3.007
 4462SOL    HW114285   6.747   4.051   2.992
 4462SOL    HW214286   6.725   4.204   2.941
 4463SOL     OW14287   5.901   1.633   0.241
 4463SOL    HW114288   5.817   1.633   0.187
 4463SOL    HW214289   5.979   1.655   0.183
 4464SOL     OW14290   0.169   3.970   1.437
 4464SOL    HW114291   0.267   3.988   1.431
 4464SOL    HW214292   0.118   4.052   1.411
 4465SOL     OW14293   3.528   5.450   1.760
 4465SOL    HW114294   3.516   5.488   1.668
 4465SOL    HW214295   3.625   5.451   1.784
 4466SOL     OW14296   0.967   2.368   1.964
 4466SOL    HW114297   0.896   2.333   2.025
 4466SOL    HW214298   1.050   2.386   2.015
 4467SOL     OW14299   5.222   5.174   2.560
 4467SOL    HW114300   5.291   5.246   2.552
 4467SOL    HW214301   5.171   5.186   2.644
 4468SOL     OW14302   1.818   3.171   1.443
 4468SOL    HW114303   1.835   3.207   1.535
 4468SOL    HW214304   1.760   3.234   1.393
 4469SOL     OW14305   2.446   5.719   1.581
 4469SOL    HW114306   2.399   5.788   1.525
 4469SOL    HW214307   2.503   5.662   1.522
 4470SOL     OW14308   1.284   0.293   2.890
 4470SOL    HW114309   1.335   0.220   2.845
 4470SOL    HW214310   1.287   0.279   2.989
 4471SOL     OW14311   1.023   6.868   6.420
 4471SOL    HW114312   0.965   6.945   6.446
 4471SOL    HW214313   1.119   6.892   6.434
 4472SOL     OW14314   1.607   2.756   0.835
 4472SOL    HW114315   1.707   2.765   0.836
 4472SOL    HW214316   1.573   2.751   0.929
 4473SOL     OW14317   0.285   3.561   4.461
 4473SOL    HW114318   0.310   3.642   4.407
 4473SOL    HW214319   0.353   3.547   4.532
 4474SOL     OW14320   3.240   5.901   1.010
 4474SOL    HW114321   3.311   5.834   0.986
 4474SOL    HW214322   3.193   5.872   1.093
 4475SOL     OW14323   0.877   3.795   0.920
 4475SOL    HW114324   0.964   3.746   0.923
 4475SOL    HW214325   0.865   3.846   1.006
 4476SOL     OW14326   5.489   0.950   4.222
 4476SOL    HW114327   5.409   0.959   4.162
 4476SOL    HW214328   5.572   0.972   4.169
 4477SOL     OW14329   0.609   0.759   4.937
 4477SOL    HW114330   0.511   0.744   4.949
 4477SOL    HW214331   0.629   0.857   4.937
 4478SOL     OW14332   1.565   7.010   1.581
 4478SOL    HW114333   1.547   0.052   1.505
 4478SOL    HW214334   1.535   6.918   1.557
 4479SOL     OW14335   1.714   2.398   0.120
 4479SOL    HW114336   1.744   2.353   0.204
 4479SOL    HW214337   1.687   2.328   0.053
 4480SOL     OW14338   0.918   6.858   3.448
 4480SOL    HW114339   0.941   6.762   3.466
 4480SOL    HW214340   0.998   6.915   3.465
 4481SOL     OW14341   1.870   3.831   5.935
 4481SOL    HW114342   1.960   3.872   5.945
 4481SOL    HW214343   1.831   3.813   6.026
 4482SOL     OW14344   2.110   0.018   1.529
 4482SOL    HW114345   2.125   0.031   1.628
 4482SOL    HW214346   2.013   0.006   1.511
 4483SOL     OW14347   1.197   3.618   1.021
 4483SOL    HW114348   1.171   3.521   1.018
 4483SOL    HW214349   1.159   3.660   1.103
 4484SOL     OW14350   2.421   1.136   6.904
 4484SOL    HW114351   2.418   1.234   6.883
 4484SOL    HW214352   2.334   1.094   6.878
 4485SOL     OW14353   6.589   2.449   5.425
 4485SOL    HW114354   6.642   2.519   5.473
 4485SOL    HW214355   6.605   2.456   5.327
 4486SOL     OW14356   4.800   4.933   4.446
 4486SOL    HW114357   4.854   4.995   4.502
 4486SOL    HW214358   4.843   4.922   4.357
 4487SOL     OW14359   0.594   2.683   6.635
 4487SOL    HW114360   0.594   2.608   6.700
 4487SOL    HW214361   0.531   2.755   6.665
 4488SOL     OW14362   0.146   4.225   3.343
 4488SOL    HW114363   0.167   4.245   3.439
 4488SOL    HW214364   0.179   4.299   3.285
 4489SOL     OW14365   3.806   6.369   5.965
 4489SOL    HW114366   3.736   6.298   5.961
 4489SOL    HW214367   3.843   6.384   5.874
 4490SOL     OW14368   5.129   1.262   1.772
 4490SOL    HW114369   5.195   1.187   1.773
 4490SOL    HW214370   5.177   1.349   1.785
 4491SOL     OW14371   1.119   3.098   3.180
 4491SOL    HW114372   1.100   3.108   3.082
 4491SOL    HW214373   1.090   3.181   3.228
 4492SOL     OW14374   6.905   0.831   2.339
 4492SOL    HW114375   6.914   0.925   2.370
 4492SOL    HW214376   6.829   0.824   2.275
 4493SOL     OW14377   5.410   1.426   5.917
 4493SOL    HW114378   5.344   1.500   5.907
 4493SOL    HW214379   5.371   1.353   5.973
 4494SOL     OW14380   1.430   0.244   1.644
 4494SOL    HW114381   1.427   0.282   1.736
 4494SOL    HW214382   1.462   0.149   1.647
 4495SOL     OW14383   4.213   6.819   1.126
 4495SOL    HW114384   4.260   6.745   1.078
 4495SOL    HW214385   4.253   6.907   1.098
 4496SOL     OW14386   2.702   6.209   5.506
 4496SOL    HW114387   2.670   6.128   5.555
 4496SOL    HW214388   2.672   6.291   5.555
 4497SOL     OW14389   3.783   0.896   6.005
 4497SOL    HW114390   3.747   0.827   5.942
 4497SOL    HW214391   3.802   0.980   5.954
 4498SOL     OW14392   0.618   4.571   4.311
 4498SOL    HW114393   0.525   4.567   4.349
 4498SOL    HW214394   0.616   4.617   4.222
 4499SOL     OW14395   5.725   1.439   2.301
 4499SOL    HW114396   5.797   1.505   2.324
 4499SOL    HW214397   5.654   1.442   2.371
 4500SOL     OW14398   4.279   6.099   0.542
 4500SOL    HW114399   4.300   6.001   0.551
 4500SOL    HW214400   4.363   6.152   0.552
 4501SOL     OW14401   5.989   0.783   2.461
 4501SOL    HW114402   6.072   0.735   2.490
 4501SOL    HW214403   6.009   0.839   2.381
 4502SOL     OW14404   0.078   3.809   6.437
 4502SOL    HW114405   0.099   3.781   6.530
 4502SOL    HW214406   0.084   3.730   6.376
 4503SOL     OW14407   3.382   1.652   2.761
 4503SOL    HW114408   3.450   1.603   2.707
 4503SOL    HW214409   3.319   1.699   2.700
 4504SOL     OW14410   0.594   2.350   2.318
 4504SOL    HW114411   0.525   2.403   2.368
 4504SOL    HW214412   0.672   2.408   2.297
 4505SOL     OW14413   5.681   3.313   3.746
 4505SOL    HW114414   5.777   3.331   3.725
 4505SOL    HW214415   5.638   3.397   3.779
 4506SOL     OW14416   5.363   3.472   6.276
 4506SOL    HW114417   5.416   3.391   6.250
 4506SOL    HW214418   5.372   3.487   6.374
 4507SOL     OW14419   6.385   2.288   3.459
 4507SOL    HW114420   6.315   2.217   3.458
 4507SOL    HW214421   6.451   2.271   3.386
 4508SOL     OW14422   6.870   4.412   0.565
 4508SOL    HW114423   6.852   4.439   0.470
 4508SOL    HW214424   6.968   4.419   0.583
 4509SOL     OW14425   5.034   2.419   2.117
 4509SOL    HW114426   5.089   2.364   2.180
 4509SOL    HW214427   5.037   2.514   2.145
 4510SOL     OW14428   4.104   1.272   4.648
 4510SOL    HW114429   4.050   1.316   4.576
 4510SOL    HW214430   4.170   1.338   4.685
 4511SOL     OW14431   6.692   4.815   6.593
 4511SOL    HW114432   6.676   4.903   6.547
 4511SOL    HW214433   6.775   4.821   6.648
 4512SOL     OW14434   3.137   3.040   5.515
 4512SOL    HW114435   3.086   3.119   5.548
 4512SOL    HW214436   3.090   3.000   5.436
 4513SOL     OW14437   0.264   6.946   0.452
 4513SOL    HW114438   0.313   6.915   0.534
 4513SOL    HW214439   0.166   6.932   0.465
 4514SOL     OW14440   4.448   4.854   6.743
 4514SOL    HW114441   4.400   4.905   6.672
 4514SOL    HW214442   4.443   4.906   6.829
 4515SOL     OW14443   4.053   0.687   6.421
 4515SOL    HW114444   4.002   0.768   6.451
 4515SOL    HW214445   3.999   0.637   6.354
 4516SOL     OW14446   2.997   2.471   5.883
 4516SOL    HW114447   2.941   2.496   5.961
 4516SOL    HW214448   3.053   2.549   5.855
 4517SOL     OW14449   4.427   0.962   5.023
 4517SOL    HW114450   4.400   0.887   5.084
 4517SOL    HW214451   4.509   0.936   4.972
 4518SOL     OW14452   0.279   6.426   0.966
 4518SOL    HW114453   0.328   6.433   0.879
 4518SOL    HW214454   0.225   6.508   0.982
 4519SOL     OW14455   4.678   6.791   0.089
 4519SOL    HW114456   4.688   6.787   0.188
 4519SOL    HW214457   4.666   6.699   0.053
 4520SOL     OW14458   4.532   5.302   5.105
 4520SOL    HW114459   4.516   5.396   5.073
 4520SOL    HW214460   4.624   5.273   5.079
 4521SOL     OW14461   4.235   2.281   4.337
 4521SOL    HW114462   4.299   2.315   4.405
 4521SOL    HW214463   4.234   2.344   4.259
 4522SOL     OW14464   5.769   3.835   3.696
 4522SOL    HW114465   5.674   3.853   3.669
 4522SOL    HW214466   5.770   3.793   3.787
 4523SOL     OW14467   6.548   2.918   5.981
 4523SOL    HW114468   6.475   2.978   5.949
 4523SOL    HW214469   6.586   2.954   6.067
 4524SOL     OW14470   2.158   3.874   2.308
 4524SOL    HW114471   2.143   3.779   2.281
 4524SOL    HW214472   2.166   3.879   2.407
 4525SOL     OW14473   3.789   2.796   5.655
 4525SOL    HW114474   3.758   2.711   5.611
 4525SOL    HW214475   3.806   2.779   5.752
 4526SOL     OW14476   1.152   0.231   5.097
 4526SOL    HW114477   1.235   0.270   5.137
 4526SOL    HW214478   1.145   0.259   5.001
 4527SOL     OW14479   0.411   1.664   2.663
 4527SOL    HW114480   0.487   1.678   2.600
 4527SOL    HW214481   0.403   1.743   2.724
 4528SOL     OW14482   5.175   0.386   5.088
 4528SOL    HW114483   5.242   0.385   5.014
 4528SOL    HW214484   5.208   0.328   5.163
 4529SOL     OW14485   2.088   1.991   3.782
 4529SOL    HW114486   2.034   1.916   3.821
 4529SOL    HW214487   2.140   2.036   3.854
 4530SOL     OW14488   4.205   6.011   6.461
 4530SOL    HW114489   4.209   6.077   6.386
 4530SOL    HW214490   4.298   5.983   6.485
 4531SOL     OW14491   1.464   6.474   5.107
 4531SOL    HW114492   1.365   6.490   5.101
 4531SOL    HW214493   1.491   6.473   5.203
 4532SOL     OW14494   6.554   1.464   2.827
 4532SOL    HW114495   6.466   1.497   2.792
 4532SOL    HW214496   6.576   1.378   2.782
 4533SOL     OW14497   2.951   0.282   1.420
 4533SOL    HW114498   2.992   0.330   1.498
 4533SOL    HW214499   2.917   0.193   1.450
 4534SOL     OW14500   5.232   1.838   4.454
 4534SOL    HW114501   5.249   1.747   4.492
 4534SOL    HW214502   5.174   1.830   4.373
 4535SOL     OW14503   1.660   0.273   0.099
 4535SOL    HW114504   1.732   0.302   0.036
 4535SOL    HW214505   1.694   0.277   0.192
 4536SOL     OW14506   3.414   0.193   6.052
 4536SOL    HW114507   3.431   0.097   6.074
 4536SOL    HW214508   3.461   0.251   6.118
 4537SOL     OW14509   2.893   3.367   3.311
 4537SOL    HW114510   2.902   3.275   3.274
 4537SOL    HW214511   2.930   3.370   3.404
 4538SOL     OW14512   0.347   2.215   0.758
 4538SOL    HW114513   0.251   2.187   0.766
 4538SOL    HW214514   0.372   2.220   0.661
 4539SOL     OW14515   1.664   5.586   4.921
 4539SOL    HW114516   1.644   5.504   4.868
 4539SOL    HW214517   1.579   5.628   4.953
 4540SOL     OW14518   1.129   1.929   0.511
 4540SOL    HW114519   1.222   1.959   0.535
 4540SOL    HW214520   1.124   1.912   0.413
 4541SOL     OW14521   3.930   3.278   6.876
 4541SOL    HW114522   3.937   3.326   6.789
 4541SOL    HW214523   3.995   3.201   6.877
 4542SOL     OW14524   0.395   1.422   6.276
 4542SOL    HW114525   0.457   1.383   6.344
 4542SOL    HW214526   0.404   1.522   6.275
 4543SOL     OW14527   3.560   1.989   0.905
 4543SOL    HW114528   3.573   2.088   0.906
 4543SOL    HW214529   3.490   1.965   0.838
 4544SOL     OW14530   4.608   6.756   0.724
 4544SOL    HW114531   4.621   6.777   0.820
 4544SOL    HW214532   4.547   6.824   0.682
 4545SOL     OW14533   2.520   2.988   5.613
 4545SOL    HW114534   2.455   2.973   5.687
 4545SOL    HW214535   2.482   3.056   5.549
 4546SOL     OW14536   3.272   0.300   5.828
 4546SOL    HW114537   3.206   0.370   5.852
 4546SOL    HW214538   3.314   0.263   5.911
 4547SOL     OW14539   0.586   0.481   6.893
 4547SOL    HW114540   0.554   0.392   6.861
 4547SOL    HW214541   0.522   0.553   6.864
 4548SOL     OW14542   3.351   1.616   2.041
 4548SOL    HW114543   3.356   1.608   2.141
 4548SOL    HW214544   3.378   1.708   2.014
 4549SOL     OW14545   0.503   3.666   3.664
 4549SOL    HW114546   0.516   3.567   3.656
 4549SOL    HW214547   0.490   3.690   3.760
 4550SOL     OW14548   2.150   5.734   4.910
 4550SOL    HW114549   2.133   5.637   4.892
 4550SOL    HW214550   2.145   5.751   5.008
 4551SOL     OW14551   2.547   2.301   5.527
 4551SOL    HW114552   2.628   2.360   5.524
 4551SOL    HW214553   2.551   2.243   5.608
 4552SOL     OW14554   4.593   0.979   0.622
 4552SOL    HW114555   4.632   1.046   0.558
 4552SOL    HW214556   4.666   0.937   0.676
 4553SOL     OW14557   0.233   6.134   0.243
 4553SOL    HW114558   0.284   6.184   0.313
 4553SOL    HW214559   0.282   6.051   0.218
 4554SOL     OW14560   5.801   0.039   3.097
 4554SOL    HW114561   5.836   6.981   3.150
 4554SOL    HW214562   5.784   0.009   3.003
 4555SOL     OW14563   0.772   0.789   1.473
 4555SOL    HW114564   0.854   0.777   1.417
 4555SOL    HW214565   0.763   0.712   1.536
 4556SOL     OW14566   5.371   4.766   4.139
 4556SOL    HW114567   5.342   4.775   4.044
 4556SOL    HW214568   5.295   4.791   4.199
 4557SOL     OW14569   0.238   4.800   4.168
 4557SOL    HW114570   0.168   4.855   4.213
 4557SOL    HW214571   0.222   4.798   4.069
 4558SOL     OW14572   1.351   4.122   4.930
 4558SOL    HW114573   1.339   4.023   4.942
 4558SOL    HW214574   1.352   4.166   5.020
 4559SOL     OW14575   6.718   3.144   3.976
 4559SOL    HW114576   6.755   3.071   4.035
 4559SOL    HW214577   6.623   3.122   3.952
 4560SOL     OW14578   5.513   4.749   2.891
 4560SOL    HW114579   5.497   4.841   2.925
 4560SOL    HW214580   5.612   4.730   2.890
 4561SOL     OW14581   4.800   2.632   4.231
 4561SOL    HW114582   4.739   2.681   4.293
 4561SOL    HW214583   4.781   2.534   4.235
 4562SOL     OW14584   3.610   1.163   0.262
 4562SOL    HW114585   3.540   1.115   0.315
 4562SOL    HW214586   3.567   1.210   0.184
 4563SOL     OW14587   0.836   4.577   1.963
 4563SOL    HW114588   0.910   4.630   2.004
 4563SOL    HW214589   0.854   4.479   1.975
 4564SOL     OW14590   2.261   4.030   2.777
 4564SOL    HW114591   2.226   3.985   2.859
 4564SOL    HW214592   2.322   4.105   2.803
 4565SOL     OW14593   1.728   6.895   5.884
 4565SOL    HW114594   1.766   6.987   5.871
 4565SOL    HW214595   1.746   6.865   5.978
 4566SOL     OW14596   6.321   4.302   3.285
 4566SOL    HW114597   6.261   4.223   3.297
 4566SOL    HW214598   6.306   4.366   3.361
 4567SOL     OW14599   0.182   6.874   6.805
 4567SOL    HW114600   0.137   6.852   6.719
 4567SOL    HW214601   0.264   6.929   6.786
 4568SOL     OW14602   1.198   5.055   3.806
 4568SOL    HW114603   1.234   5.095   3.891
 4568SOL    HW214604   1.273   5.011   3.756
 4569SOL     OW14605   2.355   1.830   3.093
 4569SOL    HW114606   2.436   1.783   3.129
 4569SOL    HW214607   2.331   1.906   3.153
 4570SOL     OW14608   5.144   5.154   1.541
 4570SOL    HW114609   5.171   5.239   1.586
 4570SOL    HW214610   5.216   5.124   1.479
 4571SOL     OW14611   2.470   3.645   5.993
 4571SOL    HW114612   2.414   3.637   5.910
 4571SOL    HW214613   2.498   3.740   6.006
 4572SOL     OW14614   3.542   2.815   2.439
 4572SOL    HW114615   3.505   2.836   2.349
 4572SOL    HW214616   3.606   2.738   2.432
 4573SOL     OW14617   3.024   5.067   6.941
 4573SOL    HW114618   3.048   5.107   0.010
 4573SOL    HW214619   2.927   5.082   6.923
 4574SOL     OW14620   5.110   0.924   2.314
 4574SOL    HW114621   5.136   0.929   2.411
 4574SOL    HW214622   5.157   0.846   2.271
 4575SOL     OW14623   0.660   0.349   5.146
 4575SOL    HW114624   0.573   0.369   5.191
 4575SOL    HW214625   0.735   0.364   5.211
 4576SOL     OW14626   3.395   3.879   6.727
 4576SOL    HW114627   3.400   3.779   6.736
 4576SOL    HW214628   3.343   3.917   6.804
 4577SOL     OW14629   0.833   1.859   2.165
 4577SOL    HW114630   0.736   1.836   2.158
 4577SOL    HW214631   0.849   1.914   2.247
 4578SOL     OW14632   1.806   1.383   2.565
 4578SOL    HW114633   1.730   1.437   2.530
 4578SOL    HW214634   1.886   1.442   2.578
 4579SOL     OW14635   4.750   0.851   3.744
 4579SOL    HW114636   4.819   0.837   3.674
 4579SOL    HW214637   4.794   0.882   3.829
 4580SOL     OW14638   0.406   1.238   0.595
 4580SOL    HW114639   0.369   1.185   0.519
 4580SOL    HW214640   0.337   1.304   0.625
 4581SOL     OW14641   2.648   0.877   1.009
 4581SOL    HW114642   2.580   0.928   1.061
 4581SOL    HW214643   2.694   0.812   1.069
 4582SOL     OW14644   0.101   0.758   3.600
 4582SOL    HW114645   0.135   0.752   3.506
 4582SOL    HW214646   0.002   0.765   3.599
 4583SOL     OW14647   1.892   0.255   6.963
 4583SOL    HW114648   1.963   0.323   6.980
 4583SOL    HW214649   1.929   0.182   6.905
 4584SOL     OW14650   0.570   2.028   4.390
 4584SOL    HW114651   0.632   2.101   4.419
 4584SOL    HW214652   0.616   1.972   4.321
 4585SOL     OW14653   1.334   2.577   3.377
 4585SOL    HW114654   1.407   2.639   3.404
 4585SOL    HW214655   1.270   2.566   3.454
 4586SOL     OW14656   6.006   4.989   6.499
 4586SOL    HW114657   6.004   5.032   6.589
 4586SOL    HW214658   6.092   5.011   6.453
 4587SOL     OW14659   4.283   3.997   5.508
 4587SOL    HW114660   4.211   3.929   5.520
 4587SOL    HW214661   4.251   4.068   5.445
 4588SOL     OW14662   3.323   3.692   6.478
 4588SOL    HW114663   3.414   3.655   6.497
 4588SOL    HW214664   3.255   3.620   6.490
 4589SOL     OW14665   5.994   6.247   2.569
 4589SOL    HW114666   6.027   6.153   2.567
 4589SOL    HW214667   5.938   6.265   2.488
 4590SOL     OW14668   3.663   5.651   1.480
 4590SOL    HW114669   3.567   5.626   1.493
 4590SOL    HW214670   3.712   5.641   1.566
 4591SOL     OW14671   2.412   0.999   5.131
 4591SOL    HW114672   2.467   0.975   5.051
 4591SOL    HW214673   2.445   1.086   5.169
 4592SOL     OW14674   2.480   1.459   3.835
 4592SOL    HW114675   2.457   1.555   3.820
 4592SOL    HW214676   2.463   1.407   3.751
 4593SOL     OW14677   1.361   5.883   4.504
 4593SOL    HW114678   1.417   5.848   4.429
 4593SOL    HW214679   1.363   5.983   4.503
 4594SOL     OW14680   2.374   6.679   3.304
 4594SOL    HW114681   2.425   6.595   3.323
 4594SOL    HW214682   2.283   6.657   3.270
 4595SOL     OW14683   5.734   1.987   6.383
 4595SOL    HW114684   5.634   1.982   6.384
 4595SOL    HW214685   5.766   1.979   6.289
 4596SOL     OW14686   1.262   0.661   2.199
 4596SOL    HW114687   1.205   0.608   2.262
 4596SOL    HW214688   1.211   0.680   2.115
 4597SOL     OW14689   2.706   5.718   0.430
 4597SOL    HW114690   2.758   5.705   0.514
 4597SOL    HW214691   2.720   5.810   0.395
 4598SOL     OW14692   0.563   4.373   0.559
 4598SOL    HW114693   0.635   4.389   0.626
 4598SOL    HW214694   0.501   4.452   0.557
 4599SOL     OW14695   3.781   6.731   2.064
 4599SOL    HW114696   3.742   6.801   2.004
 4599SOL    HW214697   3.809   6.652   2.008
 4600SOL     OW14698   0.384   0.006   6.698
 4600SOL    HW114699   0.427   6.941   6.669
 4600SOL    HW214700   0.359   0.061   6.618
 4601SOL     OW14701   1.778   0.577   5.639
 4601SOL    HW114702   1.694   0.528   5.613
 4601SOL    HW214703   1.772   0.606   5.734
 4602SOL     OW14704   3.102   2.029   6.277
 4602SOL    HW114705   3.092   2.096   6.204
 4602SOL    HW214706   3.030   1.960   6.268
 4603SOL     OW14707   3.945   6.803   1.090
 4603SOL    HW114708   3.935   6.887   1.036
 4603SOL    HW214709   4.038   6.796   1.125
 4604SOL     OW14710   0.181   6.696   4.124
 4604SOL    HW114711   0.142   6.696   4.216
 4604SOL    HW214712   0.114   6.658   4.060
 4605SOL     OW14713   3.584   0.221   1.480
 4605SOL    HW114714   3.516   0.241   1.410
 4605SOL    HW214715   3.539   0.214   1.570
 4606SOL     OW14716   0.174   6.460   4.991
 4606SOL    HW114717   0.142   6.541   5.040
 4606SOL    HW214718   0.106   6.432   4.924
 4607SOL     OW14719   1.909   1.790   0.786
 4607SOL    HW114720   1.842   1.731   0.741
 4607SOL    HW214721   1.908   1.880   0.742
 4608SOL     OW14722   0.334   3.227   4.703
 4608SOL    HW114723   0.359   3.255   4.611
 4608SOL    HW214724   0.281   3.142   4.699
 4609SOL     OW14725   5.019   5.389   6.951
 4609SOL    HW114726   5.098   5.327   6.952
 4609SOL    HW214727   5.032   5.461   7.019
 4610SOL     OW14728   5.280   5.122   0.509
 4610SOL    HW114729   5.280   5.030   0.468
 4610SOL    HW214730   5.373   5.144   0.540
 4611SOL     OW14731   0.120   1.356   6.247
 4611SOL    HW114732   0.068   1.425   6.297
 4611SOL    HW214733   0.217   1.379   6.247
 4612SOL     OW14734   2.146   1.607   2.045
 4612SOL    HW114735   2.067   1.653   2.086
 4612SOL    HW214736   2.167   1.525   2.098
 4613SOL     OW14737   1.410   4.786   1.729
 4613SOL    HW114738   1.396   4.757   1.634
 4613SOL    HW214739   1.412   4.886   1.733
 4614SOL     OW14740   6.744   4.360   3.787
 4614SOL    HW114741   6.813   4.424   3.821
 4614SOL    HW214742   6.698   4.315   3.864
 4615SOL     OW14743   1.409   4.208   6.380
 4615SOL    HW114744   1.438   4.291   6.332
 4615SOL    HW214745   1.466   4.131   6.350
 4616SOL     OW14746   0.734   3.502   6.228
 4616SOL    HW114747   0.681   3.540   6.152
 4616SOL    HW214748   0.719   3.404   6.234
 4617SOL     OW14749   0.220   2.584   3.585
 4617SOL    HW114750   0.306   2.564   3.633
 4617SOL    HW214751   0.152   2.515   3.610
 4618SOL     OW14752   1.864   3.642   5.719
 4618SOL    HW114753   1.854   3.704   5.796
 4618SOL    HW214754   1.928   3.569   5.742
 4619SOL     OW14755   4.873   6.435   6.208
 4619SOL    HW114756   4.918   6.392   6.130
 4619SOL    HW214757   4.872   6.373   6.286
 4620SOL     OW14758   0.458   4.773   1.817
 4620SOL    HW114759   0.403   4.843   1.862
 4620SOL    HW214760   0.470   4.797   1.721
 4621SOL     OW14761   3.163   0.333   2.879
 4621SOL    HW114762   3.192   0.246   2.839
 4621SOL    HW214763   3.232   0.403   2.861
 4622SOL     OW14764   5.457   0.221   0.391
 4622SOL    HW114765   5.463   0.286   0.315
 4622SOL    HW214766   5.412   0.137   0.361
 4623SOL     OW14767   3.166   4.990   2.193
 4623SOL    HW114768   3.219   4.997   2.109
 4623SOL    HW214769   3.091   4.925   2.179
 4624SOL     OW14770   4.430   1.365   1.781
 4624SOL    HW114771   4.389   1.456   1.775
 4624SOL    HW214772   4.366   1.302   1.825
 4625SOL     OW14773   1.610   5.732   1.783
 4625SOL    HW114774   1.598   5.675   1.702
 4625SOL    HW214775   1.706   5.731   1.810
 4626SOL     OW14776   3.778   2.910   1.964
 4626SOL    HW114777   3.858   2.951   2.008
 4626SOL    HW214778   3.695   2.956   1.994
 4627SOL     OW14779   5.622   6.829   5.110
 4627SOL    HW114780   5.635   6.927   5.096
 4627SOL    HW214781   5.565   6.792   5.037
 4628SOL     OW14782   5.598   4.837   3.463
 4628SOL    HW114783   5.588   4.742   3.493
 4628SOL    HW214784   5.626   4.839   3.367
 4629SOL     OW14785   1.947   5.417   6.948
 4629SOL    HW114786   2.033   5.372   6.925
 4629SOL    HW214787   1.924   5.399   0.024
 4630SOL     OW14788   2.028   3.574   1.425
 4630SOL    HW114789   2.109   3.627   1.398
 4630SOL    HW214790   2.057   3.484   1.460
 4631SOL     OW14791   6.765   0.705   2.723
 4631SOL    HW114792   6.863   0.697   2.704
 4631SOL    HW214793   6.714   0.641   2.665
 4632SOL     OW14794   3.054   5.157   2.936
 4632SOL    HW114795   3.010   5.124   3.020
 4632SOL    HW214796   3.005   5.238   2.903
 4633SOL     OW14797   4.959   2.553   4.792
 4633SOL    HW114798   4.880   2.533   4.735
 4633SOL    HW214799   4.933   2.549   4.888
 4634SOL     OW14800   4.070   3.772   4.821
 4634SOL    HW114801   4.028   3.743   4.735
 4634SOL    HW214802   4.140   3.841   4.802
 4635SOL     OW14803   4.262   5.827   1.959
 4635SOL    HW114804   4.177   5.875   1.980
 4635SOL    HW214805   4.334   5.861   2.020
 4636SOL     OW14806   1.633   5.340   6.905
 4636SOL    HW114807   1.614   5.242   6.912
 4636SOL    HW214808   1.718   5.353   6.853
 4637SOL     OW14809   2.993   1.920   3.327
 4637SOL    HW114810   2.917   1.861   3.300
 4637SOL    HW214811   3.078   1.867   3.328
 4638SOL     OW14812   4.528   4.762   0.251
 4638SOL    HW114813   4.603   4.703   0.279
 4638SOL    HW214814   4.441   4.715   0.268
 4639SOL     OW14815   3.938   2.198   1.869
 4639SOL    HW114816   3.846   2.236   1.870
 4639SOL    HW214817   4.003   2.267   1.836
 4640SOL     OW14818   6.130   3.487   0.076
 4640SOL    HW114819   6.152   3.417   0.008
 4640SOL    HW214820   6.213   3.537   0.101
 4641SOL     OW14821   1.839   5.532   4.379
 4641SOL    HW114822   1.907   5.516   4.450
 4641SOL    HW214823   1.756   5.480   4.400
 4642SOL     OW14824   6.576   1.283   4.886
 4642SOL    HW114825   6.508   1.214   4.911
 4642SOL    HW214826   6.549   1.372   4.923
 4643SOL     OW14827   0.501   1.994   0.069
 4643SOL    HW114828   0.551   1.970   7.006
 4643SOL    HW214829   0.456   1.912   0.105
 4644SOL     OW14830   1.703   0.256   0.396
 4644SOL    HW114831   1.639   0.277   0.470
 4644SOL    HW214832   1.793   0.295   0.418
 4645SOL     OW14833   6.470   1.514   5.005
 4645SOL    HW114834   6.501   1.600   5.046
 4645SOL    HW214835   6.430   1.532   4.915
 4646SOL     OW14836   2.229   4.157   3.953
 4646SOL    HW114837   2.167   4.212   4.010
 4646SOL    HW214838   2.190   4.066   3.939
 4647SOL     OW14839   1.678   6.597   1.713
 4647SOL    HW114840   1.658   6.510   1.668
 4647SOL    HW214841   1.772   6.624   1.691
 4648SOL     OW14842   2.798   1.129   5.186
 4648SOL    HW114843   2.712   1.150   5.139
 4648SOL    HW214844   2.827   1.036   5.162
 4649SOL     OW14845   6.141   1.240   0.452
 4649SOL    HW114846   6.065   1.278   0.400
 4649SOL    HW214847   6.213   1.210   0.390
 4650SOL     OW14848   4.805   6.141   0.989
 4650SOL    HW114849   4.900   6.157   1.018
 4650SOL    HW214850   4.792   6.044   0.968
 4651SOL     OW14851   0.085   3.595   5.914
 4651SOL    HW114852   7.015   3.552   5.914
 4651SOL    HW214853   0.083   3.674   5.852
 4652SOL     OW14854   0.136   6.645   5.208
 4652SOL    HW114855   0.198   6.612   5.279
 4652SOL    HW214856   0.130   6.745   5.213
 4653SOL     OW14857   6.889   5.983   1.219
 4653SOL    HW114858   6.873   5.950   1.312
 4653SOL    HW214859   6.805   5.973   1.166
 4654SOL     OW14860   0.762   0.407   6.057
 4654SOL    HW114861   0.674   0.399   6.009
 4654SOL    HW214862   0.806   0.493   6.030
 4655SOL     OW14863   5.292   3.243   2.110
 4655SOL    HW114864   5.333   3.180   2.176
 4655SOL    HW214865   5.230   3.193   2.049
 4656SOL     OW14866   6.718   0.977   2.132
 4656SOL    HW114867   6.715   1.070   2.094
 4656SOL    HW214868   6.631   0.956   2.177
 4657SOL     OW14869   3.642   1.384   3.227
 4657SOL    HW114870   3.705   1.366   3.302
 4657SOL    HW214871   3.694   1.398   3.142
 4658SOL     OW14872   1.248   2.265   6.526
 4658SOL    HW114873   1.281   2.245   6.619
 4658SOL    HW214874   1.157   2.226   6.515
 4659SOL     OW14875   1.954   4.467   0.621
 4659SOL    HW114876   1.923   4.552   0.578
 4659SOL    HW214877   2.004   4.489   0.705
 4660SOL     OW14878   1.244   5.221   3.583
 4660SOL    HW114879   1.230   5.173   3.670
 4660SOL    HW214880   1.273   5.156   3.513
 4661SOL     OW14881   1.053   1.828   5.757
 4661SOL    HW114882   1.108   1.902   5.796
 4661SOL    HW214883   1.095   1.740   5.780
 4662SOL     OW14884   1.977   0.349   5.666
 4662SOL    HW114885   1.911   0.425   5.662
 4662SOL    HW214886   1.995   0.317   5.573
 4663SOL     OW14887   1.394   0.052   0.332
 4663SOL    HW114888   1.492   0.051   0.311
 4663SOL    HW214889   1.380   0.024   0.427
 4664SOL     OW14890   5.887   6.997   5.886
 4664SOL    HW114891   5.899   0.022   5.797
 4664SOL    HW214892   5.849   6.906   5.872
 4665SOL     OW14893   0.561   0.507   3.475
 4665SOL    HW114894   0.496   0.569   3.518
 4665SOL    HW214895   0.605   0.450   3.545
 4666SOL     OW14896   1.540   2.100   5.823
 4666SOL    HW114897   1.568   2.017   5.871
 4666SOL    HW214898   1.560   2.180   5.879
 4667SOL     OW14899   6.705   3.277   0.805
 4667SOL    HW114900   6.733   3.270   0.901
 4667SOL    HW214901   6.774   3.330   0.754
 4668SOL     OW14902   4.895   2.192   4.542
 4668SOL    HW114903   4.953   2.123   4.585
 4668SOL    HW214904   4.936   2.222   4.456
 4669SOL     OW14905   5.010   6.956   6.339
 4669SOL    HW114906   5.053   6.867   6.325
 4669SOL    HW214907   5.030   6.989   6.431
 4670SOL     OW14908   0.044   3.092   6.828
 4670SOL    HW114909   0.112   3.080   6.900
 4670SOL    HW214910   0.087   3.129   6.746
 4671SOL     OW14911   0.421   3.072   1.948
 4671SOL    HW114912   0.487   3.052   2.020
 4671SOL    HW214913   0.433   3.167   1.918
 4672SOL     OW14914   3.270   4.010   6.921
 4672SOL    HW114915   3.201   3.980   6.986
 4672SOL    HW214916   3.253   4.105   6.895
 4673SOL     OW14917   6.001   0.929   0.800
 4673SOL    HW114918   5.972   0.895   0.889
 4673SOL    HW214919   5.948   1.011   0.777
 4674SOL     OW14920   0.748   2.648   0.869
 4674SOL    HW114921   0.735   2.741   0.903
 4674SOL    HW214922   0.762   2.650   0.770
 4675SOL     OW14923   1.918   5.379   6.676
 4675SOL    HW114924   1.867   5.304   6.634
 4675SOL    HW214925   1.917   5.367   6.776
 4676SOL     OW14926   0.677   6.335   4.023
 4676SOL    HW114927   0.640   6.414   4.071
 4676SOL    HW214928   0.647   6.337   3.928
 4677SOL     OW14929   3.834   0.010   6.868
 4677SOL    HW114930   3.749   6.981   6.890
 4677SOL    HW214931   3.818   0.072   6.791
 4678SOL     OW14932   2.308   4.165   6.935
 4678SOL    HW114933   2.272   4.258   6.921
 4678SOL    HW214934   2.359   4.137   6.853
 4679SOL     OW14935   2.522   6.718   5.699
 4679SOL    HW114936   2.459   6.640   5.706
 4679SOL    HW214937   2.499   6.772   5.618
 4680SOL     OW14938   1.695   4.706   0.262
 4680SOL    HW114939   1.788   4.703   0.299
 4680SOL    HW214940   1.632   4.741   0.331
 4681SOL     OW14941   6.869   5.658   4.525
 4681SOL    HW114942   6.772   5.656   4.551
 4681SOL    HW214943   6.913   5.738   4.567
 4682SOL     OW14944   3.389   6.302   0.625
 4682SOL    HW114945   3.426   6.216   0.589
 4682SOL    HW214946   3.420   6.314   0.720
 4683SOL     OW14947   6.961   4.697   3.114
 4683SOL    HW114948   6.918   4.760   3.179
 4683SOL    HW214949   6.910   4.697   3.028
 4684SOL     OW14950   1.041   1.577   5.079
 4684SOL    HW114951   1.033   1.634   4.997
 4684SOL    HW214952   1.059   1.482   5.052
 4685SOL     OW14953   4.987   4.592   5.139
 4685SOL    HW114954   4.914   4.660   5.135
 4685SOL    HW214955   5.076   4.639   5.133
 4686SOL     OW14956   5.514   6.151   0.285
 4686SOL    HW114957   5.458   6.070   0.268
 4686SOL    HW214958   5.470   6.209   0.353
 4687SOL     OW14959   5.717   6.466   4.409
 4687SOL    HW114960   5.679   6.556   4.387
 4687SOL    HW214961   5.735   6.416   4.324
 4688SOL     OW14962   0.847   2.029   0.564
 4688SOL    HW114963   0.915   1.956   0.575
 4688SOL    HW214964   0.756   1.988   0.556
 4689SOL     OW14965   1.941   5.177   4.685
 4689SOL    HW114966   2.022   5.158   4.741
 4689SOL    HW214967   1.859   5.164   4.740
 4690SOL     OW14968   1.427   1.642   0.456
 4690SOL    HW114969   1.375   1.604   0.379
 4690SOL    HW214970   1.440   1.572   0.525
 4691SOL     OW14971   3.620   4.612   0.073
 4691SOL    HW114972   3.693   4.577   0.130
 4691SOL    HW214973   3.575   4.689   0.119
 4692SOL     OW14974   0.534   6.020   2.912
 4692SOL    HW114975   0.608   5.969   2.957
 4692SOL    HW214976   0.572   6.073   2.836
 4693SOL     OW14977   0.634   0.725   3.839
 4693SOL    HW114978   0.693   0.774   3.903
 4693SOL    HW214979   0.683   0.711   3.753
 4694SOL     OW14980   0.905   1.258   6.074
 4694SOL    HW114981   0.905   1.316   5.993
 4694SOL    HW214982   0.908   1.316   6.156
 4695SOL     OW14983   2.890   3.116   1.685
 4695SOL    HW114984   2.919   3.088   1.777
 4695SOL    HW214985   2.953   3.078   1.617
 4696SOL     OW14986   5.469   3.525   0.189
 4696SOL    HW114987   5.553   3.486   0.228
 4696SOL    HW214988   5.445   3.476   0.105
 4697SOL     OW14989   0.876   5.336   6.686
 4697SOL    HW114990   0.849   5.312   6.779
 4697SOL    HW214991   0.918   5.256   6.642
 4698SOL     OW14992   6.086   3.706   2.251
 4698SOL    HW114993   6.170   3.716   2.305
 4698SOL    HW214994   6.107   3.657   2.167
 4699SOL     OW14995   6.573   0.068   3.224
 4699SOL    HW114996   6.525   0.097   3.308
 4699SOL    HW214997   6.542   6.996   3.199
 4700SOL     OW14998   5.391   6.845   6.965
 4700SOL    HW114999   5.451   6.804   6.896
 4700SOL    HW215000   5.341   6.773   7.013
 4701SOL     OW15001   0.730   0.914   0.546
 4701SOL    HW115002   0.748   0.827   0.500
 4701SOL    HW215003   0.766   0.989   0.492
 4702SOL     OW15004   2.790   3.364   0.248
 4702SOL    HW115005   2.816   3.268   0.262
 4702SOL    HW215006   2.864   3.412   0.201
 4703SOL     OW15007   1.599   1.090   1.733
 4703SOL    HW115008   1.633   1.177   1.698
 4703SOL    HW215009   1.607   1.020   1.662
 4704SOL     OW15010   4.481   0.118   0.075
 4704SOL    HW115011   4.565   0.166   0.101
 4704SOL    HW215012   4.406   0.184   0.068
 4705SOL     OW15013   3.324   3.931   4.094
 4705SOL    HW115014   3.403   3.992   4.096
 4705SOL    HW215015   3.257   3.960   4.162
 4706SOL     OW15016   4.750   5.254   1.182
 4706SOL    HW115017   4.789   5.239   1.273
 4706SOL    HW215018   4.683   5.182   1.162
 4707SOL     OW15019   3.382   6.047   1.429
 4707SOL    HW115020   3.396   6.122   1.494
 4707SOL    HW215021   3.332   6.081   1.349
 4708SOL     OW15022   1.635   3.078   2.926
 4708SOL    HW115023   1.619   3.092   2.828
 4708SOL    HW215024   1.548   3.061   2.972
 4709SOL     OW15025   2.967   3.721   0.229
 4709SOL    HW115026   3.061   3.691   0.215
 4709SOL    HW215027   2.965   3.794   0.298
 4710SOL     OW15028   4.839   2.611   1.217
 4710SOL    HW115029   4.802   2.654   1.299
 4710SOL    HW215030   4.924   2.564   1.240
 4711SOL     OW15031   2.865   6.655   3.242
 4711SOL    HW115032   2.936   6.670   3.311
 4711SOL    HW215033   2.860   6.735   3.182
 4712SOL     OW15034   1.424   4.097   7.017
 4712SOL    HW115035   1.388   4.136   0.083
 4712SOL    HW215036   1.503   4.150   6.987
 4713SOL     OW15037   2.431   5.870   1.023
 4713SOL    HW115038   2.368   5.795   1.005
 4713SOL    HW215039   2.519   5.852   0.978
 4714SOL     OW15040   3.152   2.074   0.840
 4714SOL    HW115041   3.085   2.139   0.875
 4714SOL    HW215042   3.117   2.032   0.756
 4715SOL     OW15043   5.374   4.158   4.870
 4715SOL    HW115044   5.277   4.156   4.844
 4715SOL    HW215045   5.428   4.196   4.796
 4716SOL     OW15046   2.992   5.259   0.510
 4716SOL    HW115047   3.007   5.189   0.580
 4716SOL    HW215048   3.047   5.238   0.429
 4717SOL     OW15049   1.648   5.690   4.571
 4717SOL    HW115050   1.712   5.728   4.504
 4717SOL    HW215051   1.700   5.651   4.648
 4718SOL     OW15052   5.232   1.012   6.400
 4718SOL    HW115053   5.221   1.002   6.301
 4718SOL    HW215054   5.285   0.935   6.436
 4719SOL     OW15055   4.379   3.050   1.735
 4719SOL    HW115056   4.455   3.061   1.798
 4719SOL    HW215057   4.371   3.131   1.677
 4720SOL     OW15058   2.731   0.824   4.228
 4720SOL    HW115059   2.801   0.868   4.283
 4720SOL    HW215060   2.708   0.882   4.150
 4721SOL     OW15061   1.144   1.592   0.855
 4721SOL    HW115062   1.060   1.647   0.862
 4721SOL    HW215063   1.128   1.514   0.796
 4722SOL     OW15064   3.063   0.743   2.449
 4722SOL    HW115065   3.154   0.711   2.475
 4722SOL    HW215066   2.998   0.668   2.458
 4723SOL     OW15067   2.824   6.817   6.109
 4723SOL    HW115068   2.818   6.794   6.012
 4723SOL    HW215069   2.852   6.735   6.161
 4724SOL     OW15070   3.934   5.061   1.457
 4724SOL    HW115071   3.924   5.071   1.556
 4724SOL    HW215072   3.992   5.134   1.422
 4725SOL     OW15073   5.504   5.401   3.026
 4725SOL    HW115074   5.569   5.371   3.096
 4725SOL    HW215075   5.446   5.474   3.064
 4726SOL     OW15076   0.405   5.821   5.495
 4726SOL    HW115077   0.397   5.722   5.484
 4726SOL    HW215078   0.356   5.867   5.421
 4727SOL     OW15079   6.126   6.429   1.028
 4727SOL    HW115080   6.217   6.431   1.069
 4727SOL    HW215081   6.057   6.422   1.100
 4728SOL     OW15082   0.479   0.610   0.142
 4728SOL    HW115083   0.508   0.558   0.062
 4728SOL    HW215084   0.380   0.625   0.138
 4729SOL     OW15085   2.869   0.291   0.657
 4729SOL    HW115086   2.785   0.312   0.607
 4729SOL    HW215087   2.873   0.344   0.741
 4730SOL     OW15088   2.173   0.858   5.282
 4730SOL    HW115089   2.253   0.887   5.231
 4730SOL    HW215090   2.147   0.766   5.255
 4731SOL     OW15091   6.011   2.080   6.595
 4731SOL    HW115092   5.916   2.109   6.596
 4731SOL    HW215093   6.067   2.149   6.641
 4732SOL     OW15094   0.317   1.524   0.622
 4732SOL    HW115095   0.290   1.532   0.526
 4732SOL    HW215096   0.318   1.614   0.665
 4733SOL     OW15097   6.649   3.549   4.104
 4733SOL    HW115098   6.714   3.503   4.044
 4733SOL    HW215099   6.625   3.488   4.180
 4734SOL     OW15100   4.898   4.234   5.964
 4734SOL    HW115101   4.892   4.134   5.968
 4734SOL    HW215102   4.813   4.272   5.927
 4735SOL     OW15103   6.982   4.672   3.664
 4735SOL    HW115104   0.045   4.725   3.645
 4735SOL    HW215105   6.987   4.632   3.755
 4736SOL     OW15106   2.184   0.110   1.301
 4736SOL    HW115107   2.169   0.025   1.251
 4736SOL    HW215108   2.134   0.107   1.388
 4737SOL     OW15109   3.340   5.248   1.797
 4737SOL    HW115110   3.420   5.308   1.794
 4737SOL    HW215111   3.342   5.187   1.717
 4738SOL     OW15112   7.013   6.162   3.089
 4738SOL    HW115113   0.084   6.122   3.084
 4738SOL    HW215114   6.956   6.124   3.016
 4739SOL     OW15115   4.396   0.175   1.215
 4739SOL    HW115116   4.385   0.271   1.187
 4739SOL    HW215117   4.445   0.171   1.302
 4740SOL     OW15118   0.846   2.295   3.556
 4740SOL    HW115119   0.756   2.306   3.513
 4740SOL    HW215120   0.909   2.362   3.519
 4741SOL     OW15121   3.746   3.731   1.173
 4741SOL    HW115122   3.702   3.644   1.151
 4741SOL    HW215123   3.843   3.717   1.190
 4742SOL     OW15124   3.978   1.141   0.666
 4742SOL    HW115125   3.913   1.188   0.725
 4742SOL    HW215126   4.067   1.184   0.673
 4743SOL     OW15127   1.875   5.900   0.371
 4743SOL    HW115128   1.852   5.900   0.274
 4743SOL    HW215129   1.973   5.886   0.382
 4744SOL     OW15130   1.933   5.587   1.206
 4744SOL    HW115131   1.837   5.592   1.236
 4744SOL    HW215132   1.936   5.557   1.110
 4745SOL     OW15133   1.539   3.444   0.286
 4745SOL    HW115134   1.549   3.510   0.211
 4745SOL    HW215135   1.572   3.485   0.371
 4746SOL     OW15136   4.949   5.489   3.847
 4746SOL    HW115137   5.012   5.559   3.881
 4746SOL    HW215138   4.858   5.505   3.885
 4747SOL     OW15139   2.406   0.778   6.690
 4747SOL    HW115140   2.484   0.841   6.688
 4747SOL    HW215141   2.369   0.773   6.782
 4748SOL     OW15142   2.314   6.869   1.428
 4748SOL    HW115143   2.234   6.927   1.442
 4748SOL    HW215144   2.292   6.798   1.360
 4749SOL     OW15145   2.177   1.880   0.563
 4749SOL    HW115146   2.239   1.842   0.494
 4749SOL    HW215147   2.188   1.830   0.649
 4750SOL     OW15148   5.010   2.963   5.740
 4750SOL    HW115149   4.957   2.904   5.679
 4750SOL    HW215150   4.950   3.032   5.780
 4751SOL     OW15151   4.899   1.266   3.458
 4751SOL    HW115152   4.922   1.245   3.553
 4751SOL    HW215153   4.819   1.213   3.431
 4752SOL     OW15154   5.381   1.124   6.600
 4752SOL    HW115155   5.328   1.079   6.528
 4752SOL    HW215156   5.459   1.171   6.560
 4753SOL     OW15157   3.338   6.871   4.481
 4753SOL    HW115158   3.285   6.788   4.467
 4753SOL    HW215159   3.387   6.865   4.568
 4754SOL     OW15160   4.741   4.878   6.436
 4754SOL    HW115161   4.798   4.810   6.389
 4754SOL    HW215162   4.647   4.845   6.440
 4755SOL     OW15163   0.653   1.041   1.512
 4755SOL    HW115164   0.581   1.071   1.449
 4755SOL    HW215165   0.683   0.950   1.487
 4756SOL     OW15166   6.845   3.935   5.307
 4756SOL    HW115167   6.820   3.991   5.229
 4756SOL    HW215168   6.796   3.967   5.388
 4757SOL     OW15169   2.051   3.627   0.084
 4757SOL    HW115170   2.117   3.637   0.159
 4757SOL    HW215171   2.031   3.717   0.046
 4758SOL     OW15172   2.415   5.754   3.787
 4758SOL    HW115173   2.513   5.734   3.783
 4758SOL    HW215174   2.364   5.677   3.749
 4759SOL     OW15175   0.615   6.572   1.652
 4759SOL    HW115176   0.692   6.633   1.631
 4759SOL    HW215177   0.636   6.480   1.621
 4760SOL     OW15178   1.850   5.714   0.564
 4760SOL    HW115179   1.844   5.772   0.483
 4760SOL    HW215180   1.759   5.680   0.588
 4761SOL     OW15181   5.283   6.991   1.515
 4761SOL    HW115182   5.381   6.975   1.527
 4761SOL    HW215183   5.232   6.909   1.541
 4762SOL     OW15184   1.922   0.515   2.480
 4762SOL    HW115185   1.931   0.423   2.440
 4762SOL    HW215186   1.857   0.568   2.427
 4763SOL     OW15187   5.682   5.353   2.285
 4763SOL    HW115188   5.654   5.266   2.244
 4763SOL    HW215189   5.738   5.404   2.219
 4764SOL     OW15190   5.051   3.162   0.707
 4764SOL    HW115191   5.096   3.125   0.626
 4764SOL    HW215192   4.954   3.137   0.705
 4765SOL     OW15193   4.031   1.712   5.944
 4765SOL    HW115194   4.047   1.621   5.907
 4765SOL    HW215195   4.100   1.775   5.910
 4766SOL     OW15196   1.168   0.917   4.804
 4766SOL    HW115197   1.075   0.930   4.771
 4766SOL    HW215198   1.196   0.822   4.791
 4767SOL     OW15199   2.376   4.271   3.440
 4767SOL    HW115200   2.374   4.371   3.452
 4767SOL    HW215201   2.366   4.249   3.343
 4768SOL     OW15202   4.800   2.654   6.487
 4768SOL    HW115203   4.862   2.732   6.486
 4768SOL    HW215204   4.743   2.659   6.570
 4769SOL     OW15205   1.387   3.203   0.668
 4769SOL    HW115206   1.412   3.230   0.761
 4769SOL    HW215207   1.445   3.251   0.602
 4770SOL     OW15208   0.307   1.775   3.916
 4770SOL    HW115209   0.235   1.823   3.965
 4770SOL    HW215210   0.310   1.808   3.821
 4771SOL     OW15211   1.951   0.035   4.247
 4771SOL    HW115212   1.961   0.067   4.342
 4771SOL    HW215213   2.001   0.096   4.186
 4772SOL     OW15214   2.748   5.392   2.692
 4772SOL    HW115215   2.746   5.301   2.649
 4772SOL    HW215216   2.713   5.460   2.627
 4773SOL     OW15217   2.918   5.021   4.838
 4773SOL    HW115218   3.005   4.972   4.835
 4773SOL    HW215219   2.851   4.974   4.781
 4774SOL     OW15220   0.706   4.377   0.798
 4774SOL    HW115221   0.759   4.300   0.831
 4774SOL    HW215222   0.724   4.457   0.855
 4775SOL     OW15223   6.026   5.542   4.808
 4775SOL    HW115224   5.950   5.477   4.811
 4775SOL    HW215225   6.051   5.567   4.901
 4776SOL     OW15226   0.448   1.477   5.349
 4776SOL    HW115227   0.533   1.524   5.371
 4776SOL    HW215228   0.437   1.397   5.408
 4777SOL     OW15229   1.585   6.851   3.080
 4777SOL    HW115230   1.539   6.781   3.134
 4777SOL    HW215231   1.632   6.807   3.003
 4778SOL     OW15232   1.733   1.135   0.165
 4778SOL    HW115233   1.738   1.078   0.084
 4778SOL    HW215234   1.811   1.114   0.225
 4779SOL     OW15235   5.169   0.674   4.912
 4779SOL    HW115236   5.172   0.625   4.825
 4779SOL    HW215237   5.093   0.640   4.968
 4780SOL     OW15238   4.676   2.801   4.409
 4780SOL    HW115239   4.699   2.832   4.501
 4780SOL    HW215240   4.691   2.876   4.344
 4781SOL     OW15241   1.243   5.081   2.012
 4781SOL    HW115242   1.175   5.124   2.072
 4781SOL    HW215243   1.334   5.096   2.050
 4782SOL     OW15244   6.866   6.291   4.159
 4782SOL    HW115245   6.899   6.328   4.072
 4782SOL    HW215246   6.869   6.191   4.155
 4783SOL     OW15247   0.075   3.630   6.219
 4783SOL    HW115248   0.156   3.600   6.269
 4783SOL    HW215249   0.086   3.610   6.122
 4784SOL     OW15250   5.231   3.368   0.229
 4784SOL    HW115251   5.317   3.359   0.177
 4784SOL    HW215252   5.191   3.458   0.212
 4785SOL     OW15253   0.681   0.450   3.912
 4785SOL    HW115254   0.653   0.545   3.923
 4785SOL    HW215255   0.648   0.397   3.990
 4786SOL     OW15256   0.606   5.878   0.158
 4786SOL    HW115257   0.621   5.878   0.257
 4786SOL    HW215258   0.508   5.878   0.140
 4787SOL     OW15259   4.681   1.228   4.799
 4787SOL    HW115260   4.596   1.279   4.813
 4787SOL    HW215261   4.742   1.244   4.878
 4788SOL     OW15262   0.234   6.155   1.059
 4788SOL    HW115263   0.316   6.101   1.041
 4788SOL    HW215264   0.236   6.238   1.002
 4789SOL     OW15265   6.345   1.059   3.020
 4789SOL    HW115266   6.340   1.016   2.930
 4789SOL    HW215267   6.421   1.020   3.072
 4790SOL     OW15268   0.174   1.841   4.602
 4790SOL    HW115269   0.201   1.921   4.657
 4790SOL    HW215270   0.239   1.829   4.527
 4791SOL     OW15271   0.681   0.316   0.147
 4791SOL    HW115272   0.587   0.320   0.182
 4791SOL    HW215273   0.711   0.407   0.120
 4792SOL     OW15274   1.661   3.571   2.192
 4792SOL    HW115275   1.647   3.568   2.291
 4792SOL    HW215276   1.759   3.583   2.173
 4793SOL     OW15277   1.204   4.091   5.705
 4793SOL    HW115278   1.240   4.170   5.655
 4793SOL    HW215279   1.249   4.085   5.794
 4794SOL     OW15280   4.911   1.875   5.082
 4794SOL    HW115281   4.997   1.843   5.121
 4794SOL    HW215282   4.905   1.845   4.986
 4795SOL     OW15283   0.003   1.390   5.935
 4795SOL    HW115284   6.946   1.362   5.993
 4795SOL    HW215285   0.005   1.490   5.928
 4796SOL     OW15286   4.587   1.268   5.368
 4796SOL    HW115287   4.508   1.262   5.306
 4796SOL    HW215288   4.670   1.287   5.315
 4797SOL     OW15289   2.204   4.763   6.674
 4797SOL    HW115290   2.239   4.798   6.588
 4797SOL    HW215291   2.146   4.683   6.657
 4798SOL     OW15292   3.933   5.875   0.461
 4798SOL    HW115293   3.895   5.967   0.472
 4798SOL    HW215294   4.029   5.883   0.434
 4799SOL     OW15295   4.232   2.725   0.396
 4799SOL    HW115296   4.249   2.743   0.299
 4799SOL    HW215297   4.261   2.632   0.418
 4800SOL     OW15298   0.463   4.216   6.891
 4800SOL    HW115299   0.542   4.189   6.946
 4800SOL    HW215300   0.382   4.165   6.922
 4801SOL     OW15301   5.697   2.213   2.660
 4801SOL    HW115302   5.719   2.181   2.752
 4801SOL    HW215303   5.692   2.313   2.660
 4802SOL     OW15304   6.719   0.230   4.597
 4802SOL    HW115305   6.631   0.196   4.565
 4802SOL    HW215306   6.707   0.320   4.640
 4803SOL     OW15307   5.061   3.994   5.103
 4803SOL    HW115308   5.088   4.090   5.101
 4803SOL    HW215309   5.014   3.975   5.190
 4804SOL     OW15310   5.102   2.104   0.577
 4804SOL    HW115311   5.064   2.045   0.505
 4804SOL    HW215312   5.040   2.181   0.592
 4805SOL     OW15313   5.730   1.327   7.013
 4805SOL    HW115314   5.632   1.344   7.006
 4805SOL    HW215315   5.746   1.251   0.056
 4806SOL     OW15316   1.586   1.577   3.094
 4806SOL    HW115317   1.556   1.497   3.144
 4806SOL    HW215318   1.510   1.640   3.082
 4807SOL     OW15319   6.694   4.319   6.518
 4807SOL    HW115320   6.598   4.345   6.516
 4807SOL    HW215321   6.724   4.296   6.426
 4808SOL     OW15322   3.630   5.824   2.145
 4808SOL    HW115323   3.607   5.727   2.142
 4808SOL    HW215324   3.575   5.874   2.078
 4809SOL     OW15325   3.330   3.846   1.396
 4809SOL    HW115326   3.242   3.888   1.377
 4809SOL    HW215327   3.397   3.916   1.420
 4810SOL     OW15328   1.855   5.619   4.126
 4810SOL    HW115329   1.945   5.660   4.109
 4810SOL    HW215330   1.837   5.618   4.224
 4811SOL     OW15331   3.225   3.374   4.376
 4811SOL    HW115332   3.151   3.324   4.421
 4811SOL    HW215333   3.219   3.360   4.277
 4812SOL     OW15334   1.627   6.531   2.874
 4812SOL    HW115335   1.644   6.471   2.952
 4812SOL    HW215336   1.714   6.553   2.830
 4813SOL     OW15337   0.879   2.273   5.153
 4813SOL    HW115338   0.919   2.226   5.075
 4813SOL    HW215339   0.817   2.211   5.201
 4814SOL     OW15340   6.404   3.541   0.850
 4814SOL    HW115341   6.502   3.563   0.855
 4814SOL    HW215342   6.360   3.566   0.936
 4815SOL     OW15343   6.145   4.695   2.255
 4815SOL    HW115344   6.058   4.740   2.277
 4815SOL    HW215345   6.129   4.597   2.241
 4816SOL     OW15346   2.915   0.500   2.806
 4816SOL    HW115347   2.947   0.595   2.805
 4816SOL    HW215348   2.991   0.439   2.829
 4817SOL     OW15349   4.356   1.739   1.267
 4817SOL    HW115350   4.419   1.774   1.199
 4817SOL    HW215351   4.302   1.664   1.227
 4818SOL     OW15352   3.915   0.383   4.361
 4818SOL    HW115353   3.897   0.474   4.396
 4818SOL    HW215354   3.995   0.385   4.302
 4819SOL     OW15355   2.496   0.888   0.547
 4819SOL    HW115356   2.473   0.972   0.499
 4819SOL    HW215357   2.567   0.906   0.615
 4820SOL     OW15358   6.157   4.231   1.820
 4820SOL    HW115359   6.151   4.300   1.892
 4820SOL    HW215360   6.181   4.275   1.733
 4821SOL     OW15361   0.367   6.007   1.922
 4821SOL    HW115362   0.354   6.103   1.897
 4821SOL    HW215363   0.319   5.949   1.856
 4822SOL     OW15364   0.846   4.101   1.611
 4822SOL    HW115365   0.801   4.135   1.693
 4822SOL    HW215366   0.821   4.005   1.597
 4823SOL     OW15367   0.746   1.507   3.463
 4823SOL    HW115368   0.700   1.596   3.473
 4823SOL    HW215369   0.841   1.521   3.436
 4824SOL     OW15370   5.599   2.538   1.788
 4824SOL    HW115371   5.576   2.573   1.698
 4824SOL    HW215372   5.695   2.509   1.790
 4825SOL     OW15373   6.978   3.063   4.175
 4825SOL    HW115374   6.996   3.052   4.077
 4825SOL    HW215375   6.971   2.973   4.218
 4826SOL     OW15376   6.931   6.543   0.260
 4826SOL    HW115377   6.863   6.531   0.332
 4826SOL    HW215378   6.946   6.641   0.244
 4827SOL     OW15379   5.091   1.560   0.484
 4827SOL    HW115380   5.015   1.548   0.420
 4827SOL    HW215381   5.168   1.602   0.436
 4828SOL     OW15382   5.320   3.605   6.551
 4828SOL    HW115383   5.302   3.574   6.644
 4828SOL    HW215384   5.253   3.675   6.525
 4829SOL     OW15385   3.700   0.451   5.166
 4829SOL    HW115386   3.606   0.485   5.169
 4829SOL    HW215387   3.720   0.401   5.251
 4830SOL     OW15388   4.688   5.717   5.266
 4830SOL    HW115389   4.597   5.750   5.243
 4830SOL    HW215390   4.688   5.679   5.359
 4831SOL     OW15391   5.896   3.380   6.655
 4831SOL    HW115392   5.799   3.395   6.637
 4831SOL    HW215393   5.949   3.412   6.576
 4832SOL     OW15394   1.678   2.489   6.386
 4832SOL    HW115395   1.699   2.587   6.388
 4832SOL    HW215396   1.739   2.442   6.322
 4833SOL     OW15397   6.583   1.704   3.377
 4833SOL    HW115398   6.557   1.612   3.348
 4833SOL    HW215399   6.641   1.698   3.458
 4834SOL     OW15400   5.432   0.559   3.418
 4834SOL    HW115401   5.490   0.641   3.413
 4834SOL    HW215402   5.486   0.479   3.395
 4835SOL     OW15403   1.553   0.979   6.028
 4835SOL    HW115404   1.458   0.986   6.000
 4835SOL    HW215405   1.603   1.060   5.998
 4836SOL     OW15406   5.775   3.006   2.137
 4836SOL    HW115407   5.759   3.023   2.039
 4836SOL    HW215408   5.724   2.926   2.166
 4837SOL     OW15409   0.270   3.918   0.978
 4837SOL    HW115410   0.307   4.009   0.997
 4837SOL    HW215411   0.186   3.905   1.031
 4838SOL     OW15412   2.655   5.245   2.325
 4838SOL    HW115413   2.591   5.201   2.263
 4838SOL    HW215414   2.740   5.193   2.328
 4839SOL     OW15415   0.718   6.623   6.666
 4839SOL    HW115416   0.709   6.551   6.735
 4839SOL    HW215417   0.636   6.680   6.666
 4840SOL     OW15418   6.030   6.766   6.571
 4840SOL    HW115419   5.976   6.818   6.505
 4840SOL    HW215420   6.127   6.774   6.548
 4841SOL     OW15421   2.301   5.746   1.813
 4841SOL    HW115422   2.229   5.689   1.775
 4841SOL    HW215423   2.368   5.768   1.742
 4842SOL     OW15424   3.489   6.223   1.624
 4842SOL    HW115425   3.463   6.310   1.582
 4842SOL    HW215426   3.586   6.205   1.607
 4843SOL     OW15427   0.884   2.594   6.647
 4843SOL    HW115428   0.814   2.665   6.659
 4843SOL    HW215429   0.914   2.593   6.551
 4844SOL     OW15430   0.733   1.745   5.425
 4844SOL    HW115431   0.655   1.801   5.396
 4844SOL    HW215432   0.745   1.669   5.361
 4845SOL     OW15433   5.668   5.258   3.678
 4845SOL    HW115434   5.693   5.344   3.723
 4845SOL    HW215435   5.690   5.181   3.738
 4846SOL     OW15436   6.985   5.139   0.022
 4846SOL    HW115437   0.042   5.091   0.065
 4846SOL    HW215438   6.977   5.230   0.064
 4847SOL     OW15439   5.086   2.597   4.507
 4847SOL    HW115440   5.170   2.549   4.484
 4847SOL    HW215441   5.028   2.537   4.562
 4848SOL     OW15442   2.571   2.092   1.742
 4848SOL    HW115443   2.600   2.136   1.827
 4848SOL    HW215444   2.500   2.024   1.762
 4849SOL     OW15445   1.171   6.384   5.795
 4849SOL    HW115446   1.169   6.289   5.825
 4849SOL    HW215447   1.261   6.423   5.814
 4850SOL     OW15448   4.087   0.436   3.470
 4850SOL    HW115449   4.134   0.462   3.554
 4850SOL    HW215450   3.991   0.465   3.475
 4851SOL     OW15451   5.165   1.278   5.284
 4851SOL    HW115452   5.257   1.246   5.307
 4851SOL    HW215453   5.165   1.313   5.190
 4852SOL     OW15454   1.192   1.701   1.833
 4852SOL    HW115455   1.230   1.618   1.874
 4852SOL    HW215456   1.111   1.677   1.779
 4853SOL     OW15457   3.407   1.989   1.540
 4853SOL    HW115458   3.469   2.023   1.611
 4853SOL    HW215459   3.455   1.920   1.485
 4854SOL     OW15460   3.559   6.930   6.943
 4854SOL    HW115461   3.590   6.848   6.992
 4854SOL    HW215462   3.526   6.997   7.010
 4855SOL     OW15463   6.740   3.292   2.509
 4855SOL    HW115464   6.764   3.371   2.565
 4855SOL    HW215465   6.803   3.217   2.528
 4856SOL     OW15466   1.895   4.058   3.137
 4856SOL    HW115467   1.959   4.093   3.205
 4856SOL    HW215468   1.865   3.966   3.165
 4857SOL     OW15469   0.639   1.124   5.988
 4857SOL    HW115470   0.725   1.159   6.023
 4857SOL    HW215471   0.592   1.072   6.060
 4858SOL     OW15472   1.310   0.779   3.650
 4858SOL    HW115473   1.335   0.867   3.688
 4858SOL    HW215474   1.284   0.716   3.723
 4859SOL     OW15475   3.369   5.635   6.096
 4859SOL    HW115476   3.385   5.613   6.000
 4859SOL    HW215477   3.393   5.730   6.113
 4860SOL     OW15478   4.099   4.161   0.801
 4860SOL    HW115479   4.097   4.102   0.882
 4860SOL    HW215480   4.065   4.110   0.722
 4861SOL     OW15481   5.309   3.622   6.050
 4861SOL    HW115482   5.325   3.586   6.142
 4861SOL    HW215483   5.305   3.546   5.985
 4862SOL     OW15484   0.896   6.450   1.128
 4862SOL    HW115485   0.798   6.443   1.148
 4862SOL    HW215486   0.911   6.441   1.030
 4863SOL     OW15487   5.075   4.462   6.507
 4863SOL    HW115488   5.004   4.428   6.569
 4863SOL    HW215489   5.164   4.427   6.537
 4864SOL     OW15490   3.132   1.186   4.311
 4864SOL    HW115491   3.178   1.153   4.393
 4864SOL    HW215492   3.198   1.189   4.235
 4865SOL     OW15493   1.745   6.718   5.430
 4865SOL    HW115494   1.773   6.802   5.476
 4865SOL    HW215495   1.746   6.733   5.331
 4866SOL     OW15496   6.669   3.996   6.506
 4866SOL    HW115497   6.722   3.911   6.504
 4866SOL    HW215498   6.571   3.974   6.511
 4867SOL     OW15499   4.757   0.875   2.961
 4867SOL    HW115500   4.668   0.919   2.976
 4867SOL    HW215501   4.751   0.815   2.881
 4868SOL     OW15502   6.833   4.418   0.820
 4868SOL    HW115503   6.854   4.406   0.723
 4868SOL    HW215504   6.789   4.506   0.835
 4869SOL     OW15505   0.525   1.119   1.124
 4869SOL    HW115506   0.489   1.043   1.070
 4869SOL    HW215507   0.608   1.154   1.082
 4870SOL     OW15508   0.675   6.912   1.731
 4870SOL    HW115509   0.586   6.878   1.762
 4870SOL    HW215510   0.724   6.839   1.682
 4871SOL     OW15511   1.512   1.624   3.623
 4871SOL    HW115512   1.453   1.618   3.704
 4871SOL    HW215513   1.586   1.557   3.632
 4872SOL     OW15514   5.949   6.322   3.018
 4872SOL    HW115515   6.048   6.335   3.027
 4872SOL    HW215516   5.919   6.359   2.930
 4873SOL     OW15517   6.434   5.452   4.962
 4873SOL    HW115518   6.495   5.372   4.961
 4873SOL    HW215519   6.372   5.447   4.884
 4874SOL     OW15520   4.783   3.001   3.407
 4874SOL    HW115521   4.763   2.924   3.468
 4874SOL    HW215522   4.829   3.073   3.459
 4875SOL     OW15523   5.950   6.337   5.238
 4875SOL    HW115524   5.887   6.326   5.161
 4875SOL    HW215525   5.920   6.278   5.314
 4876SOL     OW15526   0.654   0.736   1.874
 4876SOL    HW115527   0.687   0.686   1.953
 4876SOL    HW215528   0.731   0.782   1.829
 4877SOL     OW15529   6.437   1.567   6.124
 4877SOL    HW115530   6.431   1.654   6.175
 4877SOL    HW215531   6.466   1.586   6.031
 4878SOL     OW15532   0.200   3.641   2.203
 4878SOL    HW115533   0.104   3.664   2.190
 4878SOL    HW215534   0.210   3.589   2.288
 4879SOL     OW15535   6.066   0.751   2.837
 4879SOL    HW115536   6.073   0.740   2.936
 4879SOL    HW215537   6.117   0.678   2.792
 4880SOL     OW15538   6.761   3.195   6.858
 4880SOL    HW115539   6.690   3.129   6.834
 4880SOL    HW215540   6.849   3.149   6.865
 4881SOL     OW15541   1.673   2.827   1.675
 4881SOL    HW115542   1.627   2.770   1.607
 4881SOL    HW215543   1.767   2.797   1.686
 4882SOL     OW15544   4.798   2.344   4.196
 4882SOL    HW115545   4.789   2.267   4.132
 4882SOL    HW215546   4.708   2.365   4.235
 4883SOL     OW15547   5.921   4.517   0.433
 4883SOL    HW115548   6.021   4.523   0.443
 4883SOL    HW215549   5.879   4.601   0.468
 4884SOL     OW15550   1.810   0.646   1.435
 4884SOL    HW115551   1.737   0.694   1.386
 4884SOL    HW215552   1.855   0.710   1.497
 4885SOL     OW15553   1.033   4.016   0.200
 4885SOL    HW115554   1.027   3.917   0.209
 4885SOL    HW215555   0.999   4.044   0.110
 4886SOL     OW15556   2.634   1.056   1.958
 4886SOL    HW115557   2.602   0.964   1.981
 4886SOL    HW215558   2.712   1.080   2.017
 4887SOL     OW15559   5.639   6.458   0.395
 4887SOL    HW115560   5.695   6.390   0.442
 4887SOL    HW215561   5.654   6.451   0.297
 4888SOL     OW15562   4.332   0.239   3.079
 4888SOL    HW115563   4.338   0.255   3.178
 4888SOL    HW215564   4.244   0.197   3.057
 4889SOL     OW15565   6.649   3.435   4.355
 4889SOL    HW115566   6.651   3.509   4.423
 4889SOL    HW215567   6.742   3.404   4.337
 4890SOL     OW15568   6.887   1.484   4.732
 4890SOL    HW115569   6.958   1.534   4.683
 4890SOL    HW215570   6.892   1.507   4.829
 4891SOL     OW15571   3.025   4.973   6.528
 4891SOL    HW115572   2.954   5.043   6.513
 4891SOL    HW215573   3.114   5.010   6.502
 4892SOL     OW15574   4.812   5.125   2.267
 4892SOL    HW115575   4.782   5.048   2.210
 4892SOL    HW215576   4.733   5.181   2.292
 4893SOL     OW15577   0.874   3.150   1.116
 4893SOL    HW115578   0.899   3.054   1.103
 4893SOL    HW215579   0.901   3.179   1.208
 4894SOL     OW15580   5.071   6.366   1.519
 4894SOL    HW115581   5.151   6.307   1.524
 4894SOL    HW215582   4.996   6.326   1.572
 4895SOL     OW15583   0.191   4.537   5.417
 4895SOL    HW115584   0.200   4.625   5.370
 4895SOL    HW215585   0.270   4.522   5.476
 4896SOL     OW15586   2.784   5.239   4.961
 4896SOL    HW115587   2.688   5.219   4.982
 4896SOL    HW215588   2.828   5.157   4.923
 4897SOL     OW15589   1.674   0.688   4.850
 4897SOL    HW115590   1.628   0.776   4.848
 4897SOL    HW215591   1.616   0.618   4.807
 4898SOL     OW15592   5.009   1.697   3.594
 4898SOL    HW115593   4.942   1.767   3.569
 4898SOL    HW215594   5.101   1.736   3.589
 4899SOL     OW15595   6.231   6.541   1.389
 4899SOL    HW115596   6.196   6.607   1.322
 4899SOL    HW215597   6.270   6.462   1.342
 4900SOL     OW15598   4.157   5.897   5.728
 4900SOL    HW115599   4.182   5.990   5.701
 4900SOL    HW215600   4.060   5.881   5.710
 4901SOL     OW15601   0.916   0.782   6.558
 4901SOL    HW115602   0.975   0.720   6.507
 4901SOL    HW215603   0.896   0.743   6.648
 4902SOL     OW15604   2.475   0.086   5.709
 4902SOL    HW115605   2.495   0.010   5.647
 4902SOL    HW215606   2.545   0.090   5.781
 4903SOL     OW15607   5.173   3.720   2.898
 4903SOL    HW115608   5.147   3.635   2.944
 4903SOL    HW215609   5.090   3.767   2.866
 4904SOL     OW15610   1.447   0.188   0.924
 4904SOL    HW115611   1.367   0.129   0.911
 4904SOL    HW215612   1.464   0.198   1.022
 4905SOL     OW15613   2.728   0.003   3.388
 4905SOL    HW115614   2.724   6.997   3.485
 4905SOL    HW215615   2.823   7.017   3.357
 4906SOL     OW15616   4.968   3.694   4.755
 4906SOL    HW115617   5.042   3.629   4.736
 4906SOL    HW215618   4.900   3.651   4.815
 4907SOL     OW15619   4.142   2.189   6.954
 4907SOL    HW115620   4.222   2.174   6.896
 4907SOL    HW215621   4.103   2.101   6.980
 4908SOL     OW15622   3.405   0.049   0.103
 4908SOL    HW115623   3.332   7.002   0.098
 4908SOL    HW215624   3.437   0.057   0.198
 4909SOL     OW15625   4.975   5.152   4.572
 4909SOL    HW115626   5.009   5.222   4.509
 4909SOL    HW215627   5.046   5.129   4.639
 4910SOL     OW15628   4.590   2.412   6.247
 4910SOL    HW115629   4.534   2.380   6.323
 4910SOL    HW215630   4.594   2.512   6.247
 4911SOL     OW15631   6.591   3.784   2.822
 4911SOL    HW115632   6.561   3.824   2.736
 4911SOL    HW215633   6.687   3.807   2.838
 4912SOL     OW15634   5.595   2.599   4.090
 4912SOL    HW115635   5.628   2.561   4.176
 4912SOL    HW215636   5.500   2.574   4.077
 4913SOL     OW15637   0.843   4.246   5.155
 4913SOL    HW115638   0.913   4.213   5.092
 4913SOL    HW215639   0.883   4.257   5.246
 4914SOL     OW15640   4.021   0.726   3.988
 4914SOL    HW115641   4.081   0.717   4.067
 4914SOL    HW215642   3.928   0.697   4.013
 4915SOL     OW15643   3.782   5.246   5.609
 4915SOL    HW115644   3.763   5.318   5.542
 4915SOL    HW215645   3.777   5.284   5.702
 4916SOL     OW15646   6.121   2.179   3.536
 4916SOL    HW115647   6.046   2.238   3.507
 4916SOL    HW215648   6.150   2.205   3.628
 4917SOL     OW15649   3.658   6.706   0.004
 4917SOL    HW115650   3.626   6.650   6.947
 4917SOL    HW215651   3.663   6.649   0.086
 4918SOL     OW15652   5.676   5.233   3.406
 4918SOL    HW115653   5.731   5.152   3.391
 4918SOL    HW215654   5.660   5.244   3.505
 4919SOL     OW15655   3.208   3.509   1.951
 4919SOL    HW115656   3.226   3.553   1.863
 4919SOL    HW215657   3.177   3.577   2.017
 4920SOL     OW15658   5.686   1.877   6.101
 4920SOL    HW115659   5.691   1.785   6.142
 4920SOL    HW215660   5.767   1.893   6.045
 4921SOL     OW15661   0.213   6.954   2.082
 4921SOL    HW115662   0.283   6.979   2.015
 4921SOL    HW215663   0.154   6.883   2.042
 4922SOL     OW15664   3.216   1.721   5.992
 4922SOL    HW115665   3.205   1.622   6.001
 4922SOL    HW215666   3.241   1.743   5.898
 4923SOL     OW15667   3.501   1.246   1.862
 4923SOL    HW115668   3.525   1.320   1.925
 4923SOL    HW215669   3.404   1.252   1.839
 4924SOL     OW15670   2.535   0.722   5.241
 4924SOL    HW115671   2.514   0.820   5.236
 4924SOL    HW215672   2.481   0.681   5.314
 4925SOL     OW15673   5.684   5.663   3.449
 4925SOL    HW115674   5.719   5.632   3.360
 4925SOL    HW215675   5.629   5.746   3.436
 4926SOL     OW15676   5.097   2.858   1.278
 4926SOL    HW115677   5.084   2.761   1.299
 4926SOL    HW215678   5.163   2.868   1.204
 4927SOL     OW15679   2.891   1.340   0.083
 4927SOL    HW115680   2.794   1.332   0.061
 4927SOL    HW215681   2.903   1.347   0.182
 4928SOL     OW15682   6.539   2.255   0.899
 4928SOL    HW115683   6.628   2.295   0.922
 4928SOL    HW215684   6.474   2.329   0.878
 4929SOL     OW15685   0.612   6.215   4.897
 4929SOL    HW115686   0.666   6.200   4.979
 4929SOL    HW215687   0.521   6.249   4.922
 4930SOL     OW15688   5.111   5.733   2.627
 4930SOL    HW115689   5.163   5.818   2.634
 4930SOL    HW215690   5.155   5.662   2.683
 4931SOL     OW15691   0.010   6.865   0.498
 4931SOL    HW115692   6.991   6.915   0.576
 4931SOL    HW215693   6.958   6.848   0.430
 4932SOL     OW15694   3.614   3.145   2.543
 4932SOL    HW115695   3.662   3.123   2.629
 4932SOL    HW215696   3.674   3.125   2.466
 4933SOL     OW15697   1.332   0.396   6.041
 4933SOL    HW115698   1.404   0.357   5.984
 4933SOL    HW215699   1.259   0.431   5.984
 4934SOL     OW15700   3.915   6.522   1.961
 4934SOL    HW115701   4.011   6.502   1.938
 4934SOL    HW215702   3.866   6.436   1.976
 4935SOL     OW15703   0.548   0.785   5.478
 4935SOL    HW115704   0.564   0.820   5.385
 4935SOL    HW215705   0.461   0.736   5.480
 4936SOL     OW15706   4.231   2.171   1.277
 4936SOL    HW115707   4.281   2.223   1.345
 4936SOL    HW215708   4.133   2.184   1.291
 4937SOL     OW15709   4.700   2.697   5.207
 4937SOL    HW115710   4.627   2.663   5.148
 4937SOL    HW215711   4.717   2.632   5.281
 4938SOL     OW15712   3.936   4.652   6.552
 4938SOL    HW115713   3.906   4.633   6.646
 4938SOL    HW215714   3.868   4.618   6.488
 4939SOL     OW15715   4.888   3.446   6.047
 4939SOL    HW115716   4.872   3.540   6.016
 4939SOL    HW215717   4.971   3.411   6.004
 4940SOL     OW15718   2.279   6.706   3.762
 4940SOL    HW115719   2.257   6.619   3.806
 4940SOL    HW215720   2.196   6.747   3.725
 4941SOL     OW15721   5.412   0.541   0.749
 4941SOL    HW115722   5.405   0.464   0.813
 4941SOL    HW215723   5.340   0.608   0.769
 4942SOL     OW15724   5.040   3.166   6.341
 4942SOL    HW115725   4.953   3.138   6.381
 4942SOL    HW215726   5.051   3.122   6.252
 4943SOL     OW15727   5.350   2.521   1.337
 4943SOL    HW115728   5.312   2.562   1.254
 4943SOL    HW215729   5.364   2.593   1.406
 4944SOL     OW15730   2.171   4.184   2.309
 4944SOL    HW115731   2.191   4.091   2.343
 4944SOL    HW215732   2.124   4.178   2.221
 4945SOL     OW15733   6.874   6.278   4.564
 4945SOL    HW115734   6.936   6.345   4.525
 4945SOL    HW215735   6.814   6.242   4.493
 4946SOL     OW15736   0.441   4.342   2.259
 4946SOL    HW115737   0.501   4.304   2.189
 4946SOL    HW215738   0.393   4.422   2.222
 4947SOL     OW15739   6.611   0.197   1.011
 4947SOL    HW115740   6.533   0.168   1.068
 4947SOL    HW215741   6.632   0.125   0.945
 4948SOL     OW15742   2.329   1.343   1.886
 4948SOL    HW115743   2.410   1.307   1.932
 4948SOL    HW215744   2.352   1.428   1.839
 4949SOL     OW15745   5.461   2.448   4.604
 4949SOL    HW115746   5.548   2.461   4.651
 4949SOL    HW215747   5.428   2.355   4.621
 4950SOL     OW15748   3.501   5.051   4.976
 4950SOL    HW115749   3.470   4.957   4.964
 4950SOL    HW215750   3.589   5.051   5.025
 4951SOL     OW15751   4.470   1.952   4.053
 4951SOL    HW115752   4.492   2.030   3.993
 4951SOL    HW215753   4.423   1.985   4.134
 4952SOL     OW15754   6.818   4.734   5.346
 4952SOL    HW115755   6.792   4.753   5.441
 4952SOL    HW215756   6.825   4.820   5.296
 4953SOL     OW15757   1.495   4.967   2.230
 4953SOL    HW115758   1.513   4.907   2.152
 4953SOL    HW215759   1.578   4.975   2.286
 4954SOL     OW15760   6.751   6.524   0.007
 4954SOL    HW115761   6.750   6.624   0.018
 4954SOL    HW215762   6.695   6.483   0.079
 4955SOL     OW15763   1.155   0.749   0.936
 4955SOL    HW115764   1.246   0.782   0.912
 4955SOL    HW215765   1.096   0.754   0.856
 4956SOL     OW15766   6.228   6.610   4.297
 4956SOL    HW115767   6.182   6.683   4.346
 4956SOL    HW215768   6.161   6.557   4.245
 4957SOL     OW15769   1.849   6.225   3.512
 4957SOL    HW115770   1.912   6.254   3.584
 4957SOL    HW215771   1.876   6.134   3.479
 4958SOL     OW15772   0.470   6.774   6.640
 4958SOL    HW115773   0.395   6.708   6.633
 4958SOL    HW215774   0.511   6.788   6.550
 4959SOL     OW15775   0.260   1.258   6.630
 4959SOL    HW115776   0.318   1.204   6.570
 4959SOL    HW215777   0.241   1.346   6.587
 4960SOL     OW15778   3.945   6.885   5.269
 4960SOL    HW115779   3.987   6.796   5.284
 4960SOL    HW215780   3.862   6.875   5.214
 4961SOL     OW15781   4.676   0.786   5.681
 4961SOL    HW115782   4.763   0.773   5.633
 4961SOL    HW215783   4.631   0.868   5.646
 4962SOL     OW15784   6.436   2.143   2.235
 4962SOL    HW115785   6.507   2.211   2.256
 4962SOL    HW215786   6.420   2.085   2.315
 4963SOL     OW15787   6.714   4.725   0.885
 4963SOL    HW115788   6.615   4.720   0.869
 4963SOL    HW215789   6.731   4.752   0.980
 4964SOL     OW15790   3.685   6.729   2.981
 4964SOL    HW115791   3.772   6.715   3.028
 4964SOL    HW215792   3.675   6.826   2.960
 4965SOL     OW15793   0.024   6.164   4.789
 4965SOL    HW115794   0.002   6.189   4.884
 4965SOL    HW215795   6.987   6.218   4.727
 4966SOL     OW15796   4.119   5.769   4.598
 4966SOL    HW115797   4.095   5.784   4.502
 4966SOL    HW215798   4.218   5.776   4.608
 4967SOL     OW15799   5.260   2.046   6.526
 4967SOL    HW115800   5.246   1.983   6.603
 4967SOL    HW215801   5.236   2.139   6.554
 4968SOL     OW15802   5.481   4.498   6.887
 4968SOL    HW115803   5.576   4.526   6.878
 4968SOL    HW215804   5.427   4.536   6.811
 4969SOL     OW15805   0.632   1.844   1.059
 4969SOL    HW115806   0.616   1.818   0.964
 4969SOL    HW215807   0.552   1.890   1.096
 4970SOL     OW15808   1.494   2.871   5.976
 4970SOL    HW115809   1.461   2.871   5.881
 4970SOL    HW215810   1.418   2.850   6.037
 4971SOL     OW15811   7.018   5.368   3.852
 4971SOL    HW115812   0.006   5.288   3.793
 4971SOL    HW215813   0.051   5.444   3.812
 4972SOL     OW15814   1.668   2.207   5.576
 4972SOL    HW115815   1.694   2.117   5.541
 4972SOL    HW215816   1.569   2.211   5.587
 4973SOL     OW15817   5.640   5.722   2.911
 4973SOL    HW115818   5.576   5.723   2.833
 4973SOL    HW215819   5.681   5.813   2.921
 4974SOL     OW15820   4.265   6.629   0.440
 4974SOL    HW115821   4.236   6.703   0.500
 4974SOL    HW215822   4.365   6.623   0.439
 4975SOL     OW15823   4.453   6.175   0.229
 4975SOL    HW115824   4.372   6.217   0.272
 4975SOL    HW215825   4.423   6.107   0.162
 4976SOL     OW15826   2.402   0.906   4.580
 4976SOL    HW115827   2.390   0.807   4.577
 4976SOL    HW215828   2.332   0.946   4.639
 4977SOL     OW15829   3.061   2.942   0.166
 4977SOL    HW115830   3.121   2.901   0.235
 4977SOL    HW215831   3.062   2.885   0.083
 4978SOL     OW15832   5.960   4.325   6.907
 4978SOL    HW115833   6.045   4.275   6.885
 4978SOL    HW215834   5.915   4.354   6.823
 4979SOL     OW15835   1.778   2.908   3.958
 4979SOL    HW115836   1.739   2.861   3.879
 4979SOL    HW215837   1.792   2.842   4.032
 4980SOL     OW15838   2.484   4.873   3.316
 4980SOL    HW115839   2.554   4.806   3.338
 4980SOL    HW215840   2.528   4.962   3.300
 4981SOL     OW15841   4.512   6.418   5.590
 4981SOL    HW115842   4.512   6.340   5.528
 4981SOL    HW215843   4.605   6.455   5.598
 4982SOL     OW15844   2.891   2.079   0.009
 4982SOL    HW115845   2.825   2.054   0.079
 4982SOL    HW215846   2.901   2.004   6.963
 4983SOL     OW15847   6.592   2.967   4.893
 4983SOL    HW115848   6.506   2.917   4.906
 4983SOL    HW215849   6.664   2.925   4.949
 4984SOL     OW15850   4.634   4.398   2.928
 4984SOL    HW115851   4.655   4.470   2.994
 4984SOL    HW215852   4.617   4.312   2.976
 4985SOL     OW15853   5.417   3.961   1.854
 4985SOL    HW115854   5.517   3.961   1.846
 4985SOL    HW215855   5.379   4.035   1.798
 4986SOL     OW15856   4.375   4.674   3.223
 4986SOL    HW115857   4.348   4.762   3.264
 4986SOL    HW215858   4.310   4.649   3.152
 4987SOL     OW15859   0.465   3.534   1.004
 4987SOL    HW115860   0.412   3.468   0.951
 4987SOL    HW215861   0.534   3.577   0.945
 4988SOL     OW15862   1.410   2.126   5.287
 4988SOL    HW115863   1.446   2.033   5.287
 4988SOL    HW215864   1.388   2.153   5.381
 4989SOL     OW15865   0.064   0.890   0.680
 4989SOL    HW115866   0.050   0.899   0.779
 4989SOL    HW215867   0.141   0.828   0.663
 4990SOL     OW15868   1.005   2.566   6.281
 4990SOL    HW115869   0.935   2.494   6.286
 4990SOL    HW215870   1.089   2.533   6.324
 4991SOL     OW15871   2.433   1.778   5.067
 4991SOL    HW115872   2.337   1.753   5.054
 4991SOL    HW215873   2.467   1.738   5.152
 4992SOL     OW15874   4.120   0.750   4.263
 4992SOL    HW115875   4.140   0.675   4.325
 4992SOL    HW215876   4.142   0.837   4.307
 4993SOL     OW15877   1.762   6.445   3.840
 4993SOL    HW115878   1.721   6.500   3.767
 4993SOL    HW215879   1.707   6.455   3.924
 4994SOL     OW15880   0.455   6.724   2.538
 4994SOL    HW115881   0.453   6.772   2.450
 4994SOL    HW215882   0.479   6.789   2.611
 4995SOL     OW15883   6.272   3.119   5.622
 4995SOL    HW115884   6.192   3.124   5.682
 4995SOL    HW215885   6.263   3.185   5.548
 4996SOL     OW15886   0.565   1.710   3.903
 4996SOL    HW115887   0.469   1.735   3.905
 4996SOL    HW215888   0.595   1.684   3.995
 4997SOL     OW15889   0.369   2.163   4.281
 4997SOL    HW115890   0.435   2.104   4.329
 4997SOL    HW215891   0.332   2.114   4.202
 4998SOL     OW15892   1.143   5.181   5.244
 4998SOL    HW115893   1.175   5.169   5.338
 4998SOL    HW215894   1.212   5.147   5.180
 4999SOL     OW15895   6.172   5.157   1.095
 4999SOL    HW115896   6.112   5.158   1.014
 4999SOL    HW215897   6.266   5.144   1.066
 5000SOL     OW15898   0.122   5.325   4.079
 5000SOL    HW115899   0.074   5.337   3.992
 5000SOL    HW215900   0.218   5.305   4.061
 5001SOL     OW15901   4.534   4.741   5.313
 5001SOL    HW115902   4.556   4.674   5.384
 5001SOL    HW215903   4.614   4.754   5.255
 5002SOL     OW15904   1.867   2.339   1.950
 5002SOL    HW115905   1.818   2.278   1.888
 5002SOL    HW215906   1.845   2.314   2.045
 5003SOL     OW15907   6.527   4.774   3.759
 5003SOL    HW115908   6.610   4.791   3.705
 5003SOL    HW215909   6.516   4.846   3.828
 5004SOL     OW15910   3.115   4.191   6.259
 5004SOL    HW115911   3.070   4.147   6.336
 5004SOL    HW215912   3.171   4.123   6.210
 5005SOL     OW15913   4.416   1.986   0.096
 5005SOL    HW115914   4.433   1.957   0.002
 5005SOL    HW215915   4.326   2.028   0.102
 5006SOL     OW15916   5.604   4.608   2.419
 5006SOL    HW115917   5.595   4.524   2.365
 5006SOL    HW215918   5.671   4.594   2.492
 5007SOL     OW15919   3.799   1.657   5.218
 5007SOL    HW115920   3.856   1.739   5.223
 5007SOL    HW215921   3.807   1.617   5.127
 5008SOL     OW15922   6.481   0.600   3.762
 5008SOL    HW115923   6.388   0.608   3.799
 5008SOL    HW215924   6.482   0.530   3.690
 5009SOL     OW15925   1.853   5.972   2.023
 5009SOL    HW115926   1.808   5.888   2.055
 5009SOL    HW215927   1.947   5.952   1.998
 5010SOL     OW15928   3.405   3.169   5.576
 5010SOL    HW115929   3.322   3.130   5.537
 5010SOL    HW215930   3.478   3.100   5.574
 5011SOL     OW15931   1.173   2.534   3.676
 5011SOL    HW115932   1.226   2.619   3.679
 5011SOL    HW215933   1.172   2.492   3.767
 5012SOL     OW15934   6.097   2.832   0.271
 5012SOL    HW115935   6.194   2.836   0.292
 5012SOL    HW215936   6.069   2.916   0.226
 5013SOL     OW15937   4.948   2.387   5.652
 5013SOL    HW115938   4.943   2.313   5.585
 5013SOL    HW215939   4.973   2.348   5.741
 5014SOL     OW15940   6.498   5.904   6.255
 5014SOL    HW115941   6.433   5.893   6.330
 5014SOL    HW215942   6.579   5.848   6.272
 5015SOL     OW15943   5.604   2.200   3.770
 5015SOL    HW115944   5.610   2.150   3.684
 5015SOL    HW215945   5.511   2.235   3.782
 5016SOL     OW15946   2.067   6.583   2.419
 5016SOL    HW115947   1.988   6.524   2.433
 5016SOL    HW215948   2.125   6.582   2.500
 5017SOL     OW15949   1.410   2.233   2.060
 5017SOL    HW115950   1.364   2.145   2.069
 5017SOL    HW215951   1.498   2.229   2.106
 5018SOL     OW15952   0.016   5.132   3.702
 5018SOL    HW115953   0.039   5.189   3.623
 5018SOL    HW215954   6.941   5.102   3.695
 5019SOL     OW15955   2.898   5.512   5.415
 5019SOL    HW115956   2.843   5.436   5.380
 5019SOL    HW215957   2.939   5.485   5.503
 5020SOL     OW15958   4.081   5.185   6.754
 5020SOL    HW115959   4.159   5.203   6.814
 5020SOL    HW215960   4.053   5.270   6.709
 5021SOL     OW15961   2.579   4.025   5.796
 5021SOL    HW115962   2.566   4.024   5.895
 5021SOL    HW215963   2.654   4.087   5.772
 5022SOL     OW15964   2.099   3.821   1.062
 5022SOL    HW115965   2.025   3.883   1.087
 5022SOL    HW215966   2.064   3.727   1.060
 5023SOL     OW15967   6.712   2.849   4.043
 5023SOL    HW115968   6.624   2.819   4.008
 5023SOL    HW215969   6.714   2.839   4.142
 5024SOL     OW15970   5.234   3.641   5.560
 5024SOL    HW115971   5.310   3.576   5.560
 5024SOL    HW215972   5.265   3.727   5.519
 5025SOL     OW15973   6.664   1.235   3.724
 5025SOL    HW115974   6.707   1.233   3.814
 5025SOL    HW215975   6.681   1.324   3.681
 5026SOL     OW15976   0.807   6.349   2.963
 5026SOL    HW115977   0.876   6.285   2.930
 5026SOL    HW215978   0.844   6.402   3.040
 5027SOL     OW15979   0.854   5.944   3.777
 5027SOL    HW115980   0.897   5.885   3.845
 5027SOL    HW215981   0.910   6.026   3.763
 5028SOL     OW15982   0.640   0.094   2.802
 5028SOL    HW115983   0.714   0.028   2.792
 5028SOL    HW215984   0.676   0.177   2.846
 5029SOL     OW15985   6.911   1.486   3.411
 5029SOL    HW115986   7.007   1.511   3.422
 5029SOL    HW215987   6.877   1.522   3.324
 5030SOL     OW15988   2.150   5.643   0.087
 5030SOL    HW115989   2.148   5.647   7.007
 5030SOL    HW215990   2.075   5.584   0.119
 5031SOL     OW15991   5.283   1.275   6.092
 5031SOL    HW115992   5.217   1.201   6.084
 5031SOL    HW215993   5.359   1.245   6.150
 5032SOL     OW15994   1.475   6.068   2.364
 5032SOL    HW115995   1.450   6.018   2.281
 5032SOL    HW215996   1.571   6.053   2.384
 5033SOL     OW15997   0.494   4.015   4.912
 5033SOL    HW115998   0.409   4.042   4.957
 5033SOL    HW215999   0.539   4.096   4.874
 5034SOL     OW16000   6.862   3.994   6.310
 5034SOL    HW116001   6.778   3.994   6.364
 5034SOL    HW216002   6.933   3.943   6.359
 5035SOL     OW16003   6.111   4.584   1.300
 5035SOL    HW116004   6.167   4.579   1.383
 5035SOL    HW216005   6.076   4.677   1.290
 5036SOL     OW16006   1.466   0.677   1.918
 5036SOL    HW116007   1.497   0.634   1.833
 5036SOL    HW216008   1.466   0.777   1.906
 5037SOL     OW16009   4.749   2.891   3.145
 5037SOL    HW116010   4.759   2.934   3.235
 5037SOL    HW216011   4.783   2.954   3.074
 5038SOL     OW16012   2.999   5.727   4.957
 5038SOL    HW116013   2.931   5.769   5.017
 5038SOL    HW216014   3.024   5.637   4.994
 5039SOL     OW16015   1.358   1.990   2.949
 5039SOL    HW116016   1.424   2.062   2.970
 5039SOL    HW216017   1.332   1.943   3.034
 5040SOL     OW16018   3.153   3.671   5.905
 5040SOL    HW116019   3.117   3.717   5.987
 5040SOL    HW216020   3.108   3.708   5.824
 5041SOL     OW16021   0.559   5.556   0.769
 5041SOL    HW116022   0.595   5.640   0.811
 5041SOL    HW216023   0.572   5.560   0.670
 5042SOL     OW16024   5.822   1.547   5.690
 5042SOL    HW116025   5.786   1.470   5.743
 5042SOL    HW216026   5.842   1.518   5.597
 5043SOL     OW16027   4.840   0.012   3.983
 5043SOL    HW116028   4.874   0.085   3.924
 5043SOL    HW216029   4.904   7.017   4.058
 5044SOL     OW16030   5.583   4.707   1.858
 5044SOL    HW116031   5.587   4.721   1.957
 5044SOL    HW216032   5.490   4.681   1.832
 5045SOL     OW16033   5.530   3.423   5.017
 5045SOL    HW116034   5.533   3.427   4.917
 5045SOL    HW216035   5.472   3.346   5.045
 5046SOL     OW16036   3.928   3.574   5.766
 5046SOL    HW116037   3.896   3.479   5.770
 5046SOL    HW216038   3.989   3.586   5.687
 5047SOL     OW16039   0.237   1.657   2.278
 5047SOL    HW116040   0.158   1.676   2.337
 5047SOL    HW216041   0.266   1.562   2.292
 5048SOL     OW16042   5.980   3.709   1.312
 5048SOL    HW116043   5.902   3.646   1.309
 5048SOL    HW216044   6.046   3.676   1.380
 5049SOL     OW16045   0.849   2.307   1.511
 5049SOL    HW116046   0.856   2.236   1.440
 5049SOL    HW216047   0.818   2.264   1.597
 5050SOL     OW16048   1.321   3.578   0.750
 5050SOL    HW116049   1.337   3.596   0.847
 5050SOL    HW216050   1.239   3.522   0.740
 5051SOL     OW16051   2.165   3.447   6.573
 5051SOL    HW116052   2.251   3.498   6.572
 5051SOL    HW216053   2.092   3.506   6.607
 5052SOL     OW16054   5.798   3.291   0.602
 5052SOL    HW116055   5.878   3.255   0.554
 5052SOL    HW216056   5.715   3.248   0.566
 5053SOL     OW16057   2.106   4.193   1.106
 5053SOL    HW116058   2.157   4.142   1.037
 5053SOL    HW216059   2.020   4.145   1.126
 5054SOL     OW16060   4.185   6.225   5.070
 5054SOL    HW116061   4.120   6.301   5.070
 5054SOL    HW216062   4.137   6.140   5.049
 5055SOL     OW16063   1.690   1.916   3.874
 5055SOL    HW116064   1.783   1.890   3.901
 5055SOL    HW216065   1.680   1.903   3.775
 5056SOL     OW16066   2.881   2.273   5.123
 5056SOL    HW116067   2.894   2.207   5.197
 5056SOL    HW216068   2.970   2.306   5.092
 5057SOL     OW16069   0.384   4.155   2.742
 5057SOL    HW116070   0.440   4.158   2.825
 5057SOL    HW216071   0.356   4.247   2.717
 5058SOL     OW16072   3.616   2.415   0.318
 5058SOL    HW116073   3.660   2.345   0.375
 5058SOL    HW216074   3.562   2.477   0.376
 5059SOL     OW16075   4.490   1.993   2.975
 5059SOL    HW116076   4.411   2.043   2.939
 5059SOL    HW216077   4.568   2.055   2.984
 5060SOL     OW16078   0.382   3.232   5.895
 5060SOL    HW116079   0.336   3.315   5.864
 5060SOL    HW216080   0.473   3.254   5.929
 5061SOL     OW16081   4.170   2.420   6.108
 5061SOL    HW116082   4.073   2.441   6.097
 5061SOL    HW216083   4.225   2.501   6.088
 5062SOL     OW16084   5.410   1.293   3.573
 5062SOL    HW116085   5.484   1.271   3.511
 5062SOL    HW216086   5.417   1.388   3.602
 5063SOL     OW16087   1.157   1.204   1.626
 5063SOL    HW116088   1.214   1.190   1.545
 5063SOL    HW216089   1.068   1.162   1.612
 5064SOL     OW16090   5.707   5.086   0.873
 5064SOL    HW116091   5.615   5.122   0.892
 5064SOL    HW216092   5.701   5.018   0.800
 5065SOL     OW16093   2.487   1.339   2.122
 5065SOL    HW116094   2.531   1.408   2.064
 5065SOL    HW216095   2.547   1.318   2.199
 5066SOL     OW16096   1.711   5.144   2.735
 5066SOL    HW116097   1.781   5.156   2.664
 5066SOL    HW216098   1.694   5.046   2.747
 5067SOL     OW16099   6.050   2.980   1.356
 5067SOL    HW116100   6.077   2.909   1.421
 5067SOL    HW216101   5.976   3.035   1.395
 5068SOL     OW16102   1.940   5.995   0.718
 5068SOL    HW116103   2.005   6.014   0.791
 5068SOL    HW216104   1.953   5.902   0.685
 5069SOL     OW16105   4.479   5.600   5.726
 5069SOL    HW116106   4.469   5.501   5.716
 5069SOL    HW216107   4.525   5.619   5.812
 5070SOL     OW16108   5.926   3.309   5.304
 5070SOL    HW116109   5.835   3.321   5.265
 5070SOL    HW216110   5.990   3.285   5.231
 5071SOL     OW16111   2.739   6.595   3.685
 5071SOL    HW116112   2.662   6.652   3.658
 5071SOL    HW216113   2.709   6.500   3.694
 5072SOL     OW16114   0.878   1.143   1.601
 5072SOL    HW116115   0.848   1.201   1.677
 5072SOL    HW216116   0.797   1.109   1.552
 5073SOL     OW16117   1.981   0.975   3.761
 5073SOL    HW116118   1.977   1.066   3.719
 5073SOL    HW216119   1.900   0.922   3.735
 5074SOL     OW16120   3.092   2.275   1.442
 5074SOL    HW116121   3.119   2.345   1.377
 5074SOL    HW216122   3.105   2.309   1.535
 5075SOL     OW16123   6.506   3.157   0.670
 5075SOL    HW116124   6.578   3.188   0.733
 5075SOL    HW216125   6.535   3.174   0.576
 5076SOL     OW16126   0.111   0.748   5.806
 5076SOL    HW116127   0.091   0.719   5.900
 5076SOL    HW216128   0.126   0.847   5.804
 5077SOL     OW16129   0.572   4.635   3.453
 5077SOL    HW116130   0.585   4.612   3.356
 5077SOL    HW216131   0.585   4.734   3.465
 5078SOL     OW16132   6.451   2.217   3.697
 5078SOL    HW116133   6.392   2.154   3.748
 5078SOL    HW216134   6.416   2.227   3.604
 5079SOL     OW16135   1.374   3.423   4.844
 5079SOL    HW116136   1.315   3.432   4.924
 5079SOL    HW216137   1.427   3.338   4.851
 5080SOL     OW16138   5.981   5.645   6.684
 5080SOL    HW116139   6.009   5.549   6.690
 5080SOL    HW216140   5.977   5.673   6.588
 5081SOL     OW16141   2.422   4.345   5.209
 5081SOL    HW116142   2.418   4.268   5.272
 5081SOL    HW216143   2.497   4.406   5.235
 5082SOL     OW16144   5.746   5.946   1.265
 5082SOL    HW116145   5.828   5.922   1.317
 5082SOL    HW216146   5.666   5.904   1.307
 5083SOL     OW16147   2.384   0.187   3.719
 5083SOL    HW116148   2.451   0.208   3.648
 5083SOL    HW216149   2.403   0.096   3.757
 5084SOL     OW16150   3.606   4.224   5.712
 5084SOL    HW116151   3.556   4.192   5.631
 5084SOL    HW216152   3.613   4.150   5.778
 5085SOL     OW16153   0.290   4.733   5.645
 5085SOL    HW116154   0.347   4.651   5.638
 5085SOL    HW216155   0.246   4.750   5.558
 5086SOL     OW16156   1.425   4.784   2.416
 5086SOL    HW116157   1.474   4.804   2.500
 5086SOL    HW216158   1.437   4.859   2.351
 5087SOL     OW16159   0.146   4.990   2.119
 5087SOL    HW116160   0.056   4.954   2.097
 5087SOL    HW216161   0.182   4.944   2.200
 5088SOL     OW16162   4.639   5.337   2.359
 5088SOL    HW116163   4.564   5.361   2.297
 5088SOL    HW216164   4.604   5.281   2.434
 5089SOL     OW16165   5.152   5.904   6.110
 5089SOL    HW116166   5.124   5.989   6.066
 5089SOL    HW216167   5.075   5.840   6.109
 5090SOL     OW16168   2.489   6.553   5.067
 5090SOL    HW116169   2.487   6.510   5.157
 5090SOL    HW216170   2.570   6.523   5.018
 5091SOL     OW16171   0.099   6.396   6.156
 5091SOL    HW116172   0.190   6.437   6.164
 5091SOL    HW216173   0.040   6.429   6.230
 5092SOL     OW16174   3.768   3.299   4.091
 5092SOL    HW116175   3.765   3.371   4.022
 5092SOL    HW216176   3.863   3.280   4.116
 5093SOL     OW16177   2.838   2.218   2.809
 5093SOL    HW116178   2.824   2.210   2.710
 5093SOL    HW216179   2.908   2.153   2.839
 5094SOL     OW16180   1.548   5.946   4.727
 5094SOL    HW116181   1.480   6.016   4.747
 5094SOL    HW216182   1.519   5.892   4.648
 5095SOL     OW16183   7.000   1.315   3.149
 5095SOL    HW116184   7.010   1.274   3.058
 5095SOL    HW216185   0.032   1.260   3.215
 5096SOL     OW16186   6.744   3.282   5.649
 5096SOL    HW116187   6.758   3.263   5.552
 5096SOL    HW216188   6.830   3.272   5.698
 5097SOL     OW16189   0.723   0.507   5.638
 5097SOL    HW116190   0.790   0.459   5.582
 5097SOL    HW216191   0.632   0.471   5.618
 5098SOL     OW16192   3.486   2.771   0.215
 5098SOL    HW116193   3.524   2.729   0.133
 5098SOL    HW216194   3.531   2.733   0.296
 5099SOL     OW16195   1.638   6.362   1.982
 5099SOL    HW116196   1.598   6.454   1.974
 5099SOL    HW216197   1.734   6.369   2.006
 5100SOL     OW16198   5.138   3.092   1.964
 5100SOL    HW116199   5.139   3.060   1.870
 5100SOL    HW216200   5.058   3.150   1.979
 5101SOL     OW16201   3.145   0.352   5.233
 5101SOL    HW116202   3.114   0.415   5.305
 5101SOL    HW216203   3.078   0.279   5.221
 5102SOL     OW16204   5.130   5.208   4.815
 5102SOL    HW116205   5.057   5.172   4.873
 5102SOL    HW216206   5.215   5.210   4.866
 5103SOL     OW16207   1.120   0.473   5.899
 5103SOL    HW116208   1.073   0.390   5.870
 5103SOL    HW216209   1.055   0.534   5.944
 5104SOL     OW16210   3.900   3.251   3.080
 5104SOL    HW116211   3.983   3.264   3.134
 5104SOL    HW216212   3.825   3.303   3.123
 5105SOL     OW16213   4.239   3.048   0.085
 5105SOL    HW116214   4.184   3.041   0.169
 5105SOL    HW216215   4.178   3.052   0.006
 5106SOL     OW16216   3.557   1.821   1.384
 5106SOL    HW116217   3.582   1.735   1.429
 5106SOL    HW216218   3.582   1.815   1.287
 5107SOL     OW16219   6.013   4.830   0.586
 5107SOL    HW116220   5.919   4.799   0.603
 5107SOL    HW216221   6.018   4.873   0.496
 5108SOL     OW16222   3.610   4.918   1.217
 5108SOL    HW116223   3.527   4.966   1.246
 5108SOL    HW216224   3.661   4.974   1.153
 5109SOL     OW16225   1.207   2.869   2.740
 5109SOL    HW116226   1.292   2.880   2.689
 5109SOL    HW216227   1.213   2.789   2.800
 5110SOL     OW16228   5.062   6.925   5.433
 5110SOL    HW116229   5.015   6.847   5.393
 5110SOL    HW216230   5.095   6.900   5.525
 5111SOL     OW16231   1.357   5.456   5.491
 5111SOL    HW116232   1.442   5.409   5.465
 5111SOL    HW216233   1.374   5.554   5.498
 5112SOL     OW16234   1.251   6.055   3.357
 5112SOL    HW116235   1.309   6.136   3.359
 5112SOL    HW216236   1.303   5.977   3.324
 5113SOL     OW16237   2.024   4.196   0.286
 5113SOL    HW116238   2.032   4.266   0.215
 5113SOL    HW216239   2.060   4.232   0.372
 5114SOL     OW16240   4.678   4.532   1.593
 5114SOL    HW116241   4.618   4.517   1.671
 5114SOL    HW216242   4.749   4.598   1.619
 5115SOL     OW16243   1.764   3.785   0.802
 5115SOL    HW116244   1.695   3.744   0.862
 5115SOL    HW216245   1.788   3.876   0.834
 5116SOL     OW16246   0.885   0.002   5.369
 5116SOL    HW116247   0.816   6.978   5.427
 5116SOL    HW216248   0.878   6.988   5.276
 5117SOL     OW16249   0.233   2.256   3.621
 5117SOL    HW116250   0.267   2.178   3.568
 5117SOL    HW216251   0.307   2.320   3.637
 5118SOL     OW16252   4.353   5.595   0.398
 5118SOL    HW116253   4.291   5.565   0.326
 5118SOL    HW216254   4.440   5.546   0.391
 5119SOL     OW16255   5.992   1.799   0.645
 5119SOL    HW116256   5.971   1.707   0.612
 5119SOL    HW216257   5.914   1.836   0.695
 5120SOL     OW16258   4.927   6.838   6.931
 5120SOL    HW116259   4.828   6.830   6.942
 5120SOL    HW216260   4.959   6.769   6.866
 5121SOL     OW16261   1.172   3.392   6.188
 5121SOL    HW116262   1.170   3.437   6.098
 5121SOL    HW216263   1.175   3.462   6.260
 5122SOL     OW16264   4.682   4.808   3.646
 5122SOL    HW116265   4.587   4.822   3.618
 5122SOL    HW216266   4.693   4.838   3.741
 5123SOL     OW16267   4.907   3.157   2.469
 5123SOL    HW116268   4.998   3.133   2.503
 5123SOL    HW216269   4.889   3.108   2.384
 5124SOL     OW16270   1.269   5.928   5.102
 5124SOL    HW116271   1.291   6.002   5.165
 5124SOL    HW216272   1.229   5.851   5.153
 5125SOL     OW16273   6.346   1.617   3.706
 5125SOL    HW116274   6.372   1.698   3.654
 5125SOL    HW216275   6.379   1.535   3.659
 5126SOL     OW16276   1.683   0.978   2.127
 5126SOL    HW116277   1.667   0.880   2.123
 5126SOL    HW216278   1.735   1.000   2.210
 5127SOL     OW16279   2.534   6.282   0.152
 5127SOL    HW116280   2.443   6.242   0.135
 5127SOL    HW216281   2.575   6.307   0.064
 5128SOL     OW16282   5.583   6.971   1.618
 5128SOL    HW116283   5.590   0.024   1.686
 5128SOL    HW216284   5.593   6.882   1.663
 5129SOL     OW16285   6.567   6.598   0.417
 5129SOL    HW116286   6.604   6.508   0.393
 5129SOL    HW216287   6.467   6.596   0.408
 5130SOL     OW16288   6.141   5.070   2.442
 5130SOL    HW116289   6.062   5.022   2.481
 5130SOL    HW216290   6.111   5.153   2.396
 5131SOL     OW16291   1.960   2.568   2.698
 5131SOL    HW116292   1.886   2.513   2.659
 5131SOL    HW216293   1.945   2.579   2.796
 5132SOL     OW16294   2.828   6.034   5.083
 5132SOL    HW116295   2.788   6.080   5.163
 5132SOL    HW216296   2.851   6.102   5.014
 5133SOL     OW16297   3.589   6.094   5.410
 5133SOL    HW116298   3.536   6.169   5.371
 5133SOL    HW216299   3.567   6.009   5.362
 5134SOL     OW16300   6.367   3.686   6.140
 5134SOL    HW116301   6.293   3.667   6.206
 5134SOL    HW216302   6.336   3.755   6.075
 5135SOL     OW16303   5.899   1.301   4.677
 5135SOL    HW116304   5.928   1.216   4.634
 5135SOL    HW216305   5.978   1.362   4.687
 5136SOL     OW16306   3.897   1.795   5.714
 5136SOL    HW116307   3.884   1.892   5.736
 5136SOL    HW216308   3.920   1.745   5.797
 5137SOL     OW16309   3.545   3.604   6.902
 5137SOL    HW116310   3.452   3.625   6.932
 5137SOL    HW216311   3.543   3.564   6.811
 5138SOL     OW16312   2.469   3.348   6.361
 5138SOL    HW116313   2.539   3.392   6.417
 5138SOL    HW216314   2.419   3.281   6.417
 5139SOL     OW16315   0.375   0.071   3.696
 5139SOL    HW116316   0.289   0.029   3.669
 5139SOL    HW216317   0.432   0.087   3.615
 5140SOL     OW16318   3.070   2.861   1.854
 5140SOL    HW116319   3.009   2.787   1.826
 5140SOL    HW216320   3.132   2.884   1.778
 5141SOL     OW16321   0.557   4.272   5.967
 5141SOL    HW116322   0.641   4.282   6.020
 5141SOL    HW216323   0.565   4.325   5.883
 5142SOL     OW16324   5.754   2.892   2.930
 5142SOL    HW116325   5.838   2.853   2.893
 5142SOL    HW216326   5.764   2.906   3.029
 5143SOL     OW16327   6.609   5.219   4.950
 5143SOL    HW116328   6.600   5.221   5.050
 5143SOL    HW216329   6.659   5.136   4.923
 5144SOL     OW16330   1.700   1.649   5.151
 5144SOL    HW116331   1.629   1.662   5.082
 5144SOL    HW216332   1.786   1.687   5.117
 5145SOL     OW16333   3.741   5.350   5.889
 5145SOL    HW116334   3.765   5.447   5.896
 5145SOL    HW216335   3.814   5.294   5.926
 5146SOL     OW16336   2.770   4.865   6.751
 5146SOL    HW116337   2.780   4.963   6.766
 5146SOL    HW216338   2.747   4.820   6.837
 5147SOL     OW16339   6.685   5.031   6.426
 5147SOL    HW116340   6.672   5.113   6.370
 5147SOL    HW216341   6.757   4.974   6.386
 5148SOL     OW16342   0.561   0.333   1.036
 5148SOL    HW116343   0.591   0.334   1.131
 5148SOL    HW216344   0.635   0.297   0.978
 5149SOL     OW16345   0.319   0.632   5.529
 5149SOL    HW116346   0.356   0.638   5.622
 5149SOL    HW216347   0.281   0.541   5.515
 5150SOL     OW16348   2.124   5.639   4.410
 5150SOL    HW116349   2.216   5.664   4.381
 5150SOL    HW216350   2.069   5.615   4.330
 5151SOL     OW16351   4.449   1.000   6.071
 5151SOL    HW116352   4.505   1.022   6.151
 5151SOL    HW216353   4.481   0.915   6.030
 5152SOL     OW16354   0.628   4.781   0.390
 5152SOL    HW116355   0.638   4.866   0.337
 5152SOL    HW216356   0.607   4.706   0.328
 5153SOL     OW16357   1.845   2.149   1.086
 5153SOL    HW116358   1.843   2.049   1.090
 5153SOL    HW216359   1.894   2.178   1.004
 5154SOL     OW16360   1.559   3.945   5.463
 5154SOL    HW116361   1.495   3.890   5.517
 5154SOL    HW216362   1.549   3.924   5.366
 5155SOL     OW16363   3.541   0.706   2.667
 5155SOL    HW116364   3.626   0.694   2.719
 5155SOL    HW216365   3.562   0.727   2.572
 5156SOL     OW16366   5.537   2.821   6.051
 5156SOL    HW116367   5.531   2.722   6.038
 5156SOL    HW216368   5.633   2.849   6.044
 5157SOL     OW16369   5.954   2.407   4.150
 5157SOL    HW116370   5.877   2.444   4.202
 5157SOL    HW216371   5.986   2.474   4.084
 5158SOL     OW16372   3.835   0.426   0.769
 5158SOL    HW116373   3.836   0.520   0.734
 5158SOL    HW216374   3.866   0.426   0.864
 5159SOL     OW16375   2.168   3.422   4.977
 5159SOL    HW116376   2.201   3.338   5.020
 5159SOL    HW216377   2.152   3.491   5.047
 5160SOL     OW16378   1.845   2.707   4.143
 5160SOL    HW116379   1.921   2.643   4.155
 5160SOL    HW216380   1.804   2.727   4.232
 5161SOL     OW16381   1.703   3.184   6.542
 5161SOL    HW116382   1.630   3.199   6.609
 5161SOL    HW216383   1.781   3.139   6.587
 5162SOL     OW16384   6.536   4.952   4.273
 5162SOL    HW116385   6.531   5.027   4.338
 5162SOL    HW216386   6.615   4.965   4.213
 5163SOL     OW16387   5.463   4.021   0.756
 5163SOL    HW116388   5.470   3.924   0.782
 5163SOL    HW216389   5.523   4.038   0.677
 5164SOL     OW16390   5.743   5.597   5.521
 5164SOL    HW116391   5.765   5.647   5.605
 5164SOL    HW216392   5.695   5.512   5.544
 5165SOL     OW16393   6.348   3.737   4.652
 5165SOL    HW116394   6.390   3.800   4.717
 5165SOL    HW216395   6.407   3.725   4.573
 5166SOL     OW16396   1.684   0.054   1.804
 5166SOL    HW116397   1.637   0.031   1.719
 5166SOL    HW216398   1.619   0.054   1.879
 5167SOL     OW16399   1.581   0.357   5.579
 5167SOL    HW116400   1.627   0.335   5.493
 5167SOL    HW216401   1.482   0.356   5.565
 5168SOL     OW16402   4.075   1.777   3.215
 5168SOL    HW116403   4.064   1.679   3.235
 5168SOL    HW216404   4.143   1.788   3.142
 5169SOL     OW16405   4.107   4.372   6.226
 5169SOL    HW116406   4.140   4.461   6.258
 5169SOL    HW216407   4.009   4.377   6.208
 5170SOL     OW16408   4.102   5.426   4.322
 5170SOL    HW116409   4.096   5.359   4.248
 5170SOL    HW216410   4.123   5.379   4.408
 5171SOL     OW16411   2.666   4.839   5.021
 5171SOL    HW116412   2.574   4.815   5.053
 5171SOL    HW216413   2.726   4.760   5.030
 5172SOL     OW16414   2.041   4.403   0.102
 5172SOL    HW116415   2.023   4.442   0.012
 5172SOL    HW216416   2.139   4.410   0.122
 5173SOL     OW16417   6.730   2.876   6.186
 5173SOL    HW116418   6.759   2.789   6.147
 5173SOL    HW216419   6.810   2.931   6.209
 5174SOL     OW16420   1.707   4.738   5.879
 5174SOL    HW116421   1.623   4.791   5.869
 5174SOL    HW216422   1.735   4.704   5.789
 5175SOL     OW16423   0.270   5.276   5.956
 5175SOL    HW116424   0.360   5.250   5.921
 5175SOL    HW216425   0.265   5.256   6.054
 5176SOL     OW16426   5.173   4.348   5.673
 5176SOL    HW116427   5.088   4.375   5.629
 5176SOL    HW216428   5.230   4.428   5.689
 5177SOL     OW16429   5.103   5.722   6.375
 5177SOL    HW116430   5.058   5.715   6.464
 5177SOL    HW216431   5.035   5.749   6.306
 5178SOL     OW16432   2.774   2.136   1.576
 5178SOL    HW116433   2.843   2.197   1.614
 5178SOL    HW216434   2.706   2.114   1.645
 5179SOL     OW16435   3.382   6.282   5.290
 5179SOL    HW116436   3.424   6.265   5.201
 5179SOL    HW216437   3.312   6.352   5.282
 5180SOL     OW16438   2.979   1.606   0.117
 5180SOL    HW116439   2.951   1.517   0.082
 5180SOL    HW216440   3.018   1.660   0.043
 5181SOL     OW16441   2.732   5.919   2.790
 5181SOL    HW116442   2.715   5.918   2.889
 5181SOL    HW216443   2.655   5.876   2.743
 5182SOL     OW16444   4.759   4.029   1.492
 5182SOL    HW116445   4.713   4.116   1.513
 5182SOL    HW216446   4.691   3.960   1.470
 5183SOL     OW16447   3.637   0.877   3.560
 5183SOL    HW116448   3.605   0.908   3.471
 5183SOL    HW216449   3.698   0.945   3.600
 5184SOL     OW16450   0.897   2.128   3.199
 5184SOL    HW116451   0.932   2.043   3.238
 5184SOL    HW216452   0.906   2.125   3.099
 5185SOL     OW16453   3.653   6.934   1.896
 5185SOL    HW116454   3.717   6.977   1.832
 5185SOL    HW216455   3.566   6.984   1.895
 5186SOL     OW16456   5.444   4.893   6.968
 5186SOL    HW116457   5.396   4.958   0.007
 5186SOL    HW216458   5.480   4.818   0.004
 5187SOL     OW16459   5.266   1.583   4.583
 5187SOL    HW116460   5.284   1.636   4.666
 5187SOL    HW216461   5.174   1.546   4.586
 5188SOL     OW16462   1.187   2.853   3.913
 5188SOL    HW116463   1.201   2.845   3.814
 5188SOL    HW216464   1.275   2.852   3.960
 5189SOL     OW16465   4.488   5.736   0.046
 5189SOL    HW116466   4.454   5.652   0.088
 5189SOL    HW216467   4.547   5.714   6.989
 5190SOL     OW16468   2.171   2.946   2.830
 5190SOL    HW116469   2.108   2.978   2.760
 5190SOL    HW216470   2.196   2.851   2.813
 5191SOL     OW16471   5.029   0.541   2.085
 5191SOL    HW116472   5.102   0.599   2.122
 5191SOL    HW216473   5.069   0.464   2.037
 5192SOL     OW16474   6.119   4.450   1.960
 5192SOL    HW116475   6.128   4.420   2.055
 5192SOL    HW216476   6.099   4.548   1.958
 5193SOL     OW16477   4.851   4.155   2.276
 5193SOL    HW116478   4.833   4.076   2.217
 5193SOL    HW216479   4.881   4.232   2.221
 5194SOL     OW16480   5.184   1.073   0.351
 5194SOL    HW116481   5.119   1.004   0.383
 5194SOL    HW216482   5.209   1.134   0.426
 5195SOL     OW16483   6.293   6.319   5.182
 5195SOL    HW116484   6.291   6.321   5.282
 5195SOL    HW216485   6.227   6.384   5.146
 5196SOL     OW16486   0.493   3.353   2.112
 5196SOL    HW116487   0.544   3.289   2.169
 5196SOL    HW216488   0.404   3.315   2.090
 5197SOL     OW16489   3.501   5.836   5.299
 5197SOL    HW116490   3.539   5.761   5.353
 5197SOL    HW216491   3.422   5.874   5.347
 5198SOL     OW16492   4.020   0.661   5.353
 5198SOL    HW116493   3.974   0.740   5.395
 5198SOL    HW216494   4.098   0.693   5.300
 5199SOL     OW16495   0.473   5.436   1.568
 5199SOL    HW116496   0.409   5.464   1.639
 5199SOL    HW216497   0.559   5.487   1.578
 5200SOL     OW16498   0.170   6.925   5.189
 5200SOL    HW116499   0.248   6.983   5.212
 5200SOL    HW216500   0.157   6.925   5.090
 5201SOL     OW16501   5.988   4.852   5.032
 5201SOL    HW116502   5.950   4.884   4.946
 5201SOL    HW216503   6.052   4.777   5.015
 5202SOL     OW16504   3.748   3.023   5.920
 5202SOL    HW116505   3.785   2.932   5.941
 5202SOL    HW216506   3.650   3.024   5.940
 5203SOL     OW16507   1.354   0.223   6.245
 5203SOL    HW116508   1.376   0.313   6.209
 5203SOL    HW216509   1.406   0.154   6.194
 5204SOL     OW16510   1.948   0.783   0.851
 5204SOL    HW116511   2.028   0.838   0.875
 5204SOL    HW216512   1.927   0.720   0.925
 5205SOL     OW16513   6.967   0.080   1.322
 5205SOL    HW116514   7.003   0.167   1.289
 5205SOL    HW216515   7.010   0.005   1.271
 5206SOL     OW16516   1.305   4.227   4.111
 5206SOL    HW116517   1.299   4.302   4.045
 5206SOL    HW216518   1.365   4.253   4.186
 5207SOL     OW16519   5.618   6.701   4.769
 5207SOL    HW116520   5.682   6.648   4.824
 5207SOL    HW216521   5.542   6.642   4.740
 5208SOL     OW16522   6.582   1.736   0.445
 5208SOL    HW116523   6.552   1.699   0.532
 5208SOL    HW216524   6.619   1.663   0.388
 5209SOL     OW16525   5.376   6.461   3.576
 5209SOL    HW116526   5.467   6.503   3.582
 5209SOL    HW216527   5.312   6.525   3.534
 5210SOL     OW16528   5.564   4.563   0.841
 5210SOL    HW116529   5.632   4.636   0.829
 5210SOL    HW216530   5.611   4.477   0.862
 5211SOL     OW16531   5.650   2.704   4.901
 5211SOL    HW116532   5.580   2.720   4.831
 5211SOL    HW216533   5.681   2.609   4.896
 5212SOL     OW16534   6.923   3.724   0.610
 5212SOL    HW116535   6.881   3.749   0.523
 5212SOL    HW216536   6.964   3.805   0.653
 5213SOL     OW16537   4.092   3.465   2.847
 5213SOL    HW116538   4.113   3.369   2.866
 5213SOL    HW216539   4.155   3.523   2.898
 5214SOL     OW16540   5.658   3.123   5.775
 5214SOL    HW116541   5.668   3.171   5.688
 5214SOL    HW216542   5.679   3.186   5.850
 5215SOL     OW16543   6.906   5.142   5.020
 5215SOL    HW116544   6.836   5.111   4.956
 5215SOL    HW216545   6.961   5.214   4.978
 5216SOL     OW16546   5.569   5.209   1.178
 5216SOL    HW116547   5.631   5.238   1.251
 5216SOL    HW216548   5.610   5.229   1.089
 5217SOL     OW16549   4.682   6.879   2.886
 5217SOL    HW116550   4.755   6.899   2.821
 5217SOL    HW216551   4.638   6.964   2.915
 5218SOL     OW16552   6.434   6.929   0.232
 5218SOL    HW116553   6.412   6.871   0.310
 5218SOL    HW216554   6.413   6.881   0.147
 5219SOL     OW16555   3.590   1.250   5.265
 5219SOL    HW116556   3.650   1.196   5.207
 5219SOL    HW216557   3.636   1.271   5.351
 5220SOL     OW16558   2.308   4.913   4.498
 5220SOL    HW116559   2.267   4.875   4.581
 5220SOL    HW216560   2.385   4.856   4.469
 5221SOL     OW16561   5.466   6.236   1.370
 5221SOL    HW116562   5.453   6.148   1.324
 5221SOL    HW216563   5.412   6.306   1.325
 5222SOL     OW16564   0.130   3.598   1.924
 5222SOL    HW116565   0.037   3.570   1.948
 5222SOL    HW216566   0.187   3.596   2.006
 5223SOL     OW16567   6.431   2.778   0.883
 5223SOL    HW116568   6.461   2.840   0.955
 5223SOL    HW216569   6.332   2.763   0.891
 5224SOL     OW16570   1.254   1.759   5.111
 5224SOL    HW116571   1.221   1.841   5.157
 5224SOL    HW216572   1.183   1.688   5.113
 5225SOL     OW16573   6.665   1.722   4.785
 5225SOL    HW116574   6.731   1.651   4.811
 5225SOL    HW216575   6.706   1.812   4.800
 5226SOL     OW16576   0.305   6.108   4.569
 5226SOL    HW116577   0.346   6.041   4.631
 5226SOL    HW216578   0.351   6.197   4.580
 5227SOL     OW16579   0.709   3.589   5.952
 5227SOL    HW116580   0.762   3.669   5.921
 5227SOL    HW216581   0.709   3.520   5.880
 5228SOL     OW16582   0.989   2.266   5.521
 5228SOL    HW116583   1.040   2.180   5.523
 5228SOL    HW216584   1.019   2.322   5.444
 5229SOL     OW16585   3.557   2.039   5.796
 5229SOL    HW116586   3.640   2.087   5.770
 5229SOL    HW216587   3.532   2.062   5.890
 5230SOL     OW16588   6.333   0.191   2.846
 5230SOL    HW116589   6.423   0.183   2.891
 5230SOL    HW216590   6.271   0.124   2.886
 5231SOL     OW16591   6.330   3.739   2.424
 5231SOL    HW116592   6.256   3.707   2.483
 5231SOL    HW216593   6.392   3.797   2.476
 5232SOL     OW16594   1.592   2.414   5.906
 5232SOL    HW116595   1.573   2.435   5.810
 5232SOL    HW216596   1.660   2.478   5.941
 5233SOL     OW16597   3.715   0.117   3.218
 5233SOL    HW116598   3.623   0.085   3.198
 5233SOL    HW216599   3.773   0.101   3.138
 5234SOL     OW16600   2.888   2.598   6.133
 5234SOL    HW116601   2.828   2.585   6.211
 5234SOL    HW216602   2.839   2.648   6.061
 5235SOL     OW16603   2.529   1.960   1.478
 5235SOL    HW116604   2.541   1.985   1.574
 5235SOL    HW216605   2.501   2.041   1.426
 5236SOL     OW16606   3.098   4.906   1.695
 5236SOL    HW116607   3.113   4.818   1.649
 5236SOL    HW216608   3.020   4.897   1.758
 5237SOL     OW16609   1.682   1.690   1.828
 5237SOL    HW116610   1.617   1.656   1.760
 5237SOL    HW216611   1.660   1.651   1.918
 5238SOL     OW16612   0.146   0.253   3.060
 5238SOL    HW116613   0.240   0.246   3.026
 5238SOL    HW216614   0.144   0.236   3.158
 5239SOL     OW16615   2.637   4.446   0.815
 5239SOL    HW116616   2.572   4.518   0.791
 5239SOL    HW216617   2.588   4.359   0.826
 5240SOL     OW16618   2.285   4.078   6.129
 5240SOL    HW116619   2.287   4.173   6.097
 5240SOL    HW216620   2.217   4.069   6.201
 5241SOL     OW16621   2.182   6.689   2.629
 5241SOL    HW116622   2.182   6.670   2.727
 5241SOL    HW216623   2.096   6.732   2.604
 5242SOL     OW16624   3.620   6.723   6.285
 5242SOL    HW116625   3.606   6.688   6.193
 5242SOL    HW216626   3.711   6.765   6.291
 5243SOL     OW16627   2.946   5.998   2.997
 5243SOL    HW116628   2.961   6.071   2.930
 5243SOL    HW216629   2.987   6.025   3.085
 5244SOL     OW16630   4.320   1.222   6.927
 5244SOL    HW116631   4.297   1.130   6.957
 5244SOL    HW216632   4.280   1.238   6.836
 5245SOL     OW16633   3.327   4.275   1.694
 5245SOL    HW116634   3.308   4.206   1.764
 5245SOL    HW216635   3.242   4.323   1.671
 5246SOL     OW16636   5.941   4.110   6.187
 5246SOL    HW116637   5.901   4.183   6.242
 5246SOL    HW216638   6.002   4.149   6.118
 5247SOL     OW16639   4.964   1.683   6.854
 5247SOL    HW116640   4.868   1.713   6.849
 5247SOL    HW216641   4.970   1.597   6.904
 5248SOL     OW16642   5.587   1.396   4.160
 5248SOL    HW116643   5.568   1.483   4.204
 5248SOL    HW216644   5.623   1.331   4.227
 5249SOL     OW16645   6.926   4.997   0.961
 5249SOL    HW116646   7.006   4.947   0.993
 5249SOL    HW216647   6.847   4.974   1.018
 5250SOL     OW16648   2.536   5.509   0.779
 5250SOL    HW116649   2.548   5.423   0.729
 5250SOL    HW216650   2.441   5.517   0.809
 5251SOL     OW16651   0.302   4.844   0.189
 5251SOL    HW116652   0.383   4.900   0.210
 5251SOL    HW216653   0.316   4.752   0.224
 5252SOL     OW16654   3.532   5.678   2.787
 5252SOL    HW116655   3.569   5.655   2.697
 5252SOL    HW216656   3.469   5.755   2.779
 5253SOL     OW16657   0.456   5.747   4.958
 5253SOL    HW116658   0.496   5.749   4.866
 5253SOL    HW216659   0.477   5.660   5.002
 5254SOL     OW16660   4.847   5.950   2.379
 5254SOL    HW116661   4.935   5.913   2.408
 5254SOL    HW216662   4.862   6.037   2.331
 5255SOL     OW16663   6.730   1.559   5.784
 5255SOL    HW116664   6.785   1.626   5.834
 5255SOL    HW216665   6.790   1.489   5.746
 5256SOL     OW16666   5.978   1.661   2.667
 5256SOL    HW116667   5.955   1.753   2.637
 5256SOL    HW216668   5.982   1.658   2.767
 5257SOL     OW16669   4.336   2.065   6.516
 5257SOL    HW116670   4.337   2.155   6.471
 5257SOL    HW216671   4.270   2.006   6.469
 5258SOL     OW16672   4.897   1.567   5.054
 5258SOL    HW116673   4.896   1.591   5.151
 5258SOL    HW216674   4.826   1.619   5.006
 5259SOL     OW16675   5.651   5.087   3.886
 5259SOL    HW116676   5.630   5.130   3.973
 5259SOL    HW216677   5.595   5.004   3.875
 5260SOL     OW16678   2.311   6.165   1.544
 5260SOL    HW116679   2.219   6.130   1.562
 5260SOL    HW216680   2.347   6.122   1.461
 5261SOL     OW16681   5.701   4.696   6.730
 5261SOL    HW116682   5.772   4.729   6.793
 5261SOL    HW216683   5.704   4.749   6.645
 5262SOL     OW16684   1.482   1.377   1.798
 5262SOL    HW116685   1.466   1.476   1.793
 5262SOL    HW216686   1.516   1.345   1.710
 5263SOL     OW16687   2.080   6.296   3.136
 5263SOL    HW116688   2.060   6.384   3.095
 5263SOL    HW216689   2.159   6.255   3.091
 5264SOL     OW16690   6.492   2.441   1.951
 5264SOL    HW116691   6.434   2.359   1.947
 5264SOL    HW216692   6.547   2.446   1.868
 5265SOL     OW16693   6.618   5.813   5.574
 5265SOL    HW116694   6.555   5.737   5.591
 5265SOL    HW216695   6.600   5.852   5.484
 5266SOL     OW16696   1.415   6.751   6.109
 5266SOL    HW116697   1.482   6.678   6.124
 5266SOL    HW216698   1.354   6.755   6.188
 5267SOL     OW16699   5.567   1.918   4.170
 5267SOL    HW116700   5.590   1.910   4.073
 5267SOL    HW216701   5.490   1.980   4.181
 5268SOL     OW16702   5.356   6.966   6.334
 5268SOL    HW116703   5.402   6.879   6.353
 5268SOL    HW216704   5.347   7.018   6.419
 5269SOL     OW16705   1.387   0.286   3.891
 5269SOL    HW116706   1.392   0.384   3.872
 5269SOL    HW216707   1.478   0.245   3.878
 5270SOL     OW16708   0.488   2.084   6.326
 5270SOL    HW116709   0.537   2.153   6.272
 5270SOL    HW216710   0.391   2.086   6.303
 5271SOL     OW16711   1.162   4.642   3.748
 5271SOL    HW116712   1.128   4.716   3.806
 5271SOL    HW216713   1.204   4.680   3.665
 5272SOL     OW16714   4.159   1.049   6.341
 5272SOL    HW116715   4.232   0.981   6.348
 5272SOL    HW216716   4.078   1.017   6.390
 5273SOL     OW16717   3.129   1.696   2.986
 5273SOL    HW116718   3.179   1.734   3.064
 5273SOL    HW216719   3.118   1.767   2.916
 5274SOL     OW16720   5.340   5.097   1.328
 5274SOL    HW116721   5.387   5.160   1.266
 5274SOL    HW216722   5.405   5.061   1.395
 5275SOL     OW16723   5.000   2.013   6.466
 5275SOL    HW116724   5.100   2.014   6.453
 5275SOL    HW216725   4.959   2.086   6.411
 5276SOL     OW16726   4.135   6.453   1.797
 5276SOL    HW116727   4.140   6.443   1.698
 5276SOL    HW216728   4.226   6.478   1.832
 5277SOL     OW16729   2.331   2.726   2.202
 5277SOL    HW116730   2.322   2.737   2.301
 5277SOL    HW216731   2.262   2.782   2.156
 5278SOL     OW16732   3.828   3.692   2.544
 5278SOL    HW116733   3.761   3.625   2.576
 5278SOL    HW216734   3.813   3.779   2.592
 5279SOL     OW16735   1.518   5.961   2.701
 5279SOL    HW116736   1.486   6.032   2.764
 5279SOL    HW216737   1.552   6.004   2.618
 5280SOL     OW16738   3.606   0.896   4.645
 5280SOL    HW116739   3.673   0.823   4.626
 5280SOL    HW216740   3.518   0.855   4.668
 5281SOL     OW16741   6.942   2.374   3.900
 5281SOL    HW116742   6.963   2.291   3.849
 5281SOL    HW216743   6.987   2.370   3.989
 5282SOL     OW16744   4.969   1.850   1.177
 5282SOL    HW116745   4.961   1.769   1.118
 5282SOL    HW216746   4.895   1.914   1.156
 5283SOL     OW16747   4.553   4.440   6.067
 5283SOL    HW116748   4.629   4.493   6.030
 5283SOL    HW216749   4.468   4.490   6.055
 5284SOL     OW16750   4.858   3.025   3.981
 5284SOL    HW116751   4.950   2.998   4.009
 5284SOL    HW216752   4.862   3.071   3.892
 5285SOL     OW16753   4.253   6.790   2.672
 5285SOL    HW116754   4.157   6.815   2.666
 5285SOL    HW216755   4.266   6.728   2.750
 5286SOL     OW16756   2.138   5.050   2.403
 5286SOL    HW116757   2.126   4.958   2.439
 5286SOL    HW216758   2.118   5.050   2.305
 5287SOL     OW16759   0.643   1.108   2.622
 5287SOL    HW116760   0.613   1.027   2.572
 5287SOL    HW216761   0.642   1.089   2.720
 5288SOL     OW16762   4.212   0.384   0.375
 5288SOL    HW116763   4.229   0.403   0.278
 5288SOL    HW216764   4.184   0.469   0.421
 5289SOL     OW16765   1.375   5.831   1.238
 5289SOL    HW116766   1.390   5.855   1.334
 5289SOL    HW216767   1.285   5.862   1.209
 5290SOL     OW16768   5.713   6.166   0.085
 5290SOL    HW116769   5.758   6.080   0.061
 5290SOL    HW216770   5.630   6.146   0.137
 5291SOL     OW16771   1.433   5.684   6.401
 5291SOL    HW116772   1.363   5.732   6.347
 5291SOL    HW216773   1.467   5.745   6.473
 5292SOL     OW16774   5.295   1.569   0.729
 5292SOL    HW116775   5.201   1.596   0.709
 5292SOL    HW216776   5.332   1.628   0.801
 5293SOL     OW16777   1.292   1.669   3.837
 5293SOL    HW116778   1.298   1.570   3.845
 5293SOL    HW216779   1.302   1.711   3.928
 5294SOL     OW16780   4.464   2.883   6.025
 5294SOL    HW116781   4.439   2.899   5.930
 5294SOL    HW216782   4.462   2.969   6.076
 5295SOL     OW16783   6.654   1.167   2.555
 5295SOL    HW116784   6.665   1.068   2.555
 5295SOL    HW216785   6.592   1.194   2.481
 5296SOL     OW16786   0.501   3.082   6.820
 5296SOL    HW116787   0.531   3.068   6.914
 5296SOL    HW216788   0.468   3.176   6.809
 5297SOL     OW16789   1.547   2.912   2.002
 5297SOL    HW116790   1.508   2.925   1.911
 5297SOL    HW216791   1.494   2.841   2.050
 5298SOL     OW16792   1.096   4.487   1.729
 5298SOL    HW116793   1.031   4.440   1.788
 5298SOL    HW216794   1.101   4.440   1.641
 5299SOL     OW16795   3.130   0.167   1.138
 5299SOL    HW116796   3.207   0.166   1.075
 5299SOL    HW216797   3.129   0.253   1.189
 5300SOL     OW16798   0.533   5.000   3.738
 5300SOL    HW116799   0.435   5.012   3.725
 5300SOL    HW216800   0.550   4.939   3.815
 5301SOL     OW16801   4.307   0.449   0.124
 5301SOL    HW116802   4.327   0.540   0.085
 5301SOL    HW216803   4.256   0.395   0.058
 5302SOL     OW16804   6.210   3.978   3.462
 5302SOL    HW116805   6.166   3.965   3.373
 5302SOL    HW216806   6.143   4.017   3.526
 5303SOL     OW16807   2.105   4.949   3.435
 5303SOL    HW116808   2.046   4.881   3.392
 5303SOL    HW216809   2.182   4.904   3.480
 5304SOL     OW16810   4.832   2.847   5.548
 5304SOL    HW116811   4.782   2.888   5.473
 5304SOL    HW216812   4.791   2.759   5.573
 5305SOL     OW16813   2.948   1.401   4.364
 5305SOL    HW116814   2.936   1.441   4.273
 5305SOL    HW216815   2.986   1.309   4.355
 5306SOL     OW16816   2.591   6.390   4.279
 5306SOL    HW116817   2.665   6.456   4.269
 5306SOL    HW216818   2.589   6.329   4.200
 5307SOL     OW16819   3.912   0.159   0.123
 5307SOL    HW116820   3.886   0.165   0.219
 5307SOL    HW216821   3.900   0.065   0.091
 5308SOL     OW16822   6.944   1.271   1.982
 5308SOL    HW116823   6.949   1.266   1.882
 5308SOL    HW216824   6.951   1.179   2.020
 5309SOL     OW16825   3.461   3.674   4.650
 5309SOL    HW116826   3.450   3.590   4.703
 5309SOL    HW216827   3.382   3.685   4.589
 5310SOL     OW16828   5.548   3.208   0.540
 5310SOL    HW116829   5.498   3.246   0.618
 5310SOL    HW216830   5.483   3.169   0.475
 5311SOL     OW16831   0.453   6.507   6.508
 5311SOL    HW116832   0.463   6.526   6.606
 5311SOL    HW216833   0.425   6.412   6.496
 5312SOL     OW16834   0.647   3.026   2.087
 5312SOL    HW116835   0.655   2.926   2.092
 5312SOL    HW216836   0.738   3.066   2.087
 5313SOL     OW16837   0.644   6.243   0.875
 5313SOL    HW116838   0.683   6.177   0.940
 5313SOL    HW216839   0.711   6.262   0.803
 5314SOL     OW16840   3.591   5.307   1.127
 5314SOL    HW116841   3.609   5.311   1.226
 5314SOL    HW216842   3.678   5.314   1.078
 5315SOL     OW16843   5.536   2.417   2.046
 5315SOL    HW116844   5.585   2.459   1.970
 5315SOL    HW216845   5.453   2.372   2.011
 5316SOL     OW16846   5.722   5.334   4.382
 5316SOL    HW116847   5.795   5.291   4.328
 5316SOL    HW216848   5.647   5.359   4.321
 5317SOL     OW16849   6.652   5.500   2.224
 5317SOL    HW116850   6.746   5.532   2.209
 5317SOL    HW216851   6.591   5.578   2.237
 5318SOL     OW16852   0.244   2.475   4.427
 5318SOL    HW116853   0.320   2.413   4.447
 5318SOL    HW216854   0.280   2.562   4.393
 5319SOL     OW16855   3.604   6.973   2.498
 5319SOL    HW116856   3.635   0.023   2.562
 5319SOL    HW216857   3.508   6.990   2.476
 5320SOL     OW16858   6.838   3.495   5.887
 5320SOL    HW116859   6.878   3.405   5.866
 5320SOL    HW216860   6.743   3.483   5.914
 5321SOL     OW16861   2.378   4.531   6.279
 5321SOL    HW116862   2.385   4.556   6.376
 5321SOL    HW216863   2.405   4.609   6.223
 5322SOL     OW16864   2.509   6.045   0.763
 5322SOL    HW116865   2.511   6.113   0.689
 5322SOL    HW216866   2.416   6.013   0.777
 5323SOL     OW16867   5.129   2.983   0.480
 5323SOL    HW116868   5.161   2.894   0.511
 5323SOL    HW216869   5.046   2.970   0.425
 5324SOL     OW16870   4.125   3.135   1.511
 5324SOL    HW116871   4.166   3.073   1.444
 5324SOL    HW216872   4.057   3.085   1.564
 5325SOL     OW16873   4.256   6.443   4.634
 5325SOL    HW116874   4.177   6.385   4.614
 5325SOL    HW216875   4.225   6.537   4.647
 5326SOL     OW16876   0.264   0.043   2.568
 5326SOL    HW116877   0.220   0.039   2.657
 5326SOL    HW216878   0.282   0.139   2.544
 5327SOL     OW16879   0.047   0.390   3.702
 5327SOL    HW116880   0.136   0.355   3.733
 5327SOL    HW216881   0.021   0.468   3.759
 5328SOL     OW16882   3.760   4.867   6.983
 5328SOL    HW116883   3.814   4.925   6.923
 5328SOL    HW216884   3.750   4.776   6.941
 5329SOL     OW16885   0.364   5.201   6.662
 5329SOL    HW116886   0.444   5.194   6.602
 5329SOL    HW216887   0.386   5.257   6.741
 5330SOL     OW16888   3.414   4.169   0.307
 5330SOL    HW116889   3.457   4.243   0.254
 5330SOL    HW216890   3.375   4.102   0.244
 5331SOL     OW16891   5.261   1.279   6.790
 5331SOL    HW116892   5.309   1.235   6.714
 5331SOL    HW216893   5.211   1.210   6.843
 5332SOL     OW16894   5.902   3.141   6.767
 5332SOL    HW116895   5.868   3.155   6.860
 5332SOL    HW216896   5.895   3.226   6.715
 5333SOL     OW16897   1.174   1.012   4.056
 5333SOL    HW116898   1.260   0.984   4.099
 5333SOL    HW216899   1.098   0.963   4.100
 5334SOL     OW16900   3.327   6.107   2.065
 5334SOL    HW116901   3.372   6.113   2.154
 5334SOL    HW216902   3.390   6.139   1.994
 5335SOL     OW16903   0.341   4.566   2.148
 5335SOL    HW116904   0.424   4.575   2.094
 5335SOL    HW216905   0.265   4.612   2.102
 5336SOL     OW16906   1.993   3.393   5.330
 5336SOL    HW116907   2.043   3.461   5.276
 5336SOL    HW216908   1.911   3.364   5.280
 5337SOL     OW16909   6.549   3.297   1.205
 5337SOL    HW116910   6.520   3.366   1.272
 5337SOL    HW216911   6.474   3.275   1.144
 5338SOL     OW16912   6.818   3.310   1.075
 5338SOL    HW116913   6.727   3.274   1.097
 5338SOL    HW216914   6.877   3.234   1.046
 5339SOL     OW16915   5.669   2.626   2.937
 5339SOL    HW116916   5.691   2.724   2.938
 5339SOL    HW216917   5.730   2.577   2.999
 5340SOL     OW16918   4.676   2.967   1.611
 5340SOL    HW116919   4.669   3.048   1.553
 5340SOL    HW216920   4.627   2.983   1.696
 5341SOL     OW16921   4.773   5.032   3.467
 5341SOL    HW116922   4.754   4.942   3.506
 5341SOL    HW216923   4.802   5.021   3.372
 5342SOL     OW16924   6.257   5.454   4.732
 5342SOL    HW116925   6.241   5.387   4.658
 5342SOL    HW216926   6.170   5.489   4.765
 5343SOL     OW16927   3.858   3.348   6.622
 5343SOL    HW116928   3.850   3.445   6.602
 5343SOL    HW216929   3.767   3.306   6.620
 5344SOL     OW16930   6.648   1.633   6.441
 5344SOL    HW116931   6.682   1.725   6.423
 5344SOL    HW216932   6.693   1.596   6.522
 5345SOL     OW16933   3.558   1.536   7.003
 5345SOL    HW116934   3.473   1.536   0.036
 5345SOL    HW216935   3.536   1.547   6.906
 5346SOL     OW16936   3.105   6.387   3.391
 5346SOL    HW116937   3.190   6.400   3.441
 5346SOL    HW216938   3.052   6.313   3.434
 5347SOL     OW16939   5.352   1.618   5.017
 5347SOL    HW116940   5.417   1.631   5.092
 5347SOL    HW216941   5.318   1.524   5.019
 5348SOL     OW16942   5.199   2.912   4.808
 5348SOL    HW116943   5.135   2.878   4.739
 5348SOL    HW216944   5.157   2.988   4.858
 5349SOL     OW16945   0.643   4.277   1.159
 5349SOL    HW116946   0.698   4.272   1.242
 5349SOL    HW216947   0.642   4.188   1.114
 5350SOL     OW16948   0.729   6.879   5.941
 5350SOL    HW116949   0.822   6.844   5.946
 5350SOL    HW216950   0.665   6.810   5.974
 5351SOL     OW16951   0.254   6.030   3.049
 5351SOL    HW116952   0.334   6.060   2.998
 5351SOL    HW216953   0.197   5.972   2.990
 5352SOL     OW16954   1.760   2.831   5.967
 5352SOL    HW116955   1.663   2.852   5.983
 5352SOL    HW216956   1.813   2.850   6.050
 5353SOL     OW16957   3.363   6.087   3.461
 5353SOL    HW116958   3.428   6.031   3.409
 5353SOL    HW216959   3.322   6.154   3.400
 5354SOL     OW16960   4.141   6.171   1.553
 5354SOL    HW116961   4.211   6.119   1.504
 5354SOL    HW216962   4.161   6.170   1.651
 5355SOL     OW16963   5.120   6.045   5.402
 5355SOL    HW116964   5.153   5.970   5.459
 5355SOL    HW216965   5.104   6.012   5.309
 5356SOL     OW16966   1.218   6.544   1.435
 5356SOL    HW116967   1.278   6.614   1.395
 5356SOL    HW216968   1.246   6.527   1.529
 5357SOL     OW16969   6.138   3.570   2.633
 5357SOL    HW116970   6.179   3.484   2.604
 5357SOL    HW216971   6.202   3.619   2.692
 5358SOL     OW16972   6.062   0.671   6.262
 5358SOL    HW116973   6.116   0.601   6.214
 5358SOL    HW216974   6.109   0.759   6.255
 5359SOL     OW16975   2.761   2.575   0.038
 5359SOL    HW116976   2.782   2.489   7.011
 5359SOL    HW216977   2.672   2.609   0.006
 5360SOL     OW16978   5.532   6.072   4.026
 5360SOL    HW116979   5.546   6.163   3.985
 5360SOL    HW216980   5.534   6.079   4.125
 5361SOL     OW16981   1.597   4.162   3.097
 5361SOL    HW116982   1.678   4.103   3.088
 5361SOL    HW216983   1.553   4.145   3.184
 5362SOL     OW16984   6.725   1.281   3.252
 5362SOL    HW116985   6.824   1.299   3.248
 5362SOL    HW216986   6.709   1.188   3.284
 5363SOL     OW16987   5.570   5.496   4.207
 5363SOL    HW116988   5.494   5.560   4.210
 5363SOL    HW216989   5.645   5.535   4.153
 5364SOL     OW16990   4.624   2.604   2.426
 5364SOL    HW116991   4.667   2.554   2.350
 5364SOL    HW216992   4.671   2.691   2.439
 5365SOL     OW16993   3.279   3.885   5.369
 5365SOL    HW116994   3.361   3.828   5.363
 5365SOL    HW216995   3.270   3.921   5.461
 5366SOL     OW16996   0.478   5.292   3.391
 5366SOL    HW116997   0.466   5.385   3.356
 5366SOL    HW216998   0.517   5.295   3.483
 5367SOL     OW16999   6.109   6.213   1.453
 5367SOL    HW117000   6.147   6.142   1.513
 5367SOL    HW217001   6.108   6.300   1.502
 5368SOL     OW17002   0.301   5.227   5.045
 5368SOL    HW117003   0.391   5.185   5.052
 5368SOL    HW217004   0.248   5.207   5.127
 5369SOL     OW17005   4.616   0.217   2.954
 5369SOL    HW117006   4.532   0.207   3.007
 5369SOL    HW217007   4.592   0.231   2.857
 5370SOL     OW17008   2.285   2.486   0.667
 5370SOL    HW117009   2.371   2.477   0.717
 5370SOL    HW217010   2.301   2.470   0.569
 5371SOL     OW17011   6.310   5.395   3.717
 5371SOL    HW117012   6.405   5.376   3.738
 5371SOL    HW217013   6.275   5.325   3.655
 5372SOL     OW17014   1.730   0.129   4.096
 5372SOL    HW117015   1.806   0.089   4.147
 5372SOL    HW217016   1.753   0.132   3.998
 5373SOL     OW17017   3.428   0.769   6.481
 5373SOL    HW117018   3.409   0.677   6.514
 5373SOL    HW217019   3.426   0.770   6.381
 5374SOL     OW17020   1.074   3.710   1.263
 5374SOL    HW117021   1.110   3.717   1.356
 5374SOL    HW217022   1.008   3.784   1.247
 5375SOL     OW17023   2.512   4.574   4.924
 5375SOL    HW117024   2.507   4.489   4.871
 5375SOL    HW217025   2.606   4.588   4.957
 5376SOL     OW17026   0.958   0.873   1.104
 5376SOL    HW117027   0.973   0.972   1.115
 5376SOL    HW217028   1.030   0.834   1.046
 5377SOL     OW17029   0.795   2.218   2.107
 5377SOL    HW117030   0.797   2.136   2.050
 5377SOL    HW217031   0.701   2.238   2.135
 5378SOL     OW17032   5.215   0.224   2.302
 5378SOL    HW117033   5.174   0.134   2.316
 5378SOL    HW217034   5.197   0.255   2.208
 5379SOL     OW17035   2.523   1.910   3.404
 5379SOL    HW117036   2.426   1.934   3.394
 5379SOL    HW217037   2.531   1.811   3.417
 5380SOL     OW17038   5.075   6.114   1.108
 5380SOL    HW117039   5.129   6.198   1.094
 5380SOL    HW217040   5.133   6.034   1.091
 5381SOL     OW17041   3.702   1.751   3.050
 5381SOL    HW117042   3.750   1.826   3.096
 5381SOL    HW217043   3.708   1.763   2.951
 5382SOL     OW17044   3.829   0.573   2.450
 5382SOL    HW117045   3.894   0.548   2.379
 5382SOL    HW217046   3.764   0.499   2.465
 5383SOL     OW17047   2.415   3.453   5.361
 5383SOL    HW117048   2.359   3.492   5.434
 5383SOL    HW217049   2.494   3.512   5.345
 5384SOL     OW17050   5.134   6.716   6.262
 5384SOL    HW117051   5.215   6.698   6.205
 5384SOL    HW217052   5.064   6.648   6.242
 5385SOL     OW17053   3.490   3.582   0.165
 5385SOL    HW117054   3.527   3.542   0.249
 5385SOL    HW217055   3.549   3.657   0.135
 5386SOL     OW17056   4.322   5.038   3.741
 5386SOL    HW117057   4.392   5.071   3.678
 5386SOL    HW217058   4.365   4.988   3.816
 5387SOL     OW17059   1.158   2.608   4.204
 5387SOL    HW117060   1.156   2.512   4.233
 5387SOL    HW217061   1.247   2.647   4.226
 5388SOL     OW17062   6.828   5.989   4.108
 5388SOL    HW117063   6.728   5.983   4.115
 5388SOL    HW217064   6.868   5.902   4.138
 5389SOL     OW17065   4.997   1.518   4.577
 5389SOL    HW117066   4.956   1.428   4.586
 5389SOL    HW217067   4.974   1.557   4.488
 5390SOL     OW17068   5.341   3.538   3.118
 5390SOL    HW117069   5.283   3.475   3.067
 5390SOL    HW217070   5.437   3.520   3.098
 5391SOL     OW17071   4.415   2.328   1.446
 5391SOL    HW117072   4.447   2.243   1.486
 5391SOL    HW217073   4.492   2.378   1.407
 5392SOL     OW17074   5.090   0.735   4.456
 5392SOL    HW117075   5.021   0.692   4.398
 5392SOL    HW217076   5.156   0.784   4.398
 5393SOL     OW17077   4.001   1.236   3.781
 5393SOL    HW117078   4.042   1.235   3.690
 5393SOL    HW217079   4.066   1.273   3.847
 5394SOL     OW17080   0.547   3.446   2.435
 5394SOL    HW117081   0.468   3.452   2.374
 5394SOL    HW217082   0.524   3.483   2.525
 5395SOL     OW17083   0.111   0.998   1.136
 5395SOL    HW117084   0.141   0.935   1.064
 5395SOL    HW217085   0.045   1.062   1.099
 5396SOL     OW17086   4.082   2.720   1.036
 5396SOL    HW117087   4.161   2.659   1.049
 5396SOL    HW217088   4.010   2.671   0.988
 5397SOL     OW17089   0.170   0.284   1.903
 5397SOL    HW117090   0.227   0.216   1.856
 5397SOL    HW217091   0.201   0.375   1.878
 5398SOL     OW17092   6.192   2.502   3.428
 5398SOL    HW117093   6.120   2.435   3.444
 5398SOL    HW217094   6.280   2.455   3.422
 5399SOL     OW17095   1.934   2.529   0.991
 5399SOL    HW117096   1.843   2.495   1.013
 5399SOL    HW217097   1.954   2.510   0.894
 5400SOL     OW17098   4.985   3.199   1.164
 5400SOL    HW117099   5.020   3.223   1.254
 5400SOL    HW217100   5.035   3.251   1.094
 5401SOL     OW17101   5.186   3.033   1.460
 5401SOL    HW117102   5.158   2.965   1.393
 5401SOL    HW217103   5.139   3.120   1.442
 5402SOL     OW17104   1.701   6.324   1.618
 5402SOL    HW117105   1.788   6.355   1.579
 5402SOL    HW217106   1.719   6.259   1.691
 5403SOL     OW17107   5.646   2.168   5.955
 5403SOL    HW117108   5.688   2.096   6.010
 5403SOL    HW217109   5.709   2.245   5.948
 5404SOL     OW17110   4.793   6.433   0.445
 5404SOL    HW117111   4.879   6.463   0.402
 5404SOL    HW217112   4.768   6.343   0.410
 5405SOL     OW17113   7.001   4.853   6.644
 5405SOL    HW117114   0.067   4.896   6.617
 5405SOL    HW217115   7.004   4.830   6.742
 5406SOL     OW17116   2.919   1.051   5.988
 5406SOL    HW117117   2.917   1.083   5.893
 5406SOL    HW217118   2.958   0.959   5.991
 5407SOL     OW17119   1.579   6.882   3.404
 5407SOL    HW117120   1.629   6.929   3.477
 5407SOL    HW217121   1.502   6.939   3.374
 5408SOL     OW17122   2.275   2.425   4.478
 5408SOL    HW117123   2.185   2.424   4.435
 5408SOL    HW217124   2.290   2.513   4.522
 5409SOL     OW17125   1.011   3.313   3.289
 5409SOL    HW117126   0.915   3.283   3.296
 5409SOL    HW217127   1.013   3.413   3.281
 5410SOL     OW17128   6.223   2.223   0.506
 5410SOL    HW117129   6.205   2.272   0.591
 5410SOL    HW217130   6.243   2.127   0.526
 5411SOL     OW17131   3.370   5.434   1.298
 5411SOL    HW117132   3.435   5.401   1.230
 5411SOL    HW217133   3.294   5.481   1.253
 5412SOL     OW17134   1.414   2.500   5.681
 5412SOL    HW117135   1.330   2.544   5.714
 5412SOL    HW217136   1.433   2.530   5.587
 5413SOL     OW17137   6.818   5.314   6.063
 5413SOL    HW117138   6.860   5.333   6.152
 5413SOL    HW217139   6.887   5.319   5.991
 5414SOL     OW17140   5.350   5.421   5.821
 5414SOL    HW117141   5.387   5.400   5.911
 5414SOL    HW217142   5.342   5.337   5.767
 5415SOL     OW17143   1.277   1.885   6.305
 5415SOL    HW117144   1.287   1.920   6.212
 5415SOL    HW217145   1.257   1.787   6.301
 5416SOL     OW17146   3.122   6.024   6.209
 5416SOL    HW117147   3.197   6.012   6.274
 5416SOL    HW217148   3.038   6.046   6.259
 5417SOL     OW17149   5.746   0.340   2.741
 5417SOL    HW117150   5.689   0.401   2.686
 5417SOL    HW217151   5.820   0.303   2.684
 5418SOL     OW17152   0.406   3.637   5.240
 5418SOL    HW117153   0.323   3.665   5.192
 5418SOL    HW217154   0.434   3.546   5.211
 5419SOL     OW17155   3.494   1.488   6.340
 5419SOL    HW117156   3.550   1.454   6.415
 5419SOL    HW217157   3.553   1.528   6.269
 5420SOL     OW17158   1.390   2.479   0.993
 5420SOL    HW117159   1.413   2.564   1.042
 5420SOL    HW217160   1.291   2.465   0.994
 5421SOL     OW17161   4.239   5.196   1.743
 5421SOL    HW117162   4.298   5.276   1.754
 5421SOL    HW217163   4.164   5.218   1.681
 5422SOL     OW17164   2.329   5.983   3.656
 5422SOL    HW117165   2.279   6.028   3.730
 5422SOL    HW217166   2.354   5.890   3.683
 5423SOL     OW17167   4.048   6.773   1.719
 5423SOL    HW117168   4.089   6.691   1.679
 5423SOL    HW217169   4.092   6.793   1.807
 5424SOL     OW17170   4.116   3.567   5.568
 5424SOL    HW117171   4.196   3.511   5.548
 5424SOL    HW217172   4.128   3.658   5.528
 5425SOL     OW17173   1.703   5.405   5.678
 5425SOL    HW117174   1.655   5.477   5.628
 5425SOL    HW217175   1.718   5.433   5.772
 5426SOL     OW17176   0.256   3.830   0.155
 5426SOL    HW117177   0.311   3.791   0.229
 5426SOL    HW217178   0.271   3.777   0.071
 5427SOL     OW17179   5.320   2.281   0.601
 5427SOL    HW117180   5.308   2.326   0.690
 5427SOL    HW217181   5.242   2.220   0.584
 5428SOL     OW17182   4.676   5.947   2.579
 5428SOL    HW117183   4.736   5.937   2.500
 5428SOL    HW217184   4.610   5.871   2.580
 5429SOL     OW17185   2.598   6.761   3.951
 5429SOL    HW117186   2.666   6.777   3.880
 5429SOL    HW217187   2.609   6.829   4.024
 5430SOL     OW17188   1.565   4.486   5.556
 5430SOL    HW117189   1.646   4.539   5.532
 5430SOL    HW217190   1.505   4.479   5.476
 5431SOL     OW17191   4.782   4.658   0.402
 5431SOL    HW117192   4.799   4.756   0.413
 5431SOL    HW217193   4.774   4.616   0.492
 5432SOL     OW17194   0.217   4.987   6.614
 5432SOL    HW117195   0.274   5.067   6.633
 5432SOL    HW217196   0.266   4.925   6.552
 5433SOL     OW17197   2.779   6.749   1.418
 5433SOL    HW117198   2.838   6.688   1.365
 5433SOL    HW217199   2.729   6.697   1.487
 5434SOL     OW17200   5.051   6.282   4.032
 5434SOL    HW117201   5.076   6.249   4.123
 5434SOL    HW217202   5.013   6.206   3.979
 5435SOL     OW17203   6.790   3.745   6.566
 5435SOL    HW117204   6.874   3.697   6.540
 5435SOL    HW217205   6.733   3.684   6.621
 5436SOL     OW17206   1.985   4.441   2.030
 5436SOL    HW117207   2.020   4.347   2.032
 5436SOL    HW217208   1.915   4.448   1.958
 5437SOL     OW17209   3.377   6.140   0.233
 5437SOL    HW117210   3.292   6.097   0.265
 5437SOL    HW217211   3.366   6.239   0.231
 5438SOL     OW17212   5.440   6.716   2.612
 5438SOL    HW117213   5.388   6.756   2.537
 5438SOL    HW217214   5.388   6.726   2.697
 5439SOL     OW17215   1.604   4.148   1.603
 5439SOL    HW117216   1.587   4.052   1.624
 5439SOL    HW217217   1.688   4.178   1.647
 5440SOL     OW17218   6.055   0.003   3.817
 5440SOL    HW117219   6.124   0.036   3.752
 5440SOL    HW217220   6.013   6.940   3.782
 5441SOL     OW17221   6.005   2.069   4.489
 5441SOL    HW117222   6.008   2.036   4.583
 5441SOL    HW217223   5.970   1.997   4.429
 5442SOL     OW17224   2.454   0.602   6.461
 5442SOL    HW117225   2.530   0.542   6.487
 5442SOL    HW217226   2.413   0.642   6.543
 5443SOL     OW17227   5.949   0.517   3.351
 5443SOL    HW117228   5.907   0.430   3.327
 5443SOL    HW217229   6.014   0.544   3.280
 5444SOL     OW17230   0.903   1.436   5.877
 5444SOL    HW117231   0.959   1.466   5.800
 5444SOL    HW217232   0.826   1.499   5.889
 5445SOL     OW17233   6.198   6.734   5.222
 5445SOL    HW117234   6.115   6.789   5.231
 5445SOL    HW217235   6.277   6.794   5.206
 5446SOL     OW17236   1.112   4.880   5.826
 5446SOL    HW117237   1.131   4.875   5.728
 5446SOL    HW217238   1.197   4.885   5.877
 5447SOL     OW17239   6.596   2.259   1.630
 5447SOL    HW117240   6.685   2.216   1.619
 5447SOL    HW217241   6.607   2.352   1.664
 5448SOL     OW17242   6.204   5.088   2.070
 5448SOL    HW117243   6.244   5.036   2.146
 5448SOL    HW217244   6.272   5.100   1.998
 5449SOL     OW17245   1.985   0.203   2.249
 5449SOL    HW117246   1.902   0.256   2.270
 5449SOL    HW217247   2.050   0.261   2.200
 5450SOL     OW17248   4.341   5.710   1.348
 5450SOL    HW117249   4.402   5.764   1.404
 5450SOL    HW217250   4.314   5.762   1.267
 5451SOL     OW17251   0.546   5.970   3.782
 5451SOL    HW117252   0.645   5.968   3.795
 5451SOL    HW217253   0.525   5.937   3.690
 5452SOL     OW17254   2.443   4.372   2.986
 5452SOL    HW117255   2.399   4.300   3.039
 5452SOL    HW217256   2.415   4.364   2.890
 5453SOL     OW17257   5.709   4.620   4.133
 5453SOL    HW117258   5.794   4.567   4.130
 5453SOL    HW217259   5.649   4.585   4.204
 5454SOL     OW17260   5.720   3.936   2.494
 5454SOL    HW117261   5.669   3.867   2.544
 5454SOL    HW217262   5.804   3.896   2.458
 5455SOL     OW17263   2.808   1.935   3.011
 5455SOL    HW117264   2.721   1.971   2.981
 5455SOL    HW217265   2.853   2.001   3.072
 5456SOL     OW17266   5.688   2.241   0.414
 5456SOL    HW117267   5.620   2.186   0.461
 5456SOL    HW217268   5.779   2.201   0.428
 5457SOL     OW17269   6.733   1.186   0.322
 5457SOL    HW117270   6.690   1.175   0.411
 5457SOL    HW217271   6.710   1.277   0.285
 5458SOL     OW17272   5.514   4.976   5.902
 5458SOL    HW117273   5.452   5.055   5.908
 5458SOL    HW217274   5.598   5.003   5.854
 5459SOL     OW17275   2.187   2.903   5.225
 5459SOL    HW117276   2.192   2.808   5.195
 5459SOL    HW217277   2.270   2.951   5.198
 5460SOL     OW17278   0.660   0.331   1.305
 5460SOL    HW117279   0.715   0.253   1.274
 5460SOL    HW217280   0.716   0.390   1.363
 5461SOL     OW17281   6.049   1.310   6.706
 5461SOL    HW117282   6.040   1.249   6.785
 5461SOL    HW217283   6.145   1.335   6.695
 5462SOL     OW17284   5.043   5.281   6.398
 5462SOL    HW117285   5.063   5.299   6.494
 5462SOL    HW217286   5.017   5.185   6.388
 5463SOL     OW17287   1.627   4.991   5.722
 5463SOL    HW117288   1.698   5.012   5.789
 5463SOL    HW217289   1.569   5.070   5.708
 5464SOL     OW17290   2.247   5.189   4.701
 5464SOL    HW117291   2.323   5.132   4.732
 5464SOL    HW217292   2.213   5.243   4.779
 5465SOL     OW17293   0.391   0.063   5.241
 5465SOL    HW117294   0.398   0.161   5.259
 5465SOL    HW217295   0.411   0.046   5.144
 5466SOL     OW17296   5.067   2.260   5.049
 5466SOL    HW117297   5.077   2.212   5.136
 5466SOL    HW217298   5.153   2.306   5.026
 5467SOL     OW17299   5.696   3.243   4.041
 5467SOL    HW117300   5.601   3.212   4.054
 5467SOL    HW217301   5.701   3.301   3.960
 5468SOL     OW17302   6.863   2.769   1.695
 5468SOL    HW117303   6.865   2.851   1.637
 5468SOL    HW217304   6.831   2.794   1.786
 5469SOL     OW17305   4.131   2.002   4.021
 5469SOL    HW117306   4.049   1.959   4.061
 5469SOL    HW217307   4.211   1.975   4.075
 5470SOL     OW17308   3.526   4.990   3.694
 5470SOL    HW117309   3.462   5.058   3.729
 5470SOL    HW217310   3.618   5.028   3.692
 5471SOL     OW17311   5.452   0.724   3.024
 5471SOL    HW117312   5.462   0.817   2.987
 5471SOL    HW217313   5.432   0.661   2.949
 5472SOL     OW17314   2.386   3.495   6.893
 5472SOL    HW117315   2.376   3.594   6.907
 5472SOL    HW217316   2.363   3.447   6.978
 5473SOL     OW17317   2.970   4.784   2.157
 5473SOL    HW117318   2.970   4.719   2.233
 5473SOL    HW217319   2.905   4.754   2.088
 5474SOL     OW17320   1.238   4.803   1.988
 5474SOL    HW117321   1.334   4.791   2.013
 5474SOL    HW217322   1.214   4.901   1.992
 5475SOL     OW17323   1.700   1.552   5.395
 5475SOL    HW117324   1.701   1.632   5.455
 5475SOL    HW217325   1.707   1.581   5.300
 5476SOL     OW17326   2.011   0.806   4.937
 5476SOL    HW117327   2.004   0.889   4.992
 5476SOL    HW217328   1.936   0.744   4.961
 5477SOL     OW17329   2.264   2.992   3.059
 5477SOL    HW117330   2.227   2.972   2.968
 5477SOL    HW217331   2.199   3.048   3.110
 5478SOL     OW17332   5.869   4.271   5.460
 5478SOL    HW117333   5.959   4.246   5.427
 5478SOL    HW217334   5.803   4.200   5.435
 5479SOL     OW17335   5.616   3.385   4.299
 5479SOL    HW117336   5.631   3.317   4.227
 5479SOL    HW217337   5.628   3.477   4.261
 5480SOL     OW17338   1.350   3.852   4.996
 5480SOL    HW117339   1.284   3.822   4.926
 5480SOL    HW217340   1.440   3.816   4.974
 5481SOL     OW17341   3.218   1.498   6.307
 5481SOL    HW117342   3.310   1.536   6.299
 5481SOL    HW217343   3.185   1.471   6.216
 5482SOL     OW17344   5.522   3.347   1.983
 5482SOL    HW117345   5.443   3.318   2.037
 5482SOL    HW217346   5.492   3.402   1.906
 5483SOL     OW17347   6.542   3.056   0.164
 5483SOL    HW117348   6.460   2.998   0.159
 5483SOL    HW217349   6.586   3.060   0.075
 5484SOL     OW17350   6.595   0.365   5.212
 5484SOL    HW117351   6.683   0.340   5.172
 5484SOL    HW217352   6.530   0.386   5.139
 5485SOL     OW17353   2.971   0.613   4.899
 5485SOL    HW117354   2.877   0.616   4.865
 5485SOL    HW217355   3.001   0.706   4.922
 5486SOL     OW17356   1.123   0.512   3.567
 5486SOL    HW117357   1.191   0.558   3.509
 5486SOL    HW217358   1.123   0.555   3.657
 5487SOL     OW17359   4.158   5.121   1.106
 5487SOL    HW117360   4.176   5.171   1.021
 5487SOL    HW217361   4.211   5.036   1.107
 5488SOL     OW17362   4.678   1.594   5.529
 5488SOL    HW117363   4.610   1.647   5.580
 5488SOL    HW217364   4.672   1.497   5.556
 5489SOL     OW17365   6.382   4.467   2.641
 5489SOL    HW117366   6.409   4.534   2.572
 5489SOL    HW217367   6.411   4.375   2.612
 5490SOL     OW17368   2.222   1.908   6.285
 5490SOL    HW117369   2.195   1.956   6.201
 5490SOL    HW217370   2.299   1.955   6.327
 5491SOL     OW17371   0.204   5.757   2.557
 5491SOL    HW117372   0.272   5.811   2.606
 5491SOL    HW217373   0.137   5.721   2.622
 5492SOL     OW17374   1.326   1.552   4.535
 5492SOL    HW117375   1.294   1.470   4.581
 5492SOL    HW217376   1.404   1.530   4.475
 5493SOL     OW17377   2.909   1.681   0.944
 5493SOL    HW117378   2.997   1.721   0.919
 5493SOL    HW217379   2.836   1.722   0.888
 5494SOL     OW17380   6.114   3.035   2.673
 5494SOL    HW117381   6.022   2.999   2.658
 5494SOL    HW217382   6.165   3.034   2.586
 5495SOL     OW17383   3.781   3.135   3.723
 5495SOL    HW117384   3.700   3.194   3.722
 5495SOL    HW217385   3.754   3.041   3.700
 5496SOL     OW17386   4.683   4.878   1.934
 5496SOL    HW117387   4.698   4.977   1.941
 5496SOL    HW217388   4.651   4.856   1.842
 5497SOL     OW17389   5.785   0.126   1.141
 5497SOL    HW117390   5.772   0.120   1.042
 5497SOL    HW217391   5.869   0.176   1.161
 5498SOL     OW17392   4.224   0.696   4.900
 5498SOL    HW117393   4.212   0.601   4.931
 5498SOL    HW217394   4.310   0.704   4.849
 5499SOL     OW17395   0.773   1.139   5.544
 5499SOL    HW117396   0.688   1.147   5.597
 5499SOL    HW217397   0.817   1.229   5.538
 5500SOL     OW17398   2.200   6.072   0.842
 5500SOL    HW117399   2.198   6.054   0.940
 5500SOL    HW217400   2.198   6.170   0.826
 5501SOL     OW17401   2.949   0.491   2.529
 5501SOL    HW117402   2.931   0.509   2.626
 5501SOL    HW217403   2.866   0.458   2.485
 5502SOL     OW17404   4.758   3.121   0.458
 5502SOL    HW117405   4.780   3.215   0.481
 5502SOL    HW217406   4.660   3.112   0.442
 5503SOL     OW17407   0.428   6.401   5.071
 5503SOL    HW117408   0.329   6.413   5.061
 5503SOL    HW217409   0.447   6.350   5.155
 5504SOL     OW17410   3.307   2.145   4.384
 5504SOL    HW117411   3.273   2.130   4.291
 5504SOL    HW217412   3.398   2.105   4.394
 5505SOL     OW17413   3.828   4.623   6.840
 5505SOL    HW117414   3.827   4.531   6.879
 5505SOL    HW217415   3.921   4.659   6.840
 5506SOL     OW17416   0.134   6.497   5.877
 5506SOL    HW117417   0.076   6.508   5.958
 5506SOL    HW217418   0.202   6.425   5.895
 5507SOL     OW17419   3.752   5.991   4.637
 5507SOL    HW117420   3.816   5.929   4.682
 5507SOL    HW217421   3.679   6.016   4.702
 5508SOL     OW17422   1.531   0.328   5.888
 5508SOL    HW117423   1.601   0.344   5.958
 5508SOL    HW217424   1.518   0.411   5.835
 5509SOL     OW17425   6.077   0.226   6.719
 5509SOL    HW117426   6.076   0.310   6.664
 5509SOL    HW217427   6.133   0.157   6.674
 5510SOL     OW17428   5.938   0.368   6.395
 5510SOL    HW117429   5.976   0.332   6.310
 5510SOL    HW217430   5.877   0.445   6.374
 5511SOL     OW17431   6.787   2.628   1.477
 5511SOL    HW117432   6.824   2.535   1.468
 5511SOL    HW217433   6.826   2.671   1.559
 5512SOL     OW17434   0.407   0.396   0.606
 5512SOL    HW117435   0.339   0.325   0.589
 5512SOL    HW217436   0.399   0.428   0.700
 5513SOL     OW17437   3.151   5.985   5.005
 5513SOL    HW117438   3.076   6.011   5.066
 5513SOL    HW217439   3.144   5.887   4.985
 5514SOL     OW17440   5.774   5.494   3.844
 5514SOL    HW117441   5.827   5.491   3.929
 5514SOL    HW217442   5.692   5.549   3.858
 5515SOL     OW17443   6.471   3.653   3.105
 5515SOL    HW117444   6.374   3.631   3.115
 5515SOL    HW217445   6.523   3.569   3.094
 5516SOL     OW17446   1.138   3.146   6.710
 5516SOL    HW117447   1.135   3.095   6.796
 5516SOL    HW217448   1.069   3.219   6.713
 5517SOL     OW17449   2.289   0.964   1.889
 5517SOL    HW117450   2.248   1.044   1.845
 5517SOL    HW217451   2.381   0.988   1.921
 5518SOL     OW17452   5.409   4.734   5.309
 5518SOL    HW117453   5.469   4.755   5.386
 5518SOL    HW217454   5.420   4.638   5.283
 5519SOL     OW17455   5.182   4.012   2.987
 5519SOL    HW117456   5.184   3.912   2.983
 5519SOL    HW217457   5.223   4.050   2.904
 5520SOL     OW17458   1.878   2.753   0.820
 5520SOL    HW117459   1.884   2.846   0.856
 5520SOL    HW217460   1.920   2.689   0.885
 5521SOL     OW17461   5.003   5.423   1.008
 5521SOL    HW117462   4.921   5.474   1.033
 5521SOL    HW217463   4.976   5.341   0.957
 5522SOL     OW17464   1.927   3.251   2.422
 5522SOL    HW117465   1.893   3.158   2.410
 5522SOL    HW217466   2.000   3.269   2.357
 5523SOL     OW17467   3.334   0.694   1.823
 5523SOL    HW117468   3.294   0.737   1.904
 5523SOL    HW217469   3.417   0.744   1.797
 5524SOL     OW17470   5.683   5.945   5.658
 5524SOL    HW117471   5.740   5.872   5.694
 5524SOL    HW217472   5.648   5.919   5.568
 5525SOL     OW17473   6.587   5.717   3.802
 5525SOL    HW117474   6.554   5.753   3.889
 5525SOL    HW217475   6.602   5.619   3.809
 5526SOL     OW17476   5.665   3.024   4.559
 5526SOL    HW117477   5.698   3.104   4.508
 5526SOL    HW217478   5.583   2.988   4.515
 5527SOL     OW17479   2.395   3.285   0.390
 5527SOL    HW117480   2.365   3.190   0.402
 5527SOL    HW217481   2.492   3.293   0.414
 5528SOL     OW17482   6.555   3.528   2.682
 5528SOL    HW117483   6.563   3.620   2.720
 5528SOL    HW217484   6.635   3.474   2.709
 5529SOL     OW17485   1.153   1.177   4.318
 5529SOL    HW117486   1.144   1.250   4.386
 5529SOL    HW217487   1.175   1.216   4.229
 5530SOL     OW17488   0.120   3.161   0.261
 5530SOL    HW117489   0.050   3.127   0.324
 5530SOL    HW217490   0.092   3.144   0.167
 5531SOL     OW17491   1.139   2.742   6.904
 5531SOL    HW117492   1.090   2.732   6.817
 5531SOL    HW217493   1.230   2.701   6.897
 5532SOL     OW17494   1.988   2.324   1.550
 5532SOL    HW117495   1.949   2.276   1.629
 5532SOL    HW217496   1.920   2.329   1.477
 5533SOL     OW17497   3.434   0.366   0.555
 5533SOL    HW117498   3.492   0.286   0.563
 5533SOL    HW217499   3.489   0.445   0.526
 5534SOL     OW17500   6.988   4.613   5.122
 5534SOL    HW117501   6.978   4.599   5.221
 5534SOL    HW217502   6.900   4.640   5.084
 5535SOL     OW17503   5.915   3.499   4.045
 5535SOL    HW117504   5.821   3.534   4.045
 5535SOL    HW217505   5.968   3.546   4.115
 5536SOL     OW17506   2.607   0.302   4.197
 5536SOL    HW117507   2.579   0.395   4.224
 5536SOL    HW217508   2.702   0.287   4.223
 5537SOL     OW17509   4.265   1.584   4.774
 5537SOL    HW117510   4.177   1.618   4.807
 5537SOL    HW217511   4.269   1.593   4.675
 5538SOL     OW17512   5.218   2.695   1.946
 5538SOL    HW117513   5.236   2.664   2.039
 5538SOL    HW217514   5.236   2.621   1.881
 5539SOL     OW17515   2.674   6.917   0.474
 5539SOL    HW117516   2.750   6.909   0.538
 5539SOL    HW217517   2.656   7.014   0.456
 5540SOL     OW17518   5.102   0.173   5.752
 5540SOL    HW117519   5.060   0.243   5.695
 5540SOL    HW217520   5.055   0.086   5.739
 5541SOL     OW17521   4.569   3.108   0.142
 5541SOL    HW117522   4.603   3.202   0.141
 5541SOL    HW217523   4.564   3.076   0.237
 5542SOL     OW17524   4.440   4.161   0.064
 5542SOL    HW117525   4.502   4.144   7.007
 5542SOL    HW217526   4.428   4.077   0.116
 5543SOL     OW17527   1.718   0.448   6.793
 5543SOL    HW117528   1.656   0.372   6.811
 5543SOL    HW217529   1.806   0.412   6.763
 5544SOL     OW17530   4.115   4.885   0.133
 5544SOL    HW117531   4.062   4.845   0.207
 5544SOL    HW217532   4.184   4.821   0.101
 5545SOL     OW17533   4.962   1.004   4.298
 5545SOL    HW117534   5.045   0.976   4.250
 5545SOL    HW217535   4.925   1.087   4.257
 5546SOL     OW17536   0.438   5.007   4.166
 5546SOL    HW117537   0.375   4.929   4.173
 5546SOL    HW217538   0.460   5.041   4.257
 5547SOL     OW17539   5.165   1.962   4.897
 5547SOL    HW117540   5.128   2.051   4.922
 5547SOL    HW217541   5.179   1.907   4.980
 5548SOL     OW17542   1.018   4.743   4.594
 5548SOL    HW117543   1.052   4.832   4.563
 5548SOL    HW217544   0.931   4.723   4.550
 5549SOL     OW17545   4.539   2.802   0.473
 5549SOL    HW117546   4.545   2.727   0.407
 5549SOL    HW217547   4.574   2.770   0.561
 5550SOL     OW17548   2.115   4.457   1.548
 5550SOL    HW117549   2.114   4.439   1.647
 5550SOL    HW217550   2.080   4.377   1.500
 5551SOL     OW17551   2.053   5.388   2.683
 5551SOL    HW117552   2.062   5.341   2.771
 5551SOL    HW217553   2.034   5.485   2.699
 5552SOL     OW17554   1.006   6.674   6.716
 5552SOL    HW117555   0.912   6.655   6.688
 5552SOL    HW217556   1.032   6.766   6.685
 5553SOL     OW17557   5.200   0.638   0.520
 5553SOL    HW117558   5.136   0.674   0.589
 5553SOL    HW217559   5.290   0.681   0.533
 5554SOL     OW17560   6.479   1.322   1.641
 5554SOL    HW117561   6.512   1.253   1.576
 5554SOL    HW217562   6.522   1.410   1.621
 5555SOL     OW17563   1.645   4.905   3.200
 5555SOL    HW117564   1.686   4.840   3.136
 5555SOL    HW217565   1.687   4.995   3.186
 5556SOL     OW17566   0.251   0.764   4.425
 5556SOL    HW117567   0.344   0.745   4.458
 5556SOL    HW217568   0.222   0.691   4.364
 5557SOL     OW17569   3.801   5.987   3.290
 5557SOL    HW117570   3.751   6.055   3.237
 5557SOL    HW217571   3.881   5.956   3.239
 5558SOL     OW17572   4.665   3.958   6.515
 5558SOL    HW117573   4.646   4.013   6.434
 5558SOL    HW217574   4.601   3.981   6.587
 5559SOL     OW17575   3.328   1.062   2.971
 5559SOL    HW117576   3.306   1.111   2.886
 5559SOL    HW217577   3.343   1.127   3.045
 5560SOL     OW17578   0.993   5.291   3.867
 5560SOL    HW117579   0.923   5.222   3.883
 5560SOL    HW217580   0.978   5.334   3.778
 5561SOL     OW17581   3.419   6.220   2.981
 5561SOL    HW117582   3.428   6.232   2.883
 5561SOL    HW217583   3.419   6.309   3.026
 5562SOL     OW17584   3.584   3.898   0.984
 5562SOL    HW117585   3.682   3.881   0.994
 5562SOL    HW217586   3.556   3.878   0.891
 5563SOL     OW17587   2.219   4.564   2.488
 5563SOL    HW117588   2.235   4.475   2.445
 5563SOL    HW217589   2.238   4.558   2.586
 5564SOL     OW17590   5.088   0.685   6.327
 5564SOL    HW117591   5.048   0.776   6.316
 5564SOL    HW217592   5.178   0.683   6.284
 5565SOL     OW17593   3.320   1.912   6.181
 5565SOL    HW117594   3.274   1.850   6.118
 5565SOL    HW217595   3.252   1.970   6.227
 5566SOL     OW17596   1.305   3.914   6.847
 5566SOL    HW117597   1.215   3.951   6.822
 5566SOL    HW217598   1.342   3.966   6.924
 5567SOL     OW17599   0.175   3.693   0.534
 5567SOL    HW117600   0.077   3.710   0.544
 5567SOL    HW217601   0.226   3.754   0.595
 5568SOL     OW17602   4.618   4.919   1.429
 5568SOL    HW117603   4.716   4.907   1.439
 5568SOL    HW217604   4.596   5.015   1.416
 5569SOL     OW17605   2.354   2.729   2.755
 5569SOL    HW117606   2.407   2.649   2.727
 5569SOL    HW217607   2.326   2.718   2.851
 5570SOL     OW17608   6.624   4.007   2.380
 5570SOL    HW117609   6.720   4.037   2.381
 5570SOL    HW217610   6.617   3.920   2.331
 5571SOL     OW17611   6.335   4.676   1.119
 5571SOL    HW117612   6.345   4.579   1.143
 5571SOL    HW217613   6.337   4.731   1.202
 5572SOL     OW17614   1.863   4.302   4.950
 5572SOL    HW117615   1.763   4.300   4.953
 5572SOL    HW217616   1.893   4.359   4.873
 5573SOL     OW17617   3.406   5.210   3.831
 5573SOL    HW117618   3.427   5.231   3.735
 5573SOL    HW217619   3.401   5.295   3.883
 5574SOL     OW17620   0.645   2.246   5.911
 5574SOL    HW117621   0.671   2.337   5.881
 5574SOL    HW217622   0.688   2.177   5.852
 5575SOL     OW17623   0.120   0.064   1.548
 5575SOL    HW117624   0.065   0.012   1.482
 5575SOL    HW217625   0.066   0.080   1.631
 5576SOL     OW17626   1.478   5.383   3.020
 5576SOL    HW117627   1.479   5.412   3.116
 5576SOL    HW217628   1.499   5.286   3.014
 5577SOL     OW17629   2.147   2.912   5.723
 5577SOL    HW117630   2.149   2.945   5.629
 5577SOL    HW217631   2.193   2.977   5.783
 5578SOL     OW17632   3.593   4.012   3.844
 5578SOL    HW117633   3.635   4.006   3.934
 5578SOL    HW217634   3.526   4.086   3.843
 5579SOL     OW17635   0.229   3.245   2.103
 5579SOL    HW117636   0.247   3.148   2.091
 5579SOL    HW217637   0.201   3.264   2.197
 5580SOL     OW17638   5.484   2.497   5.724
 5580SOL    HW117639   5.426   2.564   5.678
 5580SOL    HW217640   5.432   2.412   5.737
 5581SOL     OW17641   1.286   2.462   0.175
 5581SOL    HW117642   1.257   2.379   0.223
 5581SOL    HW217643   1.326   2.438   0.087
 5582SOL     OW17644   2.390   3.026   6.473
 5582SOL    HW117645   2.300   3.036   6.432
 5582SOL    HW217646   2.384   3.041   6.572
 5583SOL     OW17647   5.476   0.372   1.622
 5583SOL    HW117648   5.566   0.346   1.657
 5583SOL    HW217649   5.486   0.447   1.556
 5584SOL     OW17650   1.557   3.208   4.321
 5584SOL    HW117651   1.611   3.149   4.382
 5584SOL    HW217652   1.610   3.226   4.238
 5585SOL     OW17653   5.122   4.650   2.050
 5585SOL    HW117654   5.089   4.744   2.055
 5585SOL    HW217655   5.082   4.596   2.124
 5586SOL     OW17656   6.523   3.706   0.410
 5586SOL    HW117657   6.491   3.614   0.429
 5586SOL    HW217658   6.447   3.771   0.419
 5587SOL     OW17659   5.853   1.097   6.070
 5587SOL    HW117660   5.868   1.086   6.168
 5587SOL    HW217661   5.917   1.039   6.020
 5588SOL     OW17662   3.970   6.651   0.855
 5588SOL    HW117663   3.995   6.555   0.868
 5588SOL    HW217664   3.980   6.700   0.941
 5589SOL     OW17665   5.796   4.919   6.021
 5589SOL    HW117666   5.786   4.948   5.926
 5589SOL    HW217667   5.813   4.820   6.024
 5590SOL     OW17668   6.186   5.854   3.724
 5590SOL    HW117669   6.119   5.888   3.657
 5590SOL    HW217670   6.278   5.875   3.692
 5591SOL     OW17671   5.929   0.867   1.833
 5591SOL    HW117672   5.989   0.946   1.846
 5591SOL    HW217673   5.868   0.858   1.912
 5592SOL     OW17674   1.315   3.914   3.350
 5592SOL    HW117675   1.238   3.901   3.287
 5592SOL    HW217676   1.401   3.906   3.299
 5593SOL     OW17677   0.036   3.668   0.223
 5593SOL    HW117678   7.006   3.722   0.291
 5593SOL    HW217679   0.118   3.718   0.195
 5594SOL     OW17680   6.075   2.194   6.057
 5594SOL    HW117681   6.127   2.205   6.142
 5594SOL    HW217682   6.113   2.254   5.987
 5595SOL     OW17683   0.890   3.209   5.670
 5595SOL    HW117684   0.988   3.227   5.664
 5595SOL    HW217685   0.869   3.122   5.626
 5596SOL     OW17686   3.032   6.541   2.919
 5596SOL    HW117687   2.997   6.515   3.009
 5596SOL    HW217688   3.045   6.640   2.916
 5597SOL     OW17689   5.186   3.121   2.561
 5597SOL    HW117690   5.261   3.165   2.510
 5597SOL    HW217691   5.213   3.029   2.587
 5598SOL     OW17692   5.317   1.759   4.782
 5598SOL    HW117693   5.254   1.836   4.793
 5598SOL    HW217694   5.325   1.710   4.868
 5599SOL     OW17695   1.078   0.639   3.792
 5599SOL    HW117696   1.041   0.723   3.752
 5599SOL    HW217697   1.005   0.591   3.842
 5600SOL     OW17698   1.365   1.972   4.277
 5600SOL    HW117699   1.329   2.057   4.239
 5600SOL    HW217700   1.449   1.947   4.229
 5601SOL     OW17701   2.432   0.463   6.234
 5601SOL    HW117702   2.434   0.509   6.322
 5601SOL    HW217703   2.358   0.501   6.178
 5602SOL     OW17704   1.655   1.346   7.014
 5602SOL    HW117705   1.556   1.345   6.995
 5602SOL    HW217706   1.677   1.269   0.054
 5603SOL     OW17707   5.644   4.438   6.478
 5603SOL    HW117708   5.603   4.352   6.509
 5603SOL    HW217709   5.574   4.493   6.432
 5604SOL     OW17710   6.057   1.580   6.067
 5604SOL    HW117711   6.043   1.595   6.165
 5604SOL    HW217712   6.097   1.662   6.027
 5605SOL     OW17713   1.204   2.652   5.768
 5605SOL    HW117714   1.152   2.734   5.743
 5605SOL    HW217715   1.262   2.672   5.847
 5606SOL     OW17716   5.435   0.344   2.990
 5606SOL    HW117717   5.534   0.343   3.004
 5606SOL    HW217718   5.388   0.337   3.078
 5607SOL     OW17719   6.224   0.932   1.489
 5607SOL    HW117720   6.295   0.913   1.422
 5607SOL    HW217721   6.143   0.879   1.468
 5608SOL     OW17722   4.649   6.715   4.915
 5608SOL    HW117723   4.726   6.762   4.872
 5608SOL    HW217724   4.663   6.616   4.911
 5609SOL     OW17725   1.948   5.723   5.541
 5609SOL    HW117726   1.953   5.733   5.640
 5609SOL    HW217727   2.032   5.680   5.507
 5610SOL     OW17728   4.325   0.377   6.354
 5610SOL    HW117729   4.412   0.369   6.402
 5610SOL    HW217730   4.303   0.473   6.339
 5611SOL     OW17731   1.865   4.667   3.652
 5611SOL    HW117732   1.870   4.766   3.640
 5611SOL    HW217733   1.865   4.623   3.562
 5612SOL     OW17734   2.029   0.626   5.217
 5612SOL    HW117735   1.997   0.588   5.131
 5612SOL    HW217736   1.951   0.652   5.273
 5613SOL     OW17737   3.937   4.849   1.704
 5613SOL    HW117738   4.031   4.821   1.681
 5613SOL    HW217739   3.939   4.941   1.744
 5614SOL     OW17740   4.699   2.362   3.482
 5614SOL    HW117741   4.606   2.366   3.445
 5614SOL    HW217742   4.725   2.452   3.516
 5615SOL     OW17743   1.249   1.508   1.322
 5615SOL    HW117744   1.241   1.493   1.421
 5615SOL    HW217745   1.249   1.607   1.304
 5616SOL     OW17746   2.729   0.271   4.784
 5616SOL    HW117747   2.769   0.222   4.707
 5616SOL    HW217748   2.654   0.217   4.823
 5617SOL     OW17749   0.938   1.029   4.979
 5617SOL    HW117750   0.965   0.936   4.954
 5617SOL    HW217751   1.016   1.074   5.023
 5618SOL     OW17752   6.384   4.557   2.907
 5618SOL    HW117753   6.443   4.495   2.959
 5618SOL    HW217754   6.375   4.522   2.814
 5619SOL     OW17755   2.061   3.628   4.780
 5619SOL    HW117756   2.077   3.543   4.830
 5619SOL    HW217757   2.044   3.702   4.845
 5620SOL     OW17758   3.558   2.395   6.419
 5620SOL    HW117759   3.657   2.407   6.417
 5620SOL    HW217760   3.525   2.398   6.513
 5621SOL     OW17761   1.903   2.182   6.779
 5621SOL    HW117762   1.853   2.129   6.711
 5621SOL    HW217763   1.998   2.151   6.783
 5622SOL     OW17764   5.966   0.594   5.593
 5622SOL    HW117765   5.971   0.678   5.647
 5622SOL    HW217766   6.058   0.557   5.580
 5623SOL     OW17767   0.195   5.679   6.596
 5623SOL    HW117768   0.149   5.751   6.545
 5623SOL    HW217769   0.138   5.597   6.597
 5624SOL     OW17770   1.176   4.142   2.873
 5624SOL    HW117771   1.214   4.213   2.932
 5624SOL    HW217772   1.249   4.077   2.849
 5625SOL     OW17773   6.359   2.264   5.555
 5625SOL    HW117774   6.290   2.210   5.508
 5625SOL    HW217775   6.399   2.330   5.492
 5626SOL     OW17776   4.489   0.037   4.484
 5626SOL    HW117777   4.559   0.106   4.465
 5626SOL    HW217778   4.419   0.041   4.413
 5627SOL     OW17779   1.314   6.025   0.938
 5627SOL    HW117780   1.281   6.057   0.850
 5627SOL    HW217781   1.404   5.983   0.926
 5628SOL     OW17782   1.131   0.913   4.442
 5628SOL    HW117783   1.146   1.007   4.409
 5628SOL    HW217784   1.038   0.906   4.478
 5629SOL     OW17785   3.679   3.319   2.875
 5629SOL    HW117786   3.672   3.224   2.905
 5629SOL    HW217787   3.746   3.367   2.932
 5630SOL     OW17788   0.140   4.537   1.770
 5630SOL    HW117789   0.155   4.445   1.807
 5630SOL    HW217790   0.161   4.605   1.840
 5631SOL     OW17791   4.571   0.660   6.790
 5631SOL    HW117792   4.568   0.569   6.831
 5631SOL    HW217793   4.639   0.661   6.717
 5632SOL     OW17794   3.109   3.205   0.291
 5632SOL    HW117795   3.092   3.141   0.215
 5632SOL    HW217796   3.166   3.160   0.360
 5633SOL     OW17797   6.360   2.798   4.866
 5633SOL    HW117798   6.299   2.831   4.938
 5633SOL    HW217799   6.330   2.832   4.777
 5634SOL     OW17800   4.636   5.773   4.365
 5634SOL    HW117801   4.552   5.824   4.349
 5634SOL    HW217802   4.712   5.818   4.317
 5635SOL     OW17803   3.049   2.097   5.233
 5635SOL    HW117804   3.086   2.182   5.196
 5635SOL    HW217805   3.023   2.036   5.158
 5636SOL     OW17806   4.031   6.097   3.833
 5636SOL    HW117807   4.051   6.191   3.807
 5636SOL    HW217808   4.057   6.036   3.759
 5637SOL     OW17809   5.916   0.087   3.425
 5637SOL    HW117810   5.824   0.056   3.449
 5637SOL    HW217811   5.971   0.008   3.399
 5638SOL     OW17812   5.130   3.804   6.500
 5638SOL    HW117813   5.128   3.816   6.400
 5638SOL    HW217814   5.036   3.804   6.535
 5639SOL     OW17815   2.987   0.201   6.838
 5639SOL    HW117816   2.963   0.104   6.844
 5639SOL    HW217817   3.087   0.210   6.830
 5640SOL     OW17818   2.208   6.935   3.258
 5640SOL    HW117819   2.288   6.891   3.297
 5640SOL    HW217820   2.145   6.866   3.223
 5641SOL     OW17821   5.978   6.071   4.798
 5641SOL    HW117822   5.995   6.116   4.886
 5641SOL    HW217823   5.887   6.029   4.799
 5642SOL     OW17824   1.763   2.158   0.009
 5642SOL    HW117825   1.795   2.066   0.030
 5642SOL    HW217826   1.813   2.193   6.949
 5643SOL     OW17827   5.836   2.175   4.809
 5643SOL    HW117828   5.783   2.191   4.892
 5643SOL    HW217829   5.892   2.092   4.820
 5644SOL     OW17830   3.007   6.837   6.381
 5644SOL    HW117831   3.090   6.894   6.377
 5644SOL    HW217832   3.033   6.740   6.377
 5645SOL     OW17833   5.170   3.515   4.714
 5645SOL    HW117834   5.120   3.454   4.653
 5645SOL    HW217835   5.263   3.527   4.681
 5646SOL     OW17836   1.575   4.338   2.885
 5646SOL    HW117837   1.545   4.278   2.960
 5646SOL    HW217838   1.509   4.334   2.811
 5647SOL     OW17839   6.523   6.644   2.588
 5647SOL    HW117840   6.467   6.561   2.588
 5647SOL    HW217841   6.604   6.630   2.531
 5648SOL     OW17842   4.608   6.301   3.232
 5648SOL    HW117843   4.698   6.304   3.276
 5648SOL    HW217844   4.550   6.233   3.278
 5649SOL     OW17845   0.911   6.530   4.462
 5649SOL    HW117846   0.913   6.468   4.540
 5649SOL    HW217847   0.955   6.488   4.383
 5650SOL     OW17848   6.653   4.178   6.799
 5650SOL    HW117849   6.711   4.256   6.777
 5650SOL    HW217850   6.569   4.183   6.745
 5651SOL     OW17851   2.942   0.897   1.172
 5651SOL    HW117852   2.911   0.960   1.243
 5651SOL    HW217853   2.866   0.839   1.144
 5652SOL     OW17854   0.759   5.946   1.343
 5652SOL    HW117855   0.803   5.933   1.254
 5652SOL    HW217856   0.796   5.879   1.408
 5653SOL     OW17857   6.984   0.134   1.752
 5653SOL    HW117858   0.016   0.198   1.808
 5653SOL    HW217859   6.912   0.092   1.807
 5654SOL     OW17860   3.236   5.649   4.356
 5654SOL    HW117861   3.160   5.595   4.392
 5654SOL    HW217862   3.257   5.724   4.419
 5655SOL     OW17863   5.954   2.610   5.201
 5655SOL    HW117864   6.028   2.548   5.227
 5655SOL    HW217865   5.992   2.693   5.161
 5656SOL     OW17866   6.566   3.224   0.395
 5656SOL    HW117867   6.573   3.152   0.325
 5656SOL    HW217868   6.647   3.282   0.390
 5657SOL     OW17869   5.266   5.720   4.729
 5657SOL    HW117870   5.214   5.762   4.803
 5657SOL    HW217871   5.270   5.621   4.743
 5658SOL     OW17872   2.128   2.996   6.048
 5658SOL    HW117873   2.128   3.095   6.065
 5658SOL    HW217874   2.088   2.948   6.125
 5659SOL     OW17875   2.584   3.804   0.171
 5659SOL    HW117876   2.549   3.743   0.242
 5659SOL    HW217877   2.570   3.899   0.198
 5660SOL     OW17878   5.009   0.592   6.016
 5660SOL    HW117879   4.986   0.675   6.067
 5660SOL    HW217880   4.929   0.560   5.965
 5661SOL     OW17881   1.361   5.512   5.777
 5661SOL    HW117882   1.425   5.588   5.767
 5661SOL    HW217883   1.312   5.498   5.690
 5662SOL     OW17884   3.459   6.359   0.886
 5662SOL    HW117885   3.409   6.303   0.952
 5662SOL    HW217886   3.458   6.454   0.915
 5663SOL     OW17887   1.641   3.476   6.411
 5663SOL    HW117888   1.683   3.475   6.320
 5663SOL    HW217889   1.669   3.394   6.461
 5664SOL     OW17890   4.794   4.653   4.521
 5664SOL    HW117891   4.696   4.640   4.537
 5664SOL    HW217892   4.808   4.733   4.462
 5665SOL     OW17893   1.723   1.567   0.973
 5665SOL    HW117894   1.657   1.493   0.981
 5665SOL    HW217895   1.729   1.597   0.877
 5666SOL     OW17896   6.034   2.042   5.107
 5666SOL    HW117897   6.118   2.097   5.111
 5666SOL    HW217898   6.025   1.988   5.190
 5667SOL     OW17899   2.772   4.688   4.370
 5667SOL    HW117900   2.696   4.633   4.404
 5667SOL    HW217901   2.832   4.631   4.313
 5668SOL     OW17902   4.750   4.178   3.480
 5668SOL    HW117903   4.682   4.160   3.551
 5668SOL    HW217904   4.709   4.231   3.406
 5669SOL     OW17905   5.520   4.225   5.967
 5669SOL    HW117906   5.513   4.158   6.041
 5669SOL    HW217907   5.616   4.238   5.943
 5670SOL     OW17908   1.464   2.159   3.404
 5670SOL    HW117909   1.443   2.223   3.331
 5670SOL    HW217910   1.543   2.192   3.456
 5671SOL     OW17911   0.296   6.119   3.784
 5671SOL    HW117912   0.383   6.085   3.747
 5671SOL    HW217913   0.305   6.132   3.883
 5672SOL     OW17914   5.226   3.090   4.569
 5672SOL    HW117915   5.244   3.080   4.667
 5672SOL    HW217916   5.132   3.121   4.556
 5673SOL     OW17917   1.054   1.364   0.747
 5673SOL    HW117918   1.045   1.347   0.648
 5673SOL    HW217919   1.103   1.288   0.790
 5674SOL     OW17920   2.370   4.718   5.090
 5674SOL    HW117921   2.329   4.668   5.166
 5674SOL    HW217922   2.417   4.653   5.029
 5675SOL     OW17923   2.604   1.335   1.018
 5675SOL    HW117924   2.704   1.338   1.019
 5675SOL    HW217925   2.569   1.416   0.971
 5676SOL     OW17926   2.930   1.260   1.663
 5676SOL    HW117927   2.984   1.265   1.579
 5676SOL    HW217928   2.977   1.310   1.735
 5677SOL     OW17929   0.013   1.454   6.899
 5677SOL    HW117930   0.008   1.473   6.997
 5677SOL    HW217931   0.071   1.374   6.883
 5678SOL     OW17932   3.526   1.963   2.124
 5678SOL    HW117933   3.448   2.004   2.171
 5678SOL    HW217934   3.583   2.035   2.086
 5679SOL     OW17935   6.427   3.364   4.995
 5679SOL    HW117936   6.376   3.445   4.967
 5679SOL    HW217937   6.377   3.282   4.968
 5680SOL     OW17938   0.759   5.707   4.836
 5680SOL    HW117939   0.843   5.761   4.823
 5680SOL    HW217940   0.778   5.611   4.816
 5681SOL     OW17941   1.060   3.321   3.975
 5681SOL    HW117942   1.106   3.233   3.970
 5681SOL    HW217943   1.024   3.345   3.885
 5682SOL     OW17944   2.182   4.847   1.388
 5682SOL    HW117945   2.221   4.756   1.374
 5682SOL    HW217946   2.171   4.864   1.486
 5683SOL     OW17947   6.372   0.639   5.824
 5683SOL    HW117948   6.384   0.731   5.789
 5683SOL    HW217949   6.342   0.578   5.750
 5684SOL     OW17950   2.268   2.765   4.899
 5684SOL    HW117951   2.222   2.721   4.976
 5684SOL    HW217952   2.317   2.846   4.932
 5685SOL     OW17953   2.586   1.749   2.207
 5685SOL    HW117954   2.587   1.847   2.193
 5685SOL    HW217955   2.666   1.721   2.260
 5686SOL     OW17956   4.719   5.816   6.072
 5686SOL    HW117957   4.636   5.852   6.029
 5686SOL    HW217958   4.707   5.813   6.171
 5687SOL     OW17959   1.767   6.137   6.277
 5687SOL    HW117960   1.722   6.175   6.359
 5687SOL    HW217961   1.774   6.208   6.208
 5688SOL     OW17962   1.987   1.967   2.630
 5688SOL    HW117963   2.081   1.949   2.600
 5688SOL    HW217964   1.944   1.882   2.659
 5689SOL     OW17965   0.100   2.480   1.527
 5689SOL    HW117966   0.190   2.436   1.532
 5689SOL    HW217967   0.061   2.464   1.437
 5690SOL     OW17968   2.330   4.829   6.904
 5690SOL    HW117969   2.261   4.821   6.833
 5690SOL    HW217970   2.295   4.884   6.980
 5691SOL     OW17971   4.088   1.459   3.107
 5691SOL    HW117972   4.050   1.371   3.135
 5691SOL    HW217973   4.186   1.449   3.089
 5692SOL     OW17974   5.798   4.786   2.108
 5692SOL    HW117975   5.824   4.772   2.013
 5692SOL    HW217976   5.698   4.792   2.115
 5693SOL     OW17977   3.950   0.365   1.357
 5693SOL    HW117978   3.986   0.391   1.267
 5693SOL    HW217979   3.861   0.409   1.370
 5694SOL     OW17980   1.215   6.943   1.192
 5694SOL    HW117981   1.186   6.877   1.122
 5694SOL    HW217982   1.311   6.967   1.177
 5695SOL     OW17983   2.274   0.689   1.873
 5695SOL    HW117984   2.175   0.679   1.865
 5695SOL    HW217985   2.297   0.786   1.881
 5696SOL     OW17986   1.453   0.408   4.224
 5696SOL    HW117987   1.544   0.378   4.196
 5696SOL    HW217988   1.384   0.349   4.182
 5697SOL     OW17989   6.145   2.636   0.652
 5697SOL    HW117990   6.120   2.685   0.735
 5697SOL    HW217991   6.076   2.652   0.582
 5698SOL     OW17992   3.004   2.104   4.445
 5698SOL    HW117993   3.053   2.100   4.532
 5698SOL    HW217994   3.018   2.018   4.395
 5699SOL     OW17995   1.968   2.759   2.476
 5699SOL    HW117996   1.974   2.689   2.547
 5699SOL    HW217997   2.060   2.785   2.448
 5700SOL     OW17998   6.167   0.376   2.971
 5700SOL    HW117999   6.233   0.327   2.915
 5700SOL    HW218000   6.212   0.409   3.054
 5701SOL     OW18001   0.237   0.672   0.778
 5701SOL    HW118002   0.314   0.609   0.784
 5701SOL    HW218003   0.209   0.700   0.870
 5702SOL     OW18004   2.488   0.077   4.782
 5702SOL    HW118005   2.398   0.120   4.777
 5702SOL    HW218006   2.480   7.007   4.824
 5703SOL     OW18007   0.741   3.235   6.335
 5703SOL    HW118008   0.837   3.210   6.342
 5703SOL    HW218009   0.687   3.177   6.396
 5704SOL     OW18010   4.060   5.890   4.066
 5704SOL    HW118011   3.967   5.860   4.085
 5704SOL    HW218012   4.059   5.949   3.985
 5705SOL     OW18013   6.071   0.494   5.902
 5705SOL    HW118014   6.028   0.405   5.918
 5705SOL    HW218015   6.129   0.489   5.821
 5706SOL     OW18016   4.670   1.856   0.445
 5706SOL    HW118017   4.660   1.911   0.362
 5706SOL    HW218018   4.629   1.766   0.429
 5707SOL     OW18019   5.808   5.293   1.662
 5707SOL    HW118020   5.711   5.310   1.680
 5707SOL    HW218021   5.842   5.224   1.726
 5708SOL     OW18022   5.275   6.552   2.290
 5708SOL    HW118023   5.375   6.560   2.285
 5708SOL    HW218024   5.250   6.491   2.365
 5709SOL     OW18025   6.944   2.243   2.454
 5709SOL    HW118026   6.993   2.325   2.425
 5709SOL    HW218027   6.944   2.237   2.554
 5710SOL     OW18028   3.752   1.997   0.554
 5710SOL    HW118029   3.712   1.919   0.508
 5710SOL    HW218030   3.818   1.966   0.622
 5711SOL     OW18031   5.586   1.977   3.008
 5711SOL    HW118032   5.660   2.017   2.955
 5711SOL    HW218033   5.571   1.883   2.977
 5712SOL     OW18034   6.661   0.340   0.168
 5712SOL    HW118035   6.712   0.420   0.136
 5712SOL    HW218036   6.564   0.352   0.147
 5713SOL     OW18037   2.156   1.126   0.467
 5713SOL    HW118038   2.098   1.110   0.547
 5713SOL    HW218039   2.250   1.143   0.496
 5714SOL     OW18040   6.113   0.332   0.528
 5714SOL    HW118041   6.204   0.361   0.500
 5714SOL    HW218042   6.066   0.289   0.450
 5715SOL     OW18043   0.581   0.220   2.317
 5715SOL    HW118044   0.657   0.272   2.356
 5715SOL    HW218045   0.498   0.277   2.316
 5716SOL     OW18046   6.195   4.388   5.182
 5716SOL    HW118047   6.121   4.420   5.242
 5716SOL    HW218048   6.174   4.413   5.087
 5717SOL     OW18049   1.529   5.246   3.303
 5717SOL    HW118050   1.585   5.178   3.256
 5717SOL    HW218051   1.588   5.320   3.336
 5718SOL     OW18052   1.136   3.004   6.951
 5718SOL    HW118053   1.139   2.905   6.939
 5718SOL    HW218054   1.067   3.027   7.018
 5719SOL     OW18055   2.411   3.337   0.744
 5719SOL    HW118056   2.401   3.239   0.724
 5719SOL    HW218057   2.371   3.390   0.669
 5720SOL     OW18058   3.204   4.786   5.663
 5720SOL    HW118059   3.131   4.736   5.617
 5720SOL    HW218060   3.167   4.867   5.708
 5721SOL     OW18061   1.662   2.953   7.003
 5721SOL    HW118062   1.687   3.020   0.054
 5721SOL    HW218063   1.743   2.931   6.949
 5722SOL     OW18064   1.218   0.207   0.169
 5722SOL    HW118065   1.267   0.147   0.232
 5722SOL    HW218066   1.133   0.164   0.140
 5723SOL     OW18067   3.967   3.272   0.720
 5723SOL    HW118068   3.965   3.172   0.715
 5723SOL    HW218069   4.008   3.309   0.637
 5724SOL     OW18070   5.446   2.220   5.788
 5724SOL    HW118071   5.362   2.202   5.839
 5724SOL    HW218072   5.526   2.203   5.846
 5725SOL     OW18073   0.336   4.300   4.973
 5725SOL    HW118074   0.246   4.338   4.992
 5725SOL    HW218075   0.339   4.268   4.878
 5726SOL     OW18076   5.345   4.028   2.483
 5726SOL    HW118077   5.411   4.097   2.514
 5726SOL    HW218078   5.356   3.945   2.537
 5727SOL     OW18079   0.731   2.411   5.351
 5727SOL    HW118080   0.787   2.392   5.271
 5727SOL    HW218081   0.647   2.456   5.323
 5728SOL     OW18082   4.560   0.131   5.047
 5728SOL    HW118083   4.566   0.217   4.998
 5728SOL    HW218084   4.545   0.056   4.982
 5729SOL     OW18085   2.767   1.942   4.741
 5729SOL    HW118086   2.840   1.905   4.684
 5729SOL    HW218087   2.752   2.038   4.719
 5730SOL     OW18088   6.843   4.448   4.777
 5730SOL    HW118089   6.775   4.432   4.706
 5730SOL    HW218090   6.861   4.363   4.826
 5731SOL     OW18091   0.811   0.018   3.021
 5731SOL    HW118092   0.818   7.011   2.925
 5731SOL    HW218093   0.897   7.014   3.068
 5732SOL     OW18094   0.344   0.583   3.655
 5732SOL    HW118095   0.299   0.512   3.602
 5732SOL    HW218096   0.292   0.668   3.648
 5733SOL     OW18097   2.957   0.221   5.452
 5733SOL    HW118098   2.987   0.316   5.458
 5733SOL    HW218099   3.034   0.160   5.471
 5734SOL     OW18100   1.785   6.833   3.905
 5734SOL    HW118101   1.857   6.847   3.974
 5734SOL    HW218102   1.782   6.913   3.845
 5735SOL     OW18103   3.229   0.799   2.059
 5735SOL    HW118104   3.142   0.838   2.088
 5735SOL    HW218105   3.304   0.843   2.108
 5736SOL     OW18106   1.375   5.607   6.766
 5736SOL    HW118107   1.333   5.549   6.836
 5736SOL    HW218108   1.472   5.621   6.788
 5737SOL     OW18109   5.287   4.532   0.375
 5737SOL    HW118110   5.205   4.555   0.323
 5737SOL    HW218111   5.362   4.511   0.312
 5738SOL     OW18112   1.315   4.300   5.561
 5738SOL    HW118113   1.402   4.298   5.511
 5738SOL    HW218114   1.239   4.303   5.496
 5739SOL     OW18115   1.097   2.490   1.577
 5739SOL    HW118116   1.004   2.452   1.582
 5739SOL    HW218117   1.160   2.418   1.547
 5740SOL     OW18118   3.667   5.654   6.709
 5740SOL    HW118119   3.697   5.629   6.801
 5740SOL    HW218120   3.592   5.595   6.681
 5741SOL     OW18121   0.080   4.649   2.033
 5741SOL    HW118122   0.032   4.563   2.019
 5741SOL    HW218123   0.018   4.717   2.071
 5742SOL     OW18124   0.195   5.798   4.369
 5742SOL    HW118125   0.151   5.739   4.436
 5742SOL    HW218126   0.189   5.894   4.399
 5743SOL     OW18127   1.646   6.221   4.093
 5743SOL    HW118128   1.591   6.268   4.162
 5743SOL    HW218129   1.736   6.265   4.086
 5744SOL     OW18130   5.913   0.018   1.816
 5744SOL    HW118131   5.921   0.108   1.859
 5744SOL    HW218132   5.899   0.030   1.717
 5745SOL     OW18133   1.357   2.339   3.227
 5745SOL    HW118134   1.361   2.426   3.277
 5745SOL    HW218135   1.266   2.299   3.237
 5746SOL     OW18136   6.369   4.655   0.122
 5746SOL    HW118137   6.414   4.607   0.197
 5746SOL    HW218138   6.281   4.690   0.154
 5747SOL     OW18139   0.648   6.451   3.209
 5747SOL    HW118140   0.695   6.529   3.167
 5747SOL    HW218141   0.570   6.425   3.151
 5748SOL     OW18142   2.029   6.763   3.655
 5748SOL    HW118143   1.988   6.843   3.698
 5748SOL    HW218144   1.995   6.755   3.561
 5749SOL     OW18145   2.031   1.069   2.966
 5749SOL    HW118146   2.103   1.077   3.034
 5749SOL    HW218147   1.959   1.135   2.986
 5750SOL     OW18148   6.093   5.747   2.248
 5750SOL    HW118149   6.065   5.721   2.340
 5750SOL    HW218150   6.019   5.726   2.183
 5751SOL     OW18151   1.097   2.978   6.409
 5751SOL    HW118152   1.059   3.018   6.326
 5751SOL    HW218153   1.166   3.040   6.447
 5752SOL     OW18154   0.587   1.277   6.726
 5752SOL    HW118155   0.610   1.181   6.744
 5752SOL    HW218156   0.518   1.307   6.791
 5753SOL     OW18157   4.334   1.668   0.359
 5753SOL    HW118158   4.386   1.685   0.275
 5753SOL    HW218159   4.307   1.572   0.363
 5754SOL     OW18160   6.337   5.283   0.526
 5754SOL    HW118161   6.385   5.196   0.518
 5754SOL    HW218162   6.296   5.290   0.617
 5755SOL     OW18163   3.413   3.685   1.576
 5755SOL    HW118164   3.386   3.740   1.498
 5755SOL    HW218165   3.360   3.600   1.578
 5756SOL     OW18166   6.991   6.430   4.375
 5756SOL    HW118167   6.947   6.382   4.300
 5756SOL    HW218168   6.993   6.528   4.356
 5757SOL     OW18169   0.351   6.334   2.255
 5757SOL    HW118170   0.269   6.365   2.303
 5757SOL    HW218171   0.377   6.402   2.187
 5758SOL     OW18172   2.246   1.417   5.873
 5758SOL    HW118173   2.157   1.444   5.911
 5758SOL    HW218174   2.314   1.486   5.894
 5759SOL     OW18175   0.432   2.060   5.686
 5759SOL    HW118176   0.482   2.011   5.615
 5759SOL    HW218177   0.340   2.022   5.695
 5760SOL     OW18178   1.379   5.053   1.756
 5760SOL    HW118179   1.337   5.035   1.845
 5760SOL    HW218180   1.307   5.058   1.686
 5761SOL     OW18181   5.550   0.300   4.576
 5761SOL    HW118182   5.637   0.308   4.624
 5761SOL    HW218183   5.514   0.391   4.557
 5762SOL     OW18184   5.751   6.304   1.617
 5762SOL    HW118185   5.777   6.259   1.531
 5762SOL    HW218186   5.657   6.279   1.640
 5763SOL     OW18187   1.510   1.383   0.988
 5763SOL    HW118188   1.416   1.371   1.019
 5763SOL    HW218189   1.540   1.301   0.939
 5764SOL     OW18190   4.625   2.973   6.260
 5764SOL    HW118191   4.690   2.992   6.187
 5764SOL    HW218192   4.606   2.875   6.263
 5765SOL     OW18193   6.537   5.759   0.149
 5765SOL    HW118194   6.537   5.664   0.117
 5765SOL    HW218195   6.458   5.807   0.112
 5766SOL     OW18196   3.248   1.121   3.313
 5766SOL    HW118197   3.302   1.185   3.258
 5766SOL    HW218198   3.161   1.164   3.336
 5767SOL     OW18199   6.081   0.573   0.684
 5767SOL    HW118200   5.999   0.560   0.739
 5767SOL    HW218201   6.091   0.497   0.620
 5768SOL     OW18202   6.412   0.908   2.746
 5768SOL    HW118203   6.462   0.930   2.663
 5768SOL    HW218204   6.405   0.809   2.756
 5769SOL     OW18205   2.162   5.486   3.463
 5769SOL    HW118206   2.089   5.550   3.486
 5769SOL    HW218207   2.246   5.513   3.509
 5770SOL     OW18208   5.647   2.183   1.889
 5770SOL    HW118209   5.565   2.211   1.841
 5770SOL    HW218210   5.724   2.178   1.825
 5771SOL     OW18211   0.571   1.076   0.740
 5771SOL    HW118212   0.587   1.020   0.659
 5771SOL    HW218213   0.495   1.139   0.722
 5772SOL     OW18214   6.400   4.299   6.600
 5772SOL    HW118215   6.363   4.233   6.535
 5772SOL    HW218216   6.331   4.321   6.669
 5773SOL     OW18217   5.002   6.238   4.948
 5773SOL    HW118218   4.971   6.330   4.970
 5773SOL    HW218219   5.019   6.230   4.850
 5774SOL     OW18220   2.396   4.812   2.871
 5774SOL    HW118221   2.439   4.863   2.797
 5774SOL    HW218222   2.366   4.876   2.942
 5775SOL     OW18223   0.801   0.676   0.423
 5775SOL    HW118224   0.864   0.600   0.437
 5775SOL    HW218225   0.779   0.684   0.325
 5776SOL     OW18226   4.373   1.386   5.952
 5776SOL    HW118227   4.357   1.411   5.856
 5776SOL    HW218228   4.286   1.390   6.002
 5777SOL     OW18229   5.722   0.399   5.380
 5777SOL    HW118230   5.737   0.397   5.479
 5777SOL    HW218231   5.702   0.492   5.351
 5778SOL     OW18232   2.607   6.295   4.010
 5778SOL    HW118233   2.581   6.392   4.014
 5778SOL    HW218234   2.690   6.285   3.953
 5779SOL     OW18235   4.386   0.420   0.725
 5779SOL    HW118236   4.367   0.487   0.797
 5779SOL    HW218237   4.466   0.449   0.672
 5780SOL     OW18238   5.902   3.874   0.546
 5780SOL    HW118239   5.809   3.907   0.534
 5780SOL    HW218240   5.913   3.786   0.500
 5781SOL     OW18241   3.131   4.667   5.326
 5781SOL    HW118242   3.084   4.632   5.245
 5781SOL    HW218243   3.069   4.666   5.404
 5782SOL     OW18244   4.255   1.834   3.446
 5782SOL    HW118245   4.297   1.924   3.433
 5782SOL    HW218246   4.185   1.819   3.377
 5783SOL     OW18247   2.521   6.889   1.950
 5783SOL    HW118248   2.576   6.816   1.992
 5783SOL    HW218249   2.451   6.849   1.892
 5784SOL     OW18250   1.282   5.843   6.845
 5784SOL    HW118251   1.335   5.857   6.929
 5784SOL    HW218252   1.323   5.768   6.792
 5785SOL     OW18253   2.134   2.133   6.931
 5785SOL    HW118254   2.110   2.043   6.968
 5785SOL    HW218255   2.187   2.121   6.847
 5786SOL     OW18256   0.405   2.513   6.212
 5786SOL    HW118257   0.341   2.441   6.237
 5786SOL    HW218258   0.355   2.596   6.186
 5787SOL     OW18259   0.219   2.841   5.419
 5787SOL    HW118260   0.190   2.931   5.386
 5787SOL    HW218261   0.171   2.819   5.504
 5788SOL     OW18262   0.534   2.108   1.793
 5788SOL    HW118263   0.482   2.069   1.869
 5788SOL    HW218264   0.625   2.134   1.825
 5789SOL     OW18265   3.107   5.250   6.762
 5789SOL    HW118266   3.175   5.228   6.692
 5789SOL    HW218267   3.082   5.166   6.811
 5790SOL     OW18268   6.481   6.371   2.605
 5790SOL    HW118269   6.525   6.336   2.523
 5790SOL    HW218270   6.382   6.368   2.595
 5791SOL     OW18271   3.805   0.950   1.221
 5791SOL    HW118272   3.796   0.864   1.271
 5791SOL    HW218273   3.723   0.966   1.166
 5792SOL     OW18274   4.710   2.183   2.239
 5792SOL    HW118275   4.753   2.271   2.217
 5792SOL    HW218276   4.611   2.193   2.236
 5793SOL     OW18277   3.766   1.773   0.081
 5793SOL    HW118278   3.787   1.745   0.174
 5793SOL    HW218279   3.715   1.700   0.035
 5794SOL     OW18280   3.481   5.865   6.646
 5794SOL    HW118281   3.548   5.791   6.652
 5794SOL    HW218282   3.405   5.846   6.708
 5795SOL     OW18283   1.217   0.043   0.844
 5795SOL    HW118284   1.136   0.099   0.863
 5795SOL    HW218285   1.200   6.969   0.874
 5796SOL     OW18286   4.629   1.101   6.251
 5796SOL    HW118287   4.641   1.198   6.269
 5796SOL    HW218288   4.698   1.048   6.300
 5797SOL     OW18289   0.283   2.463   6.928
 5797SOL    HW118290   0.342   2.543   6.919
 5797SOL    HW218291   0.288   2.427   0.001
 5798SOL     OW18292   2.115   2.702   4.524
 5798SOL    HW118293   2.191   2.746   4.571
 5798SOL    HW218294   2.043   2.680   4.590
 5799SOL     OW18295   2.627   0.342   3.570
 5799SOL    HW118296   2.625   0.283   3.489
 5799SOL    HW218297   2.564   0.419   3.555
 5800SOL     OW18298   1.153   6.367   2.218
 5800SOL    HW118299   1.216   6.415   2.157
 5800SOL    HW218300   1.165   6.268   2.207
 5801SOL     OW18301   1.971   1.558   3.058
 5801SOL    HW118302   1.980   1.651   3.093
 5801SOL    HW218303   2.016   1.552   2.968
 5802SOL     OW18304   0.552   0.132   3.219
 5802SOL    HW118305   0.523   0.141   3.124
 5802SOL    HW218306   0.614   0.054   3.227
 5803SOL     OW18307   0.295   6.696   4.428
 5803SOL    HW118308   0.290   6.600   4.403
 5803SOL    HW218309   0.349   6.745   4.359
 5804SOL     OW18310   6.618   2.228   3.251
 5804SOL    HW118311   6.682   2.238   3.175
 5804SOL    HW218312   6.604   2.131   3.271
 5805SOL     OW18313   1.025   2.611   1.834
 5805SOL    HW118314   1.040   2.559   1.749
 5805SOL    HW218315   0.988   2.549   1.904
 5806SOL     OW18316   6.684   3.844   2.185
 5806SOL    HW118317   6.621   3.771   2.157
 5806SOL    HW218318   6.689   3.913   2.113
 5807SOL     OW18319   0.914   1.603   2.260
 5807SOL    HW118320   0.887   1.689   2.217
 5807SOL    HW218321   0.924   1.532   2.190
 5808SOL     OW18322   0.073   0.658   5.434
 5808SOL    HW118323   0.004   0.705   5.488
 5808SOL    HW218324   0.161   0.661   5.481
 5809SOL     OW18325   7.020   3.711   4.146
 5809SOL    HW118326   7.007   3.671   4.056
 5809SOL    HW218327   0.005   3.639   4.215
 5810SOL     OW18328   1.871   6.536   5.647
 5810SOL    HW118329   1.830   6.598   5.581
 5810SOL    HW218330   1.873   6.443   5.609
 5811SOL     OW18331   3.942   4.926   6.728
 5811SOL    HW118332   3.952   5.024   6.743
 5811SOL    HW218333   3.866   4.909   6.666
 5812SOL     OW18334   6.118   3.635   6.323
 5812SOL    HW118335   6.160   3.583   6.398
 5812SOL    HW218336   6.093   3.726   6.355
 5813SOL     OW18337   5.267   4.414   0.626
 5813SOL    HW118338   5.286   4.499   0.675
 5813SOL    HW218339   5.266   4.431   0.528
 5814SOL     OW18340   5.930   1.115   2.632
 5814SOL    HW118341   6.003   1.061   2.674
 5814SOL    HW218342   5.931   1.208   2.669
 5815SOL     OW18343   6.496   3.933   4.775
 5815SOL    HW118344   6.541   3.951   4.688
 5815SOL    HW218345   6.565   3.912   4.845
 5816SOL     OW18346   6.798   4.183   1.115
 5816SOL    HW118347   6.733   4.189   1.040
 5816SOL    HW218348   6.820   4.275   1.148
 5817SOL     OW18349   6.878   2.629   3.805
 5817SOL    HW118350   6.884   2.534   3.836
 5817SOL    HW218351   6.930   2.687   3.868
 5818SOL     OW18352   2.622   0.401   4.481
 5818SOL    HW118353   2.559   0.324   4.478
 5818SOL    HW218354   2.692   0.389   4.411
 5819SOL     OW18355   4.571   4.393   1.121
 5819SOL    HW118356   4.611   4.311   1.082
 5819SOL    HW218357   4.477   4.375   1.149
 5820SOL     OW18358   6.924   6.925   2.698
 5820SOL    HW118359   7.002   6.986   2.708
 5820SOL    HW218360   6.909   6.873   2.782
 5821SOL     OW18361   6.360   6.599   2.053
 5821SOL    HW118362   6.324   6.691   2.043
 5821SOL    HW218363   6.390   6.564   1.964
 5822SOL     OW18364   0.567   3.857   2.468
 5822SOL    HW118365   0.573   3.956   2.449
 5822SOL    HW218366   0.522   3.811   2.392
 5823SOL     OW18367   2.449   6.829   4.945
 5823SOL    HW118368   2.354   6.842   4.972
 5823SOL    HW218369   2.473   6.732   4.952
 5824SOL     OW18370   1.898   6.375   2.008
 5824SOL    HW118371   1.943   6.285   2.009
 5824SOL    HW218372   1.961   6.443   1.970
 5825SOL     OW18373   4.402   1.858   4.894
 5825SOL    HW118374   4.313   1.860   4.939
 5825SOL    HW218375   4.402   1.787   4.824
 5826SOL     OW18376   1.610   6.247   4.579
 5826SOL    HW118377   1.620   6.192   4.662
 5826SOL    HW218378   1.646   6.339   4.595
 5827SOL     OW18379   2.159   3.731   3.181
 5827SOL    HW118380   2.177   3.649   3.127
 5827SOL    HW218381   2.121   3.705   3.270
 5828SOL     OW18382   4.651   6.940   5.646
 5828SOL    HW118383   4.659   0.009   5.601
 5828SOL    HW218384   4.606   6.876   5.584
 5829SOL     OW18385   2.065   0.081   2.747
 5829SOL    HW118386   2.081   0.136   2.666
 5829SOL    HW218387   2.032   0.139   2.821
 5830SOL     OW18388   4.239   5.646   4.311
 5830SOL    HW118389   4.188   5.731   4.323
 5830SOL    HW218390   4.174   5.570   4.297
 5831SOL     OW18391   2.657   2.462   4.289
 5831SOL    HW118392   2.699   2.384   4.335
 5831SOL    HW218393   2.727   2.533   4.273
 5832SOL     OW18394   2.436   5.487   3.680
 5832SOL    HW118395   2.393   5.427   3.748
 5832SOL    HW218396   2.533   5.463   3.672
 5833SOL     OW18397   3.055   5.029   0.642
 5833SOL    HW118398   3.153   5.026   0.664
 5833SOL    HW218399   3.010   4.950   0.683
 5834SOL     OW18400   6.667   2.498   6.396
 5834SOL    HW118401   6.620   2.586   6.391
 5834SOL    HW218402   6.729   2.497   6.474
 5835SOL     OW18403   4.232   1.421   3.440
 5835SOL    HW118404   4.299   1.377   3.500
 5835SOL    HW218405   4.279   1.456   3.359
 5836SOL     OW18406   4.644   5.892   1.376
 5836SOL    HW118407   4.635   5.989   1.355
 5836SOL    HW218408   4.606   5.838   1.300
 5837SOL     OW18409   2.941   4.069   0.283
 5837SOL    HW118410   3.001   4.032   0.212
 5837SOL    HW218411   2.932   4.168   0.270
 5838SOL     OW18412   3.269   3.462   0.026
 5838SOL    HW118413   3.357   3.464   0.074
 5838SOL    HW218414   3.249   3.368   7.019
 5839SOL     OW18415   1.761   1.495   0.418
 5839SOL    HW118416   1.693   1.453   0.358
 5839SOL    HW218417   1.810   1.423   0.468
 5840SOL     OW18418   0.950   3.653   2.980
 5840SOL    HW118419   0.956   3.553   2.970
 5840SOL    HW218420   0.900   3.675   3.064
 5841SOL     OW18421   5.034   1.699   0.725
 5841SOL    HW118422   5.080   1.787   0.734
 5841SOL    HW218423   5.013   1.682   0.629
 5842SOL     OW18424   3.306   2.052   2.280
 5842SOL    HW118425   3.249   2.081   2.358
 5842SOL    HW218426   3.251   2.049   2.197
 5843SOL     OW18427   3.339   3.118   0.737
 5843SOL    HW118428   3.304   3.075   0.654
 5843SOL    HW218429   3.412   3.183   0.713
 5844SOL     OW18430   0.772   5.188   5.286
 5844SOL    HW118431   0.705   5.147   5.346
 5844SOL    HW218432   0.863   5.150   5.306
 5845SOL     OW18433   1.762   6.767   2.392
 5845SOL    HW118434   1.845   6.780   2.446
 5845SOL    HW218435   1.699   6.843   2.409
 5846SOL     OW18436   0.676   4.832   5.530
 5846SOL    HW118437   0.752   4.896   5.545
 5846SOL    HW218438   0.710   4.738   5.540
 5847SOL     OW18439   1.487   4.441   6.237
 5847SOL    HW118440   1.420   4.515   6.233
 5847SOL    HW218441   1.576   4.476   6.207
 5848SOL     OW18442   2.295   6.767   1.807
 5848SOL    HW118443   2.209   6.751   1.760
 5848SOL    HW218444   2.339   6.679   1.828
 5849SOL     OW18445   2.688   5.492   6.465
 5849SOL    HW118446   2.719   5.585   6.485
 5849SOL    HW218447   2.597   5.477   6.505
 5850SOL     OW18448   6.571   0.904   1.909
 5850SOL    HW118449   6.615   0.853   1.835
 5850SOL    HW218450   6.630   0.905   1.989
 5851SOL     OW18451   0.324   3.793   4.834
 5851SOL    HW118452   0.378   3.722   4.789
 5851SOL    HW218453   0.380   3.876   4.843
 5852SOL     OW18454   5.076   4.184   2.720
 5852SOL    HW118455   5.048   4.280   2.720
 5852SOL    HW218456   5.037   4.139   2.639
 5853SOL     OW18457   4.796   5.006   0.375
 5853SOL    HW118458   4.712   5.050   0.343
 5853SOL    HW218459   4.847   4.973   0.296
 5854SOL     OW18460   2.916   4.421   5.387
 5854SOL    HW118461   2.887   4.484   5.459
 5854SOL    HW218462   2.923   4.470   5.300
 5855SOL     OW18463   2.107   2.617   4.270
 5855SOL    HW118464   2.105   2.518   4.282
 5855SOL    HW218465   2.109   2.662   4.359
 5856SOL     OW18466   0.577   0.564   3.011
 5856SOL    HW118467   0.569   0.657   3.046
 5856SOL    HW218468   0.579   0.500   3.088
 5857SOL     OW18469   5.589   5.228   7.015
 5857SOL    HW118470   5.539   5.180   0.066
 5857SOL    HW218471   5.569   5.186   6.926
 5858SOL     OW18472   2.180   1.512   2.376
 5858SOL    HW118473   2.215   1.603   2.353
 5858SOL    HW218474   2.191   1.451   2.297
 5859SOL     OW18475   5.390   5.081   1.794
 5859SOL    HW118476   5.343   4.994   1.784
 5859SOL    HW218477   5.362   5.125   1.880
 5860SOL     OW18478   1.472   3.315   2.975
 5860SOL    HW118479   1.376   3.295   2.953
 5860SOL    HW218480   1.513   3.236   3.020
 5861SOL     OW18481   5.910   0.661   5.324
 5861SOL    HW118482   5.992   0.624   5.281
 5861SOL    HW218483   5.908   0.636   5.421
 5862SOL     OW18484   6.727   4.903   3.065
 5862SOL    HW118485   6.728   4.924   3.163
 5862SOL    HW218486   6.644   4.851   3.043
 5863SOL     OW18487   4.046   0.100   5.897
 5863SOL    HW118488   4.081   0.166   5.963
 5863SOL    HW218489   4.003   0.148   5.821
 5864SOL     OW18490   4.047   3.192   2.851
 5864SOL    HW118491   4.036   3.179   2.950
 5864SOL    HW218492   3.960   3.174   2.805
 5865SOL     OW18493   6.423   6.699   1.499
 5865SOL    HW118494   6.343   6.640   1.501
 5865SOL    HW218495   6.394   6.795   1.505
 5866SOL     OW18496   3.722   3.368   3.257
 5866SOL    HW118497   3.733   3.465   3.275
 5866SOL    HW218498   3.740   3.316   3.340
 5867SOL     OW18499   3.247   1.696   1.603
 5867SOL    HW118500   3.260   1.677   1.506
 5867SOL    HW218501   3.196   1.781   1.614
 5868SOL     OW18502   1.602   0.452   0.641
 5868SOL    HW118503   1.631   0.500   0.558
 5868SOL    HW218504   1.617   0.510   0.721
 5869SOL     OW18505   1.655   5.551   2.661
 5869SOL    HW118506   1.640   5.523   2.566
 5869SOL    HW218507   1.679   5.471   2.716
 5870SOL     OW18508   4.499   0.536   3.577
 5870SOL    HW118509   4.406   0.524   3.542
 5870SOL    HW218510   4.528   0.631   3.563
 5871SOL     OW18511   4.145   3.422   3.684
 5871SOL    HW118512   4.125   3.358   3.759
 5871SOL    HW218513   4.210   3.491   3.716
 5872SOL     OW18514   4.181   6.334   1.123
 5872SOL    HW118515   4.151   6.400   1.054
 5872SOL    HW218516   4.102   6.298   1.172
 5873SOL     OW18517   3.833   6.111   2.072
 5873SOL    HW118518   3.862   6.019   2.096
 5873SOL    HW218519   3.845   6.126   1.974
 5874SOL     OW18520   0.215   4.807   5.373
 5874SOL    HW118521   0.181   4.868   5.302
 5874SOL    HW218522   0.306   4.836   5.401
 5875SOL     OW18523   3.941   2.228   1.285
 5875SOL    HW118524   3.883   2.296   1.240
 5875SOL    HW218525   3.910   2.215   1.380
 5876SOL     OW18526   2.943   3.182   1.964
 5876SOL    HW118527   2.911   3.255   2.024
 5876SOL    HW218528   2.965   3.101   2.018
 5877SOL     OW18529   5.207   4.066   1.667
 5877SOL    HW118530   5.211   4.165   1.680
 5877SOL    HW218531   5.113   4.035   1.678
 5878SOL     OW18532   1.871   3.659   2.524
 5878SOL    HW118533   1.901   3.754   2.525
 5878SOL    HW218534   1.951   3.599   2.522
 5879SOL     OW18535   1.825   3.549   4.225
 5879SOL    HW118536   1.852   3.460   4.188
 5879SOL    HW218537   1.900   3.588   4.278
 5880SOL     OW18538   3.161   5.718   6.864
 5880SOL    HW118539   3.232   5.743   6.930
 5880SOL    HW218540   3.071   5.724   6.907
 5881SOL     OW18541   1.525   6.435   4.260
 5881SOL    HW118542   1.474   6.405   4.340
 5881SOL    HW218543   1.602   6.491   4.289
 5882SOL     OW18544   5.322   0.261   3.219
 5882SOL    HW118545   5.235   0.216   3.198
 5882SOL    HW218546   5.370   0.210   3.291
 5883SOL     OW18547   0.616   3.250   4.804
 5883SOL    HW118548   0.532   3.261   4.751
 5883SOL    HW218549   0.641   3.338   4.845
 5884SOL     OW18550   0.521   0.829   3.130
 5884SOL    HW118551   0.539   0.796   3.223
 5884SOL    HW218552   0.575   0.911   3.112
 5885SOL     OW18553   5.719   6.435   0.818
 5885SOL    HW118554   5.692   6.495   0.893
 5885SOL    HW218555   5.798   6.474   0.770
 5886SOL     OW18556   6.039   1.917   6.342
 5886SOL    HW118557   5.983   1.946   6.420
 5886SOL    HW218558   6.135   1.938   6.360
 5887SOL     OW18559   4.084   5.814   2.647
 5887SOL    HW118560   4.072   5.782   2.742
 5887SOL    HW218561   4.065   5.739   2.584
 5888SOL     OW18562   6.667   0.309   2.242
 5888SOL    HW118563   6.628   0.223   2.210
 5888SOL    HW218564   6.764   0.296   2.261
 5889SOL     OW18565   2.548   0.007   6.820
 5889SOL    HW118566   2.559   0.097   6.863
 5889SOL    HW218567   2.584   0.010   6.727
 5890SOL     OW18568   3.890   5.151   6.010
 5890SOL    HW118569   3.919   5.110   6.097
 5890SOL    HW218570   3.797   5.123   5.990
 5891SOL     OW18571   1.995   3.801   6.247
 5891SOL    HW118572   2.051   3.719   6.243
 5891SOL    HW218573   1.898   3.775   6.256
 5892SOL     OW18574   1.998   6.341   2.555
 5892SOL    HW118575   2.037   6.325   2.464
 5892SOL    HW218576   1.911   6.293   2.563
 5893SOL     OW18577   1.704   1.808   3.218
 5893SOL    HW118578   1.690   1.713   3.192
 5893SOL    HW218579   1.616   1.850   3.241
 5894SOL     OW18580   1.263   3.495   3.636
 5894SOL    HW118581   1.266   3.504   3.735
 5894SOL    HW218582   1.340   3.439   3.605
 5895SOL     OW18583   5.627   3.810   3.261
 5895SOL    HW118584   5.534   3.845   3.275
 5895SOL    HW218585   5.627   3.711   3.268
 5896SOL     OW18586   5.549   3.224   6.221
 5896SOL    HW118587   5.601   3.284   6.161
 5896SOL    HW218588   5.608   3.153   6.258
 5897SOL     OW18589   4.580   5.035   1.097
 5897SOL    HW118590   4.548   4.945   1.129
 5897SOL    HW218591   4.527   5.063   1.017
 5898SOL     OW18592   2.911   6.376   3.188
 5898SOL    HW118593   2.861   6.463   3.191
 5898SOL    HW218594   2.970   6.370   3.268
 5899SOL     OW18595   5.835   0.163   3.735
 5899SOL    HW118596   5.794   0.149   3.645
 5899SOL    HW218597   5.903   0.091   3.752
 5900SOL     OW18598   3.859   4.853   2.068
 5900SOL    HW118599   3.777   4.852   2.011
 5900SOL    HW218600   3.833   4.841   2.164
 5901SOL     OW18601   3.071   6.449   4.836
 5901SOL    HW118602   3.132   6.526   4.847
 5901SOL    HW218603   3.021   6.457   4.749
 5902SOL     OW18604   6.005   2.228   6.912
 5902SOL    HW118605   6.065   2.147   6.908
 5902SOL    HW218606   5.990   2.252   7.008
 5903SOL     OW18607   0.496   3.205   6.514
 5903SOL    HW118608   0.518   3.236   6.606
 5903SOL    HW218609   0.418   3.257   6.478
 5904SOL     OW18610   1.233   3.195   2.580
 5904SOL    HW118611   1.269   3.131   2.512
 5904SOL    HW218612   1.171   3.259   2.536
 5905SOL     OW18613   0.130   4.588   2.742
 5905SOL    HW118614   0.080   4.671   2.717
 5905SOL    HW218615   0.109   4.516   2.677
 5906SOL     OW18616   1.048   1.187   2.672
 5906SOL    HW118617   1.011   1.096   2.653
 5906SOL    HW218618   1.147   1.184   2.668
 5907SOL     OW18619   2.203   0.628   2.470
 5907SOL    HW118620   2.108   0.620   2.501
 5907SOL    HW218621   2.239   0.536   2.452
 5908SOL     OW18622   0.911   3.050   5.922
 5908SOL    HW118623   0.964   3.121   5.876
 5908SOL    HW218624   0.908   2.968   5.865
 5909SOL     OW18625   6.497   4.502   0.359
 5909SOL    HW118626   6.473   4.577   0.421
 5909SOL    HW218627   6.594   4.508   0.336
 5910SOL     OW18628   1.658   1.669   2.838
 5910SOL    HW118629   1.566   1.707   2.826
 5910SOL    HW218630   1.655   1.596   2.907
 5911SOL     OW18631   6.287   5.760   6.463
 5911SOL    HW118632   6.194   5.786   6.489
 5911SOL    HW218633   6.341   5.746   6.546
 5912SOL     OW18634   0.106   6.968   3.756
 5912SOL    HW118635   0.139   6.954   3.849
 5912SOL    HW218636   0.077   6.881   3.716
 5913SOL     OW18637   6.411   2.033   1.002
 5913SOL    HW118638   6.420   2.122   0.956
 5913SOL    HW218639   6.343   2.040   1.075
 5914SOL     OW18640   1.181   6.474   0.333
 5914SOL    HW118641   1.243   6.540   0.377
 5914SOL    HW218642   1.167   6.396   0.393
 5915SOL     OW18643   4.268   0.775   5.882
 5915SOL    HW118644   4.259   0.772   5.982
 5915SOL    HW218645   4.284   0.682   5.848
 5916SOL     OW18646   0.931   0.253   2.134
 5916SOL    HW118647   0.897   0.334   2.086
 5916SOL    HW218648   0.923   0.173   2.074
 5917SOL     OW18649   3.241   3.048   0.476
 5917SOL    HW118650   3.319   3.042   0.414
 5917SOL    HW218651   3.220   2.957   0.512
 5918SOL     OW18652   3.495   7.017   4.308
 5918SOL    HW118653   3.477   0.090   4.340
 5918SOL    HW218654   3.445   6.952   4.365
 5919SOL     OW18655   3.038   3.176   4.441
 5919SOL    HW118656   3.031   3.090   4.390
 5919SOL    HW218657   3.062   3.157   4.536
 5920SOL     OW18658   0.545   0.330   5.834
 5920SOL    HW118659   0.515   0.358   5.742
 5920SOL    HW218660   0.477   0.267   5.873
 5921SOL     OW18661   2.739   4.305   6.931
 5921SOL    HW118662   2.703   4.304   6.838
 5921SOL    HW218663   2.822   4.361   6.935
 5922SOL     OW18664   5.342   2.871   2.347
 5922SOL    HW118665   5.423   2.813   2.339
 5922SOL    HW218666   5.293   2.850   2.431
 5923SOL     OW18667   6.057   0.941   3.394
 5923SOL    HW118668   6.051   0.947   3.295
 5923SOL    HW218669   6.139   0.890   3.420
 5924SOL     OW18670   5.558   6.468   3.928
 5924SOL    HW118671   5.584   6.395   3.866
 5924SOL    HW218672   5.602   6.553   3.899
 5925SOL     OW18673   4.175   1.492   0.640
 5925SOL    HW118674   4.226   1.510   0.556
 5925SOL    HW218675   4.201   1.402   0.676
 5926SOL     OW18676   5.308   3.782   3.271
 5926SOL    HW118677   5.303   3.699   3.216
 5926SOL    HW218678   5.344   3.759   3.362
 5927SOL     OW18679   0.909   5.254   1.904
 5927SOL    HW118680   0.813   5.267   1.881
 5927SOL    HW218681   0.966   5.267   1.823
 5928SOL     OW18682   2.741   6.947   0.031
 5928SOL    HW118683   2.732   6.873   0.098
 5928SOL    HW218684   2.677   6.932   6.976
 5929SOL     OW18685   1.009   0.693   0.648
 5929SOL    HW118686   0.927   0.736   0.610
 5929SOL    HW218687   1.046   0.627   0.582
 5930SOL     OW18688   1.865   4.020   2.231
 5930SOL    HW118689   1.864   4.097   2.296
 5930SOL    HW218690   1.934   3.954   2.258
 5931SOL     OW18691   5.152   6.211   3.126
 5931SOL    HW118692   5.115   6.302   3.147
 5931SOL    HW218693   5.236   6.221   3.073
 5932SOL     OW18694   3.006   6.645   0.278
 5932SOL    HW118695   2.912   6.679   0.285
 5932SOL    HW218696   3.006   6.546   0.286
 5933SOL     OW18697   5.930   5.860   4.380
 5933SOL    HW118698   5.982   5.834   4.462
 5933SOL    HW218699   5.889   5.778   4.340
 5934SOL     OW18700   3.036   3.336   0.652
 5934SOL    HW118701   3.110   3.363   0.591
 5934SOL    HW218702   3.074   3.291   0.733
 5935SOL     OW18703   0.854   0.454   5.317
 5935SOL    HW118704   0.877   0.552   5.316
 5935SOL    HW218705   0.899   0.411   5.396
 5936SOL     OW18706   3.503   2.958   1.704
 5936SOL    HW118707   3.544   3.045   1.676
 5936SOL    HW218708   3.521   2.942   1.801
 5937SOL     OW18709   0.415   2.443   0.942
 5937SOL    HW118710   0.384   2.374   0.877
 5937SOL    HW218711   0.496   2.409   0.991
 5938SOL     OW18712   0.146   4.069   3.954
 5938SOL    HW118713   0.176   4.021   3.872
 5938SOL    HW218714   0.130   4.166   3.933
 5939SOL     OW18715   4.398   1.436   5.646
 5939SOL    HW118716   4.488   1.402   5.673
 5939SOL    HW218717   4.401   1.535   5.639
 5940SOL     OW18718   4.730   5.215   1.712
 5940SOL    HW118719   4.689   5.134   1.753
 5940SOL    HW218720   4.734   5.289   1.780
 5941SOL     OW18721   0.171   2.028   3.044
 5941SOL    HW118722   0.218   1.962   3.104
 5941SOL    HW218723   0.116   2.089   3.100
 5942SOL     OW18724   5.353   2.627   6.519
 5942SOL    HW118725   5.262   2.646   6.483
 5942SOL    HW218726   5.408   2.584   6.448
 5943SOL     OW18727   1.893   4.846   1.356
 5943SOL    HW118728   1.992   4.831   1.357
 5943SOL    HW218729   1.849   4.779   1.296
 5944SOL     OW18730   6.214   3.508   5.731
 5944SOL    HW118731   6.308   3.481   5.709
 5944SOL    HW218732   6.208   3.608   5.733
 5945SOL     OW18733   6.693   6.462   4.915
 5945SOL    HW118734   6.696   6.562   4.912
 5945SOL    HW218735   6.675   6.426   4.823
 5946SOL     OW18736   1.970   3.094   6.637
 5946SOL    HW118737   2.042   3.143   6.686
 5946SOL    HW218738   1.965   3.128   6.543
 5947SOL     OW18739   3.327   3.472   4.822
 5947SOL    HW118740   3.334   3.493   4.920
 5947SOL    HW218741   3.316   3.374   4.809
 5948SOL     OW18742   4.521   3.556   1.240
 5948SOL    HW118743   4.589   3.518   1.302
 5948SOL    HW218744   4.558   3.557   1.147
 5949SOL     OW18745   0.489   4.142   2.982
 5949SOL    HW118746   0.556   4.213   3.001
 5949SOL    HW218747   0.529   4.052   2.998
 5950SOL     OW18748   3.156   0.043   4.540
 5950SOL    HW118749   3.221   6.998   4.501
 5950SOL    HW218750   3.105   0.000   4.614
 5951SOL     OW18751   0.163   4.094   6.668
 5951SOL    HW118752   0.067   4.098   6.698
 5951SOL    HW218753   0.167   4.097   6.568
 5952SOL     OW18754   4.004   4.221   1.654
 5952SOL    HW118755   3.976   4.149   1.718
 5952SOL    HW218756   4.103   4.230   1.654
 5953SOL     OW18757   0.359   3.832   5.767
 5953SOL    HW118758   0.326   3.927   5.763
 5953SOL    HW218759   0.367   3.804   5.863
 5954SOL     OW18760   1.810   5.440   3.910
 5954SOL    HW118761   1.808   5.508   3.984
 5954SOL    HW218762   1.718   5.403   3.897
 5955SOL     OW18763   5.213   2.737   0.561
 5955SOL    HW118764   5.202   2.713   0.658
 5955SOL    HW218765   5.147   2.686   0.507
 5956SOL     OW18766   5.231   2.991   5.265
 5956SOL    HW118767   5.201   3.027   5.353
 5956SOL    HW218768   5.169   3.024   5.193
 5957SOL     OW18769   6.711   1.780   3.609
 5957SOL    HW118770   6.805   1.804   3.633
 5957SOL    HW218771   6.649   1.851   3.641
 5958SOL     OW18772   2.995   6.617   3.699
 5958SOL    HW118773   2.896   6.605   3.687
 5958SOL    HW218774   3.040   6.614   3.609
 5959SOL     OW18775   5.374   2.694   2.813
 5959SOL    HW118776   5.412   2.608   2.777
 5959SOL    HW218777   5.418   2.716   2.900
 5960SOL     OW18778   4.642   1.162   6.562
 5960SOL    HW118779   4.598   1.214   6.634
 5960SOL    HW218780   4.679   1.077   6.600
 5961SOL     OW18781   2.639   2.422   3.664
 5961SOL    HW118782   2.631   2.450   3.569
 5961SOL    HW218783   2.733   2.392   3.682
 5962SOL     OW18784   4.871   4.841   0.605
 5962SOL    HW118785   4.810   4.847   0.684
 5962SOL    HW218786   4.841   4.904   0.534
 5963SOL     OW18787   2.339   3.835   0.890
 5963SOL    HW118788   2.268   3.814   0.957
 5963SOL    HW218789   2.319   3.787   0.805
 5964SOL     OW18790   1.883   0.134   3.475
 5964SOL    HW118791   1.862   0.143   3.378
 5964SOL    HW218792   1.980   0.152   3.491
 5965SOL     OW18793   2.600   0.417   1.131
 5965SOL    HW118794   2.635   0.348   1.195
 5965SOL    HW218795   2.602   0.380   1.038
 5966SOL     OW18796   2.800   1.639   5.041
 5966SOL    HW118797   2.884   1.590   5.019
 5966SOL    HW218798   2.777   1.625   5.137
 5967SOL     OW18799   4.672   2.429   5.332
 5967SOL    HW118800   4.739   2.355   5.334
 5967SOL    HW218801   4.584   2.394   5.301
 5968SOL     OW18802   6.009   2.422   2.500
 5968SOL    HW118803   6.017   2.488   2.575
 5968SOL    HW218804   5.929   2.444   2.445
 5969SOL     OW18805   4.704   0.124   0.659
 5969SOL    HW118806   4.656   0.178   0.590
 5969SOL    HW218807   4.775   0.180   0.702
 5970SOL     OW18808   6.594   2.930   0.738
 5970SOL    HW118809   6.583   3.029   0.735
 5970SOL    HW218810   6.528   2.891   0.802
 5971SOL     OW18811   0.124   5.575   3.709
 5971SOL    HW118812   0.220   5.589   3.731
 5971SOL    HW218813   0.098   5.634   3.633
 5972SOL     OW18814   5.792   5.199   0.467
 5972SOL    HW118815   5.813   5.261   0.392
 5972SOL    HW218816   5.858   5.213   0.541
 5973SOL     OW18817   2.716   1.239   2.240
 5973SOL    HW118818   2.760   1.255   2.152
 5973SOL    HW218819   2.753   1.303   2.308
 5974SOL     OW18820   5.974   1.773   4.470
 5974SOL    HW118821   5.896   1.795   4.412
 5974SOL    HW218822   5.962   1.816   4.560
 5975SOL     OW18823   4.027   5.368   1.593
 5975SOL    HW118824   4.069   5.458   1.609
 5975SOL    HW218825   4.004   5.359   1.496
 5976SOL     OW18826   1.675   4.202   5.430
 5976SOL    HW118827   1.711   4.236   5.517
 5976SOL    HW218828   1.652   4.105   5.440
 5977SOL     OW18829   6.651   5.376   1.018
 5977SOL    HW118830   6.674   5.329   0.934
 5977SOL    HW218831   6.580   5.445   1.000
 5978SOL     OW18832   2.845   3.758   0.003
 5978SOL    HW118833   2.899   3.723   0.079
 5978SOL    HW218834   2.755   3.787   0.037
 5979SOL     OW18835   6.401   0.156   1.202
 5979SOL    HW118836   6.385   0.235   1.261
 5979SOL    HW218837   6.313   0.111   1.183
 5980SOL     OW18838   3.013   2.402   0.753
 5980SOL    HW118839   3.049   2.481   0.802
 5980SOL    HW218840   2.923   2.378   0.790
 5981SOL     OW18841   2.841   1.946   1.369
 5981SOL    HW118842   2.937   1.942   1.396
 5981SOL    HW218843   2.790   1.999   1.437
 5982SOL     OW18844   5.372   2.805   1.437
 5982SOL    HW118845   5.352   2.901   1.419
 5982SOL    HW218846   5.470   2.794   1.455
 5983SOL     OW18847   0.195   0.985   3.758
 5983SOL    HW118848   0.215   0.961   3.852
 5983SOL    HW218849   0.200   0.904   3.700
 5984SOL     OW18850   5.989   5.911   3.535
 5984SOL    HW118851   5.936   5.953   3.609
 5984SOL    HW218852   5.936   5.913   3.450
 5985SOL     OW18853   6.626   3.562   2.404
 5985SOL    HW118854   6.564   3.555   2.482
 5985SOL    HW218855   6.574   3.579   2.321
 5986SOL     OW18856   3.927   3.842   3.619
 5986SOL    HW118857   3.864   3.800   3.684
 5986SOL    HW218858   3.892   3.931   3.590
 5987SOL     OW18859   0.128   5.842   5.306
 5987SOL    HW118860   0.146   5.815   5.211
 5987SOL    HW218861   0.052   5.789   5.342
 5988SOL     OW18862   0.950   2.683   0.069
 5988SOL    HW118863   1.035   2.675   0.018
 5988SOL    HW218864   0.958   2.758   0.136
 5989SOL     OW18865   1.407   6.894   5.373
 5989SOL    HW118866   1.455   6.827   5.429
 5989SOL    HW218867   1.318   6.857   5.345
 5990SOL     OW18868   2.540   4.598   1.749
 5990SOL    HW118869   2.632   4.562   1.761
 5990SOL    HW218870   2.534   4.647   1.662
 5991SOL     OW18871   5.355   0.781   1.122
 5991SOL    HW118872   5.273   0.836   1.109
 5991SOL    HW218873   5.331   0.684   1.114
 5992SOL     OW18874   3.536   5.784   3.093
 5992SOL    HW118875   3.627   5.769   3.132
 5992SOL    HW218876   3.494   5.696   3.071
 5993SOL     OW18877   5.968   2.096   0.435
 5993SOL    HW118878   5.955   2.005   0.394
 5993SOL    HW218879   6.062   2.104   0.468
 5994SOL     OW18880   6.623   3.474   0.081
 5994SOL    HW118881   6.698   3.530   0.045
 5994SOL    HW218882   6.641   3.451   0.176
 5995SOL     OW18883   5.058   3.535   1.301
 5995SOL    HW118884   4.981   3.579   1.347
 5995SOL    HW218885   5.056   3.437   1.320
 5996SOL     OW18886   2.529   6.777   1.256
 5996SOL    HW118887   2.473   6.786   1.338
 5996SOL    HW218888   2.625   6.770   1.282
 5997SOL     OW18889   6.533   0.584   4.026
 5997SOL    HW118890   6.538   0.582   3.926
 5997SOL    HW218891   6.542   0.679   4.058
 5998SOL     OW18892   0.032   6.118   6.823
 5998SOL    HW118893   7.008   6.199   6.785
 5998SOL    HW218894   0.099   6.146   6.892
 5999SOL     OW18895   5.063   3.274   1.427
 5999SOL    HW118896   4.967   3.278   1.453
 5999SOL    HW218897   5.118   3.318   1.498
 6000SOL     OW18898   0.568   4.050   0.936
 6000SOL    HW118899   0.503   4.119   0.905
 6000SOL    HW218900   0.526   3.992   1.005
 6001SOL     OW18901   5.794   5.345   5.893
 6001SOL    HW118902   5.723   5.416   5.893
 6001SOL    HW218903   5.802   5.306   5.984
 6002SOL     OW18904   5.381   5.244   5.320
 6002SOL    HW118905   5.320   5.272   5.246
 6002SOL    HW218906   5.401   5.146   5.312
 6003SOL     OW18907   2.554   1.960   4.897
 6003SOL    HW118908   2.635   1.934   4.844
 6003SOL    HW218909   2.518   1.879   4.943
 6004SOL     OW18910   5.330   3.228   5.045
 6004SOL    HW118911   5.388   3.146   5.048
 6004SOL    HW218912   5.249   3.209   4.990
 6005SOL     OW18913   4.146   4.168   6.978
 6005SOL    HW118914   4.127   4.266   6.974
 6005SOL    HW218915   4.241   4.153   7.004
 6006SOL     OW18916   3.191   6.035   6.637
 6006SOL    HW118917   3.272   6.078   6.597
 6006SOL    HW218918   3.201   6.031   6.736
 6007SOL     OW18919   1.954   6.257   4.642
 6007SOL    HW118920   1.872   6.231   4.692
 6007SOL    HW218921   2.027   6.279   4.706
 6008SOL     OW18922   2.255   3.879   6.483
 6008SOL    HW118923   2.226   3.933   6.405
 6008SOL    HW218924   2.247   3.934   6.566
 6009SOL     OW18925   4.146   5.121   2.628
 6009SOL    HW118926   4.232   5.110   2.578
 6009SOL    HW218927   4.083   5.047   2.603
 6010SOL     OW18928   0.731   4.571   4.827
 6010SOL    HW118929   0.747   4.518   4.744
 6010SOL    HW218930   0.639   4.610   4.824
 6011SOL     OW18931   5.909   1.235   3.177
 6011SOL    HW118932   5.843   1.160   3.181
 6011SOL    HW218933   5.869   1.317   3.218
 6012SOL     OW18934   6.483   0.380   5.907
 6012SOL    HW118935   6.469   0.478   5.894
 6012SOL    HW218936   6.538   0.344   5.832
 6013SOL     OW18937   5.961   1.643   1.935
 6013SOL    HW118938   5.997   1.571   1.876
 6013SOL    HW218939   5.861   1.643   1.932
 6014SOL     OW18940   3.231   3.031   3.794
 6014SOL    HW118941   3.228   2.981   3.881
 6014SOL    HW218942   3.138   3.061   3.770
 6015SOL     OW18943   6.192   0.209   3.965
 6015SOL    HW118944   6.223   0.158   4.045
 6015SOL    HW218945   6.131   0.152   3.910
 6016SOL     OW18946   4.071   2.099   4.414
 6016SOL    HW118947   3.978   2.096   4.378
 6016SOL    HW218948   4.124   2.169   4.366
 6017SOL     OW18949   1.107   1.456   5.652
 6017SOL    HW118950   1.152   1.523   5.711
 6017SOL    HW218951   1.176   1.408   5.598
 6018SOL     OW18952   2.753   0.999   4.013
 6018SOL    HW118953   2.755   1.023   3.916
 6018SOL    HW218954   2.714   1.075   4.065
 6019SOL     OW18955   6.111   4.595   6.291
 6019SOL    HW118956   6.043   4.642   6.348
 6019SOL    HW218957   6.184   4.559   6.349
 6020SOL     OW18958   0.810   5.295   6.070
 6020SOL    HW118959   0.885   5.337   6.020
 6020SOL    HW218960   0.835   5.201   6.096
 6021SOL     OW18961   5.631   6.576   3.559
 6021SOL    HW118962   5.693   6.500   3.581
 6021SOL    HW218963   5.665   6.624   3.478
 6022SOL     OW18964   6.332   2.891   1.871
 6022SOL    HW118965   6.259   2.827   1.847
 6022SOL    HW218966   6.300   2.955   1.941
 6023SOL     OW18967   4.342   0.232   2.240
 6023SOL    HW118968   4.318   0.180   2.322
 6023SOL    HW218969   4.435   0.269   2.251
 6024SOL     OW18970   0.930   6.473   6.466
 6024SOL    HW118971   0.879   6.422   6.397
 6024SOL    HW218972   0.941   6.416   6.547
 6025SOL     OW18973   2.536   0.511   5.030
 6025SOL    HW118974   2.451   0.536   5.076
 6025SOL    HW218975   2.614   0.529   5.090
 6026SOL     OW18976   5.981   6.049   4.194
 6026SOL    HW118977   6.001   5.993   4.113
 6026SOL    HW218978   5.960   5.988   4.271
 6027SOL     OW18979   5.446   5.319   6.059
 6027SOL    HW118980   5.513   5.257   6.099
 6027SOL    HW218981   5.356   5.299   6.098
 6028SOL     OW18982   5.809   5.730   6.173
 6028SOL    HW118983   5.728   5.674   6.184
 6028SOL    HW218984   5.810   5.803   6.242
 6029SOL     OW18985   3.393   1.278   3.140
 6029SOL    HW118986   3.484   1.307   3.169
 6029SOL    HW218987   3.346   1.354   3.097
 6030SOL     OW18988   6.067   3.425   4.352
 6030SOL    HW118989   6.026   3.513   4.326
 6030SOL    HW218990   6.132   3.397   4.281
 6031SOL     OW18991   0.156   6.185   5.157
 6031SOL    HW118992   0.140   6.279   5.127
 6031SOL    HW218993   0.190   6.131   5.081
 6032SOL     OW18994   3.359   6.474   3.121
 6032SOL    HW118995   3.342   6.544   3.190
 6032SOL    HW218996   3.393   6.517   3.037
 6033SOL     OW18997   0.608   1.371   2.633
 6033SOL    HW118998   0.616   1.410   2.542
 6033SOL    HW218999   0.641   1.276   2.632
 6034SOL     OW19000   0.131   6.841   0.776
 6034SOL    HW119001   0.046   6.833   0.828
 6034SOL    HW219002   0.137   6.766   0.710
 6035SOL     OW19003   2.675   0.499   2.467
 6035SOL    HW119004   2.704   0.587   2.429
 6035SOL    HW219005   2.643   0.439   2.394
 6036SOL     OW19006   6.314   3.361   0.607
 6036SOL    HW119007   6.333   3.397   0.516
 6036SOL    HW219008   6.384   3.394   0.671
 6037SOL     OW19009   4.642   1.853   6.200
 6037SOL    HW119010   4.635   1.830   6.103
 6037SOL    HW219011   4.732   1.826   6.235
 6038SOL     OW19012   1.293   1.156   6.120
 6038SOL    HW119013   1.305   1.151   6.219
 6038SOL    HW219014   1.244   1.076   6.088
 6039SOL     OW19015   4.028   3.519   3.965
 6039SOL    HW119016   3.934   3.509   3.932
 6039SOL    HW219017   4.065   3.606   3.933
 6040SOL     OW19018   0.326   1.757   0.750
 6040SOL    HW119019   0.243   1.812   0.743
 6040SOL    HW219020   0.340   1.730   0.845
 6041SOL     OW19021   1.325   3.451   5.742
 6041SOL    HW119022   1.388   3.479   5.815
 6041SOL    HW219023   1.376   3.404   5.670
 6042SOL     OW19024   3.213   5.781   3.719
 6042SOL    HW119025   3.187   5.823   3.806
 6042SOL    HW219026   3.229   5.683   3.733
 6043SOL     OW19027   2.522   0.062   2.978
 6043SOL    HW119028   2.534   7.018   3.053
 6043SOL    HW219029   2.524   0.012   2.891
 6044SOL     OW19030   0.392   3.253   0.897
 6044SOL    HW119031   0.333   3.264   0.977
 6044SOL    HW219032   0.335   3.242   0.815
 6045SOL     OW19033   6.024   1.326   3.732
 6045SOL    HW119034   6.022   1.228   3.754
 6045SOL    HW219035   5.942   1.350   3.680
 6046SOL     OW19036   3.359   3.215   2.760
 6046SOL    HW119037   3.362   3.242   2.663
 6046SOL    HW219038   3.388   3.120   2.768
 6047SOL     OW19039   6.923   1.513   0.399
 6047SOL    HW119040   6.976   1.428   0.397
 6047SOL    HW219041   6.911   1.542   0.494
 6048SOL     OW19042   5.629   5.936   3.190
 6048SOL    HW119043   5.641   5.962   3.095
 6048SOL    HW219044   5.715   5.948   3.240
 6049SOL     OW19045   4.289   5.261   6.891
 6049SOL    HW119046   4.276   5.353   6.929
 6049SOL    HW219047   4.368   5.261   6.830
 6050SOL     OW19048   2.807   5.452   2.165
 6050SOL    HW119049   2.750   5.423   2.242
 6050SOL    HW219050   2.883   5.387   2.153
 6051SOL     OW19051   0.613   1.556   3.084
 6051SOL    HW119052   0.539   1.604   3.131
 6051SOL    HW219053   0.582   1.531   2.992
 6052SOL     OW19054   5.249   5.530   0.605
 6052SOL    HW119055   5.312   5.500   0.676
 6052SOL    HW219056   5.194   5.453   0.574
 6053SOL     OW19057   4.605   2.699   6.292
 6053SOL    HW119058   4.681   2.674   6.353
 6053SOL    HW219059   4.518   2.677   6.336
 6054SOL     OW19060   4.017   4.004   1.004
 6054SOL    HW119061   3.972   4.000   1.093
 6054SOL    HW219062   3.983   3.930   0.945
 6055SOL     OW19063   2.784   3.970   1.186
 6055SOL    HW119064   2.819   3.987   1.094
 6055SOL    HW219065   2.686   3.990   1.189
 6056SOL     OW19066   4.864   6.248   3.362
 6056SOL    HW119067   4.797   6.243   3.436
 6056SOL    HW219068   4.900   6.156   3.344
 6057SOL     OW19069   5.386   0.503   4.093
 6057SOL    HW119070   5.481   0.481   4.074
 6057SOL    HW219071   5.371   0.509   4.191
 6058SOL     OW19072   6.943   2.528   5.826
 6058SOL    HW119073   6.916   2.551   5.732
 6058SOL    HW219074   6.934   2.430   5.840
 6059SOL     OW19075   4.463   2.770   6.645
 6059SOL    HW119076   4.560   2.777   6.668
 6059SOL    HW219077   4.411   2.739   6.725
 6060SOL     OW19078   2.354   2.402   0.367
 6060SOL    HW119079   2.277   2.466   0.373
 6060SOL    HW219080   2.425   2.442   0.309
 6061SOL     OW19081   3.693   4.189   0.044
 6061SOL    HW119082   3.615   4.251   0.053
 6061SOL    HW219083   3.664   4.105   7.018
 6062SOL     OW19084   1.970   2.117   6.382
 6062SOL    HW119085   1.982   2.214   6.402
 6062SOL    HW219086   2.010   2.095   6.293
 6063SOL     OW19087   4.475   3.791   6.776
 6063SOL    HW119088   4.527   3.736   6.710
 6063SOL    HW219089   4.538   3.830   6.843
 6064SOL     OW19090   6.298   6.060   1.093
 6064SOL    HW119091   6.229   5.988   1.101
 6064SOL    HW219092   6.283   6.111   1.008
 6065SOL     OW19093   2.360   6.420   1.609
 6065SOL    HW119094   2.319   6.331   1.588
 6065SOL    HW219095   2.412   6.452   1.529
 6066SOL     OW19096   5.349   5.959   2.899
 6066SOL    HW119097   5.311   5.920   2.983
 6066SOL    HW219098   5.329   6.057   2.896
 6067SOL     OW19099   0.049   6.015   5.860
 6067SOL    HW119100   0.110   6.052   5.930
 6067SOL    HW219101   7.016   5.940   5.898
 6068SOL     OW19102   5.017   2.221   4.279
 6068SOL    HW119103   5.105   2.269   4.273
 6068SOL    HW219104   4.948   2.273   4.228
 6069SOL     OW19105   6.811   4.291   6.261
 6069SOL    HW119106   6.869   4.211   6.273
 6069SOL    HW219107   6.867   4.372   6.243
 6070SOL     OW19108   2.256   1.729   1.031
 6070SOL    HW119109   2.340   1.783   1.039
 6070SOL    HW219110   2.260   1.650   1.091
 6071SOL     OW19111   5.774   1.208   5.829
 6071SOL    HW119112   5.783   1.175   5.923
 6071SOL    HW219113   5.798   1.134   5.766
 6072SOL     OW19114   6.555   3.693   6.733
 6072SOL    HW119115   6.597   3.606   6.759
 6072SOL    HW219116   6.535   3.746   6.816
 6073SOL     OW19117   5.089   3.600   0.139
 6073SOL    HW119118   5.162   3.668   0.128
 6073SOL    HW219119   5.059   3.568   0.049
 6074SOL     OW19120   1.306   6.573   2.122
 6074SOL    HW119121   1.356   6.567   2.208
 6074SOL    HW219122   1.370   6.595   2.048
 6075SOL     OW19123   5.886   0.699   6.792
 6075SOL    HW119124   5.937   0.716   6.707
 6075SOL    HW219125   5.790   0.685   6.771
 6076SOL     OW19126   0.679   6.098   2.700
 6076SOL    HW119127   0.677   6.159   2.621
 6076SOL    HW219128   0.774   6.079   2.725
 6077SOL     OW19129   5.262   5.956   2.612
 6077SOL    HW119130   5.194   6.007   2.666
 6077SOL    HW219131   5.315   6.019   2.557
 6078SOL     OW19132   4.719   3.645   0.184
 6078SOL    HW119133   4.639   3.690   0.223
 6078SOL    HW219134   4.753   3.697   0.106
 6079SOL     OW19135   3.142   2.185   0.025
 6079SOL    HW119136   3.155   2.255   0.095
 6079SOL    HW219137   3.057   2.135   0.044
 6080SOL     OW19138   6.556   3.884   5.964
 6080SOL    HW119139   6.510   3.911   5.879
 6080SOL    HW219140   6.600   3.795   5.952
 6081SOL     OW19141   1.805   3.354   3.740
 6081SOL    HW119142   1.810   3.256   3.723
 6081SOL    HW219143   1.712   3.380   3.764
 6082SOL     OW19144   4.920   1.479   1.495
 6082SOL    HW119145   4.971   1.510   1.575
 6082SOL    HW219146   4.837   1.534   1.485
 6083SOL     OW19147   4.849   0.258   6.455
 6083SOL    HW119148   4.847   0.227   6.359
 6083SOL    HW219149   4.911   0.336   6.463
 6084SOL     OW19150   6.652   5.515   2.841
 6084SOL    HW119151   6.633   5.423   2.875
 6084SOL    HW219152   6.568   5.569   2.842
 6085SOL     OW19153   0.821   6.510   0.365
 6085SOL    HW119154   0.847   6.478   0.274
 6085SOL    HW219155   0.893   6.486   0.430
 6086SOL     OW19156   3.437   3.942   0.130
 6086SOL    HW119157   3.407   3.968   0.038
 6086SOL    HW219158   3.531   3.908   0.127
 6087SOL     OW19159   4.530   0.251   0.449
 6087SOL    HW119160   4.437   0.238   0.485
 6087SOL    HW219161   4.540   0.346   0.417
 6088SOL     OW19162   4.450   5.502   2.809
 6088SOL    HW119163   4.516   5.562   2.765
 6088SOL    HW219164   4.498   5.424   2.850
 6089SOL     OW19165   5.975   3.679   3.555
 6089SOL    HW119166   5.905   3.737   3.597
 6089SOL    HW219167   5.970   3.688   3.456
 6090SOL     OW19168   3.881   5.486   4.088
 6090SOL    HW119169   3.978   5.511   4.089
 6090SOL    HW219170   3.837   5.521   4.171
 6091SOL     OW19171   0.982   1.154   1.168
 6091SOL    HW119172   1.013   1.183   1.258
 6091SOL    HW219173   0.935   1.230   1.123
 6092SOL     OW19174   2.805   0.063   1.501
 6092SOL    HW119175   2.744   0.062   1.580
 6092SOL    HW219176   2.809   6.991   1.461
 6093SOL     OW19177   2.479   2.349   2.204
 6093SOL    HW119178   2.471   2.406   2.122
 6093SOL    HW219179   2.390   2.310   2.225
 6094SOL     OW19180   0.599   6.046   5.373
 6094SOL    HW119181   0.552   6.007   5.294
 6094SOL    HW219182   0.617   5.974   5.440
 6095SOL     OW19183   4.924   4.690   1.651
 6095SOL    HW119184   4.978   4.607   1.670
 6095SOL    HW219185   4.949   4.761   1.717
 6096SOL     OW19186   5.005   5.772   3.171
 6096SOL    HW119187   4.954   5.737   3.092
 6096SOL    HW219188   4.999   5.705   3.245
 6097SOL     OW19189   2.071   4.801   2.497
 6097SOL    HW119190   2.128   4.719   2.492
 6097SOL    HW219191   1.997   4.794   2.431
 6098SOL     OW19192   6.473   0.449   4.985
 6098SOL    HW119193   6.497   0.543   4.960
 6098SOL    HW219194   6.495   0.388   4.909
 6099SOL     OW19195   3.517   0.440   5.784
 6099SOL    HW119196   3.429   0.396   5.798
 6099SOL    HW219197   3.569   0.441   5.869
 6100SOL     OW19198   0.730   5.434   5.204
 6100SOL    HW119199   0.758   5.342   5.230
 6100SOL    HW219200   0.805   5.479   5.155
 6101SOL     OW19201   6.853   3.519   1.530
 6101SOL    HW119202   6.913   3.599   1.529
 6101SOL    HW219203   6.908   3.437   1.543
 6102SOL     OW19204   3.614   0.165   2.728
 6102SOL    HW119205   3.666   0.237   2.774
 6102SOL    HW219206   3.564   0.205   2.650
 6103SOL     OW19207   6.295   1.712   2.325
 6103SOL    HW119208   6.374   1.772   2.309
 6103SOL    HW219209   6.221   1.765   2.367
 6104SOL     OW19210   0.047   0.681   4.965
 6104SOL    HW119211   0.014   0.587   4.955
 6104SOL    HW219212   0.021   0.734   4.884
 6105SOL     OW19213   3.430   4.608   6.221
 6105SOL    HW119214   3.485   4.583   6.301
 6105SOL    HW219215   3.352   4.546   6.214
 6106SOL     OW19216   6.163   5.109   5.411
 6106SOL    HW119217   6.150   5.030   5.470
 6106SOL    HW219218   6.212   5.082   5.328
 6107SOL     OW19219   5.771   4.911   5.221
 6107SOL    HW119220   5.843   4.887   5.155
 6107SOL    HW219221   5.804   4.892   5.313
 6108SOL     OW19222   1.976   1.135   6.897
 6108SOL    HW119223   2.041   1.130   6.821
 6108SOL    HW219224   1.974   1.228   6.933
 6109SOL     OW19225   6.706   6.636   3.826
 6109SOL    HW119226   6.729   6.682   3.911
 6109SOL    HW219227   6.782   6.646   3.761
 6110SOL     OW19228   1.854   1.335   4.296
 6110SOL    HW119229   1.940   1.293   4.268
 6110SOL    HW219230   1.843   1.423   4.251
 6111SOL     OW19231   2.183   3.561   1.096
 6111SOL    HW119232   2.113   3.523   1.036
 6111SOL    HW219233   2.274   3.536   1.061
 6112SOL     OW19234   4.894   6.787   3.840
 6112SOL    HW119235   4.853   6.859   3.896
 6112SOL    HW219236   4.989   6.774   3.868
 6113SOL     OW19237   2.034   5.698   0.784
 6113SOL    HW119238   1.959   5.711   0.719
 6113SOL    HW219239   2.034   5.774   0.850
 6114SOL     OW19240   5.212   2.052   0.876
 6114SOL    HW119241   5.225   2.023   0.781
 6114SOL    HW219242   5.151   2.131   0.879
 6115SOL     OW19243   0.972   0.992   6.132
 6115SOL    HW119244   1.070   0.972   6.139
 6115SOL    HW219245   0.959   1.088   6.108
 6116SOL     OW19246   5.569   3.419   6.864
 6116SOL    HW119247   5.642   3.483   6.889
 6116SOL    HW219248   5.581   3.390   6.769
 6117SOL     OW19249   1.576   2.086   1.497
 6117SOL    HW119250   1.517   2.030   1.556
 6117SOL    HW219251   1.587   2.177   1.538
 6118SOL     OW19252   6.001   1.327   2.014
 6118SOL    HW119253   6.035   1.393   1.947
 6118SOL    HW219254   5.904   1.308   1.995
 6119SOL     OW19255   6.311   1.642   6.699
 6119SOL    HW119256   6.390   1.702   6.693
 6119SOL    HW219257   6.231   1.688   6.660
 6120SOL     OW19258   3.024   0.675   4.205
 6120SOL    HW119259   3.003   0.767   4.238
 6120SOL    HW219260   2.942   0.633   4.166
 6121SOL     OW19261   2.049   2.284   4.850
 6121SOL    HW119262   1.960   2.280   4.803
 6121SOL    HW219263   2.122   2.274   4.783
 6122SOL     OW19264   5.496   4.972   5.185
 6122SOL    HW119265   5.445   4.893   5.221
 6122SOL    HW219266   5.594   4.952   5.186
 6123SOL     OW19267   5.785   1.885   5.374
 6123SOL    HW119268   5.881   1.899   5.395
 6123SOL    HW219269   5.767   1.787   5.364
 6124SOL     OW19270   2.656   5.799   4.170
 6124SOL    HW119271   2.630   5.888   4.134
 6124SOL    HW219272   2.669   5.806   4.269
 6125SOL     OW19273   2.948   1.762   6.188
 6125SOL    HW119274   2.911   1.672   6.211
 6125SOL    HW219275   3.043   1.767   6.218
 6126SOL     OW19276   5.780   2.923   6.121
 6126SOL    HW119277   5.755   2.975   6.203
 6126SOL    HW219278   5.871   2.952   6.090
 6127SOL     OW19279   4.935   2.142   2.620
 6127SOL    HW119280   5.006   2.091   2.669
 6127SOL    HW219281   4.918   2.097   2.532
 6128SOL     OW19282   5.710   5.679   6.761
 6128SOL    HW119283   5.652   5.624   6.702
 6128SOL    HW219284   5.803   5.643   6.761
 6129SOL     OW19285   2.219   5.741   2.410
 6129SOL    HW119286   2.224   5.662   2.470
 6129SOL    HW219287   2.180   5.819   2.460
 6130SOL     OW19288   5.771   2.985   0.481
 6130SOL    HW119289   5.687   3.034   0.504
 6130SOL    HW219290   5.790   2.997   0.383
 6131SOL     OW19291   6.244   1.985   2.900
 6131SOL    HW119292   6.176   1.954   2.966
 6131SOL    HW219293   6.336   1.960   2.932
 6132SOL     OW19294   4.084   0.829   6.119
 6132SOL    HW119295   4.097   0.928   6.123
 6132SOL    HW219296   3.987   0.807   6.136
 6133SOL     OW19297   0.487   2.385   2.930
 6133SOL    HW119298   0.568   2.418   2.978
 6133SOL    HW219299   0.414   2.369   2.996
 6134SOL     OW19300   0.511   6.434   5.740
 6134SOL    HW119301   0.605   6.409   5.767
 6134SOL    HW219302   0.510   6.458   5.643
 6135SOL     OW19303   0.264   6.819   0.198
 6135SOL    HW119304   0.249   6.866   0.285
 6135SOL    HW219305   0.210   6.862   0.126
 6136SOL     OW19306   0.916   2.593   2.937
 6136SOL    HW119307   1.008   2.619   2.910
 6136SOL    HW219308   0.902   2.614   3.033
 6137SOL     OW19309   0.040   4.163   1.275
 6137SOL    HW119310   0.006   4.110   1.198
 6137SOL    HW219311   6.988   4.223   1.309
 6138SOL     OW19312   4.772   0.311   2.009
 6138SOL    HW119313   4.687   0.361   2.024
 6138SOL    HW219314   4.813   0.339   1.922
 6139SOL     OW19315   1.533   0.923   4.898
 6139SOL    HW119316   1.456   0.891   4.952
 6139SOL    HW219317   1.592   0.980   4.955
 6140SOL     OW19318   1.703   0.055   2.866
 6140SOL    HW119319   1.735   0.148   2.883
 6140SOL    HW219320   1.604   0.056   2.854
 6141SOL     OW19321   0.914   0.640   5.989
 6141SOL    HW119322   0.871   0.730   5.978
 6141SOL    HW219323   0.934   0.624   6.085
 6142SOL     OW19324   6.656   0.450   1.368
 6142SOL    HW119325   6.661   0.472   1.465
 6142SOL    HW219326   6.748   0.426   1.335
 6143SOL     OW19327   0.226   3.418   5.377
 6143SOL    HW119328   0.212   3.464   5.464
 6143SOL    HW219329   0.157   3.449   5.311
 6144SOL     OW19330   4.204   5.342   2.757
 6144SOL    HW119331   4.178   5.258   2.710
 6144SOL    HW219332   4.296   5.331   2.795
 6145SOL     OW19333   4.846   3.792   3.919
 6145SOL    HW119334   4.846   3.748   3.830
 6145SOL    HW219335   4.817   3.887   3.909
 6146SOL     OW19336   5.723   0.082   5.080
 6146SOL    HW119337   5.799   0.147   5.084
 6146SOL    HW219338   5.699   0.064   4.984
 6147SOL     OW19339   1.260   2.662   5.080
 6147SOL    HW119340   1.247   2.750   5.033
 6147SOL    HW219341   1.195   2.595   5.043
 6148SOL     OW19342   3.981   5.101   7.019
 6148SOL    HW119343   4.019   5.014   0.030
 6148SOL    HW219344   4.028   5.130   6.936
 6149SOL     OW19345   3.363   0.992   1.306
 6149SOL    HW119346   3.340   0.923   1.238
 6149SOL    HW219347   3.428   0.954   1.372
 6150SOL     OW19348   1.166   4.232   5.328
 6150SOL    HW119349   1.122   4.145   5.304
 6150SOL    HW219350   1.252   4.241   5.278
 6151SOL     OW19351   4.446   5.120   3.155
 6151SOL    HW119352   4.482   5.182   3.225
 6151SOL    HW219353   4.365   5.161   3.113
 6152SOL     OW19354   1.494   4.544   4.024
 6152SOL    HW119355   1.534   4.618   3.969
 6152SOL    HW219356   1.403   4.522   3.989
 6153SOL     OW19357   5.103   5.698   1.076
 6153SOL    HW119358   5.110   5.657   0.986
 6153SOL    HW219359   5.052   5.636   1.137
 6154SOL     OW19360   5.155   3.513   2.383
 6154SOL    HW119361   5.217   3.457   2.438
 6154SOL    HW219362   5.174   3.499   2.286
 6155SOL     OW19363   2.202   1.681   3.343
 6155SOL    HW119364   2.178   1.776   3.321
 6155SOL    HW219365   2.264   1.645   3.273
 6156SOL     OW19366   5.293   4.641   1.282
 6156SOL    HW119367   5.263   4.567   1.221
 6156SOL    HW219368   5.388   4.625   1.309
 6157SOL     OW19369   0.626   2.637   1.711
 6157SOL    HW119370   0.659   2.598   1.797
 6157SOL    HW219371   0.599   2.732   1.727
 6158SOL     OW19372   3.016   2.176   4.751
 6158SOL    HW119373   2.922   2.196   4.727
 6158SOL    HW219374   3.040   2.223   4.835
 6159SOL     OW19375   6.721   2.345   0.276
 6159SOL    HW119376   6.646   2.296   0.320
 6159SOL    HW219377   6.779   2.386   0.346
 6160SOL     OW19378   1.150   0.515   1.131
 6160SOL    HW119379   1.224   0.448   1.125
 6160SOL    HW219380   1.167   0.589   1.066
 6161SOL     OW19381   4.390   3.476   6.567
 6161SOL    HW119382   4.467   3.524   6.608
 6161SOL    HW219383   4.319   3.541   6.542
 6162SOL     OW19384   6.252   5.333   2.288
 6162SOL    HW119385   6.292   5.347   2.197
 6162SOL    HW219386   6.152   5.337   2.281
 6163SOL     OW19387   6.049   6.118   3.182
 6163SOL    HW119388   5.992   6.189   3.141
 6163SOL    HW219389   6.105   6.157   3.255
 6164SOL     OW19390   3.083   3.851   4.325
 6164SOL    HW119391   3.111   3.758   4.347
 6164SOL    HW219392   2.998   3.849   4.272
 6165SOL     OW19393   3.382   1.543   0.181
 6165SOL    HW119394   3.296   1.493   0.192
 6165SOL    HW219395   3.435   1.539   0.266
 6166SOL     OW19396   2.332   2.700   6.493
 6166SOL    HW119397   2.324   2.702   6.394
 6166SOL    HW219398   2.255   2.747   6.534
 6167SOL     OW19399   1.748   3.349   2.813
 6167SOL    HW119400   1.835   3.305   2.790
 6167SOL    HW219401   1.701   3.295   2.883
 6168SOL     OW19402   0.343   4.005   3.584
 6168SOL    HW119403   0.334   4.024   3.487
 6168SOL    HW219404   0.262   3.956   3.617
 6169SOL     OW19405   2.033   0.783   6.769
 6169SOL    HW119406   2.040   0.788   6.670
 6169SOL    HW219407   2.123   0.764   6.808
 6170SOL     OW19408   2.795   4.066   0.940
 6170SOL    HW119409   2.711   4.077   0.887
 6170SOL    HW219410   2.868   4.034   0.880
 6171SOL     OW19411   2.206   3.926   2.053
 6171SOL    HW119412   2.220   3.835   2.014
 6171SOL    HW219413   2.183   3.917   2.150
 6172SOL     OW19414   2.462   5.573   2.315
 6172SOL    HW119415   2.396   5.598   2.386
 6172SOL    HW219416   2.417   5.579   2.225
 6173SOL     OW19417   1.393   5.892   2.174
 6173SOL    HW119418   1.374   5.800   2.209
 6173SOL    HW219419   1.403   5.889   2.075
 6174SOL     OW19420   5.550   4.767   2.134
 6174SOL    HW119421   5.508   4.857   2.147
 6174SOL    HW219422   5.488   4.696   2.167
 6175SOL     OW19423   5.034   0.238   3.169
 6175SOL    HW119424   4.942   0.198   3.170
 6175SOL    HW219425   5.027   0.337   3.153
 6176SOL     OW19426   5.916   3.107   6.455
 6176SOL    HW119427   5.989   3.079   6.393
 6176SOL    HW219428   5.955   3.129   6.544
 6177SOL     OW19429   6.798   2.728   1.196
 6177SOL    HW119430   6.771   2.637   1.164
 6177SOL    HW219431   6.795   2.730   1.296
 6178SOL     OW19432   5.947   3.409   1.544
 6178SOL    HW119433   6.032   3.462   1.549
 6178SOL    HW219434   5.894   3.439   1.464
 6179SOL     OW19435   0.779   2.180   5.674
 6179SOL    HW119436   0.835   2.215   5.599
 6179SOL    HW219437   0.761   2.083   5.659
 6180SOL     OW19438   3.556   6.693   6.542
 6180SOL    HW119439   3.589   6.687   6.447
 6180SOL    HW219440   3.516   6.783   6.558
 6181SOL     OW19441   5.358   5.946   0.234
 6181SOL    HW119442   5.314   5.855   0.239
 6181SOL    HW219443   5.315   5.999   0.162
 6182SOL     OW19444   4.657   6.453   6.737
 6182SOL    HW119445   4.735   6.507   6.706
 6182SOL    HW219446   4.575   6.480   6.686
 6183SOL     OW19447   2.905   0.815   3.183
 6183SOL    HW119448   2.859   0.861   3.259
 6183SOL    HW219449   2.998   0.791   3.210
 6184SOL     OW19450   6.420   0.639   6.321
 6184SOL    HW119451   6.337   0.585   6.311
 6184SOL    HW219452   6.444   0.679   6.232
 6185SOL     OW19453   0.822   3.822   6.209
 6185SOL    HW119454   0.806   3.752   6.278
 6185SOL    HW219455   0.735   3.869   6.188
 6186SOL     OW19456   5.670   6.985   4.842
 6186SOL    HW119457   5.679   6.886   4.832
 6186SOL    HW219458   5.720   0.011   4.768
 6187SOL     OW19459   3.947   5.214   4.211
 6187SOL    HW119460   3.862   5.162   4.209
 6187SOL    HW219461   3.985   5.220   4.118
 6188SOL     OW19462   2.763   0.219   1.901
 6188SOL    HW119463   2.778   0.137   1.845
 6188SOL    HW219464   2.744   0.297   1.841
 6189SOL     OW19465   5.977   5.301   3.467
 6189SOL    HW119466   5.948   5.367   3.535
 6189SOL    HW219467   6.035   5.346   3.399
 6190SOL     OW19468   5.171   2.601   6.772
 6190SOL    HW119469   5.170   2.701   6.770
 6190SOL    HW219470   5.213   2.567   6.687
 6191SOL     OW19471   6.679   2.243   6.600
 6191SOL    HW119472   6.682   2.222   6.502
 6191SOL    HW219473   6.770   2.231   6.639
 6192SOL     OW19474   3.249   2.480   0.123
 6192SOL    HW119475   3.261   2.499   0.220
 6192SOL    HW219476   3.153   2.457   0.105
 6193SOL     OW19477   5.490   0.147   1.161
 6193SOL    HW119478   5.584   0.162   1.132
 6193SOL    HW219479   5.443   0.235   1.169
 6194SOL     OW19480   2.174   0.394   0.290
 6194SOL    HW119481   2.148   0.321   0.353
 6194SOL    HW219482   2.126   0.478   0.314
 6195SOL     OW19483   2.846   6.583   6.254
 6195SOL    HW119484   2.942   6.567   6.279
 6195SOL    HW219485   2.789   6.581   6.335
 6196SOL     OW19486   0.063   1.052   6.566
 6196SOL    HW119487   0.130   1.127   6.573
 6196SOL    HW219488   0.095   0.974   6.619
 6197SOL     OW19489   2.275   3.035   0.453
 6197SOL    HW119490   2.194   3.045   0.510
 6197SOL    HW219491   2.267   2.951   0.399
 6198SOL     OW19492   4.313   5.092   2.422
 6198SOL    HW119493   4.222   5.066   2.391
 6198SOL    HW219494   4.377   5.017   2.407
 6199SOL     OW19495   1.228   0.601   6.356
 6199SOL    HW119496   1.277   0.608   6.269
 6199SOL    HW219497   1.294   0.587   6.431
 6200SOL     OW19498   3.359   0.007   5.804
 6200SOL    HW119499   3.259   0.011   5.811
 6200SOL    HW219500   3.400   0.072   5.868
 6201SOL     OW19501   2.479   4.409   4.253
 6201SOL    HW119502   2.540   4.410   4.174
 6201SOL    HW219503   2.420   4.329   4.249
 6202SOL     OW19504   3.307   2.596   1.409
 6202SOL    HW119505   3.322   2.581   1.507
 6202SOL    HW219506   3.232   2.539   1.377
 6203SOL     OW19507   4.731   1.849   5.268
 6203SOL    HW119508   4.698   1.760   5.237
 6203SOL    HW219509   4.811   1.876   5.215
 6204SOL     OW19510   1.454   6.415   5.775
 6204SOL    HW119511   1.425   6.494   5.721
 6204SOL    HW219512   1.512   6.356   5.720
 6205SOL     OW19513   5.638   5.886   0.115
 6205SOL    HW119514   5.635   5.788   0.097
 6205SOL    HW219515   5.593   5.906   0.202
 6206SOL     OW19516   5.160   0.031   3.050
 6206SOL    HW119517   5.233   0.067   2.991
 6206SOL    HW219518   5.096   0.105   3.072
 6207SOL     OW19519   1.661   3.970   4.727
 6207SOL    HW119520   1.572   4.003   4.698
 6207SOL    HW219521   1.662   3.870   4.727
 6208SOL     OW19522   5.539   6.326   6.286
 6208SOL    HW119523   5.480   6.348   6.209
 6208SOL    HW219524   5.542   6.226   6.299
 6209SOL     OW19525   3.412   5.173   0.893
 6209SOL    HW119526   3.481   5.193   0.963
 6209SOL    HW219527   3.389   5.257   0.843
 6210SOL     OW19528   5.852   4.866   3.599
 6210SOL    HW119529   5.905   4.891   3.518
 6210SOL    HW219530   5.758   4.896   3.588
 6211SOL     OW19531   2.270   0.687   5.013
 6211SOL    HW119532   2.188   0.742   5.001
 6211SOL    HW219533   2.247   0.602   5.061
 6212SOL     OW19534   6.815   6.470   3.483
 6212SOL    HW119535   6.871   6.396   3.521
 6212SOL    HW219536   6.855   6.558   3.508
 6213SOL     OW19537   0.361   6.486   6.191
 6213SOL    HW119538   0.443   6.453   6.144
 6213SOL    HW219539   0.383   6.502   6.288
 6214SOL     OW19540   6.563   4.741   2.697
 6214SOL    HW119541   6.499   4.796   2.750
 6214SOL    HW219542   6.513   4.685   2.631
 6215SOL     OW19543   2.820   4.539   0.984
 6215SOL    HW119544   2.896   4.555   0.921
 6215SOL    HW219545   2.741   4.504   0.933
 6216SOL     OW19546   6.469   1.755   2.950
 6216SOL    HW119547   6.543   1.821   2.940
 6216SOL    HW219548   6.480   1.682   2.883
 6217SOL     OW19549   5.564   3.062   1.847
 6217SOL    HW119550   5.519   2.975   1.868
 6217SOL    HW219551   5.512   3.137   1.887
 6218SOL     OW19552   3.715   5.113   4.557
 6218SOL    HW119553   3.636   5.125   4.617
 6218SOL    HW219554   3.689   5.129   4.462
 6219SOL     OW19555   0.781   1.776   4.576
 6219SOL    HW119556   0.783   1.849   4.644
 6219SOL    HW219557   0.687   1.747   4.560
 6220SOL     OW19558   1.443   4.194   5.186
 6220SOL    HW119559   1.482   4.265   5.244
 6220SOL    HW219560   1.503   4.114   5.186
 6221SOL     OW19561   4.128   4.842   4.616
 6221SOL    HW119562   4.194   4.915   4.599
 6221SOL    HW219563   4.060   4.874   4.683
 6222SOL     OW19564   7.018   1.295   1.064
 6222SOL    HW119565   6.999   1.342   1.150
 6222SOL    HW219566   6.978   1.347   0.988
 6223SOL     OW19567   5.411   3.796   4.816
 6223SOL    HW119568   5.379   3.780   4.723
 6223SOL    HW219569   5.333   3.799   4.878
 6224SOL     OW19570   2.796   0.804   5.218
 6224SOL    HW119571   2.846   0.744   5.281
 6224SOL    HW219572   2.700   0.777   5.216
 6225SOL     OW19573   4.537   2.294   6.811
 6225SOL    HW119574   4.612   2.307   6.747
 6225SOL    HW219575   4.551   2.352   6.891
 6226SOL     OW19576   6.222   6.831   4.693
 6226SOL    HW119577   6.204   6.755   4.755
 6226SOL    HW219578   6.254   6.910   4.745
 6227SOL     OW19579   2.985   4.496   6.417
 6227SOL    HW119580   2.891   4.497   6.383
 6227SOL    HW219581   3.048   4.515   6.342
 6228SOL     OW19582   0.101   0.561   2.953
 6228SOL    HW119583   0.083   0.467   2.981
 6228SOL    HW219584   0.071   0.624   3.025
 6229SOL     OW19585   1.960   2.733   2.121
 6229SOL    HW119586   1.944   2.676   2.041
 6229SOL    HW219587   2.009   2.816   2.094
 6230SOL     OW19588   2.143   2.259   3.252
 6230SOL    HW119589   2.073   2.226   3.316
 6230SOL    HW219590   2.169   2.352   3.276
 6231SOL     OW19591   0.117   5.212   1.475
 6231SOL    HW119592   0.193   5.167   1.521
 6231SOL    HW219593   0.122   5.193   1.377
 6232SOL     OW19594   0.952   1.182   6.518
 6232SOL    HW119595   0.929   1.267   6.471
 6232SOL    HW219596   0.903   1.106   6.476
 6233SOL     OW19597   4.656   2.050   0.257
 6233SOL    HW119598   4.579   2.030   0.196
 6233SOL    HW219599   4.643   2.141   0.298
 6234SOL     OW19600   2.324   2.336   3.635
 6234SOL    HW119601   2.380   2.311   3.556
 6234SOL    HW219602   2.384   2.366   3.710
 6235SOL     OW19603   2.539   6.381   3.686
 6235SOL    HW119604   2.565   6.285   3.700
 6235SOL    HW219605   2.452   6.399   3.733
 6236SOL     OW19606   6.793   3.732   0.368
 6236SOL    HW119607   6.818   3.817   0.321
 6236SOL    HW219608   6.696   3.714   0.354
 6237SOL     OW19609   4.383   6.984   0.373
 6237SOL    HW119610   4.470   7.008   0.330
 6237SOL    HW219611   4.400   6.947   0.464
 6238SOL     OW19612   4.741   4.217   1.001
 6238SOL    HW119613   4.792   4.185   1.081
 6238SOL    HW219614   4.784   4.299   0.964
 6239SOL     OW19615   2.408   0.886   3.672
 6239SOL    HW119616   2.325   0.831   3.681
 6239SOL    HW219617   2.421   0.911   3.576
 6240SOL     OW19618   2.362   3.643   0.704
 6240SOL    HW119619   2.284   3.587   0.676
 6240SOL    HW219620   2.423   3.588   0.762
 6241SOL     OW19621   4.571   0.093   1.791
 6241SOL    HW119622   4.613   0.158   1.728
 6241SOL    HW219623   4.484   0.129   1.823
 6242SOL     OW19624   3.786   2.127   3.645
 6242SOL    HW119625   3.708   2.108   3.705
 6242SOL    HW219626   3.871   2.097   3.688
 6243SOL     OW19627   5.725   5.366   3.191
 6243SOL    HW119628   5.704   5.315   3.275
 6243SOL    HW219629   5.761   5.303   3.122
 6244SOL     OW19630   2.149   2.103   2.036
 6244SOL    HW119631   2.078   2.132   2.101
 6244SOL    HW219632   2.167   2.178   1.972
 6245SOL     OW19633   2.117   4.289   0.510
 6245SOL    HW119634   2.043   4.352   0.537
 6245SOL    HW219635   2.204   4.337   0.514
 6246SOL     OW19636   3.230   1.202   6.090
 6246SOL    HW119637   3.149   1.250   6.055
 6246SOL    HW219638   3.206   1.154   6.174
 6247SOL     OW19639   6.615   6.207   2.807
 6247SOL    HW119640   6.684   6.226   2.737
 6247SOL    HW219641   6.524   6.226   2.770
 6248SOL     OW19642   0.845   4.770   0.973
 6248SOL    HW119643   0.828   4.698   1.040
 6248SOL    HW219644   0.764   4.781   0.916
 6249SOL     OW19645   5.324   4.064   6.118
 6249SOL    HW119646   5.367   3.984   6.076
 6249SOL    HW219647   5.379   4.095   6.195
 6250SOL     OW19648   5.195   5.368   6.175
 6250SOL    HW119649   5.153   5.332   6.258
 6250SOL    HW219650   5.124   5.393   6.109
 6251SOL     OW19651   4.593   2.082   0.930
 6251SOL    HW119652   4.626   2.084   0.835
 6251SOL    HW219653   4.512   2.024   0.935
 6252SOL     OW19654   2.067   6.518   5.418
 6252SOL    HW119655   2.033   6.545   5.328
 6252SOL    HW219656   2.081   6.599   5.474
 6253SOL     OW19657   1.579   3.815   1.379
 6253SOL    HW119658   1.547   3.835   1.472
 6253SOL    HW219659   1.505   3.773   1.326
 6254SOL     OW19660   5.118   0.682   0.778
 6254SOL    HW119661   5.056   0.748   0.819
 6254SOL    HW219662   5.091   0.589   0.805
 6255SOL     OW19663   0.031   1.303   2.396
 6255SOL    HW119664   0.005   1.363   2.471
 6255SOL    HW219665   0.084   1.355   2.328
 6256SOL     OW19666   3.078   4.928   3.155
 6256SOL    HW119667   3.021   4.954   3.233
 6256SOL    HW219668   3.020   4.901   3.078
 6257SOL     OW19669   4.306   3.005   6.641
 6257SOL    HW119670   4.346   3.031   6.729
 6257SOL    HW219671   4.336   2.913   6.616
 6258SOL     OW19672   5.278   2.239   2.813
 6258SOL    HW119673   5.214   2.314   2.795
 6258SOL    HW219674   5.285   2.223   2.911
 6259SOL     OW19675   3.072   2.433   1.687
 6259SOL    HW119676   2.995   2.460   1.746
 6259SOL    HW219677   3.117   2.353   1.726
 6260SOL     OW19678   3.548   3.422   0.382
 6260SOL    HW119679   3.605   3.384   0.455
 6260SOL    HW219680   3.507   3.347   0.330
 6261SOL     OW19681   4.218   0.600   6.890
 6261SOL    HW119682   4.122   0.626   6.897
 6261SOL    HW219683   4.258   0.640   6.807
 6262SOL     OW19684   0.100   5.561   5.461
 6262SOL    HW119685   0.090   5.625   5.537
 6262SOL    HW219686   0.009   5.527   5.435
 6263SOL     OW19687   6.134   0.644   0.962
 6263SOL    HW119688   6.046   0.616   0.924
 6263SOL    HW219689   6.170   0.721   0.910
 6264SOL     OW19690   1.928   1.431   6.969
 6264SOL    HW119691   1.833   1.405   6.988
 6264SOL    HW219692   1.970   1.468   0.032
 6265SOL     OW19693   4.290   2.913   1.371
 6265SOL    HW119694   4.281   2.869   1.460
 6265SOL    HW219695   4.374   2.880   1.326
 6266SOL     OW19696   2.242   0.227   2.556
 6266SOL    HW119697   2.341   0.228   2.543
 6266SOL    HW219698   2.214   0.307   2.610
 6267SOL     OW19699   2.217   6.719   6.876
 6267SOL    HW119700   2.119   6.709   6.859
 6267SOL    HW219701   2.238   6.815   6.893
 6268SOL     OW19702   3.165   4.925   2.793
 6268SOL    HW119703   3.119   5.000   2.839
 6268SOL    HW219704   3.109   4.842   2.797
 6269SOL     OW19705   6.298   4.847   0.697
 6269SOL    HW119706   6.213   4.865   0.647
 6269SOL    HW219707   6.284   4.771   0.760
 6270SOL     OW19708   0.550   1.519   4.761
 6270SOL    HW119709   0.559   1.558   4.670
 6270SOL    HW219710   0.454   1.522   4.789
 6271SOL     OW19711   6.109   1.221   0.939
 6271SOL    HW119712   6.096   1.141   0.997
 6271SOL    HW219713   6.140   1.192   0.849
 6272SOL     OW19714   1.758   2.181   3.688
 6272SOL    HW119715   1.804   2.197   3.601
 6272SOL    HW219716   1.808   2.111   3.739
 6273SOL     OW19717   3.720   0.508   1.472
 6273SOL    HW119718   3.641   0.541   1.420
 6273SOL    HW219719   3.701   0.417   1.508
 6274SOL     OW19720   3.575   6.226   5.916
 6274SOL    HW119721   3.491   6.193   5.958
 6274SOL    HW219722   3.553   6.281   5.835
 6275SOL     OW19723   2.192   0.608   4.375
 6275SOL    HW119724   2.227   0.696   4.343
 6275SOL    HW219725   2.262   0.563   4.431
 6276SOL     OW19726   1.516   5.201   4.161
 6276SOL    HW119727   1.496   5.107   4.191
 6276SOL    HW219728   1.576   5.245   4.227
 6277SOL     OW19729   5.495   3.144   3.466
 6277SOL    HW119730   5.517   3.114   3.558
 6277SOL    HW219731   5.553   3.095   3.400
 6278SOL     OW19732   5.370   0.518   4.356
 6278SOL    HW119733   5.309   0.455   4.403
 6278SOL    HW219734   5.433   0.559   4.422
 6279SOL     OW19735   4.666   1.536   6.865
 6279SOL    HW119736   4.588   1.584   6.906
 6279SOL    HW219737   4.707   1.593   6.794
 6280SOL     OW19738   0.528   5.171   6.011
 6280SOL    HW119739   0.487   5.093   6.058
 6280SOL    HW219740   0.593   5.216   6.073
 6281SOL     OW19741   2.663   6.987   5.113
 6281SOL    HW119742   2.589   6.945   5.060
 6281SOL    HW219743   2.638   0.061   5.135
 6282SOL     OW19744   1.714   7.005   3.610
 6282SOL    HW119745   1.797   0.018   3.566
 6282SOL    HW219746   1.678   0.057   3.670
 6283SOL     OW19747   0.110   2.433   5.238
 6283SOL    HW119748   0.125   2.357   5.175
 6283SOL    HW219749   0.121   2.401   5.332
 6284SOL     OW19750   2.814   4.522   6.184
 6284SOL    HW119751   2.738   4.517   6.249
 6284SOL    HW219752   2.851   4.430   6.170
 6285SOL     OW19753   1.824   4.520   2.787
 6285SOL    HW119754   1.729   4.488   2.784
 6285SOL    HW219755   1.872   4.487   2.705
 6286SOL     OW19756   5.947   0.070   4.459
 6286SOL    HW119757   5.944   6.997   4.424
 6286SOL    HW219758   6.007   0.126   4.402
 6287SOL     OW19759   4.762   4.350   1.902
 6287SOL    HW119760   4.667   4.359   1.932
 6287SOL    HW219761   4.780   4.256   1.873
 6288SOL     OW19762   5.150   3.699   1.104
 6288SOL    HW119763   5.118   3.649   1.184
 6288SOL    HW219764   5.130   3.646   1.021
 6289SOL     OW19765   1.329   1.123   2.864
 6289SOL    HW119766   1.363   1.034   2.835
 6289SOL    HW219767   1.303   1.118   2.961
 6290SOL     OW19768   5.603   3.565   3.059
 6290SOL    HW119769   5.656   3.527   3.135
 6290SOL    HW219770   5.665   3.605   2.992
 6291SOL     OW19771   3.968   3.841   2.936
 6291SOL    HW119772   4.024   3.793   3.004
 6291SOL    HW219773   3.926   3.921   2.977
 6292SOL     OW19774   0.270   1.731   1.996
 6292SOL    HW119775   0.295   1.692   2.085
 6292SOL    HW219776   0.313   1.821   1.987
 6293SOL     OW19777   4.847   6.042   0.665
 6293SOL    HW119778   4.915   5.987   0.715
 6293SOL    HW219779   4.814   6.115   0.725
 6294SOL     OW19780   3.914   5.280   2.335
 6294SOL    HW119781   3.929   5.323   2.246
 6294SOL    HW219782   3.972   5.324   2.403
 6295SOL     OW19783   6.319   6.249   5.889
 6295SOL    HW119784   6.334   6.193   5.807
 6295SOL    HW219785   6.381   6.328   5.887
 6296SOL     OW19786   6.434   1.235   2.314
 6296SOL    HW119787   6.394   1.327   2.308
 6296SOL    HW219788   6.471   1.209   2.225
 6297SOL     OW19789   5.644   0.368   5.882
 6297SOL    HW119790   5.589   0.451   5.894
 6297SOL    HW219791   5.588   0.298   5.837
 6298SOL     OW19792   1.011   1.894   4.477
 6298SOL    HW119793   1.086   1.851   4.527
 6298SOL    HW219794   0.929   1.837   4.484
 6299SOL     OW19795   6.365   2.843   0.329
 6299SOL    HW119796   6.367   2.833   0.429
 6299SOL    HW219797   6.425   2.774   0.288
 6300SOL     OW19798   5.186   0.847   4.212
 6300SOL    HW119799   5.268   0.876   4.162
 6300SOL    HW219800   5.153   0.761   4.173
 6301SOL     OW19801   3.174   0.112   0.722
 6301SOL    HW119802   3.148   0.148   0.632
 6301SOL    HW219803   3.092   0.103   0.779
 6302SOL     OW19804   0.393   1.188   3.198
 6302SOL    HW119805   0.364   1.097   3.227
 6302SOL    HW219806   0.335   1.219   3.122
 6303SOL     OW19807   2.310   6.071   5.523
 6303SOL    HW119808   2.311   5.991   5.463
 6303SOL    HW219809   2.289   6.153   5.469
 6304SOL     OW19810   3.344   1.016   5.859
 6304SOL    HW119811   3.294   1.052   5.938
 6304SOL    HW219812   3.439   1.048   5.863
 6305SOL     OW19813   5.520   1.160   2.029
 6305SOL    HW119814   5.543   1.257   2.039
 6305SOL    HW219815   5.545   1.130   1.936
 6306SOL     OW19816   5.908   2.729   4.278
 6306SOL    HW119817   5.921   2.706   4.375
 6306SOL    HW219818   5.952   2.816   4.259
 6307SOL     OW19819   2.818   4.758   0.210
 6307SOL    HW119820   2.815   4.726   0.305
 6307SOL    HW219821   2.909   4.794   0.190
 6308SOL     OW19822   2.867   2.091   5.593
 6308SOL    HW119823   2.857   2.040   5.508
 6308SOL    HW219824   2.961   2.084   5.626
 6309SOL     OW19825   6.091   2.274   4.847
 6309SOL    HW119826   6.123   2.356   4.799
 6309SOL    HW219827   5.995   2.286   4.872
 6310SOL     OW19828   1.391   4.873   4.872
 6310SOL    HW119829   1.386   4.944   4.943
 6310SOL    HW219830   1.341   4.903   4.791
 6311SOL     OW19831   6.207   6.368   4.636
 6311SOL    HW119832   6.109   6.348   4.635
 6311SOL    HW219833   6.239   6.384   4.542
 6312SOL     OW19834   4.838   4.495   5.981
 6312SOL    HW119835   4.906   4.422   5.984
 6312SOL    HW219836   4.879   4.580   6.016
 6313SOL     OW19837   2.356   5.229   3.271
 6313SOL    HW119838   2.262   5.237   3.238
 6313SOL    HW219839   2.359   5.171   3.352
 6314SOL     OW19840   3.246   6.501   3.772
 6314SOL    HW119841   3.175   6.562   3.739
 6314SOL    HW219842   3.296   6.545   3.847
 6315SOL     OW19843   2.209   3.456   0.543
 6315SOL    HW119844   2.129   3.491   0.494
 6315SOL    HW219845   2.272   3.413   0.478
 6316SOL     OW19846   4.693   1.978   5.778
 6316SOL    HW119847   4.792   1.966   5.790
 6316SOL    HW219848   4.659   2.043   5.846
 6317SOL     OW19849   6.402   5.704   4.059
 6317SOL    HW119850   6.324   5.684   4.001
 6317SOL    HW219851   6.370   5.730   4.150
 6318SOL     OW19852   2.452   1.998   4.574
 6318SOL    HW119853   2.447   1.960   4.666
 6318SOL    HW219854   2.505   1.937   4.515
 6319SOL     OW19855   0.484   1.497   2.853
 6319SOL    HW119856   0.431   1.567   2.804
 6319SOL    HW219857   0.526   1.435   2.788
 6320SOL     OW19858   7.000   2.383   3.543
 6320SOL    HW119859   6.923   2.344   3.593
 6320SOL    HW219860   0.055   2.316   3.540
 6321SOL     OW19861   2.369   3.622   6.485
 6321SOL    HW119862   2.330   3.566   6.412
 6321SOL    HW219863   2.308   3.699   6.504
 6322SOL     OW19864   0.866   0.854   0.029
 6322SOL    HW119865   0.792   0.829   0.091
 6322SOL    HW219866   0.954   0.828   0.069
 6323SOL     OW19867   3.923   1.444   1.317
 6323SOL    HW119868   3.946   1.387   1.395
 6323SOL    HW219869   3.824   1.438   1.299
 6324SOL     OW19870   4.479   1.807   6.891
 6324SOL    HW119871   4.463   1.898   6.852
 6324SOL    HW219872   4.395   1.775   6.934
 6325SOL     OW19873   1.285   2.830   2.189
 6325SOL    HW119874   1.208   2.828   2.125
 6325SOL    HW219875   1.292   2.922   2.228
 6326SOL     OW19876   5.194   5.846   1.349
 6326SOL    HW119877   5.172   5.777   1.279
 6326SOL    HW219878   5.203   5.801   1.437
 6327SOL     OW19879   4.671   5.062   5.847
 6327SOL    HW119880   4.657   5.006   5.766
 6327SOL    HW219881   4.746   5.125   5.832
 6328SOL     OW19882   2.993   4.075   6.477
 6328SOL    HW119883   3.052   4.009   6.523
 6328SOL    HW219884   2.920   4.103   6.538
 6329SOL     OW19885   1.397   1.758   2.798
 6329SOL    HW119886   1.352   1.758   2.708
 6329SOL    HW219887   1.387   1.848   2.840
 6330SOL     OW19888   3.391   1.021   0.341
 6330SOL    HW119889   3.402   1.047   0.437
 6330SOL    HW219890   3.302   1.054   0.308
 6331SOL     OW19891   5.867   2.984   2.586
 6331SOL    HW119892   5.904   3.001   2.494
 6331SOL    HW219893   5.808   3.060   2.613
 6332SOL     OW19894   5.525   6.117   2.211
 6332SOL    HW119895   5.517   6.199   2.154
 6332SOL    HW219896   5.474   6.042   2.169
 6333SOL     OW19897   2.258   5.554   2.591
 6333SOL    HW119898   2.224   5.462   2.609
 6333SOL    HW219899   2.296   5.593   2.675
 6334SOL     OW19900   2.520   1.481   2.495
 6334SOL    HW119901   2.461   1.407   2.525
 6334SOL    HW219902   2.464   1.559   2.466
 6335SOL     OW19903   0.147   1.221   6.885
 6335SOL    HW119904   0.209   1.217   6.963
 6335SOL    HW219905   0.198   1.206   6.801
 6336SOL     OW19906   0.175   3.127   5.415
 6336SOL    HW119907   0.241   3.127   5.490
 6336SOL    HW219908   0.170   3.218   5.375
 6337SOL     OW19909   6.726   4.513   5.249
 6337SOL    HW119910   6.733   4.432   5.306
 6337SOL    HW219911   6.768   4.591   5.296
 6338SOL     OW19912   3.417   1.005   4.318
 6338SOL    HW119913   3.358   1.023   4.396
 6338SOL    HW219914   3.453   0.911   4.324
 6339SOL     OW19915   6.955   2.434   4.840
 6339SOL    HW119916   6.999   2.471   4.758
 6339SOL    HW219917   6.978   2.337   4.849
 6340SOL     OW19918   1.918   5.226   4.418
 6340SOL    HW119919   1.931   5.218   4.516
 6340SOL    HW219920   1.993   5.181   4.370
 6341SOL     OW19921   6.803   4.698   2.813
 6341SOL    HW119922   6.705   4.717   2.801
 6341SOL    HW219923   6.830   4.624   2.752
 6342SOL     OW19924   1.710   3.002   1.227
 6342SOL    HW119925   1.770   3.049   1.293
 6342SOL    HW219926   1.620   3.046   1.227
 6343SOL     OW19927   4.061   0.920   0.538
 6343SOL    HW119928   4.009   0.995   0.579
 6343SOL    HW219929   4.159   0.939   0.544
 6344SOL     OW19930   0.102   4.434   4.168
 6344SOL    HW119931   0.180   4.374   4.152
 6344SOL    HW219932   0.097   4.456   4.265
 6345SOL     OW19933   2.745   2.278   2.273
 6345SOL    HW119934   2.658   2.304   2.232
 6345SOL    HW219935   2.820   2.308   2.215
 6346SOL     OW19936   0.973   5.530   4.007
 6346SOL    HW119937   1.049   5.587   3.975
 6346SOL    HW219938   0.976   5.441   3.960
 6347SOL     OW19939   3.494   0.242   1.735
 6347SOL    HW119940   3.442   0.293   1.804
 6347SOL    HW219941   3.591   0.242   1.760
 6348SOL     OW19942   1.322   2.098   4.878
 6348SOL    HW119943   1.417   2.070   4.890
 6348SOL    HW219944   1.310   2.191   4.913
 6349SOL     OW19945   1.947   0.295   0.491
 6349SOL    HW119946   1.959   0.200   0.521
 6349SOL    HW219947   1.976   0.357   0.563
 6350SOL     OW19948   1.063   6.462   2.770
 6350SOL    HW119949   1.073   6.385   2.832
 6350SOL    HW219950   1.001   6.437   2.695
 6351SOL     OW19951   0.147   1.563   3.125
 6351SOL    HW119952   0.138   1.596   3.031
 6351SOL    HW219953   0.081   1.490   3.142
 6352SOL     OW19954   0.018   6.172   2.415
 6352SOL    HW119955   6.981   6.204   2.490
 6352SOL    HW219956   0.021   6.072   2.415
 6353SOL     OW19957   0.097   6.511   2.097
 6353SOL    HW119958   0.194   6.533   2.092
 6353SOL    HW219959   0.070   6.497   2.192
 6354SOL     OW19960   0.287   6.428   4.083
 6354SOL    HW119961   0.245   6.485   4.011
 6354SOL    HW219962   0.241   6.446   4.170
 6355SOL     OW19963   1.243   2.477   2.050
 6355SOL    HW119964   1.288   2.390   2.066
 6355SOL    HW219965   1.293   2.528   1.980
 6356SOL     OW19966   3.006   2.900   0.980
 6356SOL    HW119967   2.947   2.835   1.027
 6356SOL    HW219968   3.014   2.983   1.035
 6357SOL     OW19969   4.533   2.182   0.569
 6357SOL    HW119970   4.591   2.105   0.595
 6357SOL    HW219971   4.444   2.174   0.613
 6358SOL     OW19972   0.430   2.619   4.116
 6358SOL    HW119973   0.383   2.703   4.144
 6358SOL    HW219974   0.516   2.641   4.071
 6359SOL     OW19975   6.712   0.885   6.766
 6359SOL    HW119976   6.755   0.890   6.676
 6359SOL    HW219977   6.781   0.870   6.836
 6360SOL     OW19978   3.209   6.130   4.427
 6360SOL    HW119979   3.134   6.135   4.361
 6360SOL    HW219980   3.296   6.138   4.379
 6361SOL     OW19981   3.661   5.958   6.045
 6361SOL    HW119982   3.749   5.989   6.009
 6361SOL    HW219983   3.653   5.859   6.034
 6362SOL     OW19984   6.381   5.210   6.366
 6362SOL    HW119985   6.317   5.139   6.338
 6362SOL    HW219986   6.468   5.197   6.318
 6363SOL     OW19987   0.858   5.939   4.144
 6363SOL    HW119988   0.819   5.849   4.129
 6363SOL    HW219989   0.789   6.000   4.182
 6364SOL     OW19990   1.931   2.816   6.214
 6364SOL    HW119991   2.001   2.752   6.183
 6364SOL    HW219992   1.850   2.766   6.245
 6365SOL     OW19993   4.895   5.577   2.561
 6365SOL    HW119994   4.968   5.637   2.594
 6365SOL    HW219995   4.875   5.508   2.630
 6366SOL     OW19996   0.057   4.495   5.866
 6366SOL    HW119997   0.067   4.594   5.856
 6366SOL    HW219998   0.148   4.454   5.876
 6367SOL     OW19999   5.973   5.713   2.497
 6367SOL    HW120000   5.936   5.662   2.575
 6367SOL    HW220001   5.904   5.778   2.464
 6368SOL     OW20002   3.122   0.349   3.604
 6368SOL    HW120003   3.130   0.252   3.624
 6368SOL    HW220004   3.141   0.402   3.686
 6369SOL     OW20005   2.295   5.232   5.234
 6369SOL    HW120006   2.208   5.276   5.213
 6369SOL    HW220007   2.283   5.133   5.234
 6370SOL     OW20008   5.968   2.763   2.138
 6370SOL    HW120009   6.064   2.775   2.111
 6370SOL    HW220010   5.964   2.739   2.235
 6371SOL     OW20011   4.954   2.024   3.090
 6371SOL    HW120012   5.016   1.953   3.056
 6371SOL    HW220013   4.987   2.057   3.178
 6372SOL     OW20014   2.785   5.953   2.220
 6372SOL    HW120015   2.845   5.874   2.212
 6372SOL    HW220016   2.834   6.035   2.190
 6373SOL     OW20017   3.844   4.375   6.948
 6373SOL    HW120018   3.876   4.342   6.859
 6373SOL    HW220019   3.791   4.303   6.992
 6374SOL     OW20020   2.919   3.423   2.817
 6374SOL    HW120021   2.961   3.365   2.747
 6374SOL    HW220022   2.880   3.504   2.774
 6375SOL     OW20023   1.786   6.179   2.612
 6375SOL    HW120024   1.779   6.146   2.518
 6375SOL    HW220025   1.714   6.246   2.630
 6376SOL     OW20026   0.379   2.464   5.749
 6376SOL    HW120027   0.320   2.499   5.821
 6376SOL    HW220028   0.474   2.490   5.769
 6377SOL     OW20029   0.630   1.533   4.452
 6377SOL    HW120030   0.543   1.484   4.460
 6377SOL    HW220031   0.705   1.472   4.476
 6378SOL     OW20032   4.405   4.772   3.557
 6378SOL    HW120033   4.335   4.786   3.628
 6378SOL    HW220034   4.405   4.676   3.529
 6379SOL     OW20035   2.481   4.913   2.616
 6379SOL    HW120036   2.496   4.869   2.528
 6379SOL    HW220037   2.483   5.012   2.606
 6380SOL     OW20038   0.616   0.665   5.856
 6380SOL    HW120039   0.665   0.721   5.923
 6380SOL    HW220040   0.681   0.609   5.805
 6381SOL     OW20041   2.935   3.392   1.618
 6381SOL    HW120042   2.934   3.404   1.519
 6381SOL    HW220043   2.906   3.298   1.640
 6382SOL     OW20044   1.277   4.447   5.073
 6382SOL    HW120045   1.188   4.482   5.099
 6382SOL    HW220046   1.287   4.452   4.973
 6383SOL     OW20047   4.213   1.523   3.905
 6383SOL    HW120048   4.203   1.429   3.937
 6383SOL    HW220049   4.310   1.545   3.894
 6384SOL     OW20050   6.051   4.557   2.518
 6384SOL    HW120051   6.052   4.655   2.496
 6384SOL    HW220052   6.122   4.539   2.587
 6385SOL     OW20053   0.727   6.015   4.631
 6385SOL    HW120054   0.685   5.931   4.595
 6385SOL    HW220055   0.744   6.078   4.556
 6386SOL     OW20056   2.766   5.565   1.700
 6386SOL    HW120057   2.718   5.652   1.712
 6386SOL    HW220058   2.845   5.562   1.761
 6387SOL     OW20059   6.755   1.862   5.064
 6387SOL    HW120060   6.807   1.911   5.134
 6387SOL    HW220061   6.723   1.926   4.995
 6388SOL     OW20062   2.308   4.681   3.205
 6388SOL    HW120063   2.376   4.740   3.248
 6388SOL    HW220064   2.217   4.721   3.214
 6389SOL     OW20065   0.900   4.833   1.825
 6389SOL    HW120066   0.980   4.806   1.771
 6389SOL    HW220067   0.869   4.754   1.879
 6390SOL     OW20068   0.323   3.837   3.879
 6390SOL    HW120069   0.250   3.833   3.810
 6390SOL    HW220070   0.341   3.932   3.903
 6391SOL     OW20071   3.655   1.151   6.678
 6391SOL    HW120072   3.657   1.242   6.637
 6391SOL    HW220073   3.673   1.082   6.607
 6392SOL     OW20074   1.538   6.496   3.997
 6392SOL    HW120075   1.454   6.500   3.944
 6392SOL    HW220076   1.516   6.482   4.094
 6393SOL     OW20077   5.318   1.006   0.652
 6393SOL    HW120078   5.360   1.015   0.742
 6393SOL    HW220079   5.294   1.096   0.616
 6394SOL     OW20080   3.307   5.053   1.598
 6394SOL    HW120081   3.382   4.987   1.606
 6394SOL    HW220082   3.223   5.012   1.633
 6395SOL     OW20083   5.795   1.033   1.157
 6395SOL    HW120084   5.736   1.113   1.162
 6395SOL    HW220085   5.755   0.965   1.096
 6396SOL     OW20086   5.601   3.788   5.501
 6396SOL    HW120087   5.562   3.833   5.582
 6396SOL    HW220088   5.555   3.822   5.419
 6397SOL     OW20089   0.207   0.722   0.077
 6397SOL    HW120090   0.254   0.727   7.008
 6397SOL    HW220091   0.159   0.808   0.094
 6398SOL     OW20092   3.835   0.777   1.496
 6398SOL    HW120093   3.934   0.782   1.512
 6398SOL    HW220094   3.809   0.682   1.477
 6399SOL     OW20095   2.450   5.779   6.762
 6399SOL    HW120096   2.504   5.833   6.826
 6399SOL    HW220097   2.390   5.717   6.813
 6400SOL     OW20098   2.742   5.287   4.002
 6400SOL    HW120099   2.699   5.232   4.073
 6400SOL    HW220100   2.693   5.373   3.992
 6401SOL     OW20101   1.834   4.404   4.388
 6401SOL    HW120102   1.924   4.404   4.345
 6401SOL    HW220103   1.822   4.320   4.440
 6402SOL     OW20104   1.715   2.238   3.193
 6402SOL    HW120105   1.646   2.196   3.134
 6402SOL    HW220106   1.731   2.178   3.272
 6403SOL     OW20107   0.922   5.764   1.148
 6403SOL    HW120108   0.839   5.711   1.136
 6403SOL    HW220109   0.993   5.706   1.187
 6404SOL     OW20110   4.950   1.010   3.382
 6404SOL    HW120111   5.004   1.087   3.416
 6404SOL    HW220112   4.940   1.018   3.283
 6405SOL     OW20113   2.606   1.442   1.757
 6405SOL    HW120114   2.524   1.497   1.772
 6405SOL    HW220115   2.662   1.441   1.840
 6406SOL     OW20116   2.569   2.507   3.407
 6406SOL    HW120117   2.558   2.412   3.379
 6406SOL    HW220118   2.564   2.566   3.326
 6407SOL     OW20119   4.420   5.182   6.202
 6407SOL    HW120120   4.427   5.083   6.187
 6407SOL    HW220121   4.401   5.227   6.115
 6408SOL     OW20122   6.521   1.346   0.469
 6408SOL    HW120123   6.440   1.307   0.425
 6408SOL    HW220124   6.557   1.420   0.412
 6409SOL     OW20125   1.186   4.296   2.157
 6409SOL    HW120126   1.144   4.270   2.244
 6409SOL    HW220127   1.247   4.375   2.171
 6410SOL     OW20128   1.267   1.501   2.015
 6410SOL    HW120129   1.262   1.402   2.028
 6410SOL    HW220130   1.321   1.541   2.089
 6411SOL     OW20131   2.126   0.965   3.488
 6411SOL    HW120132   2.124   0.984   3.586
 6411SOL    HW220133   2.105   0.869   3.472
 6412SOL     OW20134   0.038   1.898   5.082
 6412SOL    HW120135   6.963   1.872   5.098
 6412SOL    HW220136   0.096   1.816   5.084
 6413SOL     OW20137   0.118   4.409   0.591
 6413SOL    HW120138   0.172   4.484   0.630
 6413SOL    HW220139   0.140   4.324   0.638
 6414SOL     OW20140   6.534   6.788   2.842
 6414SOL    HW120141   6.507   6.709   2.787
 6414SOL    HW220142   6.571   6.859   2.782
 6415SOL     OW20143   1.605   1.559   2.073
 6415SOL    HW120144   1.553   1.497   2.132
 6415SOL    HW220145   1.694   1.576   2.113
 6416SOL     OW20146   2.183   6.247   6.360
 6416SOL    HW120147   2.229   6.330   6.392
 6416SOL    HW220148   2.202   6.234   6.263
 6417SOL     OW20149   0.283   6.736   3.125
 6417SOL    HW120150   0.208   6.673   3.144
 6417SOL    HW220151   0.343   6.696   3.055
 6418SOL     OW20152   6.762   5.892   2.658
 6418SOL    HW120153   6.748   5.989   2.678
 6418SOL    HW220154   6.846   5.881   2.606
 6419SOL     OW20155   2.479   4.080   1.103
 6419SOL    HW120156   2.508   4.101   1.010
 6419SOL    HW220157   2.523   4.144   1.166
 6420SOL     OW20158   0.791   3.216   0.170
 6420SOL    HW120159   0.836   3.183   0.252
 6420SOL    HW220160   0.844   3.291   0.131
 6421SOL     OW20161   5.880   1.861   1.041
 6421SOL    HW120162   5.879   1.939   1.104
 6421SOL    HW220163   5.927   1.784   1.084
 6422SOL     OW20164   6.412   1.841   3.543
 6422SOL    HW120165   6.471   1.801   3.473
 6422SOL    HW220166   6.325   1.867   3.503
 6423SOL     OW20167   4.944   4.468   0.562
 6423SOL    HW120168   5.043   4.476   0.576
 6423SOL    HW220169   4.925   4.452   0.465
 6424SOL     OW20170   6.720   4.793   4.648
 6424SOL    HW120171   6.797   4.822   4.591
 6424SOL    HW220172   6.658   4.736   4.595
 6425SOL     OW20173   0.265   4.932   1.237
 6425SOL    HW120174   0.192   4.999   1.229
 6425SOL    HW220175   0.351   4.972   1.206
 6426SOL     OW20176   6.620   2.682   3.684
 6426SOL    HW120177   6.714   2.657   3.704
 6426SOL    HW220178   6.559   2.608   3.711
 6427SOL     OW20179   0.999   3.173   6.214
 6427SOL    HW120180   0.941   3.206   6.139
 6427SOL    HW220181   1.083   3.227   6.217
 6428SOL     OW20182   6.793   3.049   3.418
 6428SOL    HW120183   6.697   3.076   3.409
 6428SOL    HW220184   6.809   3.015   3.510
 6429SOL     OW20185   0.848   0.672   4.152
 6429SOL    HW120186   0.943   0.641   4.155
 6429SOL    HW220187   0.787   0.596   4.177
 6430SOL     OW20188   5.992   3.817   0.095
 6430SOL    HW120189   6.049   3.850   0.171
 6430SOL    HW220190   5.947   3.732   0.122
 6431SOL     OW20191   5.411   0.932   3.586
 6431SOL    HW120192   5.359   1.017   3.577
 6431SOL    HW220193   5.443   0.902   3.496
 6432SOL     OW20194   5.811   3.507   6.951
 6432SOL    HW120195   5.826   3.571   0.007
 6432SOL    HW220196   5.871   3.531   6.875
 6433SOL     OW20197   2.611   3.716   1.560
 6433SOL    HW120198   2.668   3.711   1.642
 6433SOL    HW220199   2.569   3.806   1.554
 6434SOL     OW20200   2.302   5.513   0.323
 6434SOL    HW120201   2.209   5.541   0.344
 6434SOL    HW220202   2.367   5.566   0.378
 6435SOL     OW20203   4.477   4.077   0.537
 6435SOL    HW120204   4.472   4.071   0.637
 6435SOL    HW220205   4.567   4.048   0.507
 6436SOL     OW20206   1.442   2.899   2.600
 6436SOL    HW120207   1.513   2.832   2.582
 6436SOL    HW220208   1.484   2.987   2.622
 6437SOL     OW20209   0.191   0.872   6.707
 6437SOL    HW120210   0.186   0.775   6.682
 6437SOL    HW220211   0.275   0.912   6.671
 6438SOL     OW20212   1.044   3.851   3.688
 6438SOL    HW120213   1.104   3.792   3.635
 6438SOL    HW220214   0.960   3.802   3.710
 6439SOL     OW20215   0.081   6.758   1.961
 6439SOL    HW120216   0.083   6.671   2.010
 6439SOL    HW220217   0.099   6.743   1.864
 6440SOL     OW20218   0.532   0.782   2.186
 6440SOL    HW120219   0.443   0.737   2.178
 6440SOL    HW220220   0.603   0.713   2.200
 6441SOL     OW20221   3.844   1.443   3.401
 6441SOL    HW120222   3.935   1.436   3.442
 6441SOL    HW220223   3.818   1.540   3.393
 6442SOL     OW20224   3.456   0.519   3.740
 6442SOL    HW120225   3.548   0.507   3.703
 6442SOL    HW220226   3.430   0.616   3.736
 6443SOL     OW20227   2.304   1.316   0.098
 6443SOL    HW120228   2.395   1.356   0.112
 6443SOL    HW220229   2.306   1.220   0.124
 6444SOL     OW20230   0.811   0.685   3.632
 6444SOL    HW120231   0.884   0.735   3.587
 6444SOL    HW220232   0.829   0.587   3.625
 6445SOL     OW20233   3.733   3.771   5.833
 6445SOL    HW120234   3.813   3.712   5.828
 6445SOL    HW220235   3.658   3.730   5.780
 6446SOL     OW20236   6.662   1.580   1.182
 6446SOL    HW120237   6.722   1.616   1.111
 6446SOL    HW220238   6.653   1.648   1.255
 6447SOL     OW20239   1.844   6.820   2.856
 6447SOL    HW120240   1.936   6.802   2.891
 6447SOL    HW220241   1.812   6.908   2.890
 6448SOL     OW20242   6.258   1.924   2.631
 6448SOL    HW120243   6.187   1.966   2.575
 6448SOL    HW220244   6.249   1.956   2.725
 6449SOL     OW20245   3.384   3.034   1.376
 6449SOL    HW120246   3.410   3.126   1.347
 6449SOL    HW220247   3.333   3.040   1.462
 6450SOL     OW20248   6.924   3.421   6.719
 6450SOL    HW120249   6.830   3.429   6.753
 6450SOL    HW220250   6.922   3.388   6.624
 6451SOL     OW20251   2.269   6.743   4.280
 6451SOL    HW120252   2.289   6.707   4.188
 6451SOL    HW220253   2.178   6.714   4.308
 6452SOL     OW20254   3.950   6.492   3.514
 6452SOL    HW120255   4.047   6.494   3.494
 6452SOL    HW220256   3.901   6.556   3.455
 6453SOL     OW20257   2.070   4.071   6.280
 6453SOL    HW120258   1.994   4.132   6.259
 6453SOL    HW220259   2.038   3.976   6.284
 6454SOL     OW20260   2.869   1.452   4.828
 6454SOL    HW120261   2.769   1.448   4.819
 6454SOL    HW220262   2.896   1.407   4.913
 6455SOL     OW20263   6.338   2.646   5.587
 6455SOL    HW120264   6.433   2.666   5.612
 6455SOL    HW220265   6.328   2.644   5.488
 6456SOL     OW20266   6.751   0.665   4.885
 6456SOL    HW120267   6.692   0.708   4.954
 6456SOL    HW220268   6.825   0.727   4.861
 6457SOL     OW20269   6.519   3.230   2.369
 6457SOL    HW120270   6.558   3.199   2.282
 6457SOL    HW220271   6.588   3.282   2.419
 6458SOL     OW20272   1.469   6.157   2.888
 6458SOL    HW120273   1.526   6.146   2.970
 6458SOL    HW220274   1.499   6.237   2.837
 6459SOL     OW20275   5.485   4.674   0.515
 6459SOL    HW120276   5.394   4.646   0.483
 6459SOL    HW220277   5.526   4.599   0.566
 6460SOL     OW20278   3.061   4.847   0.173
 6460SOL    HW120279   3.117   4.866   0.254
 6460SOL    HW220280   3.110   4.876   0.091
 6461SOL     OW20281   3.907   5.829   4.774
 6461SOL    HW120282   3.983   5.788   4.723
 6461SOL    HW220283   3.884   5.772   4.853
 6462SOL     OW20284   2.032   2.991   3.597
 6462SOL    HW120285   2.071   3.074   3.638
 6462SOL    HW220286   2.017   3.007   3.499
 6463SOL     OW20287   1.239   4.624   5.379
 6463SOL    HW120288   1.303   4.551   5.356
 6463SOL    HW220289   1.175   4.637   5.304
 6464SOL     OW20290   0.836   5.516   2.461
 6464SOL    HW120291   0.825   5.418   2.482
 6464SOL    HW220292   0.891   5.559   2.533
 6465SOL     OW20293   6.651   0.963   3.055
 6465SOL    HW120294   6.695   1.016   3.127
 6465SOL    HW220295   6.719   0.910   3.005
 6466SOL     OW20296   0.477   2.916   5.463
 6466SOL    HW120297   0.510   2.869   5.544
 6466SOL    HW220298   0.389   2.876   5.435
 6467SOL     OW20299   2.545   1.113   6.561
 6467SOL    HW120300   2.545   1.093   6.463
 6467SOL    HW220301   2.459   1.158   6.586
 6468SOL     OW20302   4.588   4.477   0.618
 6468SOL    HW120303   4.514   4.443   0.559
 6468SOL    HW220304   4.624   4.401   0.673
 6469SOL     OW20305   6.450   1.061   6.015
 6469SOL    HW120306   6.404   1.125   5.953
 6469SOL    HW220307   6.460   1.103   6.105
 6470SOL     OW20308   6.683   6.173   5.294
 6470SOL    HW120309   6.658   6.270   5.297
 6470SOL    HW220310   6.781   6.164   5.309
 6471SOL     OW20311   5.608   5.529   5.849
 6471SOL    HW120312   5.513   5.508   5.824
 6471SOL    HW220313   5.616   5.626   5.870
 6472SOL     OW20314   1.331   5.582   1.111
 6472SOL    HW120315   1.261   5.608   1.044
 6472SOL    HW220316   1.376   5.665   1.145
 6473SOL     OW20317   2.298   1.368   5.607
 6473SOL    HW120318   2.316   1.274   5.580
 6473SOL    HW220319   2.272   1.370   5.704
 6474SOL     OW20320   2.708   3.536   5.311
 6474SOL    HW120321   2.691   3.627   5.348
 6474SOL    HW220322   2.755   3.480   5.380
 6475SOL     OW20323   4.709   6.194   4.000
 6475SOL    HW120324   4.744   6.285   3.977
 6475SOL    HW220325   4.754   6.126   3.943
 6476SOL     OW20326   5.084   4.756   2.501
 6476SOL    HW120327   5.112   4.766   2.596
 6476SOL    HW220328   5.050   4.843   2.467
 6477SOL     OW20329   0.057   6.597   6.736
 6477SOL    HW120330   0.011   6.676   6.696
 6477SOL    HW220331   0.142   6.625   6.780
 6478SOL     OW20332   4.721   6.264   0.782
 6478SOL    HW120333   4.749   6.213   0.863
 6478SOL    HW220334   4.765   6.354   0.783
 6479SOL     OW20335   4.351   6.162   2.498
 6479SOL    HW120336   4.340   6.246   2.552
 6479SOL    HW220337   4.352   6.083   2.559
 6480SOL     OW20338   2.622   1.629   0.654
 6480SOL    HW120339   2.588   1.717   0.687
 6480SOL    HW220340   2.717   1.639   0.624
 6481SOL     OW20341   4.474   0.553   1.538
 6481SOL    HW120342   4.465   0.638   1.590
 6481SOL    HW220343   4.511   0.481   1.598
 6482SOL     OW20344   0.373   0.705   6.870
 6482SOL    HW120345   0.369   0.804   6.889
 6482SOL    HW220346   0.327   0.686   6.784
 6483SOL     OW20347   2.119   6.240   2.106
 6483SOL    HW120348   2.125   6.196   2.196
 6483SOL    HW220349   2.208   6.279   2.082
 6484SOL     OW20350   5.472   5.853   3.390
 6484SOL    HW120351   5.391   5.906   3.418
 6484SOL    HW220352   5.506   5.886   3.303
 6485SOL     OW20353   0.749   3.279   3.346
 6485SOL    HW120354   0.659   3.274   3.304
 6485SOL    HW220355   0.769   3.193   3.393
 6486SOL     OW20356   1.813   3.093   3.152
 6486SOL    HW120357   1.747   3.092   3.077
 6486SOL    HW220358   1.763   3.097   3.239
 6487SOL     OW20359   5.890   5.529   2.986
 6487SOL    HW120360   5.833   5.579   3.051
 6487SOL    HW220361   5.849   5.440   2.966
 6488SOL     OW20362   3.269   5.205   5.912
 6488SOL    HW120363   3.187   5.214   5.968
 6488SOL    HW220364   3.247   5.157   5.827
 6489SOL     OW20365   2.165   1.993   5.314
 6489SOL    HW120366   2.189   1.907   5.359
 6489SOL    HW220367   2.247   2.031   5.270
 6490SOL     OW20368   3.753   1.363   0.688
 6490SOL    HW120369   3.783   1.429   0.619
 6490SOL    HW220370   3.726   1.278   0.644
 6491SOL     OW20371   3.778   1.225   6.235
 6491SOL    HW120372   3.822   1.301   6.187
 6491SOL    HW220373   3.684   1.216   6.204
 6492SOL     OW20374   5.722   5.913   6.603
 6492SOL    HW120375   5.672   5.990   6.641
 6492SOL    HW220376   5.718   5.835   6.666
 6493SOL     OW20377   1.122   6.130   5.515
 6493SOL    HW120378   1.039   6.180   5.489
 6493SOL    HW220379   1.118   6.109   5.613
 6494SOL     OW20380   1.637   0.234   3.745
 6494SOL    HW120381   1.576   0.290   3.689
 6494SOL    HW220382   1.731   0.267   3.736
 6495SOL     OW20383   5.006   5.346   2.219
 6495SOL    HW120384   4.938   5.272   2.223
 6495SOL    HW220385   4.970   5.427   2.264
 6496SOL     OW20386   1.420   0.039   2.932
 6496SOL    HW120387   1.447   0.004   3.022
 6496SOL    HW220388   1.377   6.985   2.879
 6497SOL     OW20389   0.254   5.560   0.158
 6497SOL    HW120390   0.238   5.551   0.060
 6497SOL    HW220391   0.190   5.626   0.197
 6498SOL     OW20392   1.662   4.313   3.735
 6498SOL    HW120393   1.635   4.275   3.823
 6498SOL    HW220394   1.649   4.412   3.736
 6499SOL     OW20395   6.032   0.893   4.004
 6499SOL    HW120396   5.988   0.977   3.973
 6499SOL    HW220397   6.100   0.913   4.074
 6500SOL     OW20398   5.421   5.031   3.421
 6500SOL    HW120399   5.489   4.970   3.462
 6500SOL    HW220400   5.444   5.126   3.443
 6501SOL     OW20401   6.802   3.596   1.057
 6501SOL    HW120402   6.776   3.501   1.068
 6501SOL    HW220403   6.898   3.602   1.032
 6502SOL     OW20404   1.234   4.588   2.303
 6502SOL    HW120405   1.233   4.496   2.341
 6502SOL    HW220406   1.307   4.642   2.345
 6503SOL     OW20407   4.595   0.463   4.656
 6503SOL    HW120408   4.683   0.497   4.622
 6503SOL    HW220409   4.557   0.529   4.721
 6504SOL     OW20410   1.958   1.357   0.599
 6504SOL    HW120411   2.035   1.418   0.578
 6504SOL    HW220412   1.991   1.281   0.656
 6505SOL     OW20413   5.526   5.453   0.932
 6505SOL    HW120414   5.626   5.459   0.930
 6505SOL    HW220415   5.490   5.516   1.001
 6506SOL     OW20416   1.778   2.090   0.694
 6506SOL    HW120417   1.689   2.103   0.738
 6506SOL    HW220418   1.772   2.114   0.597
 6507SOL     OW20419   3.004   0.910   2.171
 6507SOL    HW120420   2.925   0.954   2.214
 6507SOL    HW220421   3.037   0.836   2.230
 6508SOL     OW20422   2.699   1.513   2.000
 6508SOL    HW120423   2.785   1.478   2.038
 6508SOL    HW220424   2.704   1.612   1.993
 6509SOL     OW20425   0.770   2.740   4.589
 6509SOL    HW120426   0.843   2.798   4.625
 6509SOL    HW220427   0.704   2.796   4.539
 6510SOL     OW20428   5.332   5.128   6.535
 6510SOL    HW120429   5.337   5.228   6.526
 6510SOL    HW220430   5.244   5.096   6.502
 6511SOL     OW20431   6.248   6.036   5.380
 6511SOL    HW120432   6.193   6.088   5.315
 6511SOL    HW220433   6.195   5.960   5.416
 6512SOL     OW20434   5.177   6.677   3.884
 6512SOL    HW120435   5.158   6.667   3.982
 6512SOL    HW220436   5.183   6.586   3.842
 6513SOL     OW20437   2.704   6.776   2.799
 6513SOL    HW120438   2.784   6.731   2.759
 6513SOL    HW220439   2.661   6.836   2.731
 6514SOL     OW20440   3.335   6.734   3.554
 6514SOL    HW120441   3.407   6.665   3.566
 6514SOL    HW220442   3.337   6.797   3.632
 6515SOL     OW20443   0.766   1.226   4.343
 6515SOL    HW120444   0.860   1.238   4.375
 6515SOL    HW220445   0.729   1.141   4.382
 6516SOL     OW20446   1.567   1.513   5.725
 6516SOL    HW120447   1.484   1.470   5.689
 6516SOL    HW220448   1.623   1.443   5.770
 6517SOL     OW20449   1.474   2.123   0.384
 6517SOL    HW120450   1.423   2.102   0.301
 6517SOL    HW220451   1.468   2.221   0.403
 6518SOL     OW20452   5.766   6.437   0.103
 6518SOL    HW120453   5.861   6.468   0.105
 6518SOL    HW220454   5.763   6.339   0.085
 6519SOL     OW20455   1.866   1.743   3.466
 6519SOL    HW120456   1.831   1.784   3.381
 6519SOL    HW220457   1.818   1.657   3.483
 6520SOL     OW20458   5.939   5.154   1.834
 6520SOL    HW120459   6.004   5.084   1.803
 6520SOL    HW220460   5.918   5.140   1.930
 6521SOL     OW20461   1.321   2.057   5.663
 6521SOL    HW120462   1.298   2.151   5.637
 6521SOL    HW220463   1.400   2.058   5.725
 6522SOL     OW20464   2.576   5.655   4.669
 6522SOL    HW120465   2.479   5.629   4.662
 6522SOL    HW220466   2.623   5.592   4.731
 6523SOL     OW20467   1.694   2.592   6.943
 6523SOL    HW120468   1.658   2.675   6.986
 6523SOL    HW220469   1.717   2.525   7.014
 6524SOL     OW20470   3.439   4.169   4.492
 6524SOL    HW120471   3.408   4.155   4.398
 6524SOL    HW220472   3.361   4.165   4.555
 6525SOL     OW20473   0.598   2.456   4.449
 6525SOL    HW120474   0.570   2.552   4.455
 6525SOL    HW220475   0.586   2.423   4.356
 6526SOL     OW20476   1.697   6.008   4.300
 6526SOL    HW120477   1.643   5.925   4.287
 6526SOL    HW220478   1.641   6.088   4.277
 6527SOL     OW20479   2.274   0.871   4.333
 6527SOL    HW120480   2.327   0.888   4.250
 6527SOL    HW220481   2.329   0.893   4.414
 6528SOL     OW20482   6.828   6.858   3.394
 6528SOL    HW120483   6.735   6.848   3.428
 6528SOL    HW220484   6.867   6.944   3.427
 6529SOL     OW20485   6.483   2.525   1.467
 6529SOL    HW120486   6.552   2.597   1.473
 6529SOL    HW220487   6.527   2.437   1.453
 6530SOL     OW20488   6.805   1.969   0.678
 6530SOL    HW120489   6.774   1.879   0.648
 6530SOL    HW220490   6.740   2.039   0.648
 6531SOL     OW20491   5.200   2.950   4.334
 6531SOL    HW120492   5.229   2.972   4.427
 6531SOL    HW220493   5.120   2.889   4.338
 6532SOL     OW20494   1.365   2.660   6.734
 6532SOL    HW120495   1.308   2.697   6.661
 6532SOL    HW220496   1.436   2.601   6.695
 6533SOL     OW20497   4.565   0.972   1.141
 6533SOL    HW120498   4.468   0.949   1.138
 6533SOL    HW220499   4.585   1.024   1.224
 6534SOL     OW20500   1.729   3.117   0.542
 6534SOL    HW120501   1.798   3.046   0.524
 6534SOL    HW220502   1.731   3.140   0.640
 6535SOL     OW20503   2.285   3.223   5.681
 6535SOL    HW120504   2.349   3.195   5.610
 6535SOL    HW220505   2.218   3.287   5.642
 6536SOL     OW20506   6.856   2.260   6.823
 6536SOL    HW120507   6.776   2.253   6.882
 6536SOL    HW220508   6.928   2.310   6.870
 6537SOL     OW20509   0.938   0.186   0.042
 6537SOL    HW120510   0.853   0.212   0.088
 6537SOL    HW220511   0.920   0.108   7.002
 6538SOL     OW20512   2.058   3.385   6.182
 6538SOL    HW120513   2.113   3.436   6.249
 6538SOL    HW220514   2.076   3.420   6.091
 6539SOL     OW20515   2.474   1.699   6.509
 6539SOL    HW120516   2.377   1.721   6.508
 6539SOL    HW220517   2.501   1.664   6.419
 6540SOL     OW20518   3.268   1.681   3.978
 6540SOL    HW120519   3.366   1.668   3.960
 6540SOL    HW220520   3.215   1.638   3.904
 6541SOL     OW20521   2.784   2.690   5.513
 6541SOL    HW120522   2.703   2.639   5.486
 6541SOL    HW220523   2.815   2.747   5.437
 6542SOL     OW20524   5.918   4.565   3.407
 6542SOL    HW120525   5.925   4.497   3.334
 6542SOL    HW220526   5.994   4.554   3.470
 6543SOL     OW20527   0.513   5.668   6.521
 6543SOL    HW120528   0.417   5.682   6.497
 6543SOL    HW220529   0.523   5.666   6.620
 6544SOL     OW20530   6.374   5.937   3.542
 6544SOL    HW120531   6.310   5.952   3.467
 6544SOL    HW220532   6.396   6.025   3.585
 6545SOL     OW20533   5.277   2.850   6.055
 6545SOL    HW120534   5.254   2.773   5.995
 6545SOL    HW220535   5.376   2.853   6.069
 6546SOL     OW20536   3.734   4.698   5.911
 6546SOL    HW120537   3.747   4.712   5.813
 6546SOL    HW220538   3.676   4.618   5.926
 6547SOL     OW20539   5.234   1.538   6.699
 6547SOL    HW120540   5.269   1.446   6.717
 6547SOL    HW220541   5.157   1.556   6.760
 6548SOL     OW20542   6.253   4.725   5.142
 6548SOL    HW120543   6.180   4.684   5.088
 6548SOL    HW220544   6.278   4.814   5.102
 6549SOL     OW20545   3.263   1.365   1.933
 6549SOL    HW120546   3.288   1.436   1.999
 6549SOL    HW220547   3.228   1.285   1.982
 6550SOL     OW20548   1.161   5.488   3.550
 6550SOL    HW120549   1.184   5.392   3.564
 6550SOL    HW220550   1.171   5.538   3.636
 6551SOL     OW20551   2.759   5.010   2.009
 6551SOL    HW120552   2.767   4.983   2.105
 6551SOL    HW220553   2.815   4.949   1.952
 6552SOL     OW20554   4.248   5.008   6.638
 6552SOL    HW120555   4.288   5.066   6.567
 6552SOL    HW220556   4.177   5.059   6.687
 6553SOL     OW20557   6.861   3.065   2.597
 6553SOL    HW120558   6.902   2.979   2.564
 6553SOL    HW220559   6.778   3.044   2.649
 6554SOL     OW20560   0.030   3.648   5.194
 6554SOL    HW120561   0.071   3.700   5.119
 6554SOL    HW220562   7.004   3.567   5.158
 6555SOL     OW20563   0.722   1.432   2.045
 6555SOL    HW120564   0.646   1.495   2.059
 6555SOL    HW220565   0.689   1.337   2.051
 6556SOL     OW20566   3.186   0.468   3.838
 6556SOL    HW120567   3.148   0.552   3.878
 6556SOL    HW220568   3.283   0.482   3.817
 6557SOL     OW20569   5.960   6.355   1.231
 6557SOL    HW120570   6.042   6.309   1.265
 6557SOL    HW220571   5.878   6.308   1.264
 6558SOL     OW20572   6.972   5.913   6.476
 6558SOL    HW120573   6.943   6.009   6.473
 6558SOL    HW220574   6.896   5.854   6.448
 6559SOL     OW20575   3.315   3.115   1.066
 6559SOL    HW120576   3.312   3.017   1.044
 6559SOL    HW220577   3.322   3.126   1.165
 6560SOL     OW20578   3.424   1.795   0.767
 6560SOL    HW120579   3.512   1.748   0.774
 6560SOL    HW220580   3.399   1.805   0.671
 6561SOL     OW20581   3.924   3.967   4.252
 6561SOL    HW120582   3.977   3.891   4.290
 6561SOL    HW220583   3.865   4.005   4.323
 6562SOL     OW20584   5.714   3.338   5.514
 6562SOL    HW120585   5.690   3.292   5.428
 6562SOL    HW220586   5.798   3.391   5.501
 6563SOL     OW20587   1.402   5.083   2.725
 6563SOL    HW120588   1.457   5.129   2.655
 6563SOL    HW220589   1.366   4.998   2.688
 6564SOL     OW20590   1.236   6.429   3.140
 6564SOL    HW120591   1.182   6.359   3.094
 6564SOL    HW220592   1.302   6.386   3.201
 6565SOL     OW20593   6.545   3.903   5.207
 6565SOL    HW120594   6.594   3.855   5.134
 6565SOL    HW220595   6.524   3.839   5.281
 6566SOL     OW20596   3.749   6.754   0.722
 6566SOL    HW120597   3.822   6.724   0.783
 6566SOL    HW220598   3.788   6.783   0.635
 6567SOL     OW20599   6.209   3.218   1.414
 6567SOL    HW120600   6.145   3.173   1.353
 6567SOL    HW220601   6.180   3.206   1.509
 6568SOL     OW20602   3.952   4.018   1.384
 6568SOL    HW120603   3.969   3.956   1.460
 6568SOL    HW220604   4.034   4.073   1.368
 6569SOL     OW20605   0.686   4.921   6.670
 6569SOL    HW120606   0.657   4.827   6.689
 6569SOL    HW220607   0.763   4.944   6.730
 6570SOL     OW20608   5.867   3.123   1.476
 6570SOL    HW120609   5.876   3.222   1.489
 6570SOL    HW220610   5.771   3.097   1.483
 6571SOL     OW20611   2.883   6.280   3.892
 6571SOL    HW120612   2.917   6.246   3.804
 6571SOL    HW220613   2.929   6.366   3.915
 6572SOL     OW20614   1.070   3.981   6.713
 6572SOL    HW120615   1.155   4.024   6.684
 6572SOL    HW220616   1.019   3.951   6.632
 6573SOL     OW20617   1.646   2.218   2.207
 6573SOL    HW120618   1.674   2.282   2.278
 6573SOL    HW220619   1.640   2.126   2.246
 6574SOL     OW20620   1.868   4.964   3.658
 6574SOL    HW120621   1.864   5.037   3.727
 6574SOL    HW220622   1.959   4.962   3.617
 6575SOL     OW20623   1.843   1.132   2.571
 6575SOL    HW120624   1.813   1.227   2.560
 6575SOL    HW220625   1.931   1.130   2.618
 6576SOL     OW20626   1.370   6.347   4.479
 6576SOL    HW120627   1.460   6.304   4.480
 6576SOL    HW220628   1.346   6.376   4.571
 6577SOL     OW20629   6.625   2.261   4.514
 6577SOL    HW120630   6.594   2.294   4.425
 6577SOL    HW220631   6.722   2.280   4.525
 6578SOL     OW20632   6.676   5.219   3.128
 6578SOL    HW120633   6.682   5.197   3.030
 6578SOL    HW220634   6.588   5.262   3.147
 6579SOL     OW20635   0.832   3.904   2.586
 6579SOL    HW120636   0.735   3.888   2.607
 6579SOL    HW220637   0.846   3.900   2.487
 6580SOL     OW20638   5.989   2.552   1.507
 6580SOL    HW120639   5.985   2.559   1.407
 6580SOL    HW220640   5.903   2.514   1.541
 6581SOL     OW20641   1.906   2.341   5.502
 6581SOL    HW120642   1.817   2.337   5.546
 6581SOL    HW220643   1.936   2.249   5.479
 6582SOL     OW20644   6.930   0.247   2.346
 6582SOL    HW120645   6.992   0.169   2.339
 6582SOL    HW220646   6.892   0.251   2.438
 6583SOL     OW20647   5.085   2.123   5.275
 6583SOL    HW120648   5.174   2.166   5.290
 6583SOL    HW220649   5.080   2.038   5.327
 6584SOL     OW20650   5.346   1.993   6.866
 6584SOL    HW120651   5.398   2.077   6.877
 6584SOL    HW220652   5.248   2.013   6.872
 6585SOL     OW20653   1.991   1.061   0.685
 6585SOL    HW120654   1.896   1.030   0.692
 6585SOL    HW220655   2.039   1.040   0.770
 6586SOL     OW20656   0.026   1.582   0.140
 6586SOL    HW120657   0.037   1.602   0.237
 6586SOL    HW220658   6.988   1.652   0.098
 6587SOL     OW20659   1.947   6.823   2.605
 6587SOL    HW120660   1.907   6.850   2.692
 6587SOL    HW220661   1.994   6.901   2.563
 6588SOL     OW20662   2.381   2.776   0.251
 6588SOL    HW120663   2.353   2.855   0.196
 6588SOL    HW220664   2.300   2.727   0.282
 6589SOL     OW20665   5.190   1.744   5.628
 6589SOL    HW120666   5.183   1.744   5.728
 6589SOL    HW220667   5.150   1.660   5.592
 6590SOL     OW20668   6.544   1.113   5.562
 6590SOL    HW120669   6.485   1.092   5.484
 6590SOL    HW220670   6.538   1.210   5.584
 6591SOL     OW20671   5.670   1.031   2.690
 6591SOL    HW120672   5.671   0.957   2.757
 6591SOL    HW220673   5.765   1.058   2.669
 6592SOL     OW20674   5.531   5.787   4.698
 6592SOL    HW120675   5.556   5.747   4.610
 6592SOL    HW220676   5.439   5.757   4.723
 6593SOL     OW20677   4.497   0.856   2.624
 6593SOL    HW120678   4.455   0.942   2.594
 6593SOL    HW220679   4.490   0.788   2.552
 6594SOL     OW20680   5.445   0.862   6.447
 6594SOL    HW120681   5.536   0.872   6.488
 6594SOL    HW220682   5.454   0.827   6.354
 6595SOL     OW20683   1.749   3.635   0.584
 6595SOL    HW120684   1.781   3.681   0.667
 6595SOL    HW220685   1.825   3.624   0.521
 6596SOL     OW20686   3.601   6.580   4.963
 6596SOL    HW120687   3.638   6.630   5.042
 6596SOL    HW220688   3.502   6.570   4.973
 6597SOL     OW20689   6.355   4.512   6.441
 6597SOL    HW120690   6.376   4.431   6.497
 6597SOL    HW220691   6.439   4.546   6.399
 6598SOL     OW20692   2.127   5.413   5.103
 6598SOL    HW120693   2.068   5.493   5.117
 6598SOL    HW220694   2.172   5.420   5.014
 6599SOL     OW20695   4.725   3.486   5.711
 6599SOL    HW120696   4.770   3.407   5.670
 6599SOL    HW220697   4.773   3.513   5.795
 6600SOL     OW20698   4.396   5.825   4.143
 6600SOL    HW120699   4.341   5.769   4.206
 6600SOL    HW220700   4.335   5.872   4.079
 6601SOL     OW20701   1.072   0.165   1.181
 6601SOL    HW120702   1.112   0.073   1.177
 6601SOL    HW220703   1.115   0.218   1.253
 6602SOL     OW20704   6.276   1.216   1.777
 6602SOL    HW120705   6.299   1.119   1.779
 6602SOL    HW220706   6.346   1.266   1.726
 6603SOL     OW20707   2.050   2.234   2.529
 6603SOL    HW120708   2.014   2.142   2.549
 6603SOL    HW220709   2.010   2.267   2.444
 6604SOL     OW20710   4.051   5.978   3.129
 6604SOL    HW120711   4.067   6.055   3.066
 6604SOL    HW220712   4.049   5.893   3.077
 6605SOL     OW20713   6.021   6.528   0.005
 6605SOL    HW120714   6.008   6.627   0.011
 6605SOL    HW220715   6.070   6.505   6.941
 6606SOL     OW20716   6.358   1.338   2.677
 6606SOL    HW120717   6.302   1.392   2.613
 6606SOL    HW220718   6.374   1.247   2.638
 6607SOL     OW20719   1.209   2.028   3.544
 6607SOL    HW120720   1.256   2.115   3.527
 6607SOL    HW220721   1.267   1.969   3.600
 6608SOL     OW20722   5.645   3.938   4.866
 6608SOL    HW120723   5.621   4.026   4.825
 6608SOL    HW220724   5.565   3.878   4.866
 6609SOL     OW20725   5.729   1.065   6.756
 6609SOL    HW120726   5.681   1.016   6.683
 6609SOL    HW220727   5.703   1.161   6.755
 6610SOL     OW20728   2.917   0.959   0.474
 6610SOL    HW120729   2.992   0.969   0.540
 6610SOL    HW220730   2.956   0.938   0.384
 6611SOL     OW20731   5.259   3.118   2.919
 6611SOL    HW120732   5.207   3.084   2.997
 6611SOL    HW220733   5.356   3.100   2.933
 6612SOL     OW20734   1.140   5.864   6.040
 6612SOL    HW120735   1.127   5.773   6.080
 6612SOL    HW220736   1.051   5.907   6.025
 6613SOL     OW20737   5.165   4.912   1.269
 6613SOL    HW120738   5.231   4.979   1.304
 6613SOL    HW220739   5.195   4.820   1.293
 6614SOL     OW20740   4.945   5.389   5.985
 6614SOL    HW120741   4.932   5.455   5.911
 6614SOL    HW220742   4.907   5.426   6.069
 6615SOL     OW20743   0.932   4.378   5.382
 6615SOL    HW120744   0.889   4.339   5.463
 6615SOL    HW220745   1.028   4.349   5.378
 6616SOL     OW20746   4.782   0.647   4.532
 6616SOL    HW120747   4.841   0.641   4.612
 6616SOL    HW220748   4.779   0.742   4.499
 6617SOL     OW20749   4.546   6.687   5.410
 6617SOL    HW120750   4.463   6.734   5.438
 6617SOL    HW220751   4.580   6.728   5.325
 6618SOL     OW20752   0.920   5.048   1.177
 6618SOL    HW120753   0.900   4.956   1.211
 6618SOL    HW220754   0.839   5.106   1.189
 6619SOL     OW20755   6.489   6.271   1.954
 6619SOL    HW120756   6.523   6.194   2.008
 6619SOL    HW220757   6.447   6.236   1.870
 6620SOL     OW20758   3.906   3.235   5.855
 6620SOL    HW120759   3.941   3.281   5.937
 6620SOL    HW220760   3.837   3.168   5.882
 6621SOL     OW20761   2.724   3.610   0.353
 6621SOL    HW120762   2.716   3.517   0.318
 6621SOL    HW220763   2.790   3.661   0.297
 6622SOL     OW20764   6.285   6.652   0.459
 6622SOL    HW120765   6.211   6.610   0.407
 6622SOL    HW220766   6.274   6.751   0.460
 6623SOL     OW20767   3.372   3.757   2.328
 6623SOL    HW120768   3.435   3.825   2.290
 6623SOL    HW220769   3.420   3.670   2.341
 6624SOL     OW20770   4.688   5.292   3.816
 6624SOL    HW120771   4.724   5.364   3.757
 6624SOL    HW220772   4.715   5.311   3.911
 6625SOL     OW20773   5.407   0.260   6.774
 6625SOL    HW120774   5.501   0.255   6.809
 6625SOL    HW220775   5.404   0.217   6.683
 6626SOL     OW20776   3.178   5.484   3.477
 6626SOL    HW120777   3.121   5.542   3.419
 6626SOL    HW220778   3.151   5.389   3.467
 6627SOL     OW20779   2.013   6.236   1.768
 6627SOL    HW120780   1.916   6.227   1.789
 6627SOL    HW220781   2.038   6.333   1.761
 6628SOL     OW20782   3.900   6.314   3.328
 6628SOL    HW120783   3.933   6.364   3.408
 6628SOL    HW220784   3.907   6.215   3.346
 6629SOL     OW20785   3.590   3.669   0.500
 6629SOL    HW120786   3.681   3.682   0.539
 6629SOL    HW220787   3.584   3.576   0.462
 6630SOL     OW20788   2.756   1.945   5.867
 6630SOL    HW120789   2.825   1.873   5.884
 6630SOL    HW220790   2.802   2.033   5.860
 6631SOL     OW20791   3.843   0.527   1.955
 6631SOL    HW120792   3.779   0.602   1.941
 6631SOL    HW220793   3.796   0.440   1.939
 6632SOL     OW20794   6.632   2.667   2.338
 6632SOL    HW120795   6.711   2.718   2.371
 6632SOL    HW220796   6.589   2.717   2.263
 6633SOL     OW20797   0.536   0.029   1.137
 6633SOL    HW120798   0.450   0.017   1.187
 6633SOL    HW220799   0.603   0.074   1.196
 6634SOL     OW20800   0.061   3.017   5.669
 6634SOL    HW120801   0.156   3.045   5.659
 6634SOL    HW220802   0.001   3.091   5.638
 6635SOL     OW20803   4.322   4.772   2.889
 6635SOL    HW120804   4.389   4.842   2.866
 6635SOL    HW220805   4.326   4.698   2.822
 6636SOL     OW20806   1.602   2.745   3.768
 6636SOL    HW120807   1.583   2.711   3.860
 6636SOL    HW220808   1.632   2.668   3.710
 6637SOL     OW20809   6.548   1.176   1.403
 6637SOL    HW120810   6.474   1.174   1.337
 6637SOL    HW220811   6.635   1.156   1.358
 6638SOL     OW20812   2.407   6.482   6.067
 6638SOL    HW120813   2.338   6.414   6.089
 6638SOL    HW220814   2.469   6.446   5.998
 6639SOL     OW20815   5.265   5.626   6.793
 6639SOL    HW120816   5.313   5.712   6.775
 6639SOL    HW220817   5.314   5.575   6.864
 6640SOL     OW20818   5.494   2.793   3.931
 6640SOL    HW120819   5.550   2.726   3.979
 6640SOL    HW220820   5.464   2.755   3.843
 6641SOL     OW20821   2.151   4.344   6.785
 6641SOL    HW120822   2.080   4.390   6.838
 6641SOL    HW220823   2.112   4.308   6.700
 6642SOL     OW20824   6.934   6.814   0.247
 6642SOL    HW120825   6.858   6.867   0.210
 6642SOL    HW220826   7.014   6.825   0.188
 6643SOL     OW20827   4.315   5.949   0.104
 6643SOL    HW120828   4.394   5.888   0.097
 6643SOL    HW220829   4.232   5.898   0.083
 6644SOL     OW20830   2.443   4.449   2.235
 6644SOL    HW120831   2.371   4.517   2.222
 6644SOL    HW220832   2.524   4.477   2.185
 6645SOL     OW20833   6.806   4.698   4.910
 6645SOL    HW120834   6.839   4.605   4.892
 6645SOL    HW220835   6.794   4.746   4.823
 6646SOL     OW20836   1.587   6.317   3.586
 6646SOL    HW120837   1.685   6.310   3.569
 6646SOL    HW220838   1.565   6.408   3.620
 6647SOL     OW20839   4.096   1.870   2.302
 6647SOL    HW120840   4.042   1.953   2.290
 6647SOL    HW220841   4.094   1.817   2.217
 6648SOL     OW20842   4.553   5.957   1.999
 6648SOL    HW120843   4.561   5.937   2.097
 6648SOL    HW220844   4.589   5.880   1.946
 6649SOL     OW20845   3.579   2.118   6.419
 6649SOL    HW120846   3.489   2.093   6.456
 6649SOL    HW220847   3.580   2.216   6.399
 6650SOL     OW20848   2.934   2.151   3.124
 6650SOL    HW120849   2.944   2.121   3.219
 6650SOL    HW220850   2.882   2.237   3.121
 6651SOL     OW20851   1.292   2.742   0.234
 6651SOL    HW120852   1.331   2.791   0.156
 6651SOL    HW220853   1.275   2.647   0.208
 6652SOL     OW20854   0.728   5.835   3.098
 6652SOL    HW120855   0.745   5.933   3.097
 6652SOL    HW220856   0.716   5.804   3.192
 6653SOL     OW20857   3.416   3.415   3.351
 6653SOL    HW120858   3.385   3.392   3.259
 6653SOL    HW220859   3.476   3.496   3.347
 6654SOL     OW20860   2.064   3.369   1.806
 6654SOL    HW120861   2.015   3.450   1.773
 6654SOL    HW220862   2.096   3.385   1.899
 6655SOL     OW20863   2.311   0.348   0.830
 6655SOL    HW120864   2.265   0.337   0.918
 6655SOL    HW220865   2.254   0.403   0.769
 6656SOL     OW20866   6.614   2.296   1.363
 6656SOL    HW120867   6.598   2.231   1.437
 6656SOL    HW220868   6.620   2.247   1.276
 6657SOL     OW20869   2.962   5.101   6.231
 6657SOL    HW120870   2.988   5.005   6.230
 6657SOL    HW220871   3.043   5.158   6.215
 6658SOL     OW20872   5.434   0.227   5.752
 6658SOL    HW120873   5.346   0.247   5.795
 6658SOL    HW220874   5.420   0.202   5.656
 6659SOL     OW20875   1.585   3.159   6.824
 6659SOL    HW120876   1.488   3.162   6.851
 6659SOL    HW220877   1.630   3.082   6.871
 6660SOL     OW20878   0.397   0.240   2.877
 6660SOL    HW120879   0.387   0.338   2.860
 6660SOL    HW220880   0.459   0.201   2.808
 6661SOL     OW20881   0.248   5.805   3.254
 6661SOL    HW120882   0.240   5.887   3.198
 6661SOL    HW220883   0.263   5.726   3.195
 6662SOL     OW20884   0.946   3.782   5.974
 6662SOL    HW120885   0.895   3.791   5.889
 6662SOL    HW220886   0.882   3.773   6.051
 6663SOL     OW20887   0.415   5.260   2.247
 6663SOL    HW120888   0.474   5.225   2.174
 6663SOL    HW220889   0.433   5.210   2.332
 6664SOL     OW20890   0.618   1.993   3.018
 6664SOL    HW120891   0.621   2.060   3.092
 6664SOL    HW220892   0.680   2.020   2.945
 6665SOL     OW20893   2.818   6.650   2.268
 6665SOL    HW120894   2.906   6.633   2.311
 6665SOL    HW220895   2.760   6.569   2.278
 6666SOL     OW20896   6.049   7.012   0.462
 6666SOL    HW120897   6.144   0.007   0.436
 6666SOL    HW220898   6.016   0.070   0.515
 6667SOL     OW20899   6.786   4.963   4.134
 6667SOL    HW120900   6.840   5.041   4.166
 6667SOL    HW220901   6.835   4.878   4.155
 6668SOL     OW20902   0.358   6.152   1.458
 6668SOL    HW120903   0.391   6.236   1.415
 6668SOL    HW220904   0.385   6.073   1.403
 6669SOL     OW20905   1.706   5.373   2.850
 6669SOL    HW120906   1.632   5.391   2.916
 6669SOL    HW220907   1.695   5.282   2.811
 6670SOL     OW20908   3.308   4.542   0.307
 6670SOL    HW120909   3.364   4.478   0.254
 6670SOL    HW220910   3.355   4.630   0.315
 6671SOL     OW20911   0.335   2.568   5.465
 6671SOL    HW120912   0.383   2.564   5.553
 6671SOL    HW220913   0.272   2.646   5.465
 6672SOL     OW20914   1.141   0.578   5.506
 6672SOL    HW120915   1.149   0.598   5.408
 6672SOL    HW220916   1.157   0.661   5.558
 6673SOL     OW20917   5.257   4.818   1.741
 6673SOL    HW120918   5.169   4.865   1.742
 6673SOL    HW220919   5.258   4.749   1.669
 6674SOL     OW20920   0.697   0.263   4.603
 6674SOL    HW120921   0.722   0.176   4.646
 6674SOL    HW220922   0.773   0.297   4.549
 6675SOL     OW20923   6.770   6.116   0.609
 6675SOL    HW120924   6.824   6.090   0.689
 6675SOL    HW220925   6.821   6.183   0.555
 6676SOL     OW20926   1.120   2.163   6.828
 6676SOL    HW120927   1.086   2.254   6.803
 6676SOL    HW220928   1.184   2.171   6.904
 6677SOL     OW20929   6.531   3.861   6.930
 6677SOL    HW120930   6.616   3.912   6.943
 6677SOL    HW220931   6.454   3.925   6.923
 6678SOL     OW20932   0.961   2.925   4.740
 6678SOL    HW120933   1.059   2.918   4.758
 6678SOL    HW220934   0.944   2.999   4.674
 6679SOL     OW20935   1.821   1.622   4.224
 6679SOL    HW120936   1.911   1.588   4.250
 6679SOL    HW220937   1.814   1.718   4.249
 6680SOL     OW20938   2.201   6.642   6.039
 6680SOL    HW120939   2.295   6.611   6.028
 6680SOL    HW220940   2.156   6.643   5.949
 6681SOL     OW20941   5.852   5.551   0.249
 6681SOL    HW120942   5.886   5.457   0.244
 6681SOL    HW220943   5.926   5.614   0.225
 6682SOL     OW20944   0.016   5.635   2.706
 6682SOL    HW120945   0.071   5.561   2.746
 6682SOL    HW220946   6.950   5.597   2.672
 6683SOL     OW20947   5.252   1.758   4.182
 6683SOL    HW120948   5.254   1.856   4.160
 6683SOL    HW220949   5.345   1.721   4.178
 6684SOL     OW20950   2.328   0.580   2.210
 6684SOL    HW120951   2.365   0.635   2.135
 6684SOL    HW220952   2.276   0.639   2.272
 6685SOL     OW20953   5.484   3.854   6.039
 6685SOL    HW120954   5.563   3.845   6.099
 6685SOL    HW220955   5.442   3.764   6.024
 6686SOL     OW20956   5.440   4.256   3.996
 6686SOL    HW120957   5.364   4.202   4.032
 6686SOL    HW220958   5.403   4.335   3.946
 6687SOL     OW20959   0.985   1.489   0.096
 6687SOL    HW120960   1.007   1.396   0.068
 6687SOL    HW220961   1.018   1.505   0.189
 6688SOL     OW20962   0.749   5.448   3.333
 6688SOL    HW120963   0.768   5.359   3.376
 6688SOL    HW220964   0.652   5.454   3.310
 6689SOL     OW20965   4.537   5.049   0.281
 6689SOL    HW120966   4.551   4.953   0.261
 6689SOL    HW220967   4.441   5.073   0.268
 6690SOL     OW20968   1.059   1.955   0.769
 6690SOL    HW120969   1.077   1.928   0.674
 6690SOL    HW220970   1.070   2.054   0.778
 6691SOL     OW20971   1.537   5.378   1.160
 6691SOL    HW120972   1.457   5.435   1.142
 6691SOL    HW220973   1.578   5.349   1.073
 6692SOL     OW20974   3.383   4.085   6.144
 6692SOL    HW120975   3.370   4.025   6.222
 6692SOL    HW220976   3.449   4.044   6.080
 6693SOL     OW20977   3.738   4.157   4.776
 6693SOL    HW120978   3.724   4.171   4.678
 6693SOL    HW220979   3.780   4.238   4.816
 6694SOL     OW20980   2.871   5.952   0.202
 6694SOL    HW120981   2.800   5.947   0.132
 6694SOL    HW220982   2.947   5.893   0.177
 6695SOL     OW20983   1.315   1.582   6.656
 6695SOL    HW120984   1.220   1.597   6.681
 6695SOL    HW220985   1.319   1.532   6.569
 6696SOL     OW20986   2.116   3.289   2.231
 6696SOL    HW120987   2.165   3.338   2.159
 6696SOL    HW220988   2.181   3.240   2.289
 6697SOL     OW20989   5.728   1.831   3.347
 6697SOL    HW120990   5.823   1.808   3.370
 6697SOL    HW220991   5.707   1.799   3.255
 6698SOL     OW20992   3.533   4.189   0.564
 6698SOL    HW120993   3.465   4.147   0.624
 6698SOL    HW220994   3.499   4.190   0.470
 6699SOL     OW20995   1.408   3.490   6.753
 6699SOL    HW120996   1.333   3.477   6.818
 6699SOL    HW220997   1.393   3.575   6.702
 6700SOL     OW20998   6.354   6.757   6.690
 6700SOL    HW120999   6.404   6.824   6.746
 6700SOL    HW221000   6.388   6.665   6.711
 6701SOL     OW21001   0.726   2.368   0.947
 6701SOL    HW121002   0.735   2.465   0.924
 6701SOL    HW221003   0.680   2.358   1.035
 6702SOL     OW21004   1.710   2.749   1.164
 6702SOL    HW121005   1.696   2.843   1.196
 6702SOL    HW221006   1.766   2.699   1.230
 6703SOL     OW21007   0.333   2.101   6.913
 6703SOL    HW121008   0.241   2.113   6.949
 6703SOL    HW221009   0.396   2.080   6.988
 6704SOL     OW21010   5.188   1.775   3.333
 6704SOL    HW121011   5.188   1.864   3.379
 6704SOL    HW221012   5.228   1.785   3.242
 6705SOL     OW21013   6.405   0.899   0.397
 6705SOL    HW121014   6.454   0.851   0.324
 6705SOL    HW221015   6.332   0.840   0.432
 6706SOL     OW21016   0.593   5.151   6.875
 6706SOL    HW121017   0.601   5.156   6.776
 6706SOL    HW221018   0.681   5.177   6.917
 6707SOL     OW21019   1.103   5.854   2.338
 6707SOL    HW121020   1.162   5.784   2.298
 6707SOL    HW221021   1.130   5.870   2.433
 6708SOL     OW21022   2.690   5.928   1.439
 6708SOL    HW121023   2.735   5.943   1.527
 6708SOL    HW221024   2.687   5.830   1.419
 6709SOL     OW21025   5.985   1.339   2.785
 6709SOL    HW121026   5.988   1.408   2.713
 6709SOL    HW221027   6.074   1.332   2.830
 6710SOL     OW21028   2.174   2.199   1.344
 6710SOL    HW121029   2.176   2.100   1.361
 6710SOL    HW221030   2.117   2.244   1.413
 6711SOL     OW21031   4.095   3.565   0.613
 6711SOL    HW121032   4.149   3.632   0.664
 6711SOL    HW221033   4.156   3.501   0.566
 6712SOL     OW21034   3.259   6.232   1.247
 6712SOL    HW121035   3.312   6.316   1.259
 6712SOL    HW221036   3.245   6.215   1.149
 6713SOL     OW21037   1.856   1.608   2.174
 6713SOL    HW121038   1.902   1.525   2.205
 6713SOL    HW221039   1.868   1.680   2.243
 6714SOL     OW21040   6.916   0.358   3.449
 6714SOL    HW121041   6.936   0.428   3.380
 6714SOL    HW221042   6.958   0.384   3.536
 6715SOL     OW21043   0.040   1.756   0.914
 6715SOL    HW121044   6.990   1.820   0.944
 6715SOL    HW221045   0.129   1.783   0.952
 6716SOL     OW21046   2.819   5.406   0.080
 6716SOL    HW121047   2.814   5.421   7.002
 6716SOL    HW221048   2.753   5.465   0.127
 6717SOL     OW21049   3.791   1.562   6.493
 6717SOL    HW121050   3.774   1.626   6.418
 6717SOL    HW221051   3.814   1.612   6.576
 6718SOL     OW21052   3.302   6.723   6.889
 6718SOL    HW121053   3.332   6.688   6.978
 6718SOL    HW221054   3.321   6.821   6.884
 6719SOL     OW21055   0.374   0.335   5.293
 6719SOL    HW121056   0.297   0.354   5.354
 6719SOL    HW221057   0.403   0.419   5.249
 6720SOL     OW21058   1.810   4.706   1.819
 6720SOL    HW121059   1.718   4.674   1.842
 6720SOL    HW221060   1.837   4.667   1.731
 6721SOL     OW21061   6.208   6.199   3.382
 6721SOL    HW121062   6.157   6.258   3.445
 6721SOL    HW221063   6.298   6.238   3.365
 6722SOL     OW21064   4.851   4.300   6.616
 6722SOL    HW121065   4.825   4.285   6.521
 6722SOL    HW221066   4.905   4.222   6.648
 6723SOL     OW21067   4.303   0.464   2.866
 6723SOL    HW121068   4.218   0.498   2.827
 6723SOL    HW221069   4.287   0.375   2.910
 6724SOL     OW21070   3.355   4.930   5.459
 6724SOL    HW121071   3.315   4.887   5.539
 6724SOL    HW221072   3.282   4.969   5.402
 6725SOL     OW21073   0.336   4.958   1.937
 6725SOL    HW121074   0.424   5.002   1.957
 6725SOL    HW221075   0.271   4.978   2.009
 6726SOL     OW21076   2.467   2.593   2.003
 6726SOL    HW121077   2.379   2.595   1.955
 6726SOL    HW221078   2.455   2.626   2.096
 6727SOL     OW21079   3.958   3.866   0.348
 6727SOL    HW121080   4.050   3.887   0.317
 6727SOL    HW221081   3.897   3.858   0.269
 6728SOL     OW21082   4.717   1.603   4.189
 6728SOL    HW121083   4.756   1.609   4.097
 6728SOL    HW221084   4.622   1.634   4.188
 6729SOL     OW21085   5.629   6.136   2.649
 6729SOL    HW121086   5.628   6.222   2.700
 6729SOL    HW221087   5.559   6.139   2.577
 6730SOL     OW21088   1.260   0.261   1.419
 6730SOL    HW121089   1.338   0.267   1.482
 6730SOL    HW221090   1.187   0.208   1.461
 6731SOL     OW21091   2.167   4.356   1.810
 6731SOL    HW121092   2.212   4.274   1.844
 6731SOL    HW221093   2.145   4.416   1.888
 6732SOL     OW21094   1.749   4.833   0.918
 6732SOL    HW121095   1.729   4.893   0.996
 6732SOL    HW221096   1.826   4.869   0.866
 6733SOL     OW21097   5.744   5.946   4.799
 6733SOL    HW121098   5.675   5.901   4.743
 6733SOL    HW221099   5.752   5.898   4.887
 6734SOL     OW21100   2.885   3.652   5.129
 6734SOL    HW121101   2.860   3.748   5.129
 6734SOL    HW221102   2.815   3.599   5.177
 6735SOL     OW21103   6.727   5.285   6.633
 6735SOL    HW121104   6.815   5.330   6.652
 6735SOL    HW221105   6.743   5.189   6.611
 6736SOL     OW21106   2.080   3.652   2.819
 6736SOL    HW121107   2.005   3.719   2.817
 6736SOL    HW221108   2.136   3.668   2.901
 6737SOL     OW21109   2.054   0.340   1.474
 6737SOL    HW121110   2.136   0.314   1.525
 6737SOL    HW221111   1.994   0.395   1.533
 6738SOL     OW21112   4.044   1.486   1.736
 6738SOL    HW121113   4.113   1.514   1.802
 6738SOL    HW221114   3.994   1.566   1.704
 6739SOL     OW21115   4.704   0.634   5.056
 6739SOL    HW121116   4.791   0.627   5.104
 6739SOL    HW221117   4.681   0.545   5.016
 6740SOL     OW21118   6.283   3.067   5.055
 6740SOL    HW121119   6.276   3.086   5.153
 6740SOL    HW221120   6.201   3.101   5.009
 6741SOL     OW21121   6.898   6.801   5.564
 6741SOL    HW121122   6.985   6.781   5.610
 6741SOL    HW221123   6.839   6.851   5.627
 6742SOL     OW21124   6.252   5.862   5.135
 6742SOL    HW121125   6.298   5.774   5.144
 6742SOL    HW221126   6.159   5.847   5.101
 6743SOL     OW21127   5.154   2.669   0.842
 6743SOL    HW121128   5.211   2.645   0.921
 6743SOL    HW221129   5.088   2.739   0.869
 6744SOL     OW21130   5.216   5.513   5.267
 6744SOL    HW121131   5.215   5.559   5.178
 6744SOL    HW221132   5.308   5.520   5.307
 6745SOL     OW21133   0.791   3.730   3.183
 6745SOL    HW121134   0.819   3.803   3.245
 6745SOL    HW221135   0.716   3.679   3.223
 6746SOL     OW21136   0.197   0.648   1.058
 6746SOL    HW121137   0.204   0.553   1.090
 6746SOL    HW221138   0.265   0.704   1.106
 6747SOL     OW21139   5.160   6.615   6.558
 6747SOL    HW121140   5.259   6.608   6.571
 6747SOL    HW221141   5.140   6.643   6.464
 6748SOL     OW21142   0.315   6.598   1.635
 6748SOL    HW121143   0.262   6.525   1.677
 6748SOL    HW221144   0.412   6.572   1.635
 6749SOL     OW21145   3.686   6.056   0.990
 6749SOL    HW121146   3.699   6.077   0.893
 6749SOL    HW221147   3.704   5.959   1.006
 6750SOL     OW21148   2.447   3.182   5.419
 6750SOL    HW121149   2.448   3.280   5.402
 6750SOL    HW221150   2.460   3.133   5.333
 6751SOL     OW21151   3.161   2.072   5.785
 6751SOL    HW121152   3.149   2.144   5.853
 6751SOL    HW221153   3.197   2.111   5.701
 6752SOL     OW21154   6.207   1.981   0.590
 6752SOL    HW121155   6.281   1.957   0.654
 6752SOL    HW221156   6.128   1.922   0.607
 6753SOL     OW21157   5.692   1.439   5.969
 6753SOL    HW121158   5.725   1.357   5.923
 6753SOL    HW221159   5.594   1.450   5.951
 6754SOL     OW21160   4.766   1.382   0.098
 6754SOL    HW121161   4.777   1.442   0.018
 6754SOL    HW221162   4.677   1.335   0.092
 6755SOL     OW21163   5.322   1.734   3.572
 6755SOL    HW121164   5.286   1.732   3.478
 6755SOL    HW221165   5.332   1.829   3.601
 6756SOL     OW21166   4.839   4.578   3.642
 6756SOL    HW121167   4.756   4.634   3.636
 6756SOL    HW221168   4.861   4.542   3.552
 6757SOL     OW21169   5.850   4.802   1.808
 6757SOL    HW121170   5.755   4.777   1.828
 6757SOL    HW221171   5.858   4.826   1.712
 6758SOL     OW21172   6.083   1.454   3.077
 6758SOL    HW121173   6.130   1.408   3.001
 6758SOL    HW221174   6.031   1.386   3.129
 6759SOL     OW21175   1.288   4.425   3.531
 6759SOL    HW121176   1.189   4.422   3.522
 6759SOL    HW221177   1.312   4.442   3.627
 6760SOL     OW21178   0.519   4.265   5.454
 6760SOL    HW121179   0.524   4.170   5.482
 6760SOL    HW221180   0.547   4.274   5.359
 6761SOL     OW21181   6.176   3.437   6.523
 6761SOL    HW121182   6.216   3.358   6.475
 6761SOL    HW221183   6.226   3.453   6.608
 6762SOL     OW21184   5.967   4.303   3.255
 6762SOL    HW121185   5.983   4.267   3.347
 6762SOL    HW221186   5.896   4.248   3.210
 6763SOL     OW21187   6.479   6.516   5.102
 6763SOL    HW121188   6.419   6.439   5.122
 6763SOL    HW221189   6.555   6.485   5.045
 6764SOL     OW21190   1.803   3.223   6.977
 6764SOL    HW121191   1.832   3.318   6.992
 6764SOL    HW221192   1.735   3.220   6.904
 6765SOL     OW21193   4.994   5.032   2.457
 6765SOL    HW121194   4.938   5.044   2.375
 6765SOL    HW221195   5.052   5.112   2.470
 6766SOL     OW21196   1.709   1.746   5.628
 6766SOL    HW121197   1.639   1.806   5.590
 6766SOL    HW221198   1.666   1.667   5.671
 6767SOL     OW21199   0.987   2.806   5.703
 6767SOL    HW121200   0.936   2.885   5.669
 6767SOL    HW221201   0.964   2.725   5.650
 6768SOL     OW21202   0.101   1.026   5.798
 6768SOL    HW121203   0.005   1.035   5.824
 6768SOL    HW221204   0.153   1.103   5.834
 6769SOL     OW21205   0.839   2.457   6.983
 6769SOL    HW121206   0.925   2.453   6.932
 6769SOL    HW221207   0.845   2.529   0.033
 6770SOL     OW21208   6.606   1.350   4.621
 6770SOL    HW121209   6.688   1.311   4.662
 6770SOL    HW221210   6.533   1.352   4.688
 6771SOL     OW21211   5.095   1.935   2.315
 6771SOL    HW121212   5.121   1.876   2.391
 6771SOL    HW221213   5.003   1.971   2.332
 6772SOL     OW21214   1.292   0.838   1.689
 6772SOL    HW121215   1.248   0.758   1.649
 6772SOL    HW221216   1.222   0.906   1.713
 6773SOL     OW21217   1.153   0.066   1.893
 6773SOL    HW121218   1.168   0.099   1.986
 6773SOL    HW221219   1.099   0.133   1.842
 6774SOL     OW21220   3.296   1.463   5.827
 6774SOL    HW121221   3.342   1.425   5.747
 6774SOL    HW221222   3.206   1.421   5.837
 6775SOL     OW21223   1.505   3.182   4.770
 6775SOL    HW121224   1.495   3.149   4.864
 6775SOL    HW221225   1.466   3.115   4.707
 6776SOL     OW21226   2.929   3.765   3.593
 6776SOL    HW121227   2.896   3.725   3.507
 6776SOL    HW221228   2.984   3.846   3.573
 6777SOL     OW21229   0.706   6.998   6.185
 6777SOL    HW121230   0.712   6.959   6.093
 6777SOL    HW221231   0.610   7.011   6.210
 6778SOL     OW21232   6.482   6.232   2.370
 6778SOL    HW121233   6.537   6.188   2.299
 6778SOL    HW221234   6.424   6.163   2.414
 6779SOL     OW21235   4.347   4.590   6.694
 6779SOL    HW121236   4.413   4.515   6.696
 6779SOL    HW221237   4.390   4.673   6.729
 6780SOL     OW21238   3.931   0.637   2.871
 6780SOL    HW121239   3.984   0.580   2.932
 6780SOL    HW221240   3.975   0.641   2.781
 6781SOL     OW21241   6.501   3.132   3.406
 6781SOL    HW121242   6.530   3.216   3.361
 6781SOL    HW221243   6.482   3.151   3.502
 6782SOL     OW21244   0.574   1.711   3.523
 6782SOL    HW121245   0.603   1.795   3.478
 6782SOL    HW221246   0.492   1.728   3.577
 6783SOL     OW21247   0.627   6.391   6.128
 6783SOL    HW121248   0.626   6.344   6.216
 6783SOL    HW221249   0.685   6.340   6.064
 6784SOL     OW21250   1.736   4.591   0.780
 6784SOL    HW121251   1.826   4.570   0.741
 6784SOL    HW221252   1.743   4.675   0.834
 6785SOL     OW21253   5.452   4.827   2.417
 6785SOL    HW121254   5.528   4.763   2.412
 6785SOL    HW221255   5.365   4.776   2.412
 6786SOL     OW21256   6.355   1.753   5.541
 6786SOL    HW121257   6.324   1.754   5.446
 6786SOL    HW221258   6.411   1.834   5.559
 6787SOL     OW21259   3.162   1.280   0.631
 6787SOL    HW121260   3.089   1.310   0.569
 6787SOL    HW221261   3.129   1.284   0.726
 6788SOL     OW21262   0.742   4.239   1.399
 6788SOL    HW121263   0.650   4.242   1.437
 6788SOL    HW221264   0.802   4.189   1.462
 6789SOL     OW21265   5.763   4.193   2.461
 6789SOL    HW121266   5.748   4.095   2.478
 6789SOL    HW221267   5.700   4.224   2.390
 6790SOL     OW21268   0.912   5.976   0.800
 6790SOL    HW121269   0.881   6.022   0.717
 6790SOL    HW221270   1.002   5.936   0.785
 6791SOL     OW21271   2.852   6.005   4.000
 6791SOL    HW121272   2.756   5.976   4.001
 6791SOL    HW221273   2.861   6.090   3.949
 6792SOL     OW21274   3.394   6.161   6.451
 6792SOL    HW121275   3.488   6.133   6.468
 6792SOL    HW221276   3.392   6.236   6.385
 6793SOL     OW21277   2.712   3.895   6.525
 6793SOL    HW121278   2.722   3.984   6.569
 6793SOL    HW221279   2.678   3.829   6.592
 6794SOL     OW21280   5.351   2.581   4.403
 6794SOL    HW121281   5.372   2.531   4.487
 6794SOL    HW221282   5.432   2.632   4.374
 6795SOL     OW21283   0.460   0.314   1.507
 6795SOL    HW121284   0.525   0.318   1.431
 6795SOL    HW221285   0.388   0.382   1.492
 6796SOL     OW21286   6.523   2.527   2.539
 6796SOL    HW121287   6.432   2.485   2.541
 6796SOL    HW221288   6.528   2.593   2.464
 6797SOL     OW21289   1.976   3.286   1.247
 6797SOL    HW121290   2.062   3.331   1.272
 6797SOL    HW221291   1.938   3.240   1.327
 6798SOL     OW21292   4.949   0.925   2.053
 6798SOL    HW121293   4.870   0.985   2.059
 6798SOL    HW221294   5.021   0.960   2.113
 6799SOL     OW21295   6.038   6.818   2.872
 6799SOL    HW121296   6.119   6.762   2.856
 6799SOL    HW221297   5.966   6.793   2.808
 6800SOL     OW21298   0.114   3.250   2.384
 6800SOL    HW121299   0.095   3.161   2.425
 6800SOL    HW221300   0.033   3.283   2.337
 6801SOL     OW21301   1.475   5.203   5.696
 6801SOL    HW121302   1.415   5.237   5.768
 6801SOL    HW221303   1.557   5.260   5.692
 6802SOL     OW21304   2.857   4.820   1.841
 6802SOL    HW121305   2.773   4.832   1.788
 6802SOL    HW221306   2.849   4.738   1.899
 6803SOL     OW21307   5.440   5.486   6.971
 6803SOL    HW121308   5.461   5.389   6.957
 6803SOL    HW221309   5.520   5.532   7.009
 6804SOL     OW21310   3.068   5.397   1.843
 6804SOL    HW121311   3.145   5.356   1.794
 6804SOL    HW221312   3.103   5.466   1.907
 6805SOL     OW21313   0.776   4.440   3.513
 6805SOL    HW121314   0.718   4.517   3.487
 6805SOL    HW221315   0.720   4.366   3.549
 6806SOL     OW21316   5.605   3.786   2.688
 6806SOL    HW121317   5.603   3.709   2.624
 6806SOL    HW221318   5.558   3.761   2.772
 6807SOL     OW21319   3.199   4.086   2.252
 6807SOL    HW121320   3.158   4.017   2.193
 6807SOL    HW221321   3.177   4.177   2.218
 6808SOL     OW21322   3.232   0.051   2.879
 6808SOL    HW121323   3.170   0.007   2.945
 6808SOL    HW221324   3.258   7.004   2.809
 6809SOL     OW21325   5.610   2.262   0.920
 6809SOL    HW121326   5.549   2.190   0.886
 6809SOL    HW221327   5.696   2.259   0.869
 6810SOL     OW21328   2.399   0.564   4.540
 6810SOL    HW121329   2.475   0.506   4.511
 6810SOL    HW221330   2.370   0.538   4.632
 6811SOL     OW21331   6.860   1.021   1.030
 6811SOL    HW121332   6.935   0.960   1.004
 6811SOL    HW221333   6.774   0.970   1.032
 6812SOL     OW21334   3.359   4.506   5.361
 6812SOL    HW121335   3.277   4.563   5.350
 6812SOL    HW221336   3.332   4.411   5.376
 6813SOL     OW21337   0.409   4.221   1.949
 6813SOL    HW121338   0.509   4.223   1.948
 6813SOL    HW221339   0.379   4.145   2.008
 6814SOL     OW21340   4.952   1.699   1.751
 6814SOL    HW121341   5.023   1.718   1.683
 6814SOL    HW221342   4.995   1.672   1.837
 6815SOL     OW21343   0.654   5.995   6.773
 6815SOL    HW121344   0.577   6.057   6.789
 6815SOL    HW221345   0.739   6.042   6.797
 6816SOL     OW21346   6.461   0.228   3.847
 6816SOL    HW121347   6.530   0.282   3.894
 6816SOL    HW221348   6.375   0.231   3.899
 6817SOL     OW21349   5.309   1.034   1.785
 6817SOL    HW121350   5.408   1.021   1.789
 6817SOL    HW221351   5.264   0.947   1.805
 6818SOL     OW21352   1.162   0.623   5.241
 6818SOL    HW121353   1.115   0.563   5.176
 6818SOL    HW221354   1.107   0.705   5.257
 6819SOL     OW21355   4.890   4.140   1.262
 6819SOL    HW121356   4.861   4.069   1.326
 6819SOL    HW221357   4.943   4.098   1.188
 6820SOL     OW21358   2.625   4.261   1.260
 6820SOL    HW121359   2.665   4.293   1.346
 6820SOL    HW221360   2.643   4.327   1.188
 6821SOL     OW21361   3.054   3.041   6.035
 6821SOL    HW121362   2.956   3.026   6.025
 6821SOL    HW221363   3.086   3.001   6.121
 6822SOL     OW21364   6.027   3.553   5.367
 6822SOL    HW121365   5.988   3.574   5.457
 6822SOL    HW221366   5.984   3.470   5.331
 6823SOL     OW21367   0.454   2.956   5.915
 6823SOL    HW121368   0.523   2.979   5.984
 6823SOL    HW221369   0.380   3.023   5.920
 6824SOL     OW21370   1.357   0.696   4.108
 6824SOL    HW121371   1.400   0.786   4.097
 6824SOL    HW221372   1.425   0.632   4.142
 6825SOL     OW21373   4.453   4.404   1.426
 6825SOL    HW121374   4.539   4.382   1.474
 6825SOL    HW221375   4.410   4.319   1.396
 6826SOL     OW21376   5.312   0.686   3.628
 6826SOL    HW121377   5.350   0.616   3.567
 6826SOL    HW221378   5.368   0.768   3.625
 6827SOL     OW21379   4.866   5.824   5.623
 6827SOL    HW121380   4.835   5.737   5.586
 6827SOL    HW221381   4.912   5.809   5.710
 6828SOL     OW21382   2.975   2.149   2.353
 6828SOL    HW121383   2.896   2.205   2.330
 6828SOL    HW221384   2.950   2.052   2.344
 6829SOL     OW21385   5.391   5.706   4.237
 6829SOL    HW121386   5.345   5.718   4.149
 6829SOL    HW221387   5.417   5.796   4.273
 6830SOL     OW21388   3.782   5.891   2.367
 6830SOL    HW121389   3.752   5.981   2.398
 6830SOL    HW221390   3.730   5.864   2.286
 6831SOL     OW21391   1.410   1.128   6.756
 6831SOL    HW121392   1.447   1.106   6.846
 6831SOL    HW221393   1.423   1.050   6.695
 6832SOL     OW21394   2.886   3.123   0.429
 6832SOL    HW121395   2.949   3.078   0.367
 6832SOL    HW221396   2.936   3.190   0.485
 6833SOL     OW21397   4.554   4.693   6.928
 6833SOL    HW121398   4.523   4.608   6.972
 6833SOL    HW221399   4.500   4.770   6.961
 6834SOL     OW21400   6.079   5.589   5.073
 6834SOL    HW121401   6.116   5.562   5.162
 6834SOL    HW221402   6.048   5.684   5.077
 6835SOL     OW21403   3.395   0.482   3.353
 6835SOL    HW121404   3.313   0.531   3.383
 6835SOL    HW221405   3.388   0.386   3.379
 6836SOL     OW21406   0.234   4.397   6.937
 6836SOL    HW121407   0.201   4.393   6.843
 6836SOL    HW221408   0.323   4.352   6.944
 6837SOL     OW21409   6.283   0.846   2.254
 6837SOL    HW121410   6.282   0.945   2.271
 6837SOL    HW221411   6.194   0.818   2.218
 6838SOL     OW21412   3.062   3.918   6.049
 6838SOL    HW121413   2.963   3.904   6.040
 6838SOL    HW221414   3.087   4.005   6.007
 6839SOL     OW21415   6.106   2.751   5.736
 6839SOL    HW121416   6.193   2.725   5.694
 6839SOL    HW221417   6.053   2.806   5.671
 6840SOL     OW21418   3.114   6.417   4.337
 6840SOL    HW121419   3.129   6.320   4.318
 6840SOL    HW221420   3.115   6.469   4.252
 6841SOL     OW21421   5.028   7.015   0.514
 6841SOL    HW121422   5.012   0.046   0.430
 6841SOL    HW221423   5.103   0.036   0.566
 6842SOL     OW21424   0.293   3.672   3.472
 6842SOL    HW121425   0.354   3.701   3.546
 6842SOL    HW221426   0.298   3.739   3.397
 6843SOL     OW21427   4.737   2.741   2.029
 6843SOL    HW121428   4.716   2.837   2.047
 6843SOL    HW221429   4.835   2.731   2.009
 6844SOL     OW21430   4.104   0.048   4.576
 6844SOL    HW121431   4.031   0.053   4.644
 6844SOL    HW221432   4.193   0.055   4.623
 6845SOL     OW21433   4.449   3.962   0.277
 6845SOL    HW121434   4.466   3.864   0.276
 6845SOL    HW221435   4.445   3.994   0.372
 6846SOL     OW21436   4.094   3.696   3.111
 6846SOL    HW121437   4.085   3.596   3.102
 6846SOL    HW221438   4.085   3.722   3.207
 6847SOL     OW21439   6.658   3.203   2.139
 6847SOL    HW121440   6.617   3.281   2.092
 6847SOL    HW221441   6.734   3.168   2.085
 6848SOL     OW21442   0.599   5.745   4.190
 6848SOL    HW121443   0.555   5.832   4.170
 6848SOL    HW221444   0.631   5.703   4.105
 6849SOL     OW21445   3.321   6.770   5.090
 6849SOL    HW121446   3.253   6.829   5.133
 6849SOL    HW221447   3.275   6.699   5.036
 6850SOL     OW21448   5.664   3.814   1.637
 6850SOL    HW121449   5.661   3.873   1.556
 6850SOL    HW221450   5.676   3.870   1.719
 6851SOL     OW21451   1.373   5.716   5.540
 6851SOL    HW121452   1.432   5.795   5.524
 6851SOL    HW221453   1.287   5.746   5.581
 6852SOL     OW21454   6.483   5.088   2.223
 6852SOL    HW121455   6.458   5.173   2.271
 6852SOL    HW221456   6.417   5.016   2.246
 6853SOL     OW21457   6.592   4.246   4.781
 6853SOL    HW121458   6.654   4.176   4.748
 6853SOL    HW221459   6.607   4.262   4.879
 6854SOL     OW21460   6.441   1.795   6.291
 6854SOL    HW121461   6.510   1.769   6.359
 6854SOL    HW221462   6.466   1.882   6.250
 6855SOL     OW21463   3.024   6.563   2.054
 6855SOL    HW121464   3.116   6.555   2.015
 6855SOL    HW221465   2.988   6.654   2.035
 6856SOL     OW21466   0.073   4.770   5.820
 6856SOL    HW121467   0.117   4.786   5.908
 6856SOL    HW221468   0.143   4.752   5.750
 6857SOL     OW21469   4.276   1.580   6.744
 6857SOL    HW121470   4.252   1.675   6.724
 6857SOL    HW221471   4.375   1.568   6.736
 6858SOL     OW21472   3.740   3.018   6.671
 6858SOL    HW121473   3.715   3.019   6.768
 6858SOL    HW221474   3.799   3.097   6.652
 6859SOL     OW21475   3.039   0.505   0.467
 6859SOL    HW121476   3.098   0.424   0.473
 6859SOL    HW221477   3.040   0.554   0.555
 6860SOL     OW21478   4.096   3.998   6.749
 6860SOL    HW121479   4.047   3.915   6.775
 6860SOL    HW221480   4.113   4.053   6.831
 6861SOL     OW21481   4.975   4.112   0.803
 6861SOL    HW121482   4.919   4.194   0.786
 6861SOL    HW221483   5.072   4.134   0.792
 6862SOL     OW21484   2.762   5.473   4.342
 6862SOL    HW121485   2.773   5.374   4.354
 6862SOL    HW221486   2.687   5.491   4.278
 6863SOL     OW21487   0.975   2.780   3.553
 6863SOL    HW121488   1.009   2.857   3.607
 6863SOL    HW221489   0.934   2.712   3.613
 6864SOL     OW21490   4.661   5.331   6.529
 6864SOL    HW121491   4.652   5.377   6.441
 6864SOL    HW221492   4.745   5.360   6.574
 6865SOL     OW21493   0.071   3.593   4.854
 6865SOL    HW121494   0.034   3.664   4.794
 6865SOL    HW221495   0.159   3.623   4.891
 6866SOL     OW21496   0.807   3.480   2.307
 6866SOL    HW121497   0.881   3.476   2.374
 6866SOL    HW221498   0.720   3.456   2.351
 6867SOL     OW21499   2.169   5.395   2.982
 6867SOL    HW121500   2.243   5.355   2.928
 6867SOL    HW221501   2.208   5.455   3.052
 6868SOL     OW21502   1.897   5.453   4.681
 6868SOL    HW121503   1.946   5.366   4.678
 6868SOL    HW221504   1.804   5.437   4.713
 6869SOL     OW21505   6.680   3.499   5.035
 6869SOL    HW121506   6.692   3.521   5.132
 6869SOL    HW221507   6.589   3.460   5.021
 6870SOL     OW21508   5.712   3.479   2.540
 6870SOL    HW121509   5.784   3.546   2.560
 6870SOL    HW221510   5.707   3.463   2.442
 6871SOL     OW21511   5.037   6.274   2.109
 6871SOL    HW121512   4.969   6.211   2.072
 6871SOL    HW221513   4.993   6.360   2.134
 6872SOL     OW21514   3.479   3.824   0.734
 6872SOL    HW121515   3.418   3.759   0.779
 6872SOL    HW221516   3.518   3.782   0.652
 6873SOL     OW21517   5.794   4.533   5.110
 6873SOL    HW121518   5.698   4.558   5.126
 6873SOL    HW221519   5.845   4.543   5.196
 6874SOL     OW21520   1.302   2.290   5.504
 6874SOL    HW121521   1.345   2.338   5.581
 6874SOL    HW221522   1.252   2.356   5.448
 6875SOL     OW21523   3.961   1.810   4.203
 6875SOL    HW121524   3.962   1.726   4.149
 6875SOL    HW221525   3.982   1.789   4.298
 6876SOL     OW21526   3.874   6.208   4.029
 6876SOL    HW121527   3.930   6.172   3.955
 6876SOL    HW221528   3.781   6.173   4.022
 6877SOL     OW21529   1.706   4.005   6.479
 6877SOL    HW121530   1.673   4.012   6.385
 6877SOL    HW221531   1.753   4.090   6.504
 6878SOL     OW21532   1.526   2.151   4.422
 6878SOL    HW121533   1.587   2.102   4.484
 6878SOL    HW221534   1.457   2.088   4.386
 6879SOL     OW21535   0.549   1.139   5.715
 6879SOL    HW121536   0.585   1.151   5.807
 6879SOL    HW221537   0.519   1.045   5.702
 6880SOL     OW21538   2.068   3.745   4.296
 6880SOL    HW121539   2.084   3.653   4.261
 6880SOL    HW221540   2.153   3.799   4.290
 6881SOL     OW21541   5.630   5.862   1.657
 6881SOL    HW121542   5.624   5.763   1.658
 6881SOL    HW221543   5.539   5.901   1.645
 6882SOL     OW21544   2.647   6.132   5.270
 6882SOL    HW121545   2.613   6.039   5.280
 6882SOL    HW221546   2.684   6.164   5.358
 6883SOL     OW21547   3.242   6.045   1.706
 6883SOL    HW121548   3.285   6.118   1.759
 6883SOL    HW221549   3.154   6.076   1.671
 6884SOL     OW21550   2.414   5.288   2.827
 6884SOL    HW121551   2.461   5.356   2.883
 6884SOL    HW221552   2.456   5.284   2.736
 6885SOL     OW21553   4.154   5.356   4.972
 6885SOL    HW121554   4.225   5.399   4.916
 6885SOL    HW221555   4.187   5.346   5.066
 6886SOL     OW21556   5.428   1.713   2.451
 6886SOL    HW121557   5.456   1.617   2.456
 6886SOL    HW221558   5.328   1.718   2.456
 6887SOL     OW21559   5.178   0.591   5.535
 6887SOL    HW121560   5.159   0.654   5.460
 6887SOL    HW221561   5.276   0.572   5.539
 6888SOL     OW21562   6.368   0.006   4.833
 6888SOL    HW121563   6.322   0.095   4.840
 6888SOL    HW221564   6.378   6.987   4.925
 6889SOL     OW21565   1.478   4.266   6.039
 6889SOL    HW121566   1.410   4.293   5.971
 6889SOL    HW221567   1.466   4.320   6.122
 6890SOL     OW21568   1.748   0.298   1.068
 6890SOL    HW121569   1.819   0.247   1.020
 6890SOL    HW221570   1.788   0.347   1.145
 6891SOL     OW21571   3.654   5.298   5.261
 6891SOL    HW121572   3.741   5.293   5.212
 6891SOL    HW221573   3.628   5.207   5.292
 6892SOL     OW21574   3.212   1.655   4.696
 6892SOL    HW121575   3.219   1.601   4.780
 6892SOL    HW221576   3.242   1.600   4.618
 6893SOL     OW21577   5.901   0.681   1.643
 6893SOL    HW121578   5.980   0.620   1.647
 6893SOL    HW221579   5.920   0.764   1.695
 6894SOL     OW21580   5.970   4.717   6.475
 6894SOL    HW121581   5.962   4.817   6.473
 6894SOL    HW221582   6.007   4.689   6.564
 6895SOL     OW21583   4.452   5.436   6.692
 6895SOL    HW121584   4.510   5.362   6.658
 6895SOL    HW221585   4.369   5.441   6.637
 6896SOL     OW21586   4.441   0.919   2.908
 6896SOL    HW121587   4.417   0.870   2.992
 6896SOL    HW221588   4.442   0.856   2.831
 6897SOL     OW21589   3.543   1.277   0.915
 6897SOL    HW121590   3.465   1.338   0.901
 6897SOL    HW221591   3.610   1.292   0.843
 6898SOL     OW21592   3.577   1.501   2.652
 6898SOL    HW121593   3.634   1.466   2.578
 6898SOL    HW221594   3.580   1.437   2.729
 6899SOL     OW21595   5.791   6.384   6.249
 6899SOL    HW121596   5.697   6.357   6.268
 6899SOL    HW221597   5.833   6.317   6.188
 6900SOL     OW21598   4.152   1.501   6.139
 6900SOL    HW121599   4.164   1.593   6.102
 6900SOL    HW221600   4.182   1.499   6.234
 6901SOL     OW21601   1.239   0.906   0.513
 6901SOL    HW121602   1.313   0.849   0.549
 6901SOL    HW221603   1.190   0.950   0.589
 6902SOL     OW21604   6.705   5.291   2.025
 6902SOL    HW121605   6.730   5.374   1.975
 6902SOL    HW221606   6.729   5.302   2.121
 6903SOL     OW21607   4.200   4.444   0.685
 6903SOL    HW121608   4.229   4.526   0.736
 6903SOL    HW221609   4.146   4.385   0.745
 6904SOL     OW21610   1.042   1.741   3.011
 6904SOL    HW121611   1.090   1.660   3.043
 6904SOL    HW221612   0.954   1.748   3.057
 6905SOL     OW21613   4.015   5.293   1.295
 6905SOL    HW121614   4.038   5.215   1.237
 6905SOL    HW221615   4.094   5.355   1.300
 6906SOL     OW21616   5.647   6.093   3.564
 6906SOL    HW121617   5.587   6.041   3.504
 6906SOL    HW221618   5.690   6.168   3.513
 6907SOL     OW21619   3.633   0.639   1.167
 6907SOL    HW121620   3.630   0.688   1.080
 6907SOL    HW221621   3.587   0.551   1.157
 6908SOL     OW21622   5.890   0.537   0.002
 6908SOL    HW121623   5.888   0.616   6.960
 6908SOL    HW221624   5.820   0.471   6.994
 6909SOL     OW21625   3.033   3.041   6.901
 6909SOL    HW121626   3.058   2.945   6.916
 6909SOL    HW221627   2.937   3.054   6.923
 6910SOL     OW21628   5.976   0.350   1.230
 6910SOL    HW121629   6.014   0.275   1.284
 6910SOL    HW221630   5.877   0.353   1.241
 6911SOL     OW21631   4.508   0.677   4.809
 6911SOL    HW121632   4.600   0.658   4.843
 6911SOL    HW221633   4.513   0.747   4.737
 6912SOL     OW21634   4.521   4.504   1.796
 6912SOL    HW121635   4.481   4.416   1.823
 6912SOL    HW221636   4.566   4.546   1.875
 6913SOL     OW21637   4.562   5.584   5.991
 6913SOL    HW121638   4.659   5.599   5.973
 6913SOL    HW221639   4.531   5.646   6.062
 6914SOL     OW21640   6.488   5.081   6.719
 6914SOL    HW121641   6.516   5.114   6.629
 6914SOL    HW221642   6.569   5.050   6.769
 6915SOL     OW21643   1.251   5.356   0.527
 6915SOL    HW121644   1.321   5.417   0.491
 6915SOL    HW221645   1.232   5.378   0.623
 6916SOL     OW21646   6.205   0.453   5.676
 6916SOL    HW121647   6.227   0.436   5.580
 6916SOL    HW221648   6.209   0.367   5.727
 6917SOL     OW21649   4.020   0.272   6.803
 6917SOL    HW121650   3.998   0.205   6.732
 6917SOL    HW221651   4.026   0.363   6.762
 6918SOL     OW21652   2.220   2.814   3.329
 6918SOL    HW121653   2.256   2.876   3.260
 6918SOL    HW221654   2.134   2.850   3.365
 6919SOL     OW21655   1.000   6.561   3.447
 6919SOL    HW121656   1.087   6.531   3.487
 6919SOL    HW221657   0.937   6.484   3.441
 6920SOL     OW21658   5.049   6.264   4.681
 6920SOL    HW121659   5.015   6.347   4.636
 6920SOL    HW221660   5.140   6.241   4.644
 6921SOL     OW21661   1.432   6.262   3.352
 6921SOL    HW121662   1.475   6.291   3.438
 6921SOL    HW221663   1.501   6.253   3.282
 6922SOL     OW21664   1.827   6.354   0.403
 6922SOL    HW121665   1.888   6.430   0.420
 6922SOL    HW221666   1.879   6.269   0.401
 6923SOL     OW21667   4.955   6.429   4.272
 6923SOL    HW121668   4.915   6.480   4.348
 6923SOL    HW221669   4.885   6.416   4.201
 6924SOL     OW21670   6.709   5.793   1.799
 6924SOL    HW121671   6.624   5.838   1.775
 6924SOL    HW221672   6.691   5.697   1.821
 6925SOL     OW21673   5.831   5.617   2.720
 6925SOL    HW121674   5.739   5.656   2.711
 6925SOL    HW221675   5.847   5.593   2.816
 6926SOL     OW21676   3.070   3.967   5.157
 6926SOL    HW121677   3.126   3.973   5.239
 6926SOL    HW221678   2.976   3.996   5.179
 6927SOL     OW21679   3.912   3.012   0.720
 6927SOL    HW121680   3.839   2.964   0.769
 6927SOL    HW221681   3.982   2.945   0.692
 6928SOL     OW21682   6.836   0.317   6.403
 6928SOL    HW121683   6.783   0.386   6.354
 6928SOL    HW221684   6.824   0.329   6.501
 6929SOL     OW21685   3.121   4.846   0.960
 6929SOL    HW121686   3.151   4.936   0.992
 6929SOL    HW221687   3.022   4.841   0.962
 6930SOL     OW21688   1.083   0.858   3.116
 6930SOL    HW121689   1.152   0.787   3.131
 6930SOL    HW221690   1.012   0.851   3.186
 6931SOL     OW21691   1.930   0.097   0.961
 6931SOL    HW121692   1.880   0.037   0.898
 6931SOL    HW221693   2.028   0.078   0.954
 6932SOL     OW21694   2.762   2.811   0.180
 6932SOL    HW121695   2.780   2.731   0.123
 6932SOL    HW221696   2.831   2.817   0.252
 6933SOL     OW21697   2.772   5.992   5.875
 6933SOL    HW121698   2.869   5.978   5.857
 6933SOL    HW221699   2.720   5.982   5.791
 6934SOL     OW21700   5.467   4.876   6.169
 6934SOL    HW121701   5.497   4.929   6.248
 6934SOL    HW221702   5.503   4.917   6.085
 6935SOL     OW21703   4.326   5.977   2.735
 6935SOL    HW121704   4.289   6.056   2.784
 6935SOL    HW221705   4.252   5.913   2.714
 6936SOL     OW21706   0.216   4.644   0.705
 6936SOL    HW121707   0.120   4.666   0.723
 6936SOL    HW221708   0.257   4.604   0.788
 6937SOL     OW21709   4.278   6.724   5.928
 6937SOL    HW121710   4.224   6.801   5.894
 6937SOL    HW221711   4.216   6.651   5.958
 6938SOL     OW21712   5.800   2.487   4.992
 6938SOL    HW121713   5.775   2.395   5.022
 6938SOL    HW221714   5.852   2.532   5.065
 6939SOL     OW21715   6.917   4.848   2.085
 6939SOL    HW121716   6.903   4.843   1.986
 6939SOL    HW221717   6.831   4.832   2.132
 6940SOL     OW21718   4.326   1.055   4.748
 6940SOL    HW121719   4.347   1.148   4.720
 6940SOL    HW221720   4.345   1.045   4.846
 6941SOL     OW21721   3.918   3.007   4.264
 6941SOL    HW121722   3.890   2.958   4.181
 6941SOL    HW221723   3.985   3.078   4.239
 6942SOL     OW21724   6.856   1.514   6.670
 6942SOL    HW121725   6.854   1.415   6.657
 6942SOL    HW221726   6.918   1.537   6.745
 6943SOL     OW21727   6.535   6.207   0.092
 6943SOL    HW121728   6.512   6.148   0.169
 6943SOL    HW221729   6.618   6.173   0.048
 6944SOL     OW21730   1.124   6.165   6.298
 6944SOL    HW121731   1.128   6.200   6.391
 6944SOL    HW221732   1.077   6.076   6.298
 6945SOL     OW21733   4.325   2.128   5.425
 6945SOL    HW121734   4.343   2.157   5.331
 6945SOL    HW221735   4.379   2.046   5.445
 6946SOL     OW21736   5.681   3.507   3.308
 6946SOL    HW121737   5.774   3.478   3.330
 6946SOL    HW221738   5.620   3.480   3.381
 6947SOL     OW21739   3.360   0.033   2.342
 6947SOL    HW121740   3.284   0.083   2.302
 6947SOL    HW221741   3.355   6.957   2.313
 6948SOL     OW21742   3.728   1.969   4.833
 6948SOL    HW121743   3.699   1.876   4.810
 6948SOL    HW221744   3.822   1.984   4.802
 6949SOL     OW21745   4.935   1.348   2.545
 6949SOL    HW121746   5.016   1.291   2.531
 6949SOL    HW221747   4.858   1.311   2.492
 6950SOL     OW21748   2.757   1.482   3.846
 6950SOL    HW121749   2.657   1.482   3.840
 6950SOL    HW221750   2.794   1.546   3.779
 6951SOL     OW21751   4.811   5.254   5.086
 6951SOL    HW121752   4.893   5.299   5.121
 6951SOL    HW221753   4.776   5.303   5.006
 6952SOL     OW21754   6.771   4.994   5.248
 6952SOL    HW121755   6.767   5.051   5.166
 6952SOL    HW221756   6.727   5.043   5.324
 6953SOL     OW21757   5.665   2.239   5.024
 6953SOL    HW121758   5.650   2.205   5.117
 6953SOL    HW221759   5.582   2.285   4.991
 6954SOL     OW21760   1.030   4.598   2.583
 6954SOL    HW121761   0.938   4.611   2.545
 6954SOL    HW221762   1.091   4.668   2.546
 6955SOL     OW21763   6.630   6.424   2.955
 6955SOL    HW121764   6.614   6.362   2.878
 6955SOL    HW221765   6.684   6.377   3.025
 6956SOL     OW21766   3.022   4.553   0.805
 6956SOL    HW121767   3.009   4.481   0.737
 6956SOL    HW221768   3.100   4.530   0.864
 6957SOL     OW21769   1.013   3.765   0.339
 6957SOL    HW121770   0.997   3.788   0.435
 6957SOL    HW221771   1.106   3.730   0.328
 6958SOL     OW21772   2.115   4.093   6.613
 6958SOL    HW121773   2.058   4.119   6.534
 6958SOL    HW221774   2.057   4.052   6.683
 6959SOL     OW21775   3.704   1.196   3.775
 6959SOL    HW121776   3.779   1.151   3.727
 6959SOL    HW221777   3.660   1.262   3.713
 6960SOL     OW21778   0.359   4.584   0.243
 6960SOL    HW121779   0.379   4.597   0.340
 6960SOL    HW221780   0.310   4.498   0.231
 6961SOL     OW21781   0.002   1.712   2.877
 6961SOL    HW121782   6.947   1.649   2.857
 6961SOL    HW221783   0.067   1.711   2.800
 6962SOL     OW21784   3.330   3.428   0.605
 6962SOL    HW121785   3.268   3.441   0.528
 6962SOL    HW221786   3.424   3.446   0.576
 6963SOL     OW21787   6.258   5.983   2.279
 6963SOL    HW121788   6.254   6.038   2.195
 6963SOL    HW221789   6.214   5.895   2.263
 6964SOL     OW21790   3.871   6.406   5.170
 6964SOL    HW121791   3.819   6.323   5.152
 6964SOL    HW221792   3.930   6.426   5.092
 6965SOL     OW21793   6.144   1.877   5.633
 6965SOL    HW121794   6.223   1.853   5.577
 6965SOL    HW221795   6.094   1.793   5.658
 6966SOL     OW21796   4.688   2.792   3.985
 6966SOL    HW121797   4.698   2.743   4.072
 6966SOL    HW221798   4.757   2.865   3.980
 6967SOL     OW21799   2.078   2.564   6.249
 6967SOL    HW121800   2.153   2.630   6.251
 6967SOL    HW221801   2.084   2.509   6.166
 6968SOL     OW21802   3.968   0.446   3.092
 6968SOL    HW121803   3.875   0.410   3.099
 6968SOL    HW221804   4.033   0.381   3.130
 6969SOL     OW21805   2.799   2.367   1.122
 6969SOL    HW121806   2.769   2.369   1.027
 6969SOL    HW221807   2.855   2.286   1.137
 6970SOL     OW21808   4.428   3.988   0.793
 6970SOL    HW121809   4.375   3.933   0.858
 6970SOL    HW221810   4.428   4.084   0.822
 6971SOL     OW21811   5.975   0.900   2.163
 6971SOL    HW121812   6.034   0.973   2.127
 6971SOL    HW221813   5.891   0.940   2.198
 6972SOL     OW21814   5.498   5.046   4.708
 6972SOL    HW121815   5.469   5.073   4.800
 6972SOL    HW221816   5.480   4.948   4.695
 6973SOL     OW21817   1.815   4.396   3.095
 6973SOL    HW121818   1.789   4.306   3.131
 6973SOL    HW221819   1.790   4.402   2.999
 6974SOL     OW21820   3.214   4.060   4.932
 6974SOL    HW121821   3.201   3.961   4.930
 6974SOL    HW221822   3.144   4.102   4.988
 6975SOL     OW21823   3.075   0.816   6.037
 6975SOL    HW121824   3.156   0.838   6.092
 6975SOL    HW221825   3.100   0.814   5.941
 6976SOL     OW21826   1.681   6.104   0.761
 6976SOL    HW121827   1.774   6.069   0.746
 6976SOL    HW221828   1.617   6.028   0.768
 6977SOL     OW21829   4.676   2.738   2.922
 6977SOL    HW121830   4.601   2.672   2.922
 6977SOL    HW221831   4.678   2.785   3.010
 6978SOL     OW21832   5.325   1.298   3.068
 6978SOL    HW121833   5.270   1.382   3.061
 6978SOL    HW221834   5.267   1.222   3.097
 6979SOL     OW21835   0.612   4.902   3.495
 6979SOL    HW121836   0.580   4.968   3.427
 6979SOL    HW221837   0.594   4.938   3.587
 6980SOL     OW21838   3.768   1.618   4.323
 6980SOL    HW121839   3.742   1.635   4.418
 6980SOL    HW221840   3.695   1.568   4.277
 6981SOL     OW21841   3.585   4.697   6.699
 6981SOL    HW121842   3.496   4.672   6.739
 6981SOL    HW221843   3.658   4.661   6.756
 6982SOL     OW21844   0.519   6.963   4.295
 6982SOL    HW121845   0.514   6.967   4.394
 6982SOL    HW221846   0.615   6.950   4.266
 6983SOL     OW21847   6.670   0.311   3.560
 6983SOL    HW121848   6.594   0.372   3.535
 6983SOL    HW221849   6.752   0.337   3.509
 6984SOL     OW21850   2.581   0.954   5.438
 6984SOL    HW121851   2.668   0.986   5.476
 6984SOL    HW221852   2.533   0.899   5.507
 6985SOL     OW21853   5.386   6.244   2.972
 6985SOL    HW121854   5.401   6.317   2.904
 6985SOL    HW221855   5.474   6.220   3.013
 6986SOL     OW21856   1.951   0.174   4.979
 6986SOL    HW121857   1.914   0.262   5.009
 6986SOL    HW221858   1.875   0.110   4.965
 6987SOL     OW21859   6.669   3.499   6.537
 6987SOL    HW121860   6.617   3.414   6.547
 6987SOL    HW221861   6.625   3.557   6.468
 6988SOL     OW21862   5.271   1.092   5.518
 6988SOL    HW121863   5.346   1.047   5.470
 6988SOL    HW221864   5.294   1.188   5.534
 6989SOL     OW21865   1.608   3.127   3.590
 6989SOL    HW121866   1.680   3.107   3.656
 6989SOL    HW221867   1.618   3.066   3.511
 6990SOL     OW21868   4.011   3.314   0.998
 6990SOL    HW121869   3.975   3.233   1.043
 6990SOL    HW221870   3.999   3.306   0.899
 6991SOL     OW21871   4.337   4.529   5.457
 6991SOL    HW121872   4.383   4.449   5.418
 6991SOL    HW221873   4.256   4.499   5.507
 6992SOL     OW21874   5.706   6.504   5.178
 6992SOL    HW121875   5.612   6.531   5.159
 6992SOL    HW221876   5.730   6.527   5.272
 6993SOL     OW21877   0.593   6.049   3.345
 6993SOL    HW121878   0.613   6.142   3.376
 6993SOL    HW221879   0.606   6.043   3.247
 6994SOL     OW21880   1.482   3.189   0.211
 6994SOL    HW121881   1.486   3.280   0.252
 6994SOL    HW221882   1.478   3.197   0.111
 6995SOL     OW21883   1.031   4.467   3.530
 6995SOL    HW121884   0.932   4.459   3.535
 6995SOL    HW221885   1.061   4.553   3.571
 6996SOL     OW21886   2.402   7.007   6.240
 6996SOL    HW121887   2.304   7.011   6.220
 6996SOL    HW221888   2.437   6.917   6.217
 6997SOL     OW21889   4.843   6.914   4.294
 6997SOL    HW121890   4.887   6.853   4.360
 6997SOL    HW221891   4.891   7.001   4.291
 6998SOL     OW21892   1.662   2.555   2.823
 6998SOL    HW121893   1.729   2.549   2.897
 6998SOL    HW221894   1.571   2.570   2.861
 6999SOL     OW21895   5.083   1.904   6.986
 6999SOL    HW121896   5.003   1.949   0.006
 6999SOL    HW221897   5.052   1.826   6.930
 7000SOL     OW21898   6.520   6.935   0.969
 7000SOL    HW121899   6.606   6.962   0.927
 7000SOL    HW221900   6.538   6.884   1.053
 7001SOL     OW21901   2.689   1.785   5.650
 7001SOL    HW121902   2.721   1.829   5.734
 7001SOL    HW221903   2.764   1.731   5.610
 7002SOL     OW21904   1.707   4.760   2.587
 7002SOL    HW121905   1.657   4.674   2.588
 7002SOL    HW221906   1.800   4.745   2.619
 7003SOL     OW21907   1.445   6.425   6.045
 7003SOL    HW121908   1.513   6.487   6.086
 7003SOL    HW221909   1.457   6.424   5.946
 7004SOL     OW21910   1.256   4.175   0.216
 7004SOL    HW121911   1.307   4.162   0.301
 7004SOL    HW221912   1.175   4.116   0.216
 7005SOL     OW21913   6.066   6.641   6.214
 7005SOL    HW121914   6.132   6.626   6.141
 7005SOL    HW221915   6.092   6.590   6.295
 7006SOL     OW21916   4.758   5.446   4.532
 7006SOL    HW121917   4.665   5.477   4.554
 7006SOL    HW221918   4.796   5.397   4.610
 7007SOL     OW21919   4.538   5.041   2.189
 7007SOL    HW121920   4.450   5.062   2.146
 7007SOL    HW221921   4.525   4.973   2.261
 7008SOL     OW21922   1.345   4.300   4.465
 7008SOL    HW121923   1.254   4.279   4.430
 7008SOL    HW221924   1.361   4.398   4.459
 7009SOL     OW21925   0.404   4.360   2.521
 7009SOL    HW121926   0.492   4.330   2.558
 7009SOL    HW221927   0.408   4.359   2.421
 7010SOL     OW21928   4.172   4.768   6.487
 7010SOL    HW121929   4.194   4.845   6.547
 7010SOL    HW221930   4.089   4.723   6.521
 7011SOL     OW21931   1.338   1.335   5.544
 7011SOL    HW121932   1.383   1.324   5.455
 7011SOL    HW221933   1.377   1.271   5.610
 7012SOL     OW21934   1.448   1.647   1.670
 7012SOL    HW121935   1.350   1.637   1.657
 7012SOL    HW221936   1.497   1.599   1.598
 7013SOL     OW21937   6.787   1.548   1.877
 7013SOL    HW121938   6.825   1.459   1.854
 7013SOL    HW221939   6.850   1.596   1.938
 7014SOL     OW21940   2.062   5.045   0.630
 7014SOL    HW121941   2.162   5.044   0.629
 7014SOL    HW221942   2.029   5.002   0.714
 7015SOL     OW21943   5.692   2.096   2.421
 7015SOL    HW121944   5.684   2.134   2.513
 7015SOL    HW221945   5.638   2.152   2.357
 7016SOL     OW21946   4.015   4.586   1.379
 7016SOL    HW121947   3.996   4.605   1.476
 7016SOL    HW221948   4.001   4.670   1.326
 7017SOL     OW21949   4.691   2.121   4.696
 7017SOL    HW121950   4.762   2.154   4.635
 7017SOL    HW221951   4.730   2.053   4.759
 7018SOL     OW21952   0.391   4.063   3.270
 7018SOL    HW121953   0.300   4.097   3.244
 7018SOL    HW221954   0.393   3.964   3.258
 7019SOL     OW21955   1.731   5.831   1.010
 7019SOL    HW121956   1.677   5.858   1.090
 7019SOL    HW221957   1.768   5.739   1.024
 7020SOL     OW21958   0.099   6.103   6.143
 7020SOL    HW121959   0.038   6.172   6.180
 7020SOL    HW221960   0.194   6.133   6.154
 7021SOL     OW21961   3.766   6.692   5.524
 7021SOL    HW121962   3.865   6.701   5.513
 7021SOL    HW221963   3.745   6.653   5.614
 7022SOL     OW21964   5.056   5.308   6.675
 7022SOL    HW121965   4.981   5.242   6.679
 7022SOL    HW221966   5.028   5.392   6.721
 7023SOL     OW21967   5.634   3.999   2.940
 7023SOL    HW121968   5.607   3.930   3.008
 7023SOL    HW221969   5.620   3.962   2.848
 7024SOL     OW21970   0.347   5.584   1.366
 7024SOL    HW121971   0.403   5.513   1.408
 7024SOL    HW221972   0.262   5.595   1.418
 7025SOL     OW21973   2.254   0.385   6.771
 7025SOL    HW121974   2.318   0.379   6.695
 7025SOL    HW221975   2.302   0.414   6.853
 7026SOL     OW21976   3.351   1.453   0.897
 7026SOL    HW121977   3.420   1.502   0.951
 7026SOL    HW221978   3.287   1.519   0.857
 7027SOL     OW21979   4.866   6.581   4.475
 7027SOL    HW121980   4.770   6.598   4.455
 7027SOL    HW221981   4.900   6.652   4.537
 7028SOL     OW21982   2.871   0.314   4.299
 7028SOL    HW121983   2.919   0.226   4.301
 7028SOL    HW221984   2.937   0.389   4.306
 7029SOL     OW21985   4.012   1.142   4.864
 7029SOL    HW121986   4.036   1.044   4.863
 7029SOL    HW221987   4.054   1.186   4.785
 7030SOL     OW21988   2.137   3.476   3.684
 7030SOL    HW121989   2.158   3.572   3.702
 7030SOL    HW221990   2.082   3.439   3.760
 7031SOL     OW21991   1.491   0.562   4.676
 7031SOL    HW121992   1.419   0.601   4.734
 7031SOL    HW221993   1.465   0.574   4.580
 7032SOL     OW21994   6.160   1.913   3.471
 7032SOL    HW121995   6.145   2.011   3.477
 7032SOL    HW221996   6.074   1.868   3.446
 7033SOL     OW21997   0.153   0.077   4.523
 7033SOL    HW121998   0.071   0.071   4.579
 7033SOL    HW221999   0.234   0.072   4.582
 7034SOL     OW22000   0.277   5.462   2.776
 7034SOL    HW122001   0.287   5.475   2.677
 7034SOL    HW222002   0.286   5.365   2.798
 7035SOL     OW22003   6.734   5.041   2.323
 7035SOL    HW122004   6.801   5.104   2.362
 7035SOL    HW222005   6.656   5.093   2.287
 7036SOL     OW22006   6.593   4.789   0.593
 7036SOL    HW122007   6.595   4.710   0.653
 7036SOL    HW222008   6.683   4.803   0.552
 7037SOL     OW22009   0.805   0.136   6.690
 7037SOL    HW122010   0.844   0.076   6.760
 7037SOL    HW222011   0.831   0.104   6.599
 7038SOL     OW22012   2.122   3.117   3.977
 7038SOL    HW122013   2.087   3.040   3.925
 7038SOL    HW222014   2.142   3.087   4.071
 7039SOL     OW22015   3.630   2.311   5.969
 7039SOL    HW122016   3.612   2.242   6.039
 7039SOL    HW222017   3.544   2.336   5.924
 7040SOL     OW22018   5.822   2.781   6.849
 7040SOL    HW122019   5.751   2.838   6.892
 7040SOL    HW222020   5.816   2.688   6.886
 7041SOL     OW22021   3.053   1.394   3.139
 7041SOL    HW122022   3.073   1.427   3.231
 7041SOL    HW222023   3.139   1.370   3.093
 7042SOL     OW22024   1.720   0.574   6.324
 7042SOL    HW122025   1.779   0.541   6.397
 7042SOL    HW222026   1.666   0.652   6.357
 7043SOL     OW22027   0.983   2.860   2.580
 7043SOL    HW122028   1.068   2.877   2.630
 7043SOL    HW222029   0.968   2.762   2.572
 7044SOL     OW22030   5.166   5.956   1.916
 7044SOL    HW122031   5.169   5.862   1.882
 7044SOL    HW222032   5.077   5.974   1.958
 7045SOL     OW22033   6.492   4.583   0.770
 7045SOL    HW122034   6.394   4.593   0.786
 7045SOL    HW222035   6.512   4.492   0.735
 7046SOL     OW22036   2.477   1.213   3.950
 7046SOL    HW122037   2.476   1.311   3.928
 7046SOL    HW222038   2.552   1.194   4.013
 7047SOL     OW22039   1.493   1.372   2.847
 7047SOL    HW122040   1.582   1.340   2.879
 7047SOL    HW222041   1.431   1.294   2.838
 7048SOL     OW22042   6.973   5.614   0.777
 7048SOL    HW122043   6.984   5.519   0.807
 7048SOL    HW222044   6.920   5.616   0.692
 7049SOL     OW22045   1.797   0.723   6.905
 7049SOL    HW122046   1.896   0.730   6.895
 7049SOL    HW222047   1.769   0.627   6.906
 7050SOL     OW22048   3.753   3.897   4.644
 7050SOL    HW122049   3.657   3.885   4.667
 7050SOL    HW222050   3.794   3.807   4.627
 7051SOL     OW22051   0.097   6.625   2.839
 7051SOL    HW122052   0.121   6.606   2.934
 7051SOL    HW222053   0.004   6.660   2.835
 7052SOL     OW22054   0.085   0.944   4.186
 7052SOL    HW122055   0.160   0.930   4.121
 7052SOL    HW222056   0.003   0.974   4.136
 7053SOL     OW22057   6.595   4.315   5.635
 7053SOL    HW122058   6.657   4.318   5.557
 7053SOL    HW222059   6.535   4.395   5.633
 7054SOL     OW22060   6.451   0.770   1.597
 7054SOL    HW122061   6.461   0.796   1.501
 7054SOL    HW222062   6.541   0.751   1.636
 7055SOL     OW22063   4.013   0.862   4.889
 7055SOL    HW122064   4.082   0.790   4.884
 7055SOL    HW222065   3.922   0.822   4.878
 7056SOL     OW22066   4.425   5.591   3.686
 7056SOL    HW122067   4.398   5.546   3.601
 7056SOL    HW222068   4.353   5.579   3.754
 7057SOL     OW22069   0.803   6.357   3.399
 7057SOL    HW122070   0.748   6.383   3.320
 7057SOL    HW222071   0.784   6.420   3.475
 7058SOL     OW22072   0.542   4.303   5.174
 7058SOL    HW122073   0.632   4.288   5.134
 7058SOL    HW222074   0.472   4.290   5.104
 7059SOL     OW22075   2.384   0.303   2.906
 7059SOL    HW122076   2.427   0.218   2.938
 7059SOL    HW222077   2.448   0.354   2.849
 7060SOL     OW22078   3.161   6.984   1.327
 7060SOL    HW122079   3.260   6.997   1.322
 7060SOL    HW222080   3.116   0.033   1.271
 7061SOL     OW22081   0.156   1.211   3.386
 7061SOL    HW122082   0.224   1.244   3.451
 7061SOL    HW222083   0.187   1.124   3.347
 7062SOL     OW22084   6.809   1.025   5.586
 7062SOL    HW122085   6.712   1.044   5.573
 7062SOL    HW222086   6.831   1.028   5.684
 7063SOL     OW22087   2.552   0.118   2.054
 7063SOL    HW122088   2.536   0.028   2.013
 7063SOL    HW222089   2.632   0.160   2.013
 7064SOL     OW22090   4.310   2.114   0.713
 7064SOL    HW122091   4.322   2.038   0.649
 7064SOL    HW222092   4.290   2.078   0.804
 7065SOL     OW22093   3.825   3.532   2.191
 7065SOL    HW122094   3.790   3.619   2.226
 7065SOL    HW222095   3.762   3.458   2.217
 7066SOL     OW22096   2.834   5.938   1.093
 7066SOL    HW122097   2.805   5.998   1.168
 7066SOL    HW222098   2.770   5.862   1.086
 7067SOL     OW22099   0.130   3.940   4.507
 7067SOL    HW122100   0.215   3.887   4.507
 7067SOL    HW222101   0.100   3.954   4.413
 7068SOL     OW22102   1.414   0.855   2.847
 7068SOL    HW122103   1.453   0.826   2.935
 7068SOL    HW222104   1.365   0.778   2.806
 7069SOL     OW22105   1.800   4.581   5.397
 7069SOL    HW122106   1.896   4.555   5.397
 7069SOL    HW222107   1.751   4.528   5.328
 7070SOL     OW22108   5.241   5.465   3.998
 7070SOL    HW122109   5.180   5.512   4.062
 7070SOL    HW222110   5.242   5.515   3.911
 7071SOL     OW22111   1.362   6.901   4.928
 7071SOL    HW122112   1.358   6.822   4.867
 7071SOL    HW222113   1.276   6.910   4.978
 7072SOL     OW22114   0.065   6.331   6.608
 7072SOL    HW122115   0.059   6.429   6.631
 7072SOL    HW222116   7.014   6.308   6.543
 7073SOL     OW22117   1.403   1.944   6.753
 7073SOL    HW122118   1.323   1.945   6.693
 7073SOL    HW222119   1.481   1.904   6.705
 7074SOL     OW22120   2.710   1.389   0.731
 7074SOL    HW122121   2.699   1.326   0.654
 7074SOL    HW222122   2.684   1.481   0.703
 7075SOL     OW22123   1.253   5.609   2.504
 7075SOL    HW122124   1.271   5.517   2.537
 7075SOL    HW222125   1.308   5.674   2.556
 7076SOL     OW22126   3.185   2.441   6.458
 7076SOL    HW122127   3.236   2.403   6.381
 7076SOL    HW222128   3.101   2.389   6.472
 7077SOL     OW22129   1.789   5.066   5.961
 7077SOL    HW122130   1.755   5.160   5.963
 7077SOL    HW222131   1.810   5.037   6.055
 7078SOL     OW22132   6.636   0.885   2.545
 7078SOL    HW122133   6.676   0.799   2.578
 7078SOL    HW222134   6.611   0.875   2.449
 7079SOL     OW22135   5.118   5.487   5.716
 7079SOL    HW122136   5.202   5.472   5.769
 7079SOL    HW222137   5.073   5.569   5.750
 7080SOL     OW22138   5.608   6.960   4.250
 7080SOL    HW122139   5.556   0.018   4.214
 7080SOL    HW222140   5.706   6.977   4.237
 7081SOL     OW22141   3.991   1.128   5.625
 7081SOL    HW122142   4.056   1.191   5.583
 7081SOL    HW222143   4.013   1.119   5.723
 7082SOL     OW22144   4.908   1.810   6.320
 7082SOL    HW122145   4.944   1.891   6.366
 7082SOL    HW222146   4.836   1.769   6.376
 7083SOL     OW22147   3.165   6.782   5.817
 7083SOL    HW122148   3.111   6.862   5.790
 7083SOL    HW222149   3.175   6.780   5.916
 7084SOL     OW22150   6.929   6.240   0.411
 7084SOL    HW122151   6.960   6.207   0.322
 7084SOL    HW222152   7.008   6.252   0.471
 7085SOL     OW22153   3.522   2.371   0.714
 7085SOL    HW122154   3.491   2.464   0.736
 7085SOL    HW222155   3.577   2.335   0.789
 7086SOL     OW22156   0.065   1.041   6.250
 7086SOL    HW122157   0.053   1.073   6.344
 7086SOL    HW222158   0.134   1.098   6.204
 7087SOL     OW22159   2.179   2.636   5.197
 7087SOL    HW122160   2.220   2.569   5.136
 7087SOL    HW222161   2.137   2.590   5.275
 7088SOL     OW22162   0.819   1.969   5.981
 7088SOL    HW122163   0.877   1.924   6.049
 7088SOL    HW222164   0.850   2.064   5.969
 7089SOL     OW22165   2.248   1.513   1.211
 7089SOL    HW122166   2.293   1.531   1.299
 7089SOL    HW222167   2.238   1.414   1.199
 7090SOL     OW22168   2.388   2.519   4.759
 7090SOL    HW122169   2.374   2.426   4.793
 7090SOL    HW222170   2.338   2.583   4.817
 7091SOL     OW22171   0.049   6.440   0.691
 7091SOL    HW122172   0.099   6.519   0.654
 7091SOL    HW222173   0.094   6.356   0.661
 7092SOL     OW22174   2.748   3.139   6.892
 7092SOL    HW122175   2.734   3.238   6.880
 7092SOL    HW222176   2.697   3.108   6.972
 7093SOL     OW22177   4.210   3.170   5.925
 7093SOL    HW122178   4.303   3.166   5.962
 7093SOL    HW222179   4.148   3.202   5.997
 7094SOL     OW22180   6.669   0.512   6.289
 7094SOL    HW122181   6.571   0.532   6.292
 7094SOL    HW222182   6.698   0.508   6.193
 7095SOL     OW22183   0.534   4.244   6.624
 7095SOL    HW122184   0.498   4.240   6.717
 7095SOL    HW222185   0.489   4.319   6.574
 7096SOL     OW22186   5.029   0.894   2.902
 7096SOL    HW122187   4.932   0.918   2.898
 7096SOL    HW222188   5.075   0.950   2.971
 7097SOL     OW22189   1.475   0.947   1.941
 7097SOL    HW122190   1.489   1.007   1.862
 7097SOL    HW222191   1.560   0.938   1.992
 7098SOL     OW22192   1.805   0.133   5.762
 7098SOL    HW122193   1.725   0.187   5.787
 7098SOL    HW222194   1.870   0.191   5.713
 7099SOL     OW22195   0.540   0.873   6.180
 7099SOL    HW122196   0.560   0.946   6.244
 7099SOL    HW222197   0.443   0.850   6.183
 7100SOL     OW22198   5.481   2.021   0.880
 7100SOL    HW122199   5.515   1.929   0.896
 7100SOL    HW222200   5.381   2.022   0.889
 7101SOL     OW22201   1.623   0.671   4.216
 7101SOL    HW122202   1.679   0.727   4.155
 7101SOL    HW222203   1.656   0.577   4.216
 7102SOL     OW22204   4.952   2.845   0.914
 7102SOL    HW122205   4.926   2.896   0.995
 7102SOL    HW222206   4.916   2.890   0.832
 7103SOL     OW22207   2.534   6.658   6.436
 7103SOL    HW122208   2.623   6.630   6.472
 7103SOL    HW222209   2.484   6.707   6.508
 7104SOL     OW22210   0.120   1.974   1.644
 7104SOL    HW122211   0.217   1.949   1.652
 7104SOL    HW222212   0.064   1.892   1.643
 7105SOL     OW22213   2.447   4.149   5.390
 7105SOL    HW122214   2.535   4.174   5.431
 7105SOL    HW222215   2.461   4.079   5.320
 7106SOL     OW22216   3.103   2.518   5.407
 7106SOL    HW122217   3.106   2.608   5.365
 7106SOL    HW222218   3.106   2.448   5.336
 7107SOL     OW22219   2.285   0.820   6.925
 7107SOL    HW122220   2.379   0.831   6.960
 7107SOL    HW222221   2.222   0.869   6.985
 7108SOL     OW22222   4.453   6.934   2.564
 7108SOL    HW122223   4.400   6.852   2.584
 7108SOL    HW222224   4.547   6.909   2.540
 7109SOL     OW22225   3.932   6.349   6.219
 7109SOL    HW122226   3.900   6.346   6.124
 7109SOL    HW222227   3.853   6.348   6.281
 7110SOL     OW22228   3.234   5.262   3.197
 7110SOL    HW122229   3.244   5.188   3.131
 7110SOL    HW222230   3.156   5.243   3.257
 7111SOL     OW22231   1.499   2.177   3.786
 7111SOL    HW122232   1.440   2.098   3.796
 7111SOL    HW222233   1.593   2.147   3.765
 7112SOL     OW22234   1.411   6.573   2.356
 7112SOL    HW122235   1.479   6.502   2.340
 7112SOL    HW222236   1.337   6.537   2.413
 7113SOL     OW22237   3.155   3.761   4.940
 7113SOL    HW122238   3.062   3.796   4.924
 7113SOL    HW222239   3.167   3.675   4.891
 7114SOL     OW22240   4.066   0.034   0.942
 7114SOL    HW122241   4.075   0.038   0.843
 7114SOL    HW222242   4.158   0.029   0.983
 7115SOL     OW22243   4.234   1.598   1.501
 7115SOL    HW122244   4.237   1.675   1.437
 7115SOL    HW222245   4.139   1.570   1.514
 7116SOL     OW22246   6.368   3.968   3.124
 7116SOL    HW122247   6.404   3.881   3.092
 7116SOL    HW222248   6.442   4.019   3.170
 7117SOL     OW22249   6.631   6.740   2.192
 7117SOL    HW122250   6.694   6.741   2.115
 7117SOL    HW222251   6.546   6.694   2.166
 7118SOL     OW22252   6.554   2.910   2.217
 7118SOL    HW122253   6.534   2.863   2.131
 7118SOL    HW222254   6.605   2.994   2.198
 7119SOL     OW22255   6.976   1.992   2.892
 7119SOL    HW122256   0.051   2.013   2.918
 7119SOL    HW222257   6.961   1.893   2.900
 7120SOL     OW22258   4.845   6.667   3.213
 7120SOL    HW122259   4.893   6.581   3.227
 7120SOL    HW222260   4.752   6.649   3.181
 7121SOL     OW22261   3.626   6.666   2.282
 7121SOL    HW122262   3.703   6.697   2.225
 7121SOL    HW222263   3.582   6.588   2.238
 7122SOL     OW22264   6.559   6.946   6.747
 7122SOL    HW122265   6.628   6.903   6.689
 7122SOL    HW222266   6.599   0.007   6.791
 7123SOL     OW22267   2.572   5.257   0.290
 7123SOL    HW122268   2.510   5.190   0.250
 7123SOL    HW222269   2.560   5.345   0.245
 7124SOL     OW22270   0.741   5.522   1.585
 7124SOL    HW122271   0.808   5.492   1.517
 7124SOL    HW222272   0.730   5.621   1.579
 7125SOL     OW22273   6.899   6.546   2.647
 7125SOL    HW122274   6.823   6.558   2.583
 7125SOL    HW222275   6.942   6.634   2.665
 7126SOL     OW22276   1.406   4.584   0.294
 7126SOL    HW122277   1.504   4.563   0.294
 7126SOL    HW222278   1.358   4.517   0.237
 7127SOL     OW22279   3.418   0.249   4.342
 7127SOL    HW122280   3.434   0.312   4.266
 7127SOL    HW222281   3.320   0.247   4.363
 7128SOL     OW22282   3.192   4.643   1.635
 7128SOL    HW122283   3.262   4.574   1.617
 7128SOL    HW222284   3.104   4.599   1.646
 7129SOL     OW22285   2.661   1.729   1.621
 7129SOL    HW122286   2.618   1.786   1.551
 7129SOL    HW222287   2.648   1.633   1.598
 7130SOL     OW22288   2.631   6.406   2.034
 7130SOL    HW122289   2.627   6.314   1.995
 7130SOL    HW222290   2.629   6.399   2.134
 7131SOL     OW22291   2.985   1.283   3.781
 7131SOL    HW122292   2.896   1.326   3.794
 7131SOL    HW222293   2.975   1.184   3.782
 7132SOL     OW22294   3.473   4.166   3.274
 7132SOL    HW122295   3.466   4.219   3.190
 7132SOL    HW222296   3.396   4.103   3.281
 7133SOL     OW22297   5.373   4.553   2.219
 7133SOL    HW122298   5.385   4.455   2.207
 7133SOL    HW222299   5.282   4.580   2.187
 7134SOL     OW22300   5.232   4.458   3.443
 7134SOL    HW122301   5.191   4.549   3.445
 7134SOL    HW222302   5.160   4.389   3.437
 7135SOL     OW22303   1.170   1.995   5.243
 7135SOL    HW122304   1.247   2.054   5.219
 7135SOL    HW222305   1.139   2.018   5.335
 7136SOL     OW22306   2.370   1.966   6.668
 7136SOL    HW122307   2.450   1.996   6.616
 7136SOL    HW222308   2.399   1.906   6.742
 7137SOL     OW22309   3.798   1.302   4.824
 7137SOL    HW122310   3.733   1.272   4.755
 7137SOL    HW222311   3.881   1.246   4.819
 7138SOL     OW22312   1.974   3.632   6.658
 7138SOL    HW122313   1.979   3.705   6.590
 7138SOL    HW222314   1.913   3.659   6.732
 7139SOL     OW22315   3.298   1.933   6.998
 7139SOL    HW122316   3.358   1.912   0.055
 7139SOL    HW222317   3.253   2.021   7.013
 7140SOL     OW22318   6.198   3.634   5.160
 7140SOL    HW122319   6.138   3.595   5.230
 7140SOL    HW222320   6.291   3.642   5.197
 7141SOL     OW22321   1.862   6.872   1.236
 7141SOL    HW122322   1.953   6.847   1.270
 7141SOL    HW222323   1.836   6.810   1.163
 7142SOL     OW22324   4.122   0.186   4.058
 7142SOL    HW122325   4.027   0.157   4.047
 7142SOL    HW222326   4.172   0.174   3.973
 7143SOL     OW22327   1.821   3.077   3.728
 7143SOL    HW122328   1.798   3.063   3.825
 7143SOL    HW222329   1.880   3.003   3.697
 7144SOL     OW22330   1.049   3.071   3.676
 7144SOL    HW122331   1.035   3.162   3.717
 7144SOL    HW222332   1.125   3.076   3.610
 7145SOL     OW22333   4.351   6.521   6.258
 7145SOL    HW122334   4.369   6.561   6.168
 7145SOL    HW222335   4.438   6.505   6.305
 7146SOL     OW22336   3.149   4.829   1.316
 7146SOL    HW122337   3.065   4.834   1.371
 7146SOL    HW222338   3.137   4.759   1.245
 7147SOL     OW22339   0.504   1.025   4.084
 7147SOL    HW122340   0.493   1.122   4.061
 7147SOL    HW222341   0.583   0.988   4.035
 7148SOL     OW22342   0.592   1.844   0.533
 7148SOL    HW122343   0.557   1.864   0.625
 7148SOL    HW222344   0.669   1.780   0.539
 7149SOL     OW22345   6.754   0.613   3.800
 7149SOL    HW122346   6.813   0.685   3.764
 7149SOL    HW222347   6.660   0.628   3.769
 7150SOL     OW22348   5.473   4.305   0.070
 7150SOL    HW122349   5.563   4.263   0.056
 7150SOL    HW222350   5.463   4.384   0.010
 7151SOL     OW22351   1.781   6.025   1.299
 7151SOL    HW122352   1.694   6.043   1.253
 7151SOL    HW222353   1.764   5.982   1.388
 7152SOL     OW22354   1.442   2.369   4.014
 7152SOL    HW122355   1.463   2.304   3.941
 7152SOL    HW222356   1.402   2.320   4.091
 7153SOL     OW22357   3.436   1.729   3.128
 7153SOL    HW122358   3.531   1.740   3.097
 7153SOL    HW222359   3.402   1.639   3.101
 7154SOL     OW22360   4.816   6.164   4.333
 7154SOL    HW122361   4.881   6.220   4.281
 7154SOL    HW222362   4.744   6.131   4.272
 7155SOL     OW22363   2.165   0.404   2.724
 7155SOL    HW122364   2.099   0.473   2.753
 7155SOL    HW222365   2.234   0.392   2.796
 7156SOL     OW22366   1.040   5.672   4.895
 7156SOL    HW122367   1.087   5.720   4.820
 7156SOL    HW222368   1.004   5.585   4.861
 7157SOL     OW22369   5.319   4.297   1.075
 7157SOL    HW122370   5.239   4.348   1.106
 7157SOL    HW222371   5.308   4.271   0.979
 7158SOL     OW22372   4.931   0.076   4.528
 7158SOL    HW122373   5.020   0.071   4.573
 7158SOL    HW222374   4.930   0.153   4.464
 7159SOL     OW22375   1.213   5.254   0.107
 7159SOL    HW122376   1.170   5.170   0.076
 7159SOL    HW222377   1.163   5.291   0.185
 7160SOL     OW22378   6.244   0.690   2.464
 7160SOL    HW122379   6.300   0.712   2.544
 7160SOL    HW222380   6.277   0.741   2.385
 7161SOL     OW22381   3.495   4.146   4.161
 7161SOL    HW122382   3.593   4.133   4.171
 7161SOL    HW222383   3.470   4.237   4.193
 7162SOL     OW22384   3.039   4.837   3.541
 7162SOL    HW122385   3.137   4.849   3.527
 7162SOL    HW222386   3.002   4.917   3.588
 7163SOL     OW22387   2.637   6.546   3.197
 7163SOL    HW122388   2.603   6.494   3.275
 7163SOL    HW222389   2.710   6.608   3.228
 7164SOL     OW22390   2.749   2.054   3.435
 7164SOL    HW122391   2.817   1.981   3.434
 7164SOL    HW222392   2.657   2.015   3.434
 7165SOL     OW22393   5.083   6.985   2.306
 7165SOL    HW122394   5.142   6.919   2.260
 7165SOL    HW222395   4.995   6.990   2.258
 7166SOL     OW22396   5.016   4.972   1.720
 7166SOL    HW122397   4.998   5.013   1.809
 7166SOL    HW222398   5.069   5.036   1.664
 7167SOL     OW22399   5.351   3.253   5.607
 7167SOL    HW122400   5.367   3.347   5.576
 7167SOL    HW222401   5.254   3.232   5.602
 7168SOL     OW22402   0.937   1.769   4.870
 7168SOL    HW122403   0.874   1.833   4.825
 7168SOL    HW222404   1.019   1.758   4.814
 7169SOL     OW22405   1.404   2.859   0.017
 7169SOL    HW122406   1.494   2.898   7.018
 7169SOL    HW222407   1.335   2.906   6.982
 7170SOL     OW22408   6.472   5.152   4.063
 7170SOL    HW122409   6.481   5.250   4.079
 7170SOL    HW222410   6.467   5.104   4.150
 7171SOL     OW22411   4.279   2.666   6.052
 7171SOL    HW122412   4.362   2.712   6.019
 7171SOL    HW222413   4.205   2.733   6.059
 7172SOL     OW22414   1.162   6.807   0.927
 7172SOL    HW122415   1.216   6.723   0.921
 7172SOL    HW222416   1.065   6.785   0.920
 7173SOL     OW22417   6.340   6.383   5.454
 7173SOL    HW122418   6.423   6.376   5.509
 7173SOL    HW222419   6.311   6.479   5.450
 7174SOL     OW22420   0.537   5.480   0.163
 7174SOL    HW122421   0.566   5.531   0.081
 7174SOL    HW222422   0.449   5.514   0.194
 7175SOL     OW22423   6.336   2.649   5.291
 7175SOL    HW122424   6.427   2.616   5.265
 7175SOL    HW222425   6.299   2.706   5.218
 7176SOL     OW22426   6.447   3.421   1.413
 7176SOL    HW122427   6.400   3.341   1.452
 7176SOL    HW222428   6.379   3.486   1.378
 7177SOL     OW22429   0.803   5.955   2.335
 7177SOL    HW122430   0.893   5.914   2.319
 7177SOL    HW222431   0.805   6.051   2.308
 7178SOL     OW22432   6.993   1.964   6.258
 7178SOL    HW122433   0.069   1.953   6.231
 7178SOL    HW222434   6.989   1.984   6.356
 7179SOL     OW22435   2.169   4.348   6.363
 7179SOL    HW122436   2.150   4.256   6.329
 7179SOL    HW222437   2.229   4.395   6.298
 7180SOL     OW22438   1.050   6.940   3.076
 7180SOL    HW122439   1.024   6.844   3.081
 7180SOL    HW222440   1.140   6.953   3.117
 7181SOL     OW22441   5.713   6.732   2.708
 7181SOL    HW122442   5.650   6.762   2.635
 7181SOL    HW222443   5.695   6.636   2.730
 7182SOL     OW22444   3.537   3.687   5.657
 7182SOL    HW122445   3.491   3.603   5.688
 7182SOL    HW222446   3.480   3.732   5.588
 7183SOL     OW22447   1.294   4.844   3.045
 7183SOL    HW122448   1.231   4.843   3.123
 7183SOL    HW222449   1.387   4.826   3.077
 7184SOL     OW22450   2.578   6.139   2.760
 7184SOL    HW122451   2.629   6.054   2.770
 7184SOL    HW222452   2.498   6.123   2.703
 7185SOL     OW22453   4.314   2.390   6.656
 7185SOL    HW122454   4.340   2.467   6.597
 7185SOL    HW222455   4.397   2.343   6.687
 7186SOL     OW22456   0.250   6.915   3.977
 7186SOL    HW122457   0.307   6.969   4.038
 7186SOL    HW222458   0.224   6.829   4.021
 7187SOL     OW22459   2.228   5.441   1.413
 7187SOL    HW122460   2.301   5.448   1.482
 7187SOL    HW222461   2.141   5.469   1.454
 7188SOL     OW22462   4.912   0.256   1.490
 7188SOL    HW122463   4.886   0.197   1.413
 7188SOL    HW222464   4.897   0.351   1.465
 7189SOL     OW22465   6.944   0.184   4.927
 7189SOL    HW122466   6.883   0.202   4.850
 7189SOL    HW222467   0.019   0.181   4.895
 7190SOL     OW22468   4.728   4.889   3.150
 7190SOL    HW122469   4.819   4.931   3.158
 7190SOL    HW222470   4.670   4.948   3.093
 7191SOL     OW22471   0.594   2.923   1.741
 7191SOL    HW122472   0.560   2.993   1.804
 7191SOL    HW222473   0.683   2.951   1.706
 7192SOL     OW22474   4.183   5.792   6.266
 7192SOL    HW122475   4.161   5.850   6.188
 7192SOL    HW222476   4.101   5.782   6.323
 7193SOL     OW22477   5.649   1.761   3.695
 7193SOL    HW122478   5.742   1.788   3.671
 7193SOL    HW222479   5.585   1.802   3.630
 7194SOL     OW22480   3.179   1.347   1.251
 7194SOL    HW122481   3.275   1.320   1.247
 7194SOL    HW222482   3.168   1.436   1.205
 7195SOL     OW22483   0.395   6.276   1.929
 7195SOL    HW122484   0.296   6.270   1.946
 7195SOL    HW222485   0.426   6.369   1.943
 7196SOL     OW22486   3.514   2.743   1.895
 7196SOL    HW122487   3.522   2.734   1.795
 7196SOL    HW222488   3.499   2.653   1.935
 7197SOL     OW22489   1.311   1.824   4.524
 7197SOL    HW122490   1.354   1.879   4.453
 7197SOL    HW222491   1.329   1.727   4.507
 7198SOL     OW22492   0.520   6.739   6.315
 7198SOL    HW122493   0.479   6.675   6.380
 7198SOL    HW222494   0.617   6.752   6.337
 7199SOL     OW22495   5.691   6.591   2.980
 7199SOL    HW122496   5.660   6.685   2.997
 7199SOL    HW222497   5.777   6.576   3.029
 7200SOL     OW22498   1.656   1.971   1.886
 7200SOL    HW122499   1.699   1.882   1.868
 7200SOL    HW222500   1.646   1.983   1.985
 7201SOL     OW22501   2.087   5.233   3.240
 7201SOL    HW122502   2.069   5.247   3.143
 7201SOL    HW222503   2.011   5.271   3.293
 7202SOL     OW22504   3.411   0.217   5.599
 7202SOL    HW122505   3.333   0.231   5.661
 7202SOL    HW222506   3.491   0.190   5.651
 7203SOL     OW22507   5.779   0.320   6.633
 7203SOL    HW122508   5.850   0.307   6.565
 7203SOL    HW222509   5.754   0.417   6.637
 7204SOL     OW22510   6.343   1.645   2.678
 7204SOL    HW122511   6.264   1.616   2.624
 7204SOL    HW222512   6.340   1.744   2.689
 7205SOL     OW22513   1.921   4.984   1.717
 7205SOL    HW122514   1.887   4.914   1.779
 7205SOL    HW222515   1.865   4.986   1.634
 7206SOL     OW22516   5.654   1.596   1.658
 7206SOL    HW122517   5.557   1.572   1.665
 7206SOL    HW222518   5.685   1.633   1.746
 7207SOL     OW22519   4.002   6.692   2.229
 7207SOL    HW122520   3.998   6.758   2.304
 7207SOL    HW222521   3.938   6.720   2.157
 7208SOL     OW22522   3.148   6.952   4.796
 7208SOL    HW122523   3.203   0.000   4.844
 7208SOL    HW222524   3.056   6.950   4.834
 7209SOL     OW22525   4.069   3.269   4.768
 7209SOL    HW122526   4.061   3.276   4.867
 7209SOL    HW222527   4.164   3.287   4.741
 7210SOL     OW22528   4.683   0.784   4.048
 7210SOL    HW122529   4.762   0.838   4.017
 7210SOL    HW222530   4.635   0.748   3.968
 7211SOL     OW22531   1.706   4.882   2.845
 7211SOL    HW122532   1.792   4.866   2.797
 7211SOL    HW222533   1.641   4.811   2.822
 7212SOL     OW22534   5.013   6.830   3.578
 7212SOL    HW122535   5.018   6.787   3.669
 7212SOL    HW222536   5.066   6.915   3.579
 7213SOL     OW22537   6.047   6.918   5.442
 7213SOL    HW122538   6.136   6.935   5.484
 7213SOL    HW222539   6.005   6.838   5.483
 7214SOL     OW22540   0.241   5.185   5.334
 7214SOL    HW122541   0.339   5.181   5.351
 7214SOL    HW222542   0.194   5.222   5.414
 7215SOL     OW22543   1.026   3.388   2.927
 7215SOL    HW122544   1.113   3.367   2.882
 7215SOL    HW222545   0.966   3.308   2.922
 7216SOL     OW22546   2.382   1.598   1.753
 7216SOL    HW122547   2.405   1.639   1.841
 7216SOL    HW222548   2.347   1.669   1.692
 7217SOL     OW22549   1.311   3.130   1.944
 7217SOL    HW122550   1.240   3.078   1.897
 7217SOL    HW222551   1.383   3.067   1.974
 7218SOL     OW22552   6.658   2.219   5.806
 7218SOL    HW122553   6.744   2.229   5.856
 7218SOL    HW222554   6.676   2.222   5.708
 7219SOL     OW22555   3.725   0.341   1.136
 7219SOL    HW122556   3.746   0.243   1.128
 7219SOL    HW222557   3.628   0.352   1.161
 7220SOL     OW22558   0.276   0.966   3.329
 7220SOL    HW122559   0.223   0.886   3.302
 7220SOL    HW222560   0.325   0.947   3.414
 7221SOL     OW22561   5.901   5.128   5.527
 7221SOL    HW122562   5.834   5.201   5.515
 7221SOL    HW222563   5.981   5.147   5.470
 7222SOL     OW22564   5.950   6.392   3.318
 7222SOL    HW122565   6.005   6.475   3.323
 7222SOL    HW222566   5.932   6.369   3.222
 7223SOL     OW22567   4.398   1.225   5.176
 7223SOL    HW122568   4.434   1.151   5.118
 7223SOL    HW222569   4.302   1.242   5.153
 7224SOL     OW22570   5.337   0.876   4.699
 7224SOL    HW122571   5.387   0.798   4.663
 7224SOL    HW222572   5.240   0.869   4.673
 7225SOL     OW22573   2.146   0.515   0.670
 7225SOL    HW122574   2.076   0.473   0.727
 7225SOL    HW222575   2.103   0.574   0.602
 7226SOL     OW22576   5.867   6.790   6.328
 7226SOL    HW122577   5.847   6.888   6.327
 7226SOL    HW222578   5.929   6.767   6.254
 7227SOL     OW22579   7.012   2.192   6.115
 7227SOL    HW122580   6.975   2.263   6.175
 7227SOL    HW222581   6.997   2.103   6.156
 7228SOL     OW22582   2.223   0.685   2.946
 7228SOL    HW122583   2.129   0.719   2.946
 7228SOL    HW222584   2.256   0.675   3.040
 7229SOL     OW22585   0.280   0.318   3.812
 7229SOL    HW122586   0.249   0.260   3.888
 7229SOL    HW222587   0.362   0.279   3.771
 7230SOL     OW22588   6.307   5.307   1.784
 7230SOL    HW122589   6.307   5.407   1.781
 7230SOL    HW222590   6.303   5.271   1.691
 7231SOL     OW22591   5.710   0.901   6.511
 7231SOL    HW122592   5.743   0.979   6.458
 7231SOL    HW222593   5.777   0.828   6.508
 7232SOL     OW22594   3.710   4.139   0.836
 7232SOL    HW122595   3.678   4.136   0.741
 7232SOL    HW222596   3.808   4.118   0.838
 7233SOL     OW22597   0.598   2.274   6.177
 7233SOL    HW122598   0.622   2.253   6.082
 7233SOL    HW222599   0.542   2.357   6.180
 7234SOL     OW22600   5.465   1.714   2.987
 7234SOL    HW122601   5.400   1.782   3.020
 7234SOL    HW222602   5.416   1.631   2.959
 7235SOL     OW22603   5.941   2.998   4.615
 7235SOL    HW122604   5.846   2.970   4.598
 7235SOL    HW222605   5.961   3.081   4.562
 7236SOL     OW22606   2.374   1.356   3.323
 7236SOL    HW122607   2.324   1.423   3.268
 7236SOL    HW222608   2.312   1.281   3.348
 7237SOL     OW22609   5.986   5.331   5.115
 7237SOL    HW122610   5.977   5.430   5.106
 7237SOL    HW222611   5.895   5.290   5.115
 7238SOL     OW22612   0.993   0.784   1.654
 7238SOL    HW122613   0.924   0.818   1.717
 7238SOL    HW222614   0.984   0.831   1.566
 7239SOL     OW22615   4.615   0.828   2.251
 7239SOL    HW122616   4.616   0.815   2.152
 7239SOL    HW222617   4.694   0.881   2.278
 7240SOL     OW22618   3.109   3.188   1.381
 7240SOL    HW122619   3.092   3.098   1.420
 7240SOL    HW222620   3.169   3.240   1.441
 7241SOL     OW22621   5.297   6.734   4.652
 7241SOL    HW122622   5.208   6.760   4.690
 7241SOL    HW222623   5.323   6.644   4.686
 7242SOL     OW22624   5.569   4.916   0.646
 7242SOL    HW122625   5.516   4.833   0.629
 7242SOL    HW222626   5.518   4.995   0.613
 7243SOL     OW22627   0.644   5.693   0.499
 7243SOL    HW122628   0.584   5.621   0.462
 7243SOL    HW222629   0.726   5.651   0.537
 7244SOL     OW22630   5.818   1.957   0.793
 7244SOL    HW122631   5.822   2.057   0.783
 7244SOL    HW222632   5.860   1.931   0.880
 7245SOL     OW22633   6.641   1.759   4.243
 7245SOL    HW122634   6.657   1.854   4.268
 7245SOL    HW222635   6.664   1.700   4.320
 7246SOL     OW22636   1.571   5.302   5.413
 7246SOL    HW122637   1.595   5.261   5.325
 7246SOL    HW222638   1.649   5.294   5.476
 7247SOL     OW22639   3.901   5.642   3.399
 7247SOL    HW122640   3.801   5.644   3.402
 7247SOL    HW222641   3.935   5.581   3.471
 7248SOL     OW22642   3.117   0.930   4.695
 7248SOL    HW122643   3.028   0.884   4.690
 7248SOL    HW222644   3.105   1.020   4.737
 7249SOL     OW22645   5.241   4.121   5.829
 7249SOL    HW122646   5.239   4.203   5.772
 7249SOL    HW222647   5.276   4.144   5.919
 7250SOL     OW22648   3.155   3.456   0.416
 7250SOL    HW122649   3.184   3.527   0.352
 7250SOL    HW222650   3.107   3.384   0.367
 7251SOL     OW22651   5.481   1.101   4.637
 7251SOL    HW122652   5.429   1.016   4.651
 7251SOL    HW222653   5.463   1.164   4.713
 7252SOL     OW22654   4.310   3.622   5.309
 7252SOL    HW122655   4.391   3.564   5.305
 7252SOL    HW222656   4.245   3.595   5.238
 7253SOL     OW22657   5.163   4.791   0.973
 7253SOL    HW122658   5.162   4.877   0.921
 7253SOL    HW222659   5.160   4.811   1.070
 7254SOL     OW22660   5.641   6.800   5.373
 7254SOL    HW122661   5.623   6.782   5.277
 7254SOL    HW222662   5.678   6.717   5.416
 7255SOL     OW22663   4.084   3.545   2.135
 7255SOL    HW122664   4.144   3.555   2.215
 7255SOL    HW222665   3.989   3.545   2.164
 7256SOL     OW22666   3.924   4.930   3.743
 7256SOL    HW122667   3.923   4.976   3.654
 7256SOL    HW222668   3.850   4.964   3.800
 7257SOL     OW22669   6.098   3.954   3.210
 7257SOL    HW122670   6.186   3.990   3.180
 7257SOL    HW222671   6.037   3.944   3.130
 7258SOL     OW22672   2.242   0.448   5.679
 7258SOL    HW122673   2.298   0.383   5.627
 7258SOL    HW222674   2.149   0.412   5.686
 7259SOL     OW22675   2.579   5.373   6.254
 7259SOL    HW122676   2.654   5.324   6.209
 7259SOL    HW222677   2.609   5.405   6.343
 7260SOL     OW22678   4.614   1.608   2.817
 7260SOL    HW122679   4.561   1.640   2.738
 7260SOL    HW222680   4.633   1.686   2.877
 7261SOL     OW22681   1.691   4.714   1.219
 7261SOL    HW122682   1.615   4.777   1.232
 7261SOL    HW222683   1.655   4.621   1.203
 7262SOL     OW22684   6.042   0.949   5.514
 7262SOL    HW122685   6.090   1.035   5.530
 7262SOL    HW222686   6.106   0.881   5.478
 7263SOL     OW22687   5.229   6.163   1.731
 7263SOL    HW122688   5.227   6.080   1.787
 7263SOL    HW222689   5.183   6.238   1.779
 7264SOL     OW22690   1.663   6.947   4.695
 7264SOL    HW122691   1.684   6.857   4.658
 7264SOL    HW222692   1.600   6.995   4.634
 7265SOL     OW22693   4.538   3.510   6.109
 7265SOL    HW122694   4.634   3.538   6.101
 7265SOL    HW222695   4.526   3.457   6.193
 7266SOL     OW22696   3.850   1.676   1.888
 7266SOL    HW122697   3.877   1.767   1.859
 7266SOL    HW222698   3.809   1.627   1.811
 7267SOL     OW22699   6.693   3.112   4.524
 7267SOL    HW122700   6.775   3.121   4.580
 7267SOL    HW222701   6.612   3.115   4.582
 7268SOL     OW22702   3.651   0.550   0.076
 7268SOL    HW122703   3.735   0.519   0.031
 7268SOL    HW222704   3.586   0.475   0.080
 7269SOL     OW22705   1.277   6.930   1.705
 7269SOL    HW122706   1.227   6.938   1.619
 7269SOL    HW222707   1.224   6.970   1.779
 7270SOL     OW22708   3.082   1.512   2.266
 7270SOL    HW122709   2.995   1.515   2.316
 7270SOL    HW222710   3.110   1.605   2.242
 7271SOL     OW22711   6.211   5.192   3.562
 7271SOL    HW122712   6.119   5.233   3.563
 7271SOL    HW222713   6.203   5.093   3.572
 7272SOL     OW22714   6.668   2.050   1.186
 7272SOL    HW122715   6.637   1.970   1.236
 7272SOL    HW222716   6.597   2.079   1.121
 7273SOL     OW22717   5.441   5.963   5.425
 7273SOL    HW122718   5.368   5.895   5.418
 7273SOL    HW222719   5.521   5.930   5.374
 7274SOL     OW22720   6.136   4.796   3.808
 7274SOL    HW122721   6.170   4.846   3.888
 7274SOL    HW222722   6.036   4.802   3.805
 7275SOL     OW22723   5.339   6.459   1.249
 7275SOL    HW122724   5.240   6.456   1.259
 7275SOL    HW222725   5.374   6.544   1.290
 7276SOL     OW22726   2.970   2.180   3.918
 7276SOL    HW122727   2.991   2.203   4.013
 7276SOL    HW222728   2.872   2.164   3.908
 7277SOL     OW22729   5.992   1.182   4.010
 7277SOL    HW122730   6.028   1.195   4.102
 7277SOL    HW222731   5.921   1.251   3.992
 7278SOL     OW22732   2.472   1.972   3.843
 7278SOL    HW122733   2.554   2.029   3.854
 7278SOL    HW222734   2.391   2.028   3.855
 7279SOL     OW22735   3.998   3.686   1.229
 7279SOL    HW122736   4.066   3.668   1.158
 7279SOL    HW222737   4.043   3.691   1.318
 7280SOL     OW22738   6.517   1.962   5.571
 7280SOL    HW122739   6.524   2.006   5.481
 7280SOL    HW222740   6.565   2.018   5.639
 7281SOL     OW22741   3.653   6.346   2.067
 7281SOL    HW122742   3.711   6.276   2.108
 7281SOL    HW222743   3.589   6.304   2.003
 7282SOL     OW22744   6.996   3.731   1.483
 7282SOL    HW122745   6.949   3.760   1.399
 7282SOL    HW222746   0.074   3.750   1.475
 7283SOL     OW22747   3.717   6.096   2.707
 7283SOL    HW122748   3.734   6.181   2.757
 7283SOL    HW222749   3.726   6.018   2.769
 7284SOL     OW22750   0.703   1.087   2.898
 7284SOL    HW122751   0.794   1.046   2.909
 7284SOL    HW222752   0.677   1.134   2.982
 7285SOL     OW22753   5.119   2.897   2.158
 7285SOL    HW122754   5.135   2.951   2.075
 7285SOL    HW222755   5.204   2.888   2.209
 7286SOL     OW22756   6.248   1.138   3.918
 7286SOL    HW122757   6.271   1.145   3.821
 7286SOL    HW222758   6.150   1.153   3.931
 7287SOL     OW22759   3.457   0.799   3.729
 7287SOL    HW122760   3.527   0.824   3.662
 7287SOL    HW222761   3.448   0.872   3.796
 7288SOL     OW22762   3.632   1.709   2.098
 7288SOL    HW122763   3.602   1.805   2.093
 7288SOL    HW222764   3.707   1.695   2.032
 7289SOL     OW22765   5.984   2.728   2.423
 7289SOL    HW122766   6.024   2.819   2.413
 7289SOL    HW222767   5.982   2.702   2.519
 7290SOL     OW22768   4.029   1.691   4.846
 7290SOL    HW122769   3.936   1.660   4.867
 7290SOL    HW222770   4.025   1.765   4.779
 7291SOL     OW22771   1.813   1.274   0.840
 7291SOL    HW122772   1.732   1.229   0.802
 7291SOL    HW222773   1.821   1.366   0.801
 7292SOL     OW22774   2.978   0.765   2.874
 7292SOL    HW122775   3.075   0.782   2.891
 7292SOL    HW222776   2.924   0.800   2.950
 7293SOL     OW22777   6.549   1.199   3.992
 7293SOL    HW122778   6.510   1.219   3.903
 7293SOL    HW222779   6.534   1.103   4.015
 7294SOL     OW22780   3.842   0.099   2.952
 7294SOL    HW122781   3.756   0.082   2.904
 7294SOL    HW222782   3.919   0.090   2.889
 7295SOL     OW22783   5.336   3.883   1.226
 7295SOL    HW122784   5.280   3.804   1.201
 7295SOL    HW222785   5.329   3.899   1.325
 7296SOL     OW22786   3.506   6.197   1.883
 7296SOL    HW122787   3.472   6.208   1.789
 7296SOL    HW222788   3.581   6.131   1.884
 7297SOL     OW22789   4.054   6.693   0.234
 7297SOL    HW122790   4.009   6.608   0.206
 7297SOL    HW222791   4.141   6.672   0.278
 7298SOL     OW22792   4.227   5.473   1.284
 7298SOL    HW122793   4.276   5.428   1.209
 7298SOL    HW222794   4.272   5.558   1.308
 7299SOL     OW22795   0.309   3.578   5.581
 7299SOL    HW122796   0.274   3.665   5.616
 7299SOL    HW222797   0.355   3.594   5.494
 7300SOL     OW22798   0.784   4.549   2.445
 7300SOL    HW122799   0.754   4.609   2.372
 7300SOL    HW222800   0.733   4.570   2.529
 7301SOL     OW22801   4.425   2.050   6.813
 7301SOL    HW122802   4.455   2.145   6.811
 7301SOL    HW222803   4.392   2.023   6.723
 7302SOL     OW22804   5.200   2.339   6.885
 7302SOL    HW122805   5.205   2.438   6.892
 7302SOL    HW222806   5.161   2.302   6.969
 7303SOL     OW22807   3.152   2.003   1.463
 7303SOL    HW122808   3.109   2.091   1.443
 7303SOL    HW222809   3.243   2.019   1.502
 7304SOL     OW22810   2.061   6.351   0.678
 7304SOL    HW122811   2.051   6.277   0.612
 7304SOL    HW222812   2.155   6.353   0.713
 7305SOL     OW22813   6.334   0.201   6.285
 7305SOL    HW122814   6.378   0.253   6.358
 7305SOL    HW222815   6.247   0.164   6.318
 7306SOL     OW22816   0.964   3.291   1.367
 7306SOL    HW122817   1.005   3.376   1.402
 7306SOL    HW222818   0.885   3.266   1.424
 7307SOL     OW22819   2.682   0.676   2.088
 7307SOL    HW122820   2.679   0.690   2.187
 7307SOL    HW222821   2.772   0.703   2.053
 7308SOL     OW22822   3.466   1.185   3.584
 7308SOL    HW122823   3.506   1.121   3.519
 7308SOL    HW222824   3.495   1.160   3.677
 7309SOL     OW22825   2.167   5.576   3.817
 7309SOL    HW122826   2.191   5.583   3.914
 7309SOL    HW222827   2.130   5.664   3.785
 7310SOL     OW22828   2.622   3.016   0.070
 7310SOL    HW122829   2.566   2.986   7.013
 7310SOL    HW222830   2.679   2.940   0.101
 7311SOL     OW22831   0.316   6.272   5.868
 7311SOL    HW122832   0.395   6.325   5.839
 7311SOL    HW222833   0.261   6.249   5.788
 7312SOL     OW22834   6.217   2.214   4.368
 7312SOL    HW122835   6.192   2.310   4.381
 7312SOL    HW222836   6.146   2.155   4.407
 7313SOL     OW22837   3.147   1.133   2.677
 7313SOL    HW122838   3.186   1.225   2.674
 7313SOL    HW222839   3.220   1.066   2.692
 7314SOL     OW22840   2.084   4.999   5.596
 7314SOL    HW122841   2.082   4.958   5.687
 7314SOL    HW222842   2.166   5.057   5.587
 7315SOL     OW22843   3.311   5.028   2.417
 7315SOL    HW122844   3.277   5.026   2.323
 7315SOL    HW222845   3.313   5.123   2.450
 7316SOL     OW22846   3.614   1.579   1.500
 7316SOL    HW122847   3.652   1.492   1.468
 7316SOL    HW222848   3.566   1.565   1.587
 7317SOL     OW22849   4.716   1.979   0.704
 7317SOL    HW122850   4.717   1.914   0.628
 7317SOL    HW222851   4.730   1.930   0.790
 7318SOL     OW22852   5.239   0.073   0.699
 7318SOL    HW122853   5.253   0.074   0.798
 7318SOL    HW222854   5.269   0.160   0.660
 7319SOL     OW22855   5.355   6.178   6.580
 7319SOL    HW122856   5.260   6.202   6.565
 7319SOL    HW222857   5.413   6.259   6.565
 7320SOL     OW22858   0.339   2.789   0.352
 7320SOL    HW122859   0.339   2.799   0.253
 7320SOL    HW222860   0.368   2.875   0.395
 7321SOL     OW22861   2.049   2.073   6.046
 7321SOL    HW122862   2.025   2.084   5.949
 7321SOL    HW222863   2.107   2.150   6.074
 7322SOL     OW22864   1.120   2.446   3.939
 7322SOL    HW122865   1.219   2.435   3.938
 7322SOL    HW222866   1.092   2.489   4.024
 7323SOL     OW22867   1.151   2.207   0.735
 7323SOL    HW122868   1.132   2.291   0.786
 7323SOL    HW222869   1.249   2.189   0.736
 7324SOL     OW22870   4.965   4.031   4.200
 7324SOL    HW122871   5.019   4.034   4.115
 7324SOL    HW222872   4.915   4.117   4.210
 7325SOL     OW22873   3.643   1.599   6.137
 7325SOL    HW122874   3.592   1.575   6.055
 7325SOL    HW222875   3.680   1.691   6.127
 7326SOL     OW22876   3.838   6.800   0.473
 7326SOL    HW122877   3.905   6.871   0.494
 7326SOL    HW222878   3.834   6.787   0.373
 7327SOL     OW22879   2.039   4.465   3.415
 7327SOL    HW122880   2.021   4.371   3.443
 7327SOL    HW222881   2.127   4.494   3.454
 7328SOL     OW22882   4.674   4.960   6.090
 7328SOL    HW122883   4.681   5.041   6.148
 7328SOL    HW222884   4.700   4.984   5.996
 7329SOL     OW22885   2.580   3.707   1.074
 7329SOL    HW122886   2.500   3.765   1.084
 7329SOL    HW222887   2.635   3.710   1.157
 7330SOL     OW22888   2.814   3.117   0.841
 7330SOL    HW122889   2.809   3.057   0.761
 7330SOL    HW222890   2.904   3.162   0.843
 7331SOL     OW22891   5.369   2.188   2.489
 7331SOL    HW122892   5.402   2.094   2.496
 7331SOL    HW222893   5.378   2.232   2.578
 7332SOL     OW22894   2.717   6.533   5.426
 7332SOL    HW122895   2.719   6.632   5.437
 7332SOL    HW222896   2.719   6.489   5.516
 7333SOL     OW22897   6.563   0.641   1.182
 7333SOL    HW122898   6.563   0.581   1.102
 7333SOL    HW222899   6.580   0.588   1.264
 7334SOL     OW22900   1.555   4.497   4.780
 7334SOL    HW122901   1.592   4.425   4.839
 7334SOL    HW222902   1.455   4.497   4.787
 7335SOL     OW22903   1.025   3.611   2.567
 7335SOL    HW122904   0.939   3.647   2.531
 7335SOL    HW222905   1.070   3.682   2.622
 7336SOL     OW22906   2.421   7.020   1.111
 7336SOL    HW122907   2.457   6.941   1.162
 7336SOL    HW222908   2.492   0.035   1.050
 7337SOL     OW22909   3.252   1.648   3.599
 7337SOL    HW122910   3.290   1.741   3.593
 7337SOL    HW222911   3.319   1.583   3.565
 7338SOL     OW22912   4.921   3.846   0.896
 7338SOL    HW122913   4.951   3.936   0.863
 7338SOL    HW222914   4.977   3.819   0.974
 7339SOL     OW22915   0.486   5.993   4.759
 7339SOL    HW122916   0.514   5.897   4.764
 7339SOL    HW222917   0.566   6.050   4.740
 7340SOL     OW22918   2.691   5.922   7.008
 7340SOL    HW122919   2.665   5.981   6.932
 7340SOL    HW222920   2.624   5.930   0.062
 7341SOL     OW22921   6.461   5.449   4.046
 7341SOL    HW122922   6.454   5.549   4.044
 7341SOL    HW222923   6.526   5.418   3.976
 7342SOL     OW22924   0.977   5.170   0.932
 7342SOL    HW122925   0.957   5.113   1.011
 7342SOL    HW222926   1.070   5.150   0.899
 7343SOL     OW22927   6.375   2.826   3.075
 7343SOL    HW122928   6.413   2.898   3.016
 7343SOL    HW222929   6.317   2.766   3.020
 7344SOL     OW22930   2.185   1.079   6.711
 7344SOL    HW122931   2.193   1.000   6.650
 7344SOL    HW222932   2.246   1.151   6.679
 7345SOL     OW22933   2.389   6.490   6.865
 7345SOL    HW122934   2.388   6.450   6.773
 7345SOL    HW222935   2.321   6.563   6.870
 7346SOL     OW22936   3.786   4.846   2.335
 7346SOL    HW122937   3.844   4.844   2.417
 7346SOL    HW222938   3.701   4.895   2.355
 7347SOL     OW22939   6.512   2.909   2.746
 7347SOL    HW122940   6.565   2.890   2.663
 7347SOL    HW222941   6.475   3.001   2.742
 7348SOL     OW22942   6.524   1.360   5.750
 7348SOL    HW122943   6.480   1.350   5.839
 7348SOL    HW222944   6.605   1.418   5.759
 7349SOL     OW22945   3.529   1.596   1.022
 7349SOL    HW122946   3.541   1.688   1.059
 7349SOL    HW222947   3.619   1.555   1.005
 7350SOL     OW22948   2.160   1.199   3.342
 7350SOL    HW122949   2.166   1.171   3.246
 7350SOL    HW222950   2.161   1.118   3.400
 7351SOL     OW22951   4.310   4.672   0.773
 7351SOL    HW122952   4.356   4.722   0.700
 7351SOL    HW222953   4.376   4.647   0.844
 7352SOL     OW22954   6.666   0.579   3.191
 7352SOL    HW122955   6.605   0.654   3.166
 7352SOL    HW222956   6.617   0.492   3.185
 7353SOL     OW22957   5.419   1.294   4.829
 7353SOL    HW122958   5.333   1.328   4.865
 7353SOL    HW222959   5.492   1.312   4.894
 7354SOL     OW22960   6.036   4.548   4.476
 7354SOL    HW122961   6.047   4.647   4.465
 7354SOL    HW222962   6.052   4.522   4.571
 7355SOL     OW22963   0.849   5.509   0.903
 7355SOL    HW122964   0.841   5.533   0.806
 7355SOL    HW222965   0.762   5.527   0.949
 7356SOL     OW22966   0.178   2.219   5.695
 7356SOL    HW122967   0.248   2.256   5.634
 7356SOL    HW222968   0.208   2.228   5.790
 7357SOL     OW22969   0.653   1.706   7.016
 7357SOL    HW122970   0.574   1.665   0.043
 7357SOL    HW222971   0.705   1.634   6.969
 7358SOL     OW22972   3.458   1.036   3.903
 7358SOL    HW122973   3.554   1.058   3.921
 7358SOL    HW222974   3.406   1.121   3.891
 7359SOL     OW22975   3.427   3.053   3.288
 7359SOL    HW122976   3.461   2.982   3.226
 7359SOL    HW222977   3.328   3.047   3.294
 7360SOL     OW22978   0.097   4.239   6.147
 7360SOL    HW122979   0.032   4.315   6.139
 7360SOL    HW222980   0.190   4.275   6.154
 7361SOL     OW22981   4.530   6.658   1.607
 7361SOL    HW122982   4.606   6.716   1.638
 7361SOL    HW222983   4.563   6.597   1.535
 7362SOL     OW22984   1.741   6.309   6.068
 7362SOL    HW122985   1.798   6.391   6.074
 7362SOL    HW222986   1.706   6.300   5.974
 7363SOL     OW22987   4.807   3.030   6.720
 7363SOL    HW122988   4.731   3.090   6.747
 7363SOL    HW222989   4.842   3.058   6.630
 7364SOL     OW22990   4.645   0.503   1.343
 7364SOL    HW122991   4.580   0.515   1.418
 7364SOL    HW222992   4.597   0.474   1.261
 7365SOL     OW22993   4.087   0.516   1.805
 7365SOL    HW122994   3.987   0.520   1.811
 7365SOL    HW222995   4.115   0.433   1.757
 7366SOL     OW22996   0.896   6.754   7.007
 7366SOL    HW122997   0.899   6.671   6.951
 7366SOL    HW222998   0.966   6.748   0.058
 7367SOL     OW22999   4.566   2.687   0.051
 7367SOL    HW123000   4.648   2.744   0.057
 7367SOL    HW223001   4.487   2.738   0.084
 7368SOL     OW23002   3.400   2.874   3.683
 7368SOL    HW123003   3.340   2.799   3.712
 7368SOL    HW223004   3.361   2.961   3.711
 7369SOL     OW23005   5.143   1.528   6.121
 7369SOL    HW123006   5.117   1.566   6.210
 7369SOL    HW223007   5.207   1.452   6.134
 7370SOL     OW23008   1.120   5.652   0.957
 7370SOL    HW123009   1.148   5.709   0.880
 7370SOL    HW223010   1.023   5.630   0.948
 7371SOL     OW23011   1.971   4.829   4.514
 7371SOL    HW123012   1.997   4.857   4.606
 7371SOL    HW223013   2.031   4.872   4.447
 7372SOL     OW23014   3.121   6.921   5.199
 7372SOL    HW123015   3.145   6.981   5.275
 7372SOL    HW223016   3.057   6.967   5.138
 7373SOL     OW23017   3.603   0.130   0.564
 7373SOL    HW123018   3.528   0.071   0.595
 7373SOL    HW223019   3.671   0.139   0.637
 7374SOL     OW23020   2.170   3.246   6.772
 7374SOL    HW123021   2.133   3.266   6.863
 7374SOL    HW223022   2.168   3.329   6.717
 7375SOL     OW23023   2.588   6.335   3.037
 7375SOL    HW123024   2.608   6.415   3.093
 7375SOL    HW223025   2.652   6.329   2.961
 7376SOL     OW23026   3.134   3.924   6.668
 7376SOL    HW123027   3.230   3.898   6.672
 7376SOL    HW223028   3.077   3.843   6.661
 7377SOL     OW23029   5.891   5.742   2.046
 7377SOL    HW123030   5.805   5.757   2.096
 7377SOL    HW223031   5.893   5.800   1.965
 7378SOL     OW23032   0.188   2.580   5.891
 7378SOL    HW123033   0.091   2.557   5.899
 7378SOL    HW223034   0.230   2.583   5.982
 7379SOL     OW23035   4.004   1.139   1.215
 7379SOL    HW123036   3.999   1.192   1.299
 7379SOL    HW223037   3.943   1.060   1.222
 7380SOL     OW23038   6.693   2.670   5.540
 7380SOL    HW123039   6.790   2.660   5.520
 7380SOL    HW223040   6.663   2.761   5.512
 7381SOL     OW23041   4.671   2.448   0.569
 7381SOL    HW123042   4.623   2.362   0.551
 7381SOL    HW223043   4.690   2.494   0.482
 7382SOL     OW23044   1.447   5.571   3.782
 7382SOL    HW123045   1.358   5.589   3.823
 7382SOL    HW223046   1.519   5.606   3.843
 7383SOL     OW23047   0.966   5.065   3.019
 7383SOL    HW123048   0.891   5.023   3.071
 7383SOL    HW223049   1.031   5.108   3.082
 7384SOL     OW23050   6.392   1.716   1.495
 7384SOL    HW123051   6.360   1.684   1.585
 7384SOL    HW223052   6.372   1.646   1.427
 7385SOL     OW23053   4.913   0.814   1.504
 7385SOL    HW123054   4.966   0.747   1.556
 7385SOL    HW223055   4.974   0.876   1.456
 7386SOL     OW23056   0.245   2.286   6.213
 7386SOL    HW123057   0.306   2.210   6.192
 7386SOL    HW223058   0.160   2.277   6.160
 7387SOL     OW23059   5.416   6.407   4.149
 7387SOL    HW123060   5.475   6.428   4.071
 7387SOL    HW223061   5.371   6.491   4.180
 7388SOL     OW23062   5.498   4.378   4.971
 7388SOL    HW123063   5.438   4.302   4.946
 7388SOL    HW223064   5.575   4.381   4.909
 7389SOL     OW23065   0.536   3.832   4.581
 7389SOL    HW123066   0.478   3.819   4.501
 7389SOL    HW223067   0.551   3.743   4.626
 7390SOL     OW23068   3.259   0.138   6.452
 7390SOL    HW123069   3.164   0.167   6.454
 7390SOL    HW223070   3.307   0.175   6.532
 7391SOL     OW23071   6.895   4.943   0.273
 7391SOL    HW123072   6.868   4.931   0.369
 7391SOL    HW223073   6.984   4.988   0.269
 7392SOL     OW23074   2.262   4.577   2.760
 7392SOL    HW123075   2.315   4.653   2.798
 7392SOL    HW223076   2.180   4.562   2.816
 7393SOL     OW23077   0.665   3.727   6.915
 7393SOL    HW123078   0.699   3.756   7.004
 7393SOL    HW223079   0.700   3.788   6.844
 7394SOL     OW23080   2.572   2.803   6.179
 7394SOL    HW123081   2.592   2.705   6.176
 7394SOL    HW223082   2.635   2.852   6.119
 7395SOL     OW23083   2.137   0.119   6.840
 7395SOL    HW123084   2.144   0.067   6.755
 7395SOL    HW223085   2.160   0.215   6.823
 7396SOL     OW23086   6.732   6.988   1.849
 7396SOL    HW123087   6.717   6.972   1.752
 7396SOL    HW223088   6.692   0.056   1.875
 7397SOL     OW23089   6.418   4.287   4.351
 7397SOL    HW123090   6.425   4.197   4.393
 7397SOL    HW223091   6.340   4.288   4.289
 7398SOL     OW23092   4.748   0.022   2.631
 7398SOL    HW123093   4.838   0.039   2.672
 7398SOL    HW223094   4.712   0.106   2.593
 7399SOL     OW23095   5.378   4.806   4.658
 7399SOL    HW123096   5.400   4.739   4.729
 7399SOL    HW223097   5.283   4.794   4.628
 7400SOL     OW23098   2.478   3.742   0.428
 7400SOL    HW123099   2.437   3.733   0.519
 7400SOL    HW223100   2.537   3.664   0.409
 7401SOL     OW23101   5.958   1.868   4.716
 7401SOL    HW123102   5.883   1.858   4.781
 7401SOL    HW223103   6.045   1.849   4.762
 7402SOL     OW23104   2.781   6.275   4.469
 7402SOL    HW123105   2.713   6.227   4.414
 7402SOL    HW223106   2.781   6.239   4.562
 7403SOL     OW23107   2.903   2.606   1.110
 7403SOL    HW123108   2.838   2.681   1.116
 7403SOL    HW223109   2.857   2.519   1.129
 7404SOL     OW23110   1.226   2.075   2.520
 7404SOL    HW123111   1.307   2.127   2.493
 7404SOL    HW223112   1.146   2.110   2.472
 7405SOL     OW23113   4.273   4.950   6.294
 7405SOL    HW123114   4.273   4.865   6.346
 7405SOL    HW223115   4.315   4.934   6.204
 7406SOL     OW23116   0.570   6.486   1.912
 7406SOL    HW123117   0.646   6.429   1.942
 7406SOL    HW223118   0.585   6.516   1.818
 7407SOL     OW23119   2.834   0.453   6.208
 7407SOL    HW123120   2.824   0.552   6.201
 7407SOL    HW223121   2.745   0.411   6.222
 7408SOL     OW23122   0.667   3.760   4.909
 7408SOL    HW123123   0.613   3.841   4.887
 7408SOL    HW223124   0.716   3.775   4.996
 7409SOL     OW23125   2.352   6.721   5.357
 7409SOL    HW123126   2.369   6.627   5.386
 7409SOL    HW223127   2.372   6.731   5.260
 7410SOL     OW23128   5.234   5.218   6.857
 7410SOL    HW123129   5.329   5.188   6.843
 7410SOL    HW223130   5.187   5.220   6.769
 7411SOL     OW23131   5.072   4.917   5.966
 7411SOL    HW123132   4.987   4.865   5.976
 7411SOL    HW223133   5.144   4.875   6.021
 7412SOL     OW23134   1.499   0.919   6.594
 7412SOL    HW123135   1.419   0.884   6.544
 7412SOL    HW223136   1.559   0.842   6.617
 7413SOL     OW23137   6.954   3.646   3.882
 7413SOL    HW123138   6.969   3.688   3.792
 7413SOL    HW223139   6.894   3.566   3.872
 7414SOL     OW23140   0.448   5.064   2.455
 7414SOL    HW123141   0.541   5.034   2.433
 7414SOL    HW223142   0.452   5.149   2.508
 7415SOL     OW23143   2.886   1.896   3.647
 7415SOL    HW123144   2.864   1.993   3.657
 7415SOL    HW223145   2.980   1.880   3.678
 7416SOL     OW23146   6.302   0.158   3.432
 7416SOL    HW123147   6.257   0.088   3.376
 7416SOL    HW223148   6.234   0.204   3.488
 7417SOL     OW23149   0.862   5.551   0.622
 7417SOL    HW123150   0.837   5.477   0.559
 7417SOL    HW223151   0.954   5.535   0.658
 7418SOL     OW23152   0.689   3.744   0.559
 7418SOL    HW123153   0.732   3.660   0.528
 7418SOL    HW223154   0.757   3.801   0.606
 7419SOL     OW23155   5.668   1.974   5.611
 7419SOL    HW123156   5.571   1.995   5.598
 7419SOL    HW223157   5.711   1.958   5.522
 7420SOL     OW23158   6.571   5.839   2.485
 7420SOL    HW123159   6.634   5.836   2.563
 7420SOL    HW223160   6.510   5.918   2.495
 7421SOL     OW23161   4.129   1.891   1.323
 7421SOL    HW123162   4.189   1.970   1.333
 7421SOL    HW223163   4.176   1.818   1.273
 7422SOL     OW23164   0.718   2.103   0.859
 7422SOL    HW123165   0.708   2.189   0.909
 7422SOL    HW223166   0.761   2.121   0.771
 7423SOL     OW23167   2.425   4.423   6.738
 7423SOL    HW123168   2.441   4.479   6.819
 7423SOL    HW223169   2.336   4.378   6.746
 7424SOL     OW23170   5.367   0.374   4.896
 7424SOL    HW123171   5.358   0.359   4.798
 7424SOL    HW223172   5.454   0.335   4.927
 7425SOL     OW23173   3.924   0.518   5.005
 7425SOL    HW123174   3.864   0.500   5.082
 7425SOL    HW223175   3.889   0.595   4.952
 7426SOL     OW23176   0.483   1.522   0.191
 7426SOL    HW123177   0.443   1.588   0.254
 7426SOL    HW223178   0.579   1.506   0.216
 7427SOL     OW23179   5.114   6.035   5.112
 7427SOL    HW123180   5.104   5.947   5.066
 7427SOL    HW223181   5.072   6.107   5.055
 7428SOL     OW23182   3.457   1.326   5.593
 7428SOL    HW123183   3.548   1.300   5.563
 7428SOL    HW223184   3.391   1.307   5.520
 7429SOL     OW23185   6.511   6.396   3.912
 7429SOL    HW123186   6.590   6.435   3.865
 7429SOL    HW223187   6.495   6.446   3.998
 7430SOL     OW23188   0.736   4.445   4.584
 7430SOL    HW123189   0.700   4.501   4.510
 7430SOL    HW223190   0.690   4.356   4.584
 7431SOL     OW23191   0.602   4.113   2.353
 7431SOL    HW123192   0.691   4.158   2.360
 7431SOL    HW223193   0.532   4.180   2.329
 7432SOL     OW23194   1.652   6.642   4.922
 7432SOL    HW123195   1.650   6.728   4.972
 7432SOL    HW223196   1.586   6.579   4.961
 7433SOL     OW23197   6.912   6.415   1.043
 7433SOL    HW123198   6.968   6.481   1.092
 7433SOL    HW223199   6.918   6.326   1.089
 7434SOL     OW23200   4.057   6.899   6.805
 7434SOL    HW123201   3.975   6.948   6.833
 7434SOL    HW223202   4.071   6.910   6.706
 7435SOL     OW23203   1.376   6.142   0.085
 7435SOL    HW123204   1.432   6.103   0.012
 7435SOL    HW223205   1.280   6.145   0.055
 7436SOL     OW23206   4.320   3.548   0.253
 7436SOL    HW123207   4.264   3.627   0.226
 7436SOL    HW223208   4.287   3.466   0.207
 7437SOL     OW23209   0.457   6.045   5.684
 7437SOL    HW123210   0.370   6.092   5.701
 7437SOL    HW223211   0.440   5.961   5.633
 7438SOL     OW23212   5.581   3.690   1.319
 7438SOL    HW123213   5.499   3.653   1.363
 7438SOL    HW223214   5.582   3.790   1.327
 7439SOL     OW23215   0.991   6.175   3.741
 7439SOL    HW123216   0.984   6.271   3.766
 7439SOL    HW223217   0.989   6.166   3.641
 7440SOL     OW23218   0.723   1.911   3.410
 7440SOL    HW123219   0.803   1.946   3.460
 7440SOL    HW223220   0.753   1.871   3.324
 7441SOL     OW23221   6.270   6.894   3.607
 7441SOL    HW123222   6.317   6.820   3.655
 7441SOL    HW223223   6.336   6.963   3.579
 7442SOL     OW23224   1.715   0.445   6.059
 7442SOL    HW123225   1.724   0.544   6.048
 7442SOL    HW223226   1.707   0.424   6.157
 7443SOL     OW23227   6.681   1.803   1.751
 7443SOL    HW123228   6.720   1.735   1.813
 7443SOL    HW223229   6.616   1.860   1.800
 7444SOL     OW23230   0.755   2.135   5.357
 7444SOL    HW123231   0.709   2.071   5.419
 7444SOL    HW223232   0.736   2.228   5.386
 7445SOL     OW23233   5.931   2.815   1.847
 7445SOL    HW123234   5.993   2.738   1.838
 7445SOL    HW223235   5.910   2.830   1.944
 7446SOL     OW23236   6.329   3.354   2.545
 7446SOL    HW123237   6.379   3.329   2.462
 7446SOL    HW223238   6.394   3.386   2.615
 7447SOL     OW23239   0.157   4.062   6.397
 7447SOL    HW123240   0.133   3.965   6.399
 7447SOL    HW223241   0.114   4.105   6.319
 7448SOL     OW23242   0.264   6.794   6.090
 7448SOL    HW123243   0.347   6.823   6.138
 7448SOL    HW223244   0.289   6.733   6.014
 7449SOL     OW23245   4.431   0.444   1.161
 7449SOL    HW123246   4.343   0.448   1.208
 7449SOL    HW223247   4.425   0.494   1.074
 7450SOL     OW23248   3.757   0.255   1.907
 7450SOL    HW123249   3.802   0.181   1.856
 7450SOL    HW223250   3.705   0.215   1.983
 7451SOL     OW23251   1.549   0.620   2.222
 7451SOL    HW123252   1.585   0.561   2.149
 7451SOL    HW223253   1.481   0.683   2.184
 7452SOL     OW23254   1.862   6.732   3.417
 7452SOL    HW123255   1.818   6.817   3.445
 7452SOL    HW223256   1.891   6.740   3.321
 7453SOL     OW23257   6.124   5.373   5.485
 7453SOL    HW123258   6.090   5.363   5.579
 7453SOL    HW223259   6.133   5.283   5.442
 7454SOL     OW23260   0.803   3.148   6.801
 7454SOL    HW123261   0.705   3.169   6.794
 7454SOL    HW223262   0.818   3.084   6.876
 7455SOL     OW23263   5.080   1.038   0.765
 7455SOL    HW123264   5.111   1.077   0.851
 7455SOL    HW223265   5.154   0.985   0.724
 7456SOL     OW23266   1.123   3.477   5.355
 7456SOL    HW123267   1.163   3.390   5.386
 7456SOL    HW223268   1.035   3.459   5.312
 7457SOL     OW23269   6.316   6.556   6.104
 7457SOL    HW123270   6.413   6.545   6.080
 7457SOL    HW223271   6.259   6.513   6.034
 7458SOL     OW23272   2.231   0.350   1.098
 7458SOL    HW123273   2.272   0.420   1.157
 7458SOL    HW223274   2.229   0.262   1.146
 7459SOL     OW23275   4.664   0.367   4.918
 7459SOL    HW123276   4.631   0.383   4.826
 7459SOL    HW223277   4.738   0.299   4.916
 7460SOL     OW23278   1.018   5.746   6.780
 7460SOL    HW123279   1.017   5.687   6.699
 7460SOL    HW223280   1.111   5.782   6.793
 7461SOL     OW23281   4.335   1.282   4.284
 7461SOL    HW123282   4.390   1.277   4.201
 7461SOL    HW223283   4.269   1.206   4.284
 7462SOL     OW23284   1.973   0.756   2.937
 7462SOL    HW123285   1.880   0.730   2.909
 7462SOL    HW223286   2.004   0.831   2.879
 7463SOL     OW23287   3.550   3.751   2.050
 7463SOL    HW123288   3.630   3.783   2.100
 7463SOL    HW223289   3.566   3.658   2.016
 7464SOL     OW23290   4.752   0.100   0.347
 7464SOL    HW123291   4.730   0.006   0.369
 7464SOL    HW223292   4.694   0.162   0.400
 7465SOL     OW23293   3.379   0.839   2.313
 7465SOL    HW123294   3.469   0.820   2.351
 7465SOL    HW223295   3.380   0.927   2.266
 7466SOL     OW23296   6.351   0.607   6.875
 7466SOL    HW123297   6.290   0.528   6.885
 7466SOL    HW223298   6.387   0.609   6.782
 7467SOL     OW23299   5.007   1.655   0.986
 7467SOL    HW123300   5.087   1.607   1.023
 7467SOL    HW223301   5.012   1.658   0.886
 7468SOL     OW23302   5.961   3.869   4.477
 7468SOL    HW123303   6.041   3.846   4.533
 7468SOL    HW223304   5.929   3.961   4.501
 7469SOL     OW23305   5.788   1.173   2.259
 7469SOL    HW123306   5.704   1.133   2.295
 7469SOL    HW223307   5.788   1.272   2.275
 7470SOL     OW23308   0.451   3.563   2.680
 7470SOL    HW123309   0.422   3.657   2.696
 7470SOL    HW223310   0.545   3.551   2.711
 7471SOL     OW23311   5.924   4.662   5.657
 7471SOL    HW123312   5.983   4.736   5.691
 7471SOL    HW223313   5.936   4.581   5.714
 7472SOL     OW23314   4.030   5.114   2.940
 7472SOL    HW123315   3.936   5.084   2.926
 7472SOL    HW223316   4.062   5.164   2.859
 7473SOL     OW23317   0.768   3.262   5.196
 7473SOL    HW123318   0.692   3.236   5.256
 7473SOL    HW223319   0.779   3.193   5.125
 7474SOL     OW23320   3.355   1.974   3.058
 7474SOL    HW123321   3.382   1.886   3.098
 7474SOL    HW223322   3.359   2.045   3.128
 7475SOL     OW23323   4.057   1.410   6.728
 7475SOL    HW123324   4.123   1.484   6.720
 7475SOL    HW223325   4.042   1.370   6.637
 7476SOL     OW23326   2.936   0.351   4.925
 7476SOL    HW123327   2.957   0.449   4.921
 7476SOL    HW223328   2.866   0.329   4.858
 7477SOL     OW23329   4.736   4.053   3.913
 7477SOL    HW123330   4.695   4.063   4.004
 7477SOL    HW223331   4.688   4.112   3.849
 7478SOL     OW23332   1.326   4.571   1.220
 7478SOL    HW123333   1.267   4.558   1.140
 7478SOL    HW223334   1.416   4.529   1.202
 7479SOL     OW23335   4.015   0.733   5.756
 7479SOL    HW123336   4.079   0.788   5.810
 7479SOL    HW223337   4.066   0.667   5.701
 7480SOL     OW23338   6.389   5.497   0.923
 7480SOL    HW123339   6.311   5.512   0.983
 7480SOL    HW223340   6.364   5.520   0.829
 7481SOL     OW23341   6.337   6.288   0.620
 7481SOL    HW123342   6.406   6.226   0.582
 7481SOL    HW223343   6.367   6.382   0.609
 7482SOL     OW23344   5.269   6.989   4.096
 7482SOL    HW123345   5.333   0.018   4.038
 7482SOL    HW223346   5.315   6.959   4.180
 7483SOL     OW23347   3.024   0.220   6.104
 7483SOL    HW123348   2.943   0.199   6.160
 7483SOL    HW223349   3.101   0.240   6.164
 7484SOL     OW23350   3.662   0.326   2.344
 7484SOL    HW123351   3.624   0.399   2.287
 7484SOL    HW223352   3.588   0.279   2.392
 7485SOL     OW23353   1.104   6.979   5.011
 7485SOL    HW123354   1.103   0.057   5.032
 7485SOL    HW223355   1.020   6.937   5.047
 7486SOL     OW23356   1.225   1.350   4.913
 7486SOL    HW123357   1.148   1.302   4.872
 7486SOL    HW223358   1.309   1.297   4.897
 7487SOL     OW23359   3.850   5.739   3.134
 7487SOL    HW123360   3.807   5.662   3.087
 7487SOL    HW223361   3.886   5.708   3.222
 7488SOL     OW23362   3.574   0.855   5.689
 7488SOL    HW123363   3.490   0.845   5.636
 7488SOL    HW223364   3.605   0.949   5.686
 7489SOL     OW23365   6.591   4.101   3.248
 7489SOL    HW123366   6.547   4.187   3.272
 7489SOL    HW223367   6.644   4.113   3.164
 7490SOL     OW23368   5.703   1.063   3.238
 7490SOL    HW123369   5.641   1.124   3.188
 7490SOL    HW223370   5.760   1.012   3.174
 7491SOL     OW23371   0.332   6.455   0.046
 7491SOL    HW123372   0.233   6.459   0.052
 7491SOL    HW223373   0.373   6.513   0.117
 7492SOL     OW23374   2.063   2.424   3.609
 7492SOL    HW123375   2.151   2.382   3.630
 7492SOL    HW223376   2.068   2.523   3.622
 7493SOL     OW23377   5.101   4.760   6.756
 7493SOL    HW123378   5.094   4.662   6.771
 7493SOL    HW223379   5.128   4.805   6.841
 7494SOL     OW23380   5.462   1.875   1.341
 7494SOL    HW123381   5.517   1.799   1.306
 7494SOL    HW223382   5.397   1.904   1.271
 7495SOL     OW23383   0.635   1.702   2.499
 7495SOL    HW123384   0.677   1.631   2.442
 7495SOL    HW223385   0.707   1.748   2.552
 7496SOL     OW23386   0.292   5.193   6.277
 7496SOL    HW123387   0.391   5.190   6.293
 7496SOL    HW223388   0.261   5.288   6.276
 7497SOL     OW23389   1.677   4.967   2.420
 7497SOL    HW123390   1.738   5.044   2.436
 7497SOL    HW223391   1.700   4.892   2.483
 7498SOL     OW23392   5.418   2.049   4.428
 7498SOL    HW123393   5.357   1.971   4.415
 7498SOL    HW223394   5.496   2.021   4.485
 7499SOL     OW23395   4.102   4.731   3.674
 7499SOL    HW123396   4.084   4.703   3.580
 7499SOL    HW223397   4.038   4.803   3.700
 7500SOL     OW23398   4.760   4.078   1.913
 7500SOL    HW123399   4.788   4.031   1.997
 7500SOL    HW223400   4.664   4.105   1.920
 7501SOL     OW23401   0.409   4.636   3.773
 7501SOL    HW123402   0.458   4.550   3.756
 7501SOL    HW223403   0.427   4.700   3.698
 7502SOL     OW23404   2.024   2.144   4.515
 7502SOL    HW123405   1.956   2.181   4.578
 7502SOL    HW223406   2.104   2.115   4.566
 7503SOL     OW23407   2.085   2.756   6.614
 7503SOL    HW123408   1.985   2.749   6.615
 7503SOL    HW223409   2.122   2.714   6.697
 7504SOL     OW23410   4.012   5.438   3.592
 7504SOL    HW123411   4.032   5.350   3.550
 7504SOL    HW223412   3.937   5.428   3.658
 7505SOL     OW23413   1.769   1.895   4.331
 7505SOL    HW123414   1.722   1.917   4.416
 7505SOL    HW223415   1.713   1.926   4.254
 7506SOL     OW23416   3.471   1.321   3.932
 7506SOL    HW123417   3.502   1.416   3.926
 7506SOL    HW223418   3.389   1.309   3.877
 7507SOL     OW23419   1.435   6.132   5.670
 7507SOL    HW123420   1.384   6.188   5.605
 7507SOL    HW223421   1.518   6.181   5.699
 7508SOL     OW23422   4.834   5.560   4.310
 7508SOL    HW123423   4.763   5.625   4.281
 7508SOL    HW223424   4.808   5.521   4.399
 7509SOL     OW23425   4.133   3.684   6.461
 7509SOL    HW123426   4.167   3.778   6.464
 7509SOL    HW223427   4.158   3.643   6.373
 7510SOL     OW23428   3.114   3.617   4.671
 7510SOL    HW123429   3.029   3.595   4.717
 7510SOL    HW223430   3.188   3.561   4.707
 7511SOL     OW23431   1.160   0.521   2.467
 7511SOL    HW123432   1.092   0.533   2.394
 7511SOL    HW223433   1.140   0.437   2.518
 7512SOL     OW23434   2.343   3.067   1.663
 7512SOL    HW123435   2.289   3.050   1.580
 7512SOL    HW223436   2.440   3.054   1.643
 7513SOL     OW23437   1.274   3.490   6.432
 7513SOL    HW123438   1.310   3.405   6.470
 7513SOL    HW223439   1.294   3.565   6.495
 7514SOL     OW23440   2.930   5.741   3.147
 7514SOL    HW123441   2.920   5.840   3.136
 7514SOL    HW223442   3.024   5.720   3.172
 7515SOL     OW23443   0.097   4.974   2.624
 7515SOL    HW123444   0.070   4.882   2.596
 7515SOL    HW223445   0.112   5.030   2.543
 7516SOL     OW23446   1.227   1.714   2.312
 7516SOL    HW123447   1.216   1.740   2.408
 7516SOL    HW223448   1.147   1.745   2.260
 7517SOL     OW23449   0.109   5.166   1.209
 7517SOL    HW123450   0.192   5.207   1.169
 7517SOL    HW223451   0.029   5.214   1.173
 7518SOL     OW23452   5.176   5.094   3.691
 7518SOL    HW123453   5.135   5.074   3.780
 7518SOL    HW223454   5.169   5.013   3.633
 7519SOL     OW23455   1.112   6.767   4.187
 7519SOL    HW123456   1.122   6.700   4.260
 7519SOL    HW223457   1.074   6.723   4.106
 7520SOL     OW23458   2.414   6.972   3.880
 7520SOL    HW123459   2.410   0.023   3.950
 7520SOL    HW223460   2.493   6.913   3.896
 7521SOL     OW23461   4.785   3.242   5.592
 7521SOL    HW123462   4.729   3.270   5.514
 7521SOL    HW223463   4.729   3.194   5.658
 7522SOL     OW23464   1.928   0.508   2.776
 7522SOL    HW123465   1.917   0.523   2.677
 7522SOL    HW223466   1.840   0.483   2.816
 7523SOL     OW23467   5.935   0.024   6.845
 7523SOL    HW123468   5.945   0.046   6.942
 7523SOL    HW223469   5.961   0.103   6.789
 7524SOL     OW23470   6.024   0.805   4.413
 7524SOL    HW123471   5.997   0.719   4.370
 7524SOL    HW223472   6.100   0.787   4.476
 7525SOL     OW23473   1.102   6.242   0.502
 7525SOL    HW123474   1.155   6.195   0.432
 7525SOL    HW223475   1.014   6.195   0.515
 7526SOL     OW23476   3.744   3.248   5.308
 7526SOL    HW123477   3.683   3.267   5.231
 7526SOL    HW223478   3.767   3.334   5.354
 7527SOL     OW23479   4.669   5.730   1.894
 7527SOL    HW123480   4.605   5.679   1.952
 7527SOL    HW223481   4.759   5.684   1.897
 7528SOL     OW23482   5.911   3.319   6.266
 7528SOL    HW123483   5.891   3.240   6.324
 7528SOL    HW223484   5.896   3.403   6.318
 7529SOL     OW23485   3.132   0.281   4.656
 7529SOL    HW123486   3.146   0.197   4.603
 7529SOL    HW223487   3.046   0.323   4.629
 7530SOL     OW23488   6.910   2.874   3.673
 7530SOL    HW123489   6.879   2.785   3.704
 7530SOL    HW223490   6.840   2.943   3.690
 7531SOL     OW23491   2.589   1.861   4.371
 7531SOL    HW123492   2.588   1.783   4.308
 7531SOL    HW223493   2.619   1.943   4.323
 7532SOL     OW23494   4.794   4.580   2.263
 7532SOL    HW123495   4.877   4.580   2.320
 7532SOL    HW223496   4.730   4.512   2.298
 7533SOL     OW23497   3.277   0.544   4.731
 7533SOL    HW123498   3.221   0.462   4.722
 7533SOL    HW223499   3.299   0.559   4.827
 7534SOL     OW23500   5.589   6.685   4.357
 7534SOL    HW123501   5.619   6.773   4.319
 7534SOL    HW223502   5.501   6.660   4.317
 7535SOL     OW23503   3.808   4.489   0.267
 7535SOL    HW123504   3.875   4.562   0.283
 7535SOL    HW223505   3.770   4.458   0.355
 7536SOL     OW23506   3.811   6.207   4.439
 7536SOL    HW123507   3.728   6.259   4.421
 7536SOL    HW223508   3.793   6.137   4.508
 7537SOL     OW23509   2.516   4.695   5.686
 7537SOL    HW123510   2.613   4.716   5.694
 7537SOL    HW223511   2.493   4.677   5.590
 7538SOL     OW23512   3.174   3.145   3.167
 7538SOL    HW123513   3.133   3.100   3.246
 7538SOL    HW223514   3.130   3.111   3.083
 7539SOL     OW23515   1.703   2.487   4.767
 7539SOL    HW123516   1.696   2.555   4.695
 7539SOL    HW223517   1.703   2.532   4.856
 7540SOL     OW23518   2.098   0.921   0.072
 7540SOL    HW123519   2.155   0.987   0.123
 7540SOL    HW223520   2.023   0.970   0.027
 7541SOL     OW23521   6.676   2.196   5.527
 7541SOL    HW123522   6.769   2.179   5.495
 7541SOL    HW223523   6.640   2.279   5.485
 7542SOL     OW23524   1.941   0.317   5.987
 7542SOL    HW123525   1.940   0.319   5.887
 7542SOL    HW223526   1.849   0.339   6.021
 7543SOL     OW23527   3.444   3.126   6.748
 7543SOL    HW123528   3.358   3.088   6.714
 7543SOL    HW223529   3.444   3.125   6.848
 7544SOL     OW23530   1.186   2.566   2.471
 7544SOL    HW123531   1.225   2.649   2.433
 7544SOL    HW223532   1.093   2.585   2.503
 7545SOL     OW23533   4.967   0.500   3.104
 7545SOL    HW123534   4.948   0.505   3.006
 7545SOL    HW223535   5.051   0.551   3.124
 7546SOL     OW23536   5.039   6.587   5.998
 7546SOL    HW123537   5.073   6.493   5.994
 7546SOL    HW223538   4.939   6.586   5.997
 7547SOL     OW23539   3.162   6.861   0.242
 7547SOL    HW123540   3.209   6.902   0.320
 7547SOL    HW223541   3.126   6.771   0.268
 7548SOL     OW23542   1.181   3.149   1.296
 7548SOL    HW123543   1.098   3.200   1.320
 7548SOL    HW223544   1.172   3.115   1.202
 7549SOL     OW23545   5.813   2.320   2.074
 7549SOL    HW123546   5.834   2.234   2.121
 7549SOL    HW223547   5.729   2.308   2.020
 7550SOL     OW23548   1.141   5.011   1.623
 7550SOL    HW123549   1.149   4.944   1.696
 7550SOL    HW223550   1.130   4.964   1.535
 7551SOL     OW23551   4.807   3.843   6.244
 7551SOL    HW123552   4.894   3.794   6.237
 7551SOL    HW223553   4.806   3.898   6.328
 7552SOL     OW23554   3.409   5.420   4.004
 7552SOL    HW123555   3.319   5.450   3.972
 7552SOL    HW223556   3.399   5.367   4.088
 7553SOL     OW23557   4.721   3.939   5.705
 7553SOL    HW123558   4.695   4.027   5.666
 7553SOL    HW223559   4.702   3.938   5.803
 7554SOL     OW23560   6.738   1.215   1.169
 7554SOL    HW123561   6.772   1.143   1.109
 7554SOL    HW223562   6.815   1.265   1.208
 7555SOL     OW23563   1.561   5.716   5.772
 7555SOL    HW123564   1.599   5.719   5.680
 7555SOL    HW223565   1.500   5.794   5.786
 7556SOL     OW23566   6.844   3.405   3.889
 7556SOL    HW123567   6.863   3.395   3.791
 7556SOL    HW223568   6.783   3.332   3.919
 7557SOL     OW23569   3.795   3.441   0.616
 7557SOL    HW123570   3.828   3.534   0.599
 7557SOL    HW223571   3.844   3.403   0.694
 7558SOL     OW23572   1.490   2.228   3.014
 7558SOL    HW123573   1.473   2.286   2.934
 7558SOL    HW223574   1.446   2.268   3.094
 7559SOL     OW23575   1.268   4.428   0.119
 7559SOL    HW123576   1.244   4.335   0.148
 7559SOL    HW223577   1.188   4.471   0.077
 7560SOL     OW23578   4.497   0.245   5.300
 7560SOL    HW123579   4.496   0.200   5.211
 7560SOL    HW223580   4.420   0.213   5.355
 7561SOL     OW23581   0.123   3.371   0.004
 7561SOL    HW123582   0.042   3.333   0.049
 7561SOL    HW223583   0.178   3.296   6.986
 7562SOL     OW23584   4.539   6.447   5.276
 7562SOL    HW123585   4.545   6.523   5.341
 7562SOL    HW223586   4.545   6.360   5.326
 7563SOL     OW23587   2.777   1.327   3.044
 7563SOL    HW123588   2.875   1.340   3.031
 7563SOL    HW223589   2.735   1.305   2.956
 7564SOL     OW23590   4.831   6.434   3.926
 7564SOL    HW123591   4.917   6.386   3.945
 7564SOL    HW223592   4.846   6.533   3.935
 7565SOL     OW23593   4.734   4.803   6.718
 7565SOL    HW123594   4.742   4.754   6.631
 7565SOL    HW223595   4.646   4.782   6.761
 7566SOL     OW23596   2.066   6.030   5.090
 7566SOL    HW123597   2.016   5.953   5.050
 7566SOL    HW223598   2.001   6.101   5.118
 7567SOL     OW23599   2.462   3.068   0.700
 7567SOL    HW123600   2.407   3.051   0.618
 7567SOL    HW223601   2.557   3.083   0.673
 7568SOL     OW23602   4.380   4.592   2.687
 7568SOL    HW123603   4.399   4.589   2.589
 7568SOL    HW223604   4.431   4.519   2.733
 7569SOL     OW23605   4.121   0.300   1.086
 7569SOL    HW123606   4.118   0.306   0.986
 7569SOL    HW223607   4.135   0.205   1.113
 7570SOL     OW23608   5.829   5.351   4.742
 7570SOL    HW123609   5.772   5.279   4.703
 7570SOL    HW223610   5.772   5.429   4.768
 7571SOL     OW23611   5.361   3.868   1.496
 7571SOL    HW123612   5.345   3.785   1.550
 7571SOL    HW223613   5.304   3.942   1.532
 7572SOL     OW23614   0.619   1.039   3.647
 7572SOL    HW123615   0.578   1.122   3.686
 7572SOL    HW223616   0.662   0.987   3.720
 7573SOL     OW23617   3.219   5.688   5.260
 7573SOL    HW123618   3.155   5.627   5.214
 7573SOL    HW223619   3.311   5.675   5.223
 7574SOL     OW23620   5.169   6.074   2.299
 7574SOL    HW123621   5.136   6.103   2.209
 7574SOL    HW223622   5.114   6.119   2.370
 7575SOL     OW23623   4.997   2.838   4.617
 7575SOL    HW123624   4.903   2.831   4.648
 7575SOL    HW223625   5.019   2.760   4.558
 7576SOL     OW23626   6.672   3.498   1.908
 7576SOL    HW123627   6.590   3.474   1.960
 7576SOL    HW223628   6.646   3.519   1.813
 7577SOL     OW23629   4.591   0.762   5.294
 7577SOL    HW123630   4.623   0.724   5.207
 7577SOL    HW223631   4.669   0.798   5.345
 7578SOL     OW23632   2.856   5.205   4.342
 7578SOL    HW123633   2.801   5.134   4.299
 7578SOL    HW223634   2.922   5.163   4.405
 7579SOL     OW23635   4.643   2.496   3.907
 7579SOL    HW123636   4.599   2.531   3.989
 7579SOL    HW223637   4.697   2.569   3.865
 7580SOL     OW23638   2.099   3.524   2.587
 7580SOL    HW123639   2.109   3.545   2.684
 7580SOL    HW223640   2.118   3.427   2.572
 7581SOL     OW23641   5.425   0.852   1.382
 7581SOL    HW123642   5.416   0.951   1.389
 7581SOL    HW223643   5.419   0.824   1.286
 7582SOL     OW23644   3.200   1.777   0.949
 7582SOL    HW123645   3.146   1.858   0.926
 7582SOL    HW223646   3.280   1.772   0.889
 7583SOL     OW23647   6.867   3.853   2.854
 7583SOL    HW123648   6.853   3.866   2.952
 7583SOL    HW223649   6.912   3.933   2.815
 7584SOL     OW23650   1.834   1.879   1.135
 7584SOL    HW123651   1.827   1.828   1.050
 7584SOL    HW223652   1.913   1.845   1.187
 7585SOL     OW23653   1.974   5.169   6.484
 7585SOL    HW123654   2.072   5.163   6.465
 7585SOL    HW223655   1.941   5.080   6.517
 7586SOL     OW23656   2.168   1.192   1.731
 7586SOL    HW123657   2.068   1.192   1.734
 7586SOL    HW223658   2.203   1.239   1.811
 7587SOL     OW23659   1.901   0.760   5.870
 7587SOL    HW123660   1.871   0.805   5.955
 7587SOL    HW223661   1.907   0.828   5.797
 7588SOL     OW23662   1.131   4.063   1.529
 7588SOL    HW123663   1.209   4.094   1.585
 7588SOL    HW223664   1.046   4.079   1.579
 7589SOL     OW23665   5.582   6.399   6.592
 7589SOL    HW123666   5.622   6.393   6.501
 7589SOL    HW223667   5.633   6.341   6.655
 7590SOL     OW23668   1.521   0.217   6.764
 7590SOL    HW123669   1.564   0.184   6.680
 7590SOL    HW223670   1.518   0.142   6.831
 7591SOL     OW23671   6.659   5.236   7.005
 7591SOL    HW123672   6.747   5.281   7.017
 7591SOL    HW223673   6.605   5.285   6.936
 7592SOL     OW23674   4.884   5.468   6.246
 7592SOL    HW123675   4.797   5.420   6.236
 7592SOL    HW223676   4.946   5.414   6.303
 7593SOL     OW23677   5.964   3.585   0.499
 7593SOL    HW123678   5.960   3.525   0.579
 7593SOL    HW223679   5.905   3.548   0.427
 7594SOL     OW23680   1.002   6.182   3.457
 7594SOL    HW123681   1.052   6.152   3.375
 7594SOL    HW223682   0.927   6.243   3.430
 7595SOL     OW23683   6.466   2.193   6.745
 7595SOL    HW123684   6.536   2.222   6.680
 7595SOL    HW223685   6.461   2.093   6.746
 7596SOL     OW23686   5.023   4.411   1.752
 7596SOL    HW123687   5.051   4.336   1.812
 7596SOL    HW223688   4.924   4.423   1.758
 7597SOL     OW23689   2.632   5.792   1.748
 7597SOL    HW123690   2.557   5.772   1.684
 7597SOL    HW223691   2.596   5.842   1.826
 7598SOL     OW23692   6.832   0.273   2.636
 7598SOL    HW123693   6.741   0.270   2.679
 7598SOL    HW223694   6.902   0.259   2.706
 7599SOL     OW23695   6.507   2.718   2.015
 7599SOL    HW123696   6.498   2.620   2.000
 7599SOL    HW223697   6.437   2.766   1.963
 7600SOL     OW23698   2.384   1.698   1.996
 7600SOL    HW123699   2.435   1.696   2.082
 7600SOL    HW223700   2.289   1.671   2.012
 7601SOL     OW23701   1.462   0.382   4.958
 7601SOL    HW123702   1.435   0.363   5.053
 7601SOL    HW223703   1.412   0.462   4.925
 7602SOL     OW23704   2.180   3.188   5.119
 7602SOL    HW123705   2.222   3.107   5.079
 7602SOL    HW223706   2.181   3.180   5.219
 7603SOL     OW23707   0.622   1.118   2.019
 7603SOL    HW123708   0.545   1.095   2.078
 7603SOL    HW223709   0.593   1.108   1.923
 7604SOL     OW23710   4.988   5.938   6.831
 7604SOL    HW123711   4.921   6.008   6.855
 7604SOL    HW223712   5.077   5.981   6.815
 7605SOL     OW23713   5.698   4.047   5.634
 7605SOL    HW123714   5.606   4.080   5.653
 7605SOL    HW223715   5.697   3.947   5.630
 7606SOL     OW23716   6.229   1.667   3.154
 7606SOL    HW123717   6.320   1.678   3.115
 7606SOL    HW223718   6.181   1.593   3.106
 7607SOL     OW23719   5.170   6.966   6.072
 7607SOL    HW123720   5.165   6.957   6.172
 7607SOL    HW223721   5.255   7.011   6.047
 7608SOL     OW23722   3.902   3.191   3.490
 7608SOL    HW123723   3.861   3.128   3.424
 7608SOL    HW223724   3.866   3.171   3.581
 7609SOL     OW23725   1.584   2.905   4.330
 7609SOL    HW123726   1.497   2.949   4.355
 7609SOL    HW223727   1.660   2.953   4.374
 7610SOL     OW23728   5.586   1.081   1.772
 7610SOL    HW123729   5.584   1.147   1.697
 7610SOL    HW223730   5.651   1.008   1.750
 7611SOL     OW23731   2.014   1.725   1.312
 7611SOL    HW123732   2.045   1.632   1.291
 7611SOL    HW223733   1.950   1.723   1.388
 7612SOL     OW23734   4.076   1.530   2.737
 7612SOL    HW123735   4.021   1.452   2.705
 7612SOL    HW223736   4.031   1.615   2.710
 7613SOL     OW23737   5.110   1.124   3.042
 7613SOL    HW123738   5.092   1.197   2.977
 7613SOL    HW223739   5.034   1.116   3.106
 7614SOL     OW23740   4.020   1.100   0.087
 7614SOL    HW123741   3.950   1.144   0.031
 7614SOL    HW223742   3.977   1.048   0.160
 7615SOL     OW23743   4.107   4.697   6.045
 7615SOL    HW123744   4.053   4.612   6.045
 7615SOL    HW223745   4.192   4.683   6.094
 7616SOL     OW23746   6.736   4.762   3.577
 7616SOL    HW123747   6.806   4.692   3.596
 7616SOL    HW223748   6.765   4.848   3.618
 7617SOL     OW23749   3.471   6.061   2.285
 7617SOL    HW123750   3.451   5.967   2.313
 7617SOL    HW223751   3.550   6.095   2.335
 7618SOL     OW23752   1.586   2.324   0.884
 7618SOL    HW123753   1.571   2.225   0.876
 7618SOL    HW223754   1.506   2.368   0.925
 7619SOL     OW23755   5.973   3.423   5.634
 7619SOL    HW123756   6.055   3.474   5.662
 7619SOL    HW223757   5.892   3.478   5.654
 7620SOL     OW23758   2.714   6.351   1.381
 7620SOL    HW123759   2.795   6.401   1.352
 7620SOL    HW223760   2.723   6.324   1.477
 7621SOL     OW23761   2.681   2.051   1.121
 7621SOL    HW123762   2.671   2.056   1.221
 7621SOL    HW223763   2.623   2.121   1.078
 7622SOL     OW23764   5.235   1.981   1.170
 7622SOL    HW123765   5.156   1.934   1.210
 7622SOL    HW223766   5.218   1.999   1.073
 7623SOL     OW23767   5.763   0.033   5.413
 7623SOL    HW123768   5.731   6.960   5.393
 7623SOL    HW223769   5.739   0.093   5.337
 7624SOL     OW23770   6.647   0.816   4.318
 7624SOL    HW123771   6.653   0.729   4.366
 7624SOL    HW223772   6.699   0.811   4.233
 7625SOL     OW23773   4.118   6.440   0.553
 7625SOL    HW123774   4.186   6.509   0.529
 7625SOL    HW223775   4.028   6.483   0.562
 7626SOL     OW23776   2.391   4.372   4.539
 7626SOL    HW123777   2.428   4.359   4.447
 7626SOL    HW223778   2.337   4.293   4.565
 7627SOL     OW23779   6.804   1.837   0.308
 7627SOL    HW123780   6.735   1.803   0.372
 7627SOL    HW223781   6.849   1.917   0.349
 7628SOL     OW23782   3.813   1.911   0.872
 7628SOL    HW123783   3.714   1.929   0.872
 7628SOL    HW223784   3.857   1.966   0.942
 7629SOL     OW23785   6.123   5.461   3.251
 7629SOL    HW123786   6.133   5.509   3.164
 7629SOL    HW223787   6.130   5.526   3.326
 7630SOL     OW23788   6.906   1.086   2.425
 7630SOL    HW123789   6.812   1.120   2.411
 7630SOL    HW223790   6.970   1.161   2.406
 7631SOL     OW23791   1.307   1.739   3.474
 7631SOL    HW123792   1.384   1.706   3.528
 7631SOL    HW223793   1.226   1.746   3.532
 7632SOL     OW23794   4.712   1.344   6.357
 7632SOL    HW123795   4.702   1.288   6.440
 7632SOL    HW223796   4.800   1.393   6.361
 7633SOL     OW23797   5.577   4.747   6.482
 7633SOL    HW123798   5.553   4.841   6.457
 7633SOL    HW223799   5.538   4.684   6.415
 7634SOL     OW23800   1.274   1.944   1.969
 7634SOL    HW123801   1.262   1.856   1.925
 7634SOL    HW223802   1.263   2.017   1.902
 7635SOL     OW23803   2.908   5.064   5.716
 7635SOL    HW123804   3.004   5.085   5.695
 7635SOL    HW223805   2.883   5.108   5.803
 7636SOL     OW23806   1.709   0.718   3.376
 7636SOL    HW123807   1.712   0.626   3.338
 7636SOL    HW223808   1.744   0.783   3.309
 7637SOL     OW23809   2.313   6.259   4.016
 7637SOL    HW123810   2.392   6.311   3.982
 7637SOL    HW223811   2.344   6.194   4.086
 7638SOL     OW23812   4.257   4.291   1.660
 7638SOL    HW123813   4.310   4.253   1.736
 7638SOL    HW223814   4.264   4.390   1.660
 7639SOL     OW23815   0.036   2.567   4.578
 7639SOL    HW123816   6.980   2.628   4.555
 7639SOL    HW223817   0.080   2.535   4.494
 7640SOL     OW23818   2.210   3.278   5.950
 7640SOL    HW123819   2.293   3.254   6.001
 7640SOL    HW223820   2.227   3.272   5.852
 7641SOL     OW23821   6.479   2.907   3.587
 7641SOL    HW123822   6.391   2.873   3.552
 7641SOL    HW223823   6.543   2.831   3.596
 7642SOL     OW23824   2.284   1.520   3.115
 7642SOL    HW123825   2.361   1.568   3.072
 7642SOL    HW223826   2.209   1.514   3.050
 7643SOL     OW23827   5.684   3.159   3.250
 7643SOL    HW123828   5.756   3.222   3.281
 7643SOL    HW223829   5.614   3.210   3.201
 7644SOL     OW23830   6.651   4.069   3.656
 7644SOL    HW123831   6.579   4.010   3.621
 7644SOL    HW223832   6.631   4.164   3.634
 7645SOL     OW23833   4.397   2.852   0.186
 7645SOL    HW123834   4.455   2.893   0.256
 7645SOL    HW223835   4.361   2.924   0.126
 7646SOL     OW23836   1.007   1.338   1.391
 7646SOL    HW123837   0.977   1.256   1.438
 7646SOL    HW223838   1.049   1.400   1.458
 7647SOL     OW23839   2.187   5.296   0.956
 7647SOL    HW123840   2.181   5.383   0.907
 7647SOL    HW223841   2.283   5.270   0.966
 7648SOL     OW23842   3.670   0.177   3.675
 7648SOL    HW123843   3.573   0.197   3.662
 7648SOL    HW223844   3.724   0.235   3.614
 7649SOL     OW23845   2.986   1.439   2.001
 7649SOL    HW123846   3.013   1.488   2.084
 7649SOL    HW223847   3.015   1.491   1.920
 7650SOL     OW23848   6.007   4.355   1.223
 7650SOL    HW123849   6.038   4.435   1.274
 7650SOL    HW223850   6.067   4.341   1.144
 7651SOL     OW23851   3.767   1.984   6.543
 7651SOL    HW123852   3.792   1.899   6.497
 7651SOL    HW223853   3.699   2.033   6.488
 7652SOL     OW23854   1.472   3.127   3.232
 7652SOL    HW123855   1.379   3.108   3.198
 7652SOL    HW223856   1.472   3.215   3.279
 7653SOL     OW23857   3.946   1.925   1.496
 7653SOL    HW123858   4.015   1.932   1.424
 7653SOL    HW223859   3.886   2.005   1.492
 7654SOL     OW23860   4.859   3.639   4.137
 7654SOL    HW123861   4.838   3.690   4.220
 7654SOL    HW223862   4.848   3.699   4.058
 7655SOL     OW23863   4.506   6.198   5.425
 7655SOL    HW123864   4.441   6.182   5.350
 7655SOL    HW223865   4.543   6.111   5.457
 7656SOL     OW23866   1.120   6.348   4.354
 7656SOL    HW123867   1.113   6.252   4.329
 7656SOL    HW223868   1.182   6.359   4.431
 7657SOL     OW23869   4.596   1.543   4.682
 7657SOL    HW123870   4.568   1.634   4.714
 7657SOL    HW223871   4.672   1.510   4.738
 7658SOL     OW23872   3.978   0.306   6.446
 7658SOL    HW123873   4.061   0.313   6.391
 7658SOL    HW223874   3.898   0.316   6.386
 7659SOL     OW23875   5.601   6.830   0.240
 7659SOL    HW123876   5.529   6.764   0.216
 7659SOL    HW223877   5.687   6.802   0.197
 7660SOL     OW23878   6.116   4.563   4.149
 7660SOL    HW123879   6.024   4.523   4.142
 7660SOL    HW223880   6.124   4.612   4.236
 7661SOL     OW23881   5.203   3.091   3.933
 7661SOL    HW123882   5.295   3.094   3.973
 7661SOL    HW223883   5.193   3.165   3.867
 7662SOL     OW23884   6.843   5.570   2.493
 7662SOL    HW123885   6.826   5.668   2.495
 7662SOL    HW223886   6.939   5.553   2.468
 7663SOL     OW23887   6.288   5.542   6.894
 7663SOL    HW123888   6.248   5.452   6.912
 7663SOL    HW223889   6.218   5.612   6.904
 7664SOL     OW23890   2.806   5.840   4.756
 7664SOL    HW123891   2.873   5.768   4.777
 7664SOL    HW223892   2.718   5.797   4.731
 7665SOL     OW23893   2.420   5.659   4.291
 7665SOL    HW123894   2.411   5.683   4.195
 7665SOL    HW223895   2.503   5.701   4.328
 7666SOL     OW23896   2.021   1.201   0.998
 7666SOL    HW123897   2.096   1.256   0.959
 7666SOL    HW223898   1.935   1.226   0.954
 7667SOL     OW23899   4.813   5.981   6.535
 7667SOL    HW123900   4.775   5.940   6.618
 7667SOL    HW223901   4.762   6.064   6.512
 7668SOL     OW23902   2.524   3.985   1.594
 7668SOL    HW123903   2.472   4.057   1.548
 7668SOL    HW223904   2.603   4.025   1.639
 7669SOL     OW23905   4.704   6.479   5.063
 7669SOL    HW123906   4.631   6.482   5.132
 7669SOL    HW223907   4.687   6.403   5.000
 7670SOL     OW23908   1.669   5.276   0.675
 7670SOL    HW123909   1.653   5.220   0.593
 7670SOL    HW223910   1.766   5.272   0.699
 7671SOL     OW23911   5.736   2.459   4.723
 7671SOL    HW123912   5.795   2.404   4.665
 7671SOL    HW223913   5.765   2.450   4.819
 7672SOL     OW23914   6.027   0.227   2.266
 7672SOL    HW123915   6.006   0.267   2.177
 7672SOL    HW223916   6.082   0.291   2.320
 7673SOL     OW23917   0.304   3.973   6.896
 7673SOL    HW123918   0.257   4.010   6.816
 7673SOL    HW223919   0.322   3.876   6.882
 7674SOL     OW23920   6.550   1.538   5.439
 7674SOL    HW123921   6.544   1.483   5.522
 7674SOL    HW223922   6.604   1.490   5.370
 7675SOL     OW23923   4.805   6.927   3.271
 7675SOL    HW123924   4.834   6.832   3.257
 7675SOL    HW223925   4.745   6.932   3.351
 7676SOL     OW23926   1.377   0.314   1.198
 7676SOL    HW123927   1.326   0.309   1.284
 7676SOL    HW223928   1.433   0.397   1.198
 7677SOL     OW23929   1.739   2.343   2.636
 7677SOL    HW123930   1.791   2.275   2.689
 7677SOL    HW223931   1.674   2.389   2.695
 7678SOL     OW23932   5.408   6.382   6.062
 7678SOL    HW123933   5.339   6.375   5.991
 7678SOL    HW223934   5.439   6.477   6.070
 7679SOL     OW23935   1.471   4.933   5.316
 7679SOL    HW123936   1.397   4.919   5.382
 7679SOL    HW223937   1.559   4.931   5.363
 7680SOL     OW23938   4.728   1.817   6.773
 7680SOL    HW123939   4.657   1.855   6.831
 7680SOL    HW223940   4.799   1.886   6.756
 7681SOL     OW23941   2.217   2.264   6.149
 7681SOL    HW123942   2.263   2.303   6.230
 7681SOL    HW223943   2.277   2.271   6.070
 7682SOL     OW23944   2.720   0.193   1.235
 7682SOL    HW123945   2.784   0.212   1.309
 7682SOL    HW223946   2.636   0.155   1.273
 7683SOL     OW23947   6.002   1.656   2.932
 7683SOL    HW123948   6.088   1.707   2.932
 7683SOL    HW223949   6.013   1.571   2.983
 7684SOL     OW23950   4.392   1.999   6.159
 7684SOL    HW123951   4.368   2.065   6.231
 7684SOL    HW223952   4.451   1.928   6.197
 7685SOL     OW23953   4.290   3.629   0.783
 7685SOL    HW123954   4.309   3.666   0.875
 7685SOL    HW223955   4.281   3.530   0.788
 7686SOL     OW23956   3.179   0.965   3.940
 7686SOL    HW123957   3.138   0.980   4.030
 7686SOL    HW223958   3.275   0.994   3.942
 7687SOL     OW23959   4.338   4.561   5.941
 7687SOL    HW123960   4.339   4.476   5.890
 7687SOL    HW223961   4.254   4.611   5.921
 7688SOL     OW23962   6.746   6.972   4.001
 7688SOL    HW123963   6.651   6.967   3.973
 7688SOL    HW223964   6.797   0.012   3.938
 7689SOL     OW23965   3.925   0.249   5.070
 7689SOL    HW123966   3.934   0.346   5.048
 7689SOL    HW223967   4.004   0.200   5.033
 7690SOL     OW23968   0.520   5.308   2.847
 7690SOL    HW123969   0.591   5.260   2.899
 7690SOL    HW223970   0.518   5.404   2.874
 7691SOL     OW23971   5.655   4.452   5.560
 7691SOL    HW123972   5.599   4.393   5.618
 7691SOL    HW223973   5.730   4.400   5.521
 7692SOL     OW23974   2.048   6.142   1.498
 7692SOL    HW123975   1.978   6.075   1.472
 7692SOL    HW223976   2.021   6.187   1.583
 7693SOL     OW23977   5.426   0.818   0.489
 7693SOL    HW123978   5.369   0.870   0.552
 7693SOL    HW223979   5.501   0.876   0.456
 7694SOL     OW23980   6.320   4.550   3.939
 7694SOL    HW123981   6.253   4.563   4.013
 7694SOL    HW223982   6.321   4.630   3.880
 7695SOL     OW23983   3.799   0.182   6.123
 7695SOL    HW123984   3.782   0.277   6.096
 7695SOL    HW223985   3.721   0.125   6.094
 7696SOL     OW23986   0.948   4.093   5.394
 7696SOL    HW123987   0.961   4.063   5.488
 7696SOL    HW223988   0.873   4.043   5.352
 7697SOL     OW23989   3.908   1.916   1.771
 7697SOL    HW123990   3.922   1.899   1.674
 7697SOL    HW223991   3.905   2.015   1.788
 7698SOL     OW23992   0.598   3.283   6.058
 7698SOL    HW123993   0.608   3.191   6.095
 7698SOL    HW223994   0.670   3.300   5.991
 7699SOL     OW23995   2.728   4.422   0.405
 7699SOL    HW123996   2.688   4.397   0.317
 7699SOL    HW223997   2.672   4.492   0.449
 7700SOL     OW23998   5.948   6.840   5.209
 7700SOL    HW123999   5.851   6.821   5.223
 7700SOL    HW224000   5.984   6.891   5.288
 7701SOL     OW24001   6.260   2.199   5.155
 7701SOL    HW124002   6.261   2.247   5.067
 7701SOL    HW224003   6.227   2.262   5.226
 7702SOL     OW24004   2.645   5.957   5.603
 7702SOL    HW124005   2.562   5.929   5.554
 7702SOL    HW224006   2.723   5.903   5.570
 7703SOL     OW24007   0.996   1.925   6.174
 7703SOL    HW124008   1.066   1.871   6.127
 7703SOL    HW224009   1.021   1.937   6.270
 7704SOL     OW24010   3.399   4.461   0.757
 7704SOL    HW124011   3.349   4.433   0.675
 7704SOL    HW224012   3.487   4.414   0.760
 7705SOL     OW24013   3.742   4.871   5.479
 7705SOL    HW124014   3.798   4.855   5.560
 7705SOL    HW224015   3.667   4.805   5.477
 7706SOL     OW24016   6.294   0.787   4.944
 7706SOL    HW124017   6.215   0.725   4.952
 7706SOL    HW224018   6.348   0.782   5.028
 7707SOL     OW24019   6.964   5.291   6.288
 7707SOL    HW124020   0.030   5.334   6.314
 7707SOL    HW224021   6.955   5.203   6.336
 7708SOL     OW24022   5.187   0.585   4.666
 7708SOL    HW124023   5.225   0.500   4.630
 7708SOL    HW224024   5.146   0.637   4.591
 7709SOL     OW24025   3.654   2.048   1.780
 7709SOL    HW124026   3.741   2.000   1.789
 7709SOL    HW224027   3.660   2.136   1.827
 7710SOL     OW24028   2.565   2.542   6.144
 7710SOL    HW124029   2.585   2.512   6.051
 7710SOL    HW224030   2.526   2.465   6.195
 7711SOL     OW24031   5.086   6.757   5.639
 7711SOL    HW124032   5.114   6.741   5.734
 7711SOL    HW224033   5.101   6.673   5.586
 7712SOL     OW24034   5.193   5.032   0.840
 7712SOL    HW124035   5.115   5.094   0.841
 7712SOL    HW224036   5.204   4.992   0.750
 7713SOL     OW24037   0.999   5.121   6.572
 7713SOL    HW124038   0.984   5.068   6.489
 7713SOL    HW224039   1.017   5.058   6.649
 7714SOL     OW24040   5.619   4.048   4.306
 7714SOL    HW124041   5.630   4.146   4.295
 7714SOL    HW224042   5.608   4.026   4.403
 7715SOL     OW24043   4.756   2.203   1.402
 7715SOL    HW124044   4.732   2.141   1.328
 7715SOL    HW224045   4.687   2.197   1.475
 7716SOL     OW24046   4.742   2.870   3.685
 7716SOL    HW124047   4.770   2.965   3.694
 7716SOL    HW224048   4.732   2.830   3.776
 7717SOL     OW24049   3.342   0.526   6.528
 7717SOL    HW124050   3.367   0.467   6.605
 7717SOL    HW224051   3.298   0.472   6.457
 7718SOL     OW24052   3.238   6.171   3.867
 7718SOL    HW124053   3.147   6.212   3.856
 7718SOL    HW224054   3.228   6.076   3.896
 7719SOL     OW24055   6.181   2.405   5.336
 7719SOL    HW124056   6.243   2.484   5.336
 7719SOL    HW224057   6.099   2.426   5.389
 7720SOL     OW24058   5.490   6.260   1.664
 7720SOL    HW124059   5.485   6.244   1.566
 7720SOL    HW224060   5.403   6.237   1.707
 7721SOL     OW24061   1.310   4.475   2.920
 7721SOL    HW124062   1.235   4.532   2.888
 7721SOL    HW224063   1.281   4.424   3.000
 7722SOL     OW24064   0.965   6.378   4.026
 7722SOL    HW124065   1.017   6.327   4.095
 7722SOL    HW224066   0.875   6.335   4.015
 7723SOL     OW24067   6.357   2.822   0.594
 7723SOL    HW124068   6.271   2.825   0.645
 7723SOL    HW224069   6.429   2.864   0.648
 7724SOL     OW24070   1.869   5.413   0.200
 7724SOL    HW124071   1.773   5.434   0.182
 7724SOL    HW224072   1.895   5.450   0.290
 7725SOL     OW24073   5.359   3.794   4.546
 7725SOL    HW124074   5.366   3.696   4.530
 7725SOL    HW224075   5.291   3.833   4.484
 7726SOL     OW24076   5.868   4.062   3.631
 7726SOL    HW124077   5.834   4.060   3.537
 7726SOL    HW224078   5.842   3.977   3.677
 7727SOL     OW24079   6.206   3.096   2.037
 7727SOL    HW124080   6.173   3.126   2.127
 7727SOL    HW224081   6.235   3.176   1.984
 7728SOL     OW24082   2.447   2.137   2.550
 7728SOL    HW124083   2.412   2.139   2.456
 7728SOL    HW224084   2.413   2.056   2.597
 7729SOL     OW24085   5.297   2.627   1.085
 7729SOL    HW124086   5.395   2.611   1.075
 7729SOL    HW224087   5.280   2.725   1.098
 7730SOL     OW24088   4.995   6.977   1.895
 7730SOL    HW124089   5.007   6.879   1.914
 7730SOL    HW224090   4.981   6.990   1.797
 7731SOL     OW24091   6.851   1.217   4.933
 7731SOL    HW124092   6.887   1.269   5.011
 7731SOL    HW224093   6.760   1.251   4.910
 7732SOL     OW24094   4.513   4.747   0.554
 7732SOL    HW124095   4.540   4.664   0.603
 7732SOL    HW224096   4.481   4.723   0.463
 7733SOL     OW24097   2.813   6.599   0.587
 7733SOL    HW124098   2.826   6.640   0.497
 7733SOL    HW224099   2.730   6.543   0.587
 7734SOL     OW24100   1.773   1.890   2.960
 7734SOL    HW124101   1.755   1.879   3.058
 7734SOL    HW224102   1.729   1.815   2.909
 7735SOL     OW24103   5.218   3.885   0.634
 7735SOL    HW124104   5.184   3.961   0.689
 7735SOL    HW224105   5.142   3.824   0.611
 7736SOL     OW24106   5.810   4.320   6.271
 7736SOL    HW124107   5.876   4.360   6.208
 7736SOL    HW224108   5.777   4.390   6.334
 7737SOL     OW24109   4.755   2.052   1.149
 7737SOL    HW124110   4.681   2.030   1.087
 7737SOL    HW224111   4.826   2.104   1.101
 7738SOL     OW24112   2.287   4.459   0.240
 7738SOL    HW124113   2.327   4.550   0.252
 7738SOL    HW224114   2.356   4.390   0.257
 7739SOL     OW24115   6.035   3.334   2.138
 7739SOL    HW124116   5.939   3.324   2.111
 7739SOL    HW224117   6.081   3.394   2.072
 7740SOL     OW24118   0.443   6.443   3.572
 7740SOL    HW124119   0.411   6.534   3.544
 7740SOL    HW224120   0.410   6.375   3.507
 7741SOL     OW24121   3.249   5.873   4.503
 7741SOL    HW124122   3.171   5.848   4.560
 7741SOL    HW224123   3.234   5.963   4.463
 7742SOL     OW24124   6.463   0.991   4.465
 7742SOL    HW124125   6.465   1.086   4.437
 7742SOL    HW224126   6.520   0.936   4.404
 7743SOL     OW24127   4.884   3.051   2.996
 7743SOL    HW124128   4.853   3.081   2.905
 7743SOL    HW224129   4.909   3.130   3.051
 7744SOL     OW24130   0.445   0.034   4.978
 7744SOL    HW124131   0.359   0.055   4.932
 7744SOL    HW224132   0.483   6.969   4.942
 7745SOL     OW24133   4.928   3.330   5.320
 7745SOL    HW124134   4.941   3.320   5.419
 7745SOL    HW224135   4.839   3.295   5.294
 7746SOL     OW24136   1.672   0.682   0.150
 7746SOL    HW124137   1.607   0.753   0.177
 7746SOL    HW224138   1.712   0.705   0.062
 7747SOL     OW24139   5.441   5.485   1.439
 7747SOL    HW124140   5.480   5.405   1.393
 7747SOL    HW224141   5.352   5.506   1.399
 7748SOL     OW24142   2.641   3.749   6.761
 7748SOL    HW124143   2.610   3.663   6.801
 7748SOL    HW224144   2.670   3.811   6.834
 7749SOL     OW24145   5.373   4.249   6.362
 7749SOL    HW124146   5.351   4.343   6.337
 7749SOL    HW224147   5.329   4.227   6.449
 7750SOL     OW24148   5.962   4.922   2.548
 7750SOL    HW124149   5.887   4.976   2.589
 7750SOL    HW224150   5.923   4.852   2.488
 7751SOL     OW24151   0.363   2.422   1.535
 7751SOL    HW124152   0.452   2.376   1.541
 7751SOL    HW224153   0.377   2.520   1.520
 7752SOL     OW24154   4.119   1.185   3.531
 7752SOL    HW124155   4.126   1.274   3.486
 7752SOL    HW224156   4.210   1.145   3.540
 7753SOL     OW24157   3.355   1.892   5.307
 7753SOL    HW124158   3.373   1.839   5.390
 7753SOL    HW224159   3.368   1.989   5.326
 7754SOL     OW24160   5.596   5.463   1.972
 7754SOL    HW124161   5.549   5.540   2.015
 7754SOL    HW224162   5.672   5.433   2.030
 7755SOL     OW24163   0.662   5.008   4.614
 7755SOL    HW124164   0.732   5.027   4.545
 7755SOL    HW224165   0.648   4.909   4.620
 7756SOL     OW24166   2.480   4.741   2.404
 7756SOL    HW124167   2.552   4.704   2.346
 7756SOL    HW224168   2.392   4.702   2.377
 7757SOL     OW24169   0.064   4.274   1.580
 7757SOL    HW124170   0.120   4.343   1.535
 7757SOL    HW224171   0.095   4.262   1.674
 7758SOL     OW24172   1.285   2.305   4.641
 7758SOL    HW124173   1.209   2.245   4.667
 7758SOL    HW224174   1.370   2.253   4.644
 7759SOL     OW24175   3.686   1.335   1.386
 7759SOL    HW124176   3.718   1.246   1.420
 7759SOL    HW224177   3.604   1.321   1.330
 7760SOL     OW24178   4.990   3.184   0.277
 7760SOL    HW124179   5.045   3.259   0.314
 7760SOL    HW224180   4.944   3.137   0.352
 7761SOL     OW24181   4.874   5.182   2.902
 7761SOL    HW124182   4.956   5.239   2.896
 7761SOL    HW224183   4.863   5.129   2.817
 7762SOL     OW24184   5.459   1.890   1.623
 7762SOL    HW124185   5.457   1.887   1.523
 7762SOL    HW224186   5.513   1.969   1.653
 7763SOL     OW24187   2.400   0.151   4.137
 7763SOL    HW124188   2.466   0.217   4.174
 7763SOL    HW224189   2.371   0.089   4.209
 7764SOL     OW24190   3.255   4.109   5.743
 7764SOL    HW124191   3.180   4.138   5.802
 7764SOL    HW224192   3.342   4.142   5.780
 7765SOL     OW24193   5.530   3.993   4.550
 7765SOL    HW124194   5.573   3.992   4.640
 7765SOL    HW224195   5.445   3.940   4.554
 7766SOL     OW24196   6.956   3.412   6.425
 7766SOL    HW124197   6.887   3.480   6.400
 7766SOL    HW224198   7.004   3.382   6.343
 7767SOL     OW24199   3.989   0.401   3.857
 7767SOL    HW124200   4.032   0.350   3.782
 7767SOL    HW224201   4.052   0.471   3.890
 7768SOL     OW24202   3.804   5.812   4.065
 7768SOL    HW124203   3.809   5.786   3.969
 7768SOL    HW224204   3.720   5.775   4.105
 7769SOL     OW24205   3.699   2.967   6.389
 7769SOL    HW124206   3.648   3.039   6.343
 7769SOL    HW224207   3.705   2.986   6.487
 7770SOL     OW24208   1.451   3.548   4.154
 7770SOL    HW124209   1.449   3.465   4.098
 7770SOL    HW224210   1.497   3.528   4.240
 7771SOL     OW24211   1.532   3.986   6.253
 7771SOL    HW124212   1.525   3.967   6.155
 7771SOL    HW224213   1.521   3.901   6.304
 7772SOL     OW24214   5.778   6.164   2.019
 7772SOL    HW124215   5.812   6.163   2.113
 7772SOL    HW224216   5.705   6.232   2.011
 7773SOL     OW24217   1.930   6.275   6.492
 7773SOL    HW124218   1.914   6.357   6.437
 7773SOL    HW224219   2.007   6.224   6.453
 7774SOL     OW24220   5.056   1.777   2.911
 7774SOL    HW124221   5.013   1.858   2.870
 7774SOL    HW224222   5.030   1.696   2.858
 7775SOL     OW24223   2.990   1.697   1.409
 7775SOL    HW124224   2.968   1.720   1.504
 7775SOL    HW224225   2.918   1.638   1.372
 7776SOL     OW24226   2.821   0.953   4.574
 7776SOL    HW124227   2.805   0.922   4.668
 7776SOL    HW224228   2.737   0.992   4.538
 7777SOL     OW24229   6.141   5.632   3.468
 7777SOL    HW124230   6.141   5.732   3.471
 7777SOL    HW224231   6.074   5.597   3.533
 7778SOL     OW24232   1.003   4.547   2.861
 7778SOL    HW124233   0.992   4.644   2.884
 7778SOL    HW224234   1.000   4.536   2.762
 7779SOL     OW24235   3.848   6.472   1.520
 7779SOL    HW124236   3.822   6.388   1.568
 7779SOL    HW224237   3.852   6.548   1.585
 7780SOL     OW24238   6.348   5.852   4.523
 7780SOL    HW124239   6.412   5.917   4.483
 7780SOL    HW224240   6.307   5.893   4.605
 7781SOL     OW24241   2.030   3.150   1.027
 7781SOL    HW124242   2.004   3.211   1.102
 7781SOL    HW224243   1.949   3.102   0.994
 7782SOL     OW24244   5.830   3.550   4.679
 7782SOL    HW124245   5.772   3.601   4.616
 7782SOL    HW224246   5.920   3.594   4.683
 7783SOL     OW24247   2.226   6.533   4.057
 7783SOL    HW124248   2.149   6.569   4.003
 7783SOL    HW224249   2.234   6.434   4.040
 7784SOL     OW24250   1.472   1.919   1.682
 7784SOL    HW124251   1.442   1.826   1.662
 7784SOL    HW224252   1.560   1.916   1.730
 7785SOL     OW24253   6.812   6.045   2.943
 7785SOL    HW124254   6.734   6.091   2.900
 7785SOL    HW224255   6.781   5.996   3.025
 7786SOL     OW24256   4.445   1.447   6.299
 7786SOL    HW124257   4.521   1.384   6.316
 7786SOL    HW224258   4.430   1.455   6.200
 7787SOL     OW24259   1.980   2.609   1.484
 7787SOL    HW124260   2.047   2.603   1.410
 7787SOL    HW224261   1.972   2.520   1.529
 7788SOL     OW24262   0.901   4.093   1.972
 7788SOL    HW124263   0.927   4.077   2.067
 7788SOL    HW224264   0.929   4.014   1.917
 7789SOL     OW24265   3.486   1.254   6.165
 7789SOL    HW124266   3.403   1.239   6.112
 7789SOL    HW224267   3.465   1.311   6.245
 7790SOL     OW24268   4.102   5.163   3.677
 7790SOL    HW124269   4.188   5.126   3.712
 7790SOL    HW224270   4.105   5.168   3.577
 7791SOL     OW24271   2.649   5.596   2.513
 7791SOL    HW124272   2.619   5.565   2.422
 7791SOL    HW224273   2.572   5.640   2.560
 7792SOL     OW24274   1.304   1.551   2.984
 7792SOL    HW124275   1.348   1.461   2.973
 7792SOL    HW224276   1.333   1.611   2.909
 7793SOL     OW24277   4.821   1.150   0.777
 7793SOL    HW124278   4.790   1.189   0.863
 7793SOL    HW224279   4.899   1.090   0.793
 7794SOL     OW24280   1.230   0.237   3.481
 7794SOL    HW124281   1.194   0.314   3.534
 7794SOL    HW224282   1.166   0.215   3.407
 7795SOL     OW24283   3.649   4.371   1.095
 7795SOL    HW124284   3.679   4.434   1.023
 7795SOL    HW224285   3.723   4.359   1.162
 7796SOL     OW24286   3.234   1.160   0.154
 7796SOL    HW124287   3.219   1.241   0.211
 7796SOL    HW224288   3.174   1.164   0.074
 7797SOL     OW24289   1.419   5.605   2.828
 7797SOL    HW124290   1.515   5.588   2.805
 7797SOL    HW224291   1.378   5.521   2.865
 7798SOL     OW24292   1.965   3.499   0.901
 7798SOL    HW124293   1.923   3.571   0.847
 7798SOL    HW224294   2.006   3.430   0.841
 7799SOL     OW24295   3.460   6.226   3.709
 7799SOL    HW124296   3.466   6.144   3.653
 7799SOL    HW224297   3.381   6.219   3.770
 7800SOL     OW24298   1.791   0.721   2.333
 7800SOL    HW124299   1.763   0.801   2.386
 7800SOL    HW224300   1.711   0.683   2.287
 7801SOL     OW24301   1.127   2.408   1.014
 7801SOL    HW124302   1.164   2.336   1.073
 7801SOL    HW224303   1.051   2.453   1.061
 7802SOL     OW24304   6.427   4.303   3.892
 7802SOL    HW124305   6.411   4.401   3.903
 7802SOL    HW224306   6.410   4.277   3.797
 7803SOL     OW24307   3.147   2.689   5.744
 7803SOL    HW124308   3.115   2.771   5.791
 7803SOL    HW224309   3.144   2.704   5.645
 7804SOL     OW24310   2.931   1.745   5.858
 7804SOL    HW124311   3.028   1.766   5.841
 7804SOL    HW224312   2.923   1.690   5.940
 7805SOL     OW24313   5.605   3.013   6.634
 7805SOL    HW124314   5.586   3.014   6.732
 7805SOL    HW224315   5.700   3.040   6.618
 7806SOL     OW24316   6.226   1.554   5.659
 7806SOL    HW124317   6.301   1.618   5.646
 7806SOL    HW224318   6.156   1.595   5.717
 7807SOL     OW24319   1.999   5.651   5.190
 7807SOL    HW124320   1.917   5.699   5.157
 7807SOL    HW224321   1.978   5.606   5.277
 7808SOL     OW24322   6.113   3.764   4.010
 7808SOL    HW124323   6.203   3.774   4.054
 7808SOL    HW224324   6.125   3.763   3.911
 7809SOL     OW24325   4.778   6.271   2.336
 7809SOL    HW124326   4.697   6.226   2.297
 7809SOL    HW224327   4.777   6.261   2.436
 7810SOL     OW24328   2.088   6.814   5.323
 7810SOL    HW124329   2.042   6.894   5.360
 7810SOL    HW224330   2.175   6.801   5.371
 7811SOL     OW24331   0.929   6.370   2.542
 7811SOL    HW124332   0.910   6.466   2.523
 7811SOL    HW224333   0.844   6.317   2.536
 7812SOL     OW24334   2.929   1.057   5.717
 7812SOL    HW124335   2.888   1.109   5.642
 7812SOL    HW224336   3.028   1.068   5.715
 7813SOL     OW24337   5.544   0.879   0.916
 7813SOL    HW124338   5.495   0.966   0.906
 7813SOL    HW224339   5.496   0.821   0.981
 7814SOL     OW24340   6.244   2.564   2.369
 7814SOL    HW124341   6.174   2.503   2.403
 7814SOL    HW224342   6.270   2.629   2.440
 7815SOL     OW24343   4.676   5.592   3.783
 7815SOL    HW124344   4.735   5.651   3.728
 7815SOL    HW224345   4.581   5.600   3.752
 7816SOL     OW24346   0.966   1.333   5.296
 7816SOL    HW124347   1.064   1.354   5.294
 7816SOL    HW224348   0.952   1.236   5.277
 7817SOL     OW24349   4.272   1.694   7.001
 7817SOL    HW124350   4.336   1.645   0.040
 7817SOL    HW224351   4.226   1.630   6.941
 7818SOL     OW24352   5.805   0.862   3.099
 7818SOL    HW124353   5.773   0.847   3.006
 7818SOL    HW224354   5.805   0.776   3.150
 7819SOL     OW24355   1.450   3.114   5.053
 7819SOL    HW124356   1.506   3.108   5.135
 7819SOL    HW224357   1.363   3.160   5.075
 7820SOL     OW24358   1.257   1.349   5.188
 7820SOL    HW124359   1.350   1.338   5.222
 7820SOL    HW224360   1.258   1.395   5.099
 7821SOL     OW24361   3.834   5.888   6.560
 7821SOL    HW124362   3.800   5.801   6.596
 7821SOL    HW224363   3.915   5.916   6.611
 7822SOL     OW24364   0.210   1.591   4.847
 7822SOL    HW124365   0.152   1.652   4.793
 7822SOL    HW224366   0.192   1.496   4.821
 7823SOL     OW24367   2.715   3.107   5.745
 7823SOL    HW124368   2.652   3.058   5.686
 7823SOL    HW224369   2.665   3.147   5.822
 7824SOL     OW24370   5.451   3.731   2.906
 7824SOL    HW124371   5.358   3.702   2.884
 7824SOL    HW224372   5.486   3.675   2.981
 7825SOL     OW24373   3.352   3.595   2.744
 7825SOL    HW124374   3.344   3.683   2.792
 7825SOL    HW224375   3.274   3.582   2.684
 7826SOL     OW24376   6.706   6.968   0.194
 7826SOL    HW124377   6.731   0.032   0.242
 7826SOL    HW224378   6.606   6.963   0.187
 7827SOL     OW24379   4.343   3.404   0.534
 7827SOL    HW124380   4.391   3.441   0.455
 7827SOL    HW224381   4.407   3.395   0.610
 7828SOL     OW24382   1.139   5.938   1.147
 7828SOL    HW124383   1.049   5.896   1.137
 7828SOL    HW224384   1.180   5.953   1.056
 7829SOL     OW24385   3.412   3.926   3.556
 7829SOL    HW124386   3.396   3.893   3.649
 7829SOL    HW224387   3.383   4.022   3.549
 7830SOL     OW24388   5.983   3.900   6.838
 7830SOL    HW124389   5.967   3.865   6.930
 7830SOL    HW224390   5.948   3.993   6.831
 7831SOL     OW24391   1.527   2.828   0.598
 7831SOL    HW124392   1.546   2.810   0.695
 7831SOL    HW224393   1.593   2.895   0.563
 7832SOL     OW24394   3.379   2.733   5.506
 7832SOL    HW124395   3.440   2.657   5.482
 7832SOL    HW224396   3.311   2.745   5.434
 7833SOL     OW24397   6.599   6.128   1.482
 7833SOL    HW124398   6.665   6.142   1.556
 7833SOL    HW224399   6.592   6.212   1.428
 7834SOL     OW24400   6.143   0.527   1.372
 7834SOL    HW124401   6.068   0.470   1.338
 7834SOL    HW224402   6.230   0.485   1.349
 7835SOL     OW24403   2.429   2.214   4.365
 7835SOL    HW124404   2.436   2.152   4.444
 7835SOL    HW224405   2.366   2.288   4.387
 7836SOL     OW24406   1.983   0.595   0.444
 7836SOL    HW124407   1.884   0.580   0.450
 7836SOL    HW224408   2.001   0.677   0.389
 7837SOL     OW24409   5.072   6.655   2.560
 7837SOL    HW124410   5.161   6.610   2.565
 7837SOL    HW224411   5.011   6.617   2.629
 7838SOL     OW24412   4.391   6.387   4.361
 7838SOL    HW124413   4.337   6.418   4.438
 7838SOL    HW224414   4.352   6.302   4.324
 7839SOL     OW24415   0.172   4.811   3.573
 7839SOL    HW124416   0.203   4.878   3.640
 7839SOL    HW224417   0.153   4.857   3.486
 7840SOL     OW24418   5.068   3.476   6.286
 7840SOL    HW124419   5.040   3.426   6.205
 7840SOL    HW224420   5.165   3.461   6.302
 7841SOL     OW24421   0.891   1.806   6.666
 7841SOL    HW124422   0.913   1.858   6.749
 7841SOL    HW224423   0.913   1.710   6.682
 7842SOL     OW24424   2.991   0.051   2.037
 7842SOL    HW124425   3.019   0.127   2.096
 7842SOL    HW224426   2.896   0.066   2.008
 7843SOL     OW24427   0.589   2.723   2.051
 7843SOL    HW124428   0.506   2.730   1.995
 7843SOL    HW224429   0.636   2.637   2.030
 7844SOL     OW24430   3.795   1.419   3.979
 7844SOL    HW124431   3.794   1.357   4.057
 7844SOL    HW224432   3.782   1.367   3.894
 7845SOL     OW24433   1.144   1.275   4.020
 7845SOL    HW124434   1.165   1.177   4.018
 7845SOL    HW224435   1.085   1.298   3.942
 7846SOL     OW24436   4.251   0.101   2.469
 7846SOL    HW124437   4.301   0.021   2.504
 7846SOL    HW224438   4.153   0.082   2.469
 7847SOL     OW24439   0.504   0.215   6.876
 7847SOL    HW124440   0.494   0.143   6.807
 7847SOL    HW224441   0.511   0.173   6.966
 7848SOL     OW24442   3.872   4.368   1.263
 7848SOL    HW124443   3.953   4.312   1.240
 7848SOL    HW224444   3.902   4.457   1.298
 7849SOL     OW24445   5.145   4.177   4.475
 7849SOL    HW124446   5.205   4.104   4.444
 7849SOL    HW224447   5.199   4.245   4.525
 7850SOL     OW24448   1.009   2.167   4.943
 7850SOL    HW124449   1.082   2.100   4.931
 7850SOL    HW224450   0.953   2.172   4.859
 7851SOL     OW24451   4.499   6.555   1.082
 7851SOL    HW124452   4.438   6.485   1.119
 7851SOL    HW224453   4.593   6.522   1.086
 7852SOL     OW24454   2.264   6.546   0.329
 7852SOL    HW124455   2.321   6.500   0.396
 7852SOL    HW224456   2.303   6.635   0.307
 7853SOL     OW24457   2.159   2.619   0.349
 7853SOL    HW124458   2.086   2.608   0.282
 7853SOL    HW224459   2.121   2.624   0.441
 7854SOL     OW24460   3.352   4.188   3.506
 7854SOL    HW124461   3.396   4.199   3.417
 7854SOL    HW224462   3.370   4.268   3.562
 7855SOL     OW24463   3.628   0.060   5.262
 7855SOL    HW124464   3.672   0.023   5.343
 7855SOL    HW224465   3.561   0.129   5.289
 7856SOL     OW24466   2.976   3.440   0.056
 7856SOL    HW124467   2.930   3.441   6.987
 7856SOL    HW224468   3.075   3.437   0.042
 7857SOL     OW24469   0.553   3.158   5.365
 7857SOL    HW124470   0.548   3.060   5.383
 7857SOL    HW224471   0.464   3.190   5.332
 7858SOL     OW24472   5.816   3.654   2.890
 7858SOL    HW124473   5.901   3.609   2.916
 7858SOL    HW224474   5.817   3.672   2.791
 7859SOL     OW24475   0.918   6.367   0.151
 7859SOL    HW124476   0.894   6.270   0.144
 7859SOL    HW224477   0.958   6.398   0.065
 7860SOL     OW24478   4.480   6.744   1.953
 7860SOL    HW124479   4.544   6.819   1.963
 7860SOL    HW224480   4.393   6.768   1.996
 7861SOL     OW24481   5.426   3.374   0.722
 7861SOL    HW124482   5.490   3.437   0.766
 7861SOL    HW224483   5.333   3.410   0.729
 7862SOL     OW24484   2.866   4.613   1.563
 7862SOL    HW124485   2.868   4.589   1.660
 7862SOL    HW224486   2.820   4.541   1.511
 7863SOL     OW24487   5.245   5.675   2.179
 7863SOL    HW124488   5.166   5.705   2.232
 7863SOL    HW224489   5.246   5.575   2.172
 7864SOL     OW24490   1.084   6.067   4.378
 7864SOL    HW124491   1.109   5.973   4.398
 7864SOL    HW224492   1.050   6.074   4.284
 7865SOL     OW24493   3.812   0.691   3.172
 7865SOL    HW124494   3.834   0.786   3.147
 7865SOL    HW224495   3.881   0.630   3.132
 7866SOL     OW24496   1.975   2.546   4.938
 7866SOL    HW124497   1.881   2.519   4.957
 7866SOL    HW224498   2.034   2.465   4.940
 7867SOL     OW24499   5.764   3.925   2.124
 7867SOL    HW124500   5.779   3.833   2.161
 7867SOL    HW224501   5.667   3.948   2.131
 7868SOL     OW24502   5.315   6.779   0.887
 7868SOL    HW124503   5.345   6.832   0.966
 7868SOL    HW224504   5.216   6.791   0.874
 7869SOL     OW24505   6.773   1.637   4.035
 7869SOL    HW124506   6.745   1.648   3.940
 7869SOL    HW224507   6.718   1.697   4.093
 7870SOL     OW24508   6.417   6.699   3.280
 7870SOL    HW124509   6.420   6.762   3.202
 7870SOL    HW224510   6.481   6.730   3.350
 7871SOL     OW24511   5.929   3.125   4.177
 7871SOL    HW124512   5.842   3.133   4.130
 7871SOL    HW224513   5.951   3.211   4.222
 7872SOL     OW24514   6.657   3.928   4.546
 7872SOL    HW124515   6.732   3.868   4.573
 7872SOL    HW224516   6.641   3.920   4.448
 7873SOL     OW24517   0.206   5.710   4.712
 7873SOL    HW124518   0.296   5.723   4.753
 7873SOL    HW224519   0.183   5.613   4.711
 7874SOL     OW24520   6.312   0.842   0.879
 7874SOL    HW124521   6.384   0.881   0.822
 7874SOL    HW224522   6.234   0.905   0.881
 7875SOL     OW24523   5.095   3.318   0.936
 7875SOL    HW124524   5.125   3.411   0.915
 7875SOL    HW224525   5.068   3.272   0.852
 7876SOL     OW24526   0.318   0.850   5.296
 7876SOL    HW124527   0.248   0.866   5.226
 7876SOL    HW224528   0.302   0.911   5.373
 7877SOL     OW24529   6.246   2.801   2.741
 7877SOL    HW124530   6.345   2.809   2.738
 7877SOL    HW224531   6.205   2.882   2.699
 7878SOL     OW24532   4.537   3.866   1.461
 7878SOL    HW124533   4.458   3.821   1.420
 7878SOL    HW224534   4.506   3.935   1.527
 7879SOL     OW24535   6.181   0.993   4.787
 7879SOL    HW124536   6.211   0.931   4.860
 7879SOL    HW224537   6.088   1.025   4.808
 7880SOL     OW24538   1.954   6.502   6.050
 7880SOL    HW124539   1.924   6.479   5.958
 7880SOL    HW224540   2.041   6.552   6.045
 7881SOL     OW24541   0.624   4.901   3.976
 7881SOL    HW124542   0.554   4.943   4.033
 7881SOL    HW224543   0.697   4.967   3.958
 7882SOL     OW24544   1.915   4.636   1.579
 7882SOL    HW124545   1.928   4.725   1.534
 7882SOL    HW224546   1.992   4.577   1.558
 7883SOL     OW24547   3.636   2.120   2.999
 7883SOL    HW124548   3.593   2.144   2.912
 7883SOL    HW224549   3.724   2.166   3.007
 7884SOL     OW24550   0.746   3.628   4.250
 7884SOL    HW124551   0.748   3.610   4.348
 7884SOL    HW224552   0.834   3.664   4.220
 7885SOL     OW24553   6.001   5.266   2.324
 7885SOL    HW124554   5.948   5.212   2.259
 7885SOL    HW224555   5.940   5.310   2.389
 7886SOL     OW24556   4.958   3.985   2.513
 7886SOL    HW124557   4.985   3.889   2.527
 7886SOL    HW224558   4.975   4.011   2.419
 7887SOL     OW24559   0.853   3.053   1.725
 7887SOL    HW124560   0.914   3.004   1.663
 7887SOL    HW224561   0.889   3.048   1.818
 7888SOL     OW24562   6.424   0.739   5.181
 7888SOL    HW124563   6.465   0.700   5.264
 7888SOL    HW224564   6.484   0.810   5.145
 7889SOL     OW24565   5.817   5.571   0.674
 7889SOL    HW124566   5.905   5.618   0.661
 7889SOL    HW224567   5.809   5.541   0.770
 7890SOL     OW24568   2.301   2.648   3.578
 7890SOL    HW124569   2.338   2.700   3.501
 7890SOL    HW224570   2.358   2.663   3.659
 7891SOL     OW24571   6.414   1.564   4.305
 7891SOL    HW124572   6.391   1.493   4.238
 7891SOL    HW224573   6.434   1.649   4.257
 7892SOL     OW24574   1.025   1.710   5.403
 7892SOL    HW124575   1.019   1.782   5.334
 7892SOL    HW224576   0.937   1.703   5.452
 7893SOL     OW24577   6.346   6.934   0.514
 7893SOL    HW124578   6.420   6.993   0.481
 7893SOL    HW224579   6.322   6.960   0.607
 7894SOL     OW24580   2.844   0.955   0.068
 7894SOL    HW124581   2.867   0.886   0.137
 7894SOL    HW224582   2.894   0.937   7.004
 7895SOL     OW24583   6.525   5.898   2.818
 7895SOL    HW124584   6.548   5.993   2.840
 7895SOL    HW224585   6.609   5.845   2.805
 7896SOL     OW24586   2.473   1.464   0.506
 7896SOL    HW124587   2.505   1.490   0.416
 7896SOL    HW224588   2.515   1.522   0.575
 7897SOL     OW24589   3.568   2.661   0.470
 7897SOL    HW124590   3.505   2.678   0.545
 7897SOL    HW224591   3.656   2.632   0.506
 7898SOL     OW24592   5.122   6.635   3.035
 7898SOL    HW124593   5.204   6.663   3.086
 7898SOL    HW224594   5.073   6.564   3.085
 7899SOL     OW24595   5.978   4.394   3.839
 7899SOL    HW124596   5.946   4.487   3.857
 7899SOL    HW224597   5.901   4.331   3.847
 7900SOL     OW24598   0.361   3.548   0.371
 7900SOL    HW124599   0.427   3.622   0.381
 7900SOL    HW224600   0.274   3.575   0.414
 7901SOL     OW24601   0.094   2.128   0.018
 7901SOL    HW124602   0.118   2.217   0.058
 7901SOL    HW224603   0.004   2.100   0.052
 7902SOL     OW24604   2.101   6.525   1.860
 7902SOL    HW124605   2.075   6.619   1.883
 7902SOL    HW224606   2.163   6.490   1.930
 7903SOL     OW24607   2.707   1.984   5.135
 7903SOL    HW124608   2.655   1.986   5.050
 7903SOL    HW224609   2.660   2.037   5.205
 7904SOL     OW24610   4.490   2.553   2.882
 7904SOL    HW124611   4.407   2.599   2.851
 7904SOL    HW224612   4.525   2.493   2.810
 7905SOL     OW24613   5.992   2.084   1.277
 7905SOL    HW124614   5.939   2.052   1.355
 7905SOL    HW224615   5.929   2.117   1.206
 7906SOL     OW24616   1.008   4.911   6.804
 7906SOL    HW124617   0.969   4.823   6.776
 7906SOL    HW224618   0.965   4.941   6.890
 7907SOL     OW24619   5.866   6.390   2.772
 7907SOL    HW124620   5.778   6.421   2.737
 7907SOL    HW224621   5.914   6.339   2.701
 7908SOL     OW24622   1.776   6.839   6.156
 7908SOL    HW124623   1.726   6.916   6.194
 7908SOL    HW224624   1.873   6.849   6.174
 7909SOL     OW24625   6.421   4.084   1.679
 7909SOL    HW124626   6.467   3.996   1.667
 7909SOL    HW224627   6.367   4.082   1.763
 7910SOL     OW24628   0.893   4.088   5.979
 7910SOL    HW124629   0.859   4.144   6.055
 7910SOL    HW224630   0.888   3.991   6.003
 7911SOL     OW24631   6.133   4.222   6.018
 7911SOL    HW124632   6.224   4.185   6.035
 7911SOL    HW224633   6.102   4.192   5.927
 7912SOL     OW24634   5.799   5.518   0.932
 7912SOL    HW124635   5.847   5.594   0.977
 7912SOL    HW224636   5.844   5.432   0.954
 7913SOL     OW24637   1.396   5.115   6.754
 7913SOL    HW124638   1.369   5.025   6.720
 7913SOL    HW224639   1.410   5.177   6.676
 7914SOL     OW24640   0.840   6.945   5.112
 7914SOL    HW124641   0.799   0.004   5.068
 7914SOL    HW224642   0.796   6.861   5.079
 7915SOL     OW24643   3.129   4.866   2.525
 7915SOL    HW124644   3.142   4.898   2.619
 7915SOL    HW224645   3.202   4.901   2.467
 7916SOL     OW24646   1.136   0.340   4.034
 7916SOL    HW124647   1.220   0.305   3.993
 7916SOL    HW224648   1.060   0.279   4.012
 7917SOL     OW24649   4.751   1.628   2.002
 7917SOL    HW124650   4.851   1.630   2.006
 7917SOL    HW224651   4.721   1.603   1.910
 7918SOL     OW24652   2.246   2.478   3.352
 7918SOL    HW124653   2.294   2.546   3.296
 7918SOL    HW224654   2.268   2.493   3.448
 7919SOL     OW24655   1.161   6.509   5.015
 7919SOL    HW124656   1.152   6.580   4.945
 7919SOL    HW224657   1.142   6.549   5.105
 7920SOL     OW24658   5.093   0.325   0.936
 7920SOL    HW124659   5.043   0.361   1.015
 7920SOL    HW224660   5.029   0.286   0.870
 7921SOL     OW24661   5.273   2.380   0.859
 7921SOL    HW124662   5.288   2.324   0.941
 7921SOL    HW224663   5.176   2.401   0.851
 7922SOL     OW24664   2.790   0.346   2.174
 7922SOL    HW124665   2.717   0.403   2.211
 7922SOL    HW224666   2.798   0.362   2.075
 7923SOL     OW24667   4.159   1.402   0.030
 7923SOL    HW124668   4.108   1.434   6.969
 7923SOL    HW224669   4.212   1.321   0.006
 7924SOL     OW24670   5.949   5.977   0.040
 7924SOL    HW124671   5.931   5.958   6.964
 7924SOL    HW224672   6.003   6.062   0.047
 7925SOL     OW24673   1.774   5.013   6.661
 7925SOL    HW124674   1.716   5.060   6.594
 7925SOL    HW224675   1.731   5.019   6.752
 7926SOL     OW24676   5.032   5.732   6.629
 7926SOL    HW124677   4.991   5.792   6.698
 7926SOL    HW224678   5.113   5.688   6.668
 7927SOL     OW24679   4.482   0.385   3.303
 7927SOL    HW124680   4.578   0.415   3.303
 7927SOL    HW224681   4.474   0.300   3.355
 7928SOL     OW24682   6.185   2.274   3.191
 7928SOL    HW124683   6.256   2.325   3.142
 7928SOL    HW224684   6.223   2.188   3.223
 7929SOL     OW24685   4.158   3.898   5.834
 7929SOL    HW124686   4.205   3.971   5.884
 7929SOL    HW224687   4.226   3.833   5.799
 7930SOL     OW24688   4.092   6.620   6.314
 7930SOL    HW124689   4.189   6.599   6.304
 7930SOL    HW224690   4.047   6.548   6.366
 7931SOL     OW24691   3.875   1.655   1.570
 7931SOL    HW124692   3.875   1.742   1.521
 7931SOL    HW224693   3.785   1.612   1.562
 7932SOL     OW24694   1.123   3.760   1.534
 7932SOL    HW124695   1.195   3.744   1.602
 7932SOL    HW224696   1.113   3.858   1.518
 7933SOL     OW24697   1.042   1.552   0.372
 7933SOL    HW124698   0.980   1.587   0.442
 7933SOL    HW224699   1.079   1.464   0.400
 7934SOL     OW24700   0.936   5.366   1.128
 7934SOL    HW124701   0.881   5.432   1.076
 7934SOL    HW224702   0.974   5.298   1.066
 7935SOL     OW24703   6.305   2.920   3.355
 7935SOL    HW124704   6.365   2.999   3.369
 7935SOL    HW224705   6.334   2.870   3.273
 7936SOL     OW24706   2.721   5.369   3.602
 7936SOL    HW124707   2.701   5.362   3.504
 7936SOL    HW224708   2.748   5.279   3.637
 7937SOL     OW24709   4.224   1.234   0.750
 7937SOL    HW124710   4.216   1.231   0.849
 7937SOL    HW224711   4.320   1.247   0.724
 7938SOL     OW24712   3.005   6.959   3.407
 7938SOL    HW124713   3.043   6.866   3.404
 7938SOL    HW224714   3.026   7.000   3.496
 7939SOL     OW24715   0.958   0.974   2.891
 7939SOL    HW124716   0.987   0.909   2.961
 7939SOL    HW224717   1.009   1.059   2.900
 7940SOL     OW24718   5.990   1.519   4.118
 7940SOL    HW124719   5.926   1.454   4.077
 7940SOL    HW224720   5.976   1.610   4.078
 7941SOL     OW24721   3.401   0.070   1.247
 7941SOL    HW124722   3.372   0.152   1.296
 7941SOL    HW224723   3.459   0.014   1.307
 7942SOL     OW24724   1.616   4.519   0.512
 7942SOL    HW124725   1.658   4.438   0.470
 7942SOL    HW224726   1.688   4.576   0.552
 7943SOL     OW24727   1.378   5.918   5.831
 7943SOL    HW124728   1.297   5.866   5.806
 7943SOL    HW224729   1.380   6.004   5.779
 7944SOL     OW24730   0.833   2.118   1.220
 7944SOL    HW124731   0.754   2.176   1.201
 7944SOL    HW224732   0.893   2.115   1.140
 7945SOL     OW24733   6.357   4.170   2.933
 7945SOL    HW124734   6.281   4.221   2.973
 7945SOL    HW224735   6.379   4.092   2.992
 7946SOL     OW24736   4.135   1.594   6.436
 7946SOL    HW124737   4.067   1.521   6.446
 7946SOL    HW224738   4.200   1.590   6.512
 7947SOL     OW24739   6.817   3.588   6.176
 7947SOL    HW124740   6.781   3.604   6.084
 7947SOL    HW224741   6.907   3.631   6.184
 7948SOL     OW24742   1.926   5.593   1.998
 7948SOL    HW124743   1.863   5.667   2.022
 7948SOL    HW224744   1.985   5.573   2.077
 7949SOL     OW24745   2.638   5.622   5.687
 7949SOL    HW124746   2.628   5.525   5.663
 7949SOL    HW224747   2.707   5.664   5.628
 7950SOL     OW24748   6.449   4.528   5.498
 7950SOL    HW124749   6.419   4.446   5.449
 7950SOL    HW224750   6.477   4.598   5.433
 7951SOL     OW24751   4.323   6.496   2.402
 7951SOL    HW124752   4.303   6.474   2.498
 7951SOL    HW224753   4.409   6.547   2.398
 7952SOL     OW24754   6.360   4.055   5.321
 7952SOL    HW124755   6.413   4.139   5.312
 7952SOL    HW224756   6.395   3.987   5.255
 7953SOL     OW24757   1.742   6.725   0.613
 7953SOL    HW124758   1.794   6.662   0.670
 7953SOL    HW224759   1.762   6.706   0.516
 7954SOL     OW24760   3.617   4.010   6.862
 7954SOL    HW124761   3.541   3.974   6.807
 7954SOL    HW224762   3.702   3.966   6.833
 7955SOL     OW24763   1.255   0.847   6.496
 7955SOL    HW124764   1.241   0.813   6.589
 7955SOL    HW224765   1.221   0.779   6.430
 7956SOL     OW24766   0.566   6.434   0.429
 7956SOL    HW124767   0.510   6.505   0.386
 7956SOL    HW224768   0.660   6.441   0.396
 7957SOL     OW24769   5.002   2.008   5.875
 7957SOL    HW124770   5.080   1.977   5.820
 7957SOL    HW224771   4.997   1.953   5.958
 7958SOL     OW24772   4.906   2.551   6.829
 7958SOL    HW124773   5.003   2.561   6.804
 7958SOL    HW224774   4.899   2.503   6.917
 7959SOL     OW24775   5.289   2.317   0.336
 7959SOL    HW124776   5.287   2.308   0.436
 7959SOL    HW224777   5.381   2.342   0.307
 7960SOL     OW24778   0.859   1.381   5.528
 7960SOL    HW124779   0.890   1.357   5.436
 7960SOL    HW224780   0.938   1.408   5.583
 7961SOL     OW24781   6.243   6.281   0.309
 7961SOL    HW124782   6.314   6.286   0.379
 7961SOL    HW224783   6.187   6.364   0.311
 7962SOL     OW24784   6.141   0.139   5.387
 7962SOL    HW124785   6.127   0.139   5.288
 7962SOL    HW224786   6.077   0.075   5.429
 7963SOL     OW24787   6.456   6.268   3.514
 7963SOL    HW124788   6.472   6.360   3.479
 7963SOL    HW224789   6.537   6.237   3.565
 7964SOL     OW24790   6.058   4.060   1.558
 7964SOL    HW124791   6.081   4.156   1.575
 7964SOL    HW224792   6.016   4.051   1.468
 7965SOL     OW24793   5.013   2.463   6.478
 7965SOL    HW124794   4.967   2.545   6.512
 7965SOL    HW224795   5.030   2.473   6.380
 7966SOL     OW24796   5.458   4.038   5.121
 7966SOL    HW124797   5.425   3.943   5.128
 7966SOL    HW224798   5.450   4.068   5.026
 7967SOL     OW24799   1.269   4.819   0.272
 7967SOL    HW124800   1.171   4.826   0.250
 7967SOL    HW224801   1.301   4.726   0.251
 7968SOL     OW24802   1.451   3.304   4.048
 7968SOL    HW124803   1.539   3.255   4.051
 7968SOL    HW224804   1.380   3.242   4.015
 7969SOL     OW24805   3.393   5.103   6.879
 7969SOL    HW124806   3.317   5.061   6.828
 7969SOL    HW224807   3.464   5.133   6.814
 7970SOL     OW24808   6.093   2.922   4.089
 7970SOL    HW124809   6.150   2.950   4.012
 7970SOL    HW224810   6.039   3.000   4.121
 7971SOL     OW24811   2.710   1.306   6.679
 7971SOL    HW124812   2.651   1.238   6.634
 7971SOL    HW224813   2.746   1.268   6.764
 7972SOL     OW24814   3.261   3.641   4.376
 7972SOL    HW124815   3.313   3.672   4.297
 7972SOL    HW224816   3.249   3.542   4.372
 7973SOL     OW24817   6.084   4.740   1.916
 7973SOL    HW124818   6.142   4.820   1.899
 7973SOL    HW224819   5.991   4.759   1.886
 7974SOL     OW24820   0.245   2.702   5.159
 7974SOL    HW124821   0.224   2.610   5.191
 7974SOL    HW224822   0.246   2.765   5.236
 7975SOL     OW24823   5.366   0.306   0.910
 7975SOL    HW124824   5.375   0.207   0.903
 7975SOL    HW224825   5.271   0.330   0.926
 7976SOL     OW24826   0.623   0.669   0.699
 7976SOL    HW124827   0.669   0.673   0.610
 7976SOL    HW224828   0.689   0.643   0.770
 7977SOL     OW24829   5.698   5.626   3.167
 7977SOL    HW124830   5.685   5.528   3.185
 7977SOL    HW224831   5.633   5.656   3.098
 7978SOL     OW24832   0.520   4.314   1.559
 7978SOL    HW124833   0.463   4.376   1.505
 7978SOL    HW224834   0.549   4.361   1.643
 7979SOL     OW24835   2.349   2.107   5.119
 7979SOL    HW124836   2.354   2.052   5.035
 7979SOL    HW224837   2.439   2.112   5.160
 7980SOL     OW24838   3.857   5.397   1.009
 7980SOL    HW124839   3.849   5.452   1.092
 7980SOL    HW224840   3.953   5.386   0.985
 7981SOL     OW24841   1.731   3.762   3.721
 7981SOL    HW124842   1.663   3.835   3.716
 7981SOL    HW224843   1.756   3.745   3.816
 7982SOL     OW24844   6.855   1.007   5.862
 7982SOL    HW124845   6.791   0.931   5.863
 7982SOL    HW224846   6.862   1.046   5.954
 7983SOL     OW24847   4.479   0.739   1.737
 7983SOL    HW124848   4.515   0.743   1.830
 7983SOL    HW224849   4.432   0.825   1.716
 7984SOL     OW24850   0.139   2.861   2.897
 7984SOL    HW124851   0.191   2.906   2.969
 7984SOL    HW224852   0.041   2.874   2.913
 7985SOL     OW24853   3.186   2.756   5.290
 7985SOL    HW124854   3.113   2.821   5.311
 7985SOL    HW224855   3.205   2.758   5.192
 7986SOL     OW24856   4.107   1.055   4.110
 7986SOL    HW124857   4.011   1.036   4.088
 7986SOL    HW224858   4.124   1.035   4.206
 7987SOL     OW24859   0.962   3.352   6.879
 7987SOL    HW124860   0.884   3.306   6.837
 7987SOL    HW224861   0.941   3.373   6.974
 7988SOL     OW24862   7.001   0.898   1.366
 7988SOL    HW124863   6.904   0.920   1.373
 7988SOL    HW224864   0.013   0.919   1.274
 7989SOL     OW24865   0.283   4.169   1.149
 7989SOL    HW124866   0.365   4.180   1.204
 7989SOL    HW224867   0.204   4.155   1.209
 7990SOL     OW24868   4.859   5.692   5.077
 7990SOL    HW124869   4.774   5.702   5.128
 7990SOL    HW224870   4.839   5.676   4.981
 7991SOL     OW24871   5.881   0.699   4.859
 7991SOL    HW124872   5.831   0.720   4.775
 7991SOL    HW224873   5.969   0.657   4.836
 7992SOL     OW24874   2.042   6.804   0.110
 7992SOL    HW124875   2.007   6.710   0.110
 7992SOL    HW224876   2.142   6.802   0.115
 7993SOL     OW24877   6.143   5.823   0.430
 7993SOL    HW124878   6.177   5.901   0.482
 7993SOL    HW224879   6.063   5.851   0.377
 7994SOL     OW24880   6.650   0.367   4.129
 7994SOL    HW124881   6.615   0.456   4.100
 7994SOL    HW224882   6.699   0.324   4.053
 7995SOL     OW24883   0.942   5.433   1.432
 7995SOL    HW124884   0.990   5.516   1.404
 7995SOL    HW224885   0.934   5.371   1.354
 7996SOL     OW24886   2.402   0.415   3.307
 7996SOL    HW124887   2.396   0.448   3.401
 7996SOL    HW224888   2.492   0.375   3.291
 7997SOL     OW24889   2.004   2.100   5.784
 7997SOL    HW124890   1.992   2.069   5.689
 7997SOL    HW224891   1.989   2.199   5.788
 7998SOL     OW24892   2.408   1.171   0.535
 7998SOL    HW124893   2.435   1.156   0.630
 7998SOL    HW224894   2.421   1.268   0.512
 7999SOL     OW24895   0.686   0.092   3.553
 7999SOL    HW124896   0.779   0.129   3.562
 7999SOL    HW224897   0.680   0.039   3.469
 8000SOL     OW24898   4.217   5.636   0.890
 8000SOL    HW124899   4.307   5.680   0.884
 8000SOL    HW224900   4.225   5.552   0.944
 8001SOL     OW24901   4.752   4.459   1.326
 8001SOL    HW124902   4.690   4.449   1.248
 8001SOL    HW224903   4.702   4.497   1.404
 8002SOL     OW24904   0.787   7.000   4.576
 8002SOL    HW124905   0.816   6.917   4.623
 8002SOL    HW224906   0.864   0.020   4.527
 8003SOL     OW24907   2.948   5.323   2.439
 8003SOL    HW124908   2.990   5.304   2.350
 8003SOL    HW224909   2.954   5.421   2.459
 8004SOL     OW24910   1.230   3.518   3.895
 8004SOL    HW124911   1.167   3.578   3.943
 8004SOL    HW224912   1.250   3.438   3.952
 8005SOL     OW24913   1.888   0.980   3.348
 8005SOL    HW124914   1.965   0.978   3.412
 8005SOL    HW224915   1.846   1.070   3.349
 8006SOL     OW24916   3.968   5.057   5.614
 8006SOL    HW124917   3.897   5.126   5.597
 8006SOL    HW224918   4.019   5.082   5.696
 8007SOL     OW24919   6.935   0.406   1.285
 8007SOL    HW124920   7.001   0.397   1.360
 8007SOL    HW224921   6.928   0.502   1.257
 8008SOL     OW24922   4.886   4.806   0.162
 8008SOL    HW124923   4.825   4.728   0.144
 8008SOL    HW224924   4.893   4.861   0.079
 8009SOL     OW24925   6.198   1.159   0.701
 8009SOL    HW124926   6.159   1.195   0.616
 8009SOL    HW224927   6.211   1.061   0.693
 8010SOL     OW24928   2.825   0.203   5.717
 8010SOL    HW124929   2.859   0.197   5.623
 8010SOL    HW224930   2.842   0.117   5.764
 8011SOL     OW24931   3.929   2.120   2.788
 8011SOL    HW124932   4.019   2.105   2.749
 8011SOL    HW224933   3.860   2.120   2.715
 8012SOL     OW24934   5.997   1.061   4.544
 8012SOL    HW124935   5.955   1.008   4.470
 8012SOL    HW224936   6.082   1.017   4.572
 8013SOL     OW24937   3.539   0.957   3.092
 8013SOL    HW124938   3.470   0.983   3.024
 8013SOL    HW224939   3.505   0.881   3.147
 8014SOL     OW24940   2.685   2.421   2.921
 8014SOL    HW124941   2.754   2.361   2.879
 8014SOL    HW224942   2.617   2.447   2.852
 8015SOL     OW24943   3.677   0.580   4.563
 8015SOL    HW124944   3.591   0.580   4.512
 8015SOL    HW224945   3.711   0.486   4.569
 8016SOL     OW24946   3.747   2.543   5.466
 8016SOL    HW124947   3.657   2.506   5.486
 8016SOL    HW224948   3.742   2.604   5.387
 8017SOL     OW24949   6.178   5.839   1.194
 8017SOL    HW124950   6.246   5.768   1.214
 8017SOL    HW224951   6.121   5.855   1.275
 8018SOL     OW24952   3.506   3.081   0.010
 8018SOL    HW124953   3.568   3.150   6.991
 8018SOL    HW224954   3.555   3.025   0.076
 8019SOL     OW24955   2.638   3.251   0.513
 8019SOL    HW124956   2.703   3.213   0.447
 8019SOL    HW224957   2.673   3.336   0.550
 8020SOL     OW24958   0.504   0.345   5.553
 8020SOL    HW124959   0.438   0.360   5.479
 8020SOL    HW224960   0.575   0.282   5.522
 8021SOL     OW24961   0.868   3.127   0.427
 8021SOL    HW124962   0.965   3.151   0.427
 8021SOL    HW224963   0.820   3.179   0.498
 8022SOL     OW24964   4.344   0.169   1.884
 8022SOL    HW124965   4.292   0.101   1.937
 8022SOL    HW224966   4.359   0.250   1.940
 8023SOL     OW24967   4.374   6.052   1.514
 8023SOL    HW124968   4.420   6.027   1.599
 8023SOL    HW224969   4.429   6.119   1.464
 8024SOL     OW24970   2.284   1.057   0.214
 8024SOL    HW124971   2.353   0.988   0.193
 8024SOL    HW224972   2.262   1.054   0.311
 8025SOL     OW24973   1.083   6.071   1.802
 8025SOL    HW124974   1.099   6.092   1.706
 8025SOL    HW224975   1.169   6.075   1.853
 8026SOL     OW24976   0.618   5.978   6.499
 8026SOL    HW124977   0.696   5.920   6.474
 8026SOL    HW224978   0.612   5.984   6.598
 8027SOL     OW24979   3.642   0.070   6.448
 8027SOL    HW124980   3.567   0.020   6.492
 8027SOL    HW224981   3.716   0.085   6.514
 8028SOL     OW24982   3.994   5.487   5.655
 8028SOL    HW124983   3.987   5.550   5.733
 8028SOL    HW224984   4.025   5.398   5.688
 8029SOL     OW24985   0.889   0.416   1.446
 8029SOL    HW124986   0.927   0.324   1.454
 8029SOL    HW224987   0.963   0.481   1.430
 8030SOL     OW24988   0.701   4.567   1.149
 8030SOL    HW124989   0.726   4.576   1.245
 8030SOL    HW224990   0.688   4.470   1.127
 8031SOL     OW24991   6.587   0.169   2.485
 8031SOL    HW124992   6.626   0.245   2.432
 8031SOL    HW224993   6.577   0.089   2.425
 8032SOL     OW24994   7.003   2.523   0.755
 8032SOL    HW124995   6.915   2.509   0.799
 8032SOL    HW224996   0.037   2.588   0.808
 8033SOL     OW24997   4.370   4.136   1.483
 8033SOL    HW124998   4.459   4.149   1.527
 8033SOL    HW224999   4.305   4.203   1.520
 8034SOL     OW25000   0.041   0.068   5.718
 8034SOL    HW125001   0.098   0.093   5.640
 8034SOL    HW225002   0.092   0.006   5.778
 8035SOL     OW25003   6.226   0.466   3.897
 8035SOL    HW125004   6.155   0.503   3.837
 8035SOL    HW225005   6.203   0.371   3.921
 8036SOL     OW25006   4.832   2.987   4.258
 8036SOL    HW125007   4.896   2.910   4.256
 8036SOL    HW225008   4.814   3.017   4.165
 8037SOL     OW25009   2.600   1.072   6.293
 8037SOL    HW125010   2.576   0.980   6.262
 8037SOL    HW225011   2.540   1.138   6.249
 8038SOL     OW25012   6.829   5.668   2.064
 8038SOL    HW125013   6.894   5.670   1.988
 8038SOL    HW225014   6.749   5.723   2.041
 8039SOL     OW25015   1.485   2.813   5.064
 8039SOL    HW125016   1.410   2.754   5.092
 8039SOL    HW225017   1.469   2.906   5.099
 8040SOL     OW25018   0.859   6.175   5.684
 8040SOL    HW125019   0.951   6.157   5.719
 8040SOL    HW225020   0.793   6.119   5.734
 8041SOL     OW25021   3.188   1.545   3.370
 8041SOL    HW125022   3.199   1.639   3.402
 8041SOL    HW225023   3.264   1.489   3.405
 8042SOL     OW25024   4.053   4.344   5.791
 8042SOL    HW125025   4.126   4.289   5.832
 8042SOL    HW225026   3.999   4.387   5.863
 8043SOL     OW25027   5.223   5.423   0.138
 8043SOL    HW125028   5.287   5.432   0.062
 8043SOL    HW225029   5.268   5.449   0.223
 8044SOL     OW25030   2.165   3.060   1.464
 8044SOL    HW125031   2.203   3.030   1.376
 8044SOL    HW225032   2.103   2.990   1.499
 8045SOL     OW25033   6.603   3.465   4.680
 8045SOL    HW125034   6.623   3.367   4.682
 8045SOL    HW225035   6.578   3.495   4.772
 8046SOL     OW25036   6.884   4.816   1.417
 8046SOL    HW125037   6.952   4.827   1.490
 8046SOL    HW225038   6.826   4.737   1.437
 8047SOL     OW25039   2.570   6.085   6.822
 8047SOL    HW125040   2.559   6.177   6.861
 8047SOL    HW225041   2.483   6.056   6.781
 8048SOL     OW25042   3.734   2.154   5.550
 8048SOL    HW125043   3.730   2.125   5.454
 8048SOL    HW225044   3.674   2.233   5.564
 8049SOL     OW25045   1.593   1.802   0.133
 8049SOL    HW125046   1.549   1.752   0.208
 8049SOL    HW225047   1.565   1.762   0.045
 8050SOL     OW25048   0.482   4.917   6.102
 8050SOL    HW125049   0.410   4.918   6.171
 8050SOL    HW225050   0.441   4.903   6.012
 8051SOL     OW25051   4.435   6.998   3.588
 8051SOL    HW125052   4.400   0.072   3.596
 8051SOL    HW225053   4.533   6.997   3.608
 8052SOL     OW25054   3.102   1.626   2.659
 8052SOL    HW125055   3.183   1.649   2.606
 8052SOL    HW225056   3.080   1.702   2.721
 8053SOL     OW25057   1.907   2.479   6.786
 8053SOL    HW125058   1.842   2.512   6.855
 8053SOL    HW225059   1.915   2.380   6.793
 8054SOL     OW25060   4.883   3.330   4.819
 8054SOL    HW125061   4.860   3.416   4.866
 8054SOL    HW225062   4.906   3.350   4.724
 8055SOL     OW25063   6.336   0.619   6.599
 8055SOL    HW125064   6.251   0.565   6.600
 8055SOL    HW225065   6.371   0.625   6.505
 8056SOL     OW25066   1.885   1.318   3.947
 8056SOL    HW125067   1.934   1.403   3.929
 8056SOL    HW225068   1.942   1.240   3.919
 8057SOL     OW25069   3.090   2.097   2.078
 8057SOL    HW125070   3.024   2.170   2.096
 8057SOL    HW225071   3.069   2.018   2.134
 8058SOL     OW25072   3.741   6.174   1.518
 8058SOL    HW125073   3.774   6.080   1.511
 8058SOL    HW225074   3.722   6.210   1.426
 8059SOL     OW25075   2.745   2.716   5.928
 8059SOL    HW125076   2.653   2.697   5.895
 8059SOL    HW225077   2.800   2.755   5.855
 8060SOL     OW25078   6.452   0.906   5.797
 8060SOL    HW125079   6.440   0.986   5.738
 8060SOL    HW225080   6.467   0.936   5.891
 8061SOL     OW25081   6.835   0.507   2.463
 8061SOL    HW125082   6.931   0.531   2.479
 8061SOL    HW225083   6.814   0.419   2.505
 8062SOL     OW25084   4.488   5.064   5.449
 8062SOL    HW125085   4.470   5.043   5.353
 8062SOL    HW225086   4.539   5.150   5.456
 8063SOL     OW25087   2.901   4.807   2.979
 8063SOL    HW125088   2.871   4.725   3.028
 8063SOL    HW225089   2.822   4.855   2.941
 8064SOL     OW25090   6.814   1.624   0.653
 8064SOL    HW125091   6.842   1.547   0.711
 8064SOL    HW225092   6.717   1.643   0.668
 8065SOL     OW25093   4.405   6.510   6.613
 8065SOL    HW125094   4.315   6.466   6.602
 8065SOL    HW225095   4.396   6.608   6.598
 8066SOL     OW25096   0.438   7.000   6.225
 8066SOL    HW125097   0.390   0.041   6.289
 8066SOL    HW225098   0.442   6.908   6.263
 8067SOL     OW25099   5.736   1.045   4.155
 8067SOL    HW125100   5.722   1.119   4.221
 8067SOL    HW225101   5.819   1.063   4.102
 8068SOL     OW25102   6.469   3.220   1.728
 8068SOL    HW125103   6.518   3.160   1.792
 8068SOL    HW225104   6.535   3.273   1.675
 8069SOL     OW25105   1.469   3.327   2.676
 8069SOL    HW125106   1.387   3.340   2.619
 8069SOL    HW225107   1.446   3.350   2.771
 8070SOL     OW25108   4.873   4.416   0.840
 8070SOL    HW125109   4.901   4.502   0.884
 8070SOL    HW225110   4.887   4.424   0.741
 8071SOL     OW25111   2.873   0.018   6.249
 8071SOL    HW125112   2.855   6.959   6.191
 8071SOL    HW225113   2.904   7.006   6.339
 8072SOL     OW25114   2.206   2.003   4.837
 8072SOL    HW125115   2.233   2.094   4.808
 8072SOL    HW225116   2.127   2.009   4.897
 8073SOL     OW25117   4.446   0.211   6.682
 8073SOL    HW125118   4.415   0.297   6.724
 8073SOL    HW225119   4.401   0.134   6.727
 8074SOL     OW25120   6.844   0.496   6.672
 8074SOL    HW125121   6.853   0.554   6.591
 8074SOL    HW225122   6.915   0.426   6.670
 8075SOL     OW25123   0.594   6.711   0.665
 8075SOL    HW125124   0.523   6.771   0.701
 8075SOL    HW225125   0.661   6.765   0.614
 8076SOL     OW25126   0.119   6.199   0.575
 8076SOL    HW125127   0.210   6.198   0.534
 8076SOL    HW225128   0.107   6.119   0.633
 8077SOL     OW25129   5.305   4.632   0.813
 8077SOL    HW125130   5.268   4.678   0.895
 8077SOL    HW225131   5.389   4.584   0.837
 8078SOL     OW25132   6.864   0.654   1.191
 8078SOL    HW125133   6.907   0.745   1.198
 8078SOL    HW225134   6.767   0.662   1.213
 8079SOL     OW25135   0.844   0.975   6.373
 8079SOL    HW125136   0.860   0.893   6.428
 8079SOL    HW225137   0.897   0.969   6.288
 8080SOL     OW25138   1.244   3.601   3.294
 8080SOL    HW125139   1.254   3.575   3.198
 8080SOL    HW225140   1.325   3.573   3.345
 8081SOL     OW25141   6.500   6.764   5.251
 8081SOL    HW125142   6.494   6.680   5.197
 8081SOL    HW225143   6.462   6.840   5.199
 8082SOL     OW25144   3.687   1.853   4.125
 8082SOL    HW125145   3.781   1.826   4.144
 8082SOL    HW225146   3.636   1.861   4.211
 8083SOL     OW25147   6.454   1.808   4.639
 8083SOL    HW125148   6.457   1.796   4.540
 8083SOL    HW225149   6.531   1.760   4.681
 8084SOL     OW25150   3.810   1.589   5.544
 8084SOL    HW125151   3.763   1.590   5.456
 8084SOL    HW225152   3.860   1.675   5.556
 8085SOL     OW25153   1.921   6.180   4.376
 8085SOL    HW125154   1.860   6.101   4.369
 8085SOL    HW225155   1.920   6.214   4.470
 8086SOL     OW25156   6.696   1.711   2.736
 8086SOL    HW125157   6.677   1.622   2.778
 8086SOL    HW225158   6.662   1.712   2.643
 8087SOL     OW25159   6.859   0.899   6.522
 8087SOL    HW125160   6.812   0.930   6.439
 8087SOL    HW225161   6.929   0.966   6.547
 8088SOL     OW25162   6.841   0.084   5.390
 8088SOL    HW125163   6.888   7.018   5.367
 8088SOL    HW225164   6.862   0.152   5.320
 8089SOL     OW25165   6.164   1.924   6.914
 8089SOL    HW125166   6.149   1.887   6.822
 8089SOL    HW225167   6.253   1.970   6.917
 8090SOL     OW25168   4.333   2.411   5.509
 8090SOL    HW125169   4.355   2.470   5.587
 8090SOL    HW225170   4.395   2.332   5.509
 8091SOL     OW25171   1.050   4.115   4.166
 8091SOL    HW125172   1.146   4.117   4.193
 8091SOL    HW225173   1.031   4.190   4.103
 8092SOL     OW25174   4.801   1.042   6.002
 8092SOL    HW125175   4.734   1.076   6.068
 8092SOL    HW225176   4.755   1.010   5.920
 8093SOL     OW25177   3.276   6.204   3.228
 8093SOL    HW125178   3.253   6.297   3.200
 8093SOL    HW225179   3.302   6.151   3.147
 8094SOL     OW25180   1.756   3.699   3.990
 8094SOL    HW125181   1.810   3.783   3.991
 8094SOL    HW225182   1.777   3.645   4.071
 8095SOL     OW25183   1.547   4.709   5.190
 8095SOL    HW125184   1.503   4.787   5.235
 8095SOL    HW225185   1.555   4.727   5.092
 8096SOL     OW25186   1.015   4.970   0.578
 8096SOL    HW125187   1.053   4.900   0.639
 8096SOL    HW225188   1.090   5.019   0.533
 8097SOL     OW25189   4.685   6.212   0.354
 8097SOL    HW125190   4.609   6.183   0.295
 8097SOL    HW225191   4.767   6.159   0.331
 8098SOL     OW25192   2.268   5.820   5.188
 8098SOL    HW125193   2.186   5.771   5.217
 8098SOL    HW225194   2.241   5.905   5.142
 8099SOL     OW25195   1.807   4.013   2.531
 8099SOL    HW125196   1.905   4.006   2.548
 8099SOL    HW225197   1.779   4.109   2.540
 8100SOL     OW25198   6.552   0.304   6.547
 8100SOL    HW125199   6.561   0.401   6.523
 8100SOL    HW225200   6.567   0.292   6.645
 8101SOL     OW25201   3.100   5.394   0.967
 8101SOL    HW125202   3.015   5.366   0.924
 8101SOL    HW225203   3.121   5.333   1.043
 8102SOL     OW25204   0.615   3.863   4.193
 8102SOL    HW125205   0.651   3.778   4.230
 8102SOL    HW225206   0.682   3.906   4.133
 8103SOL     OW25207   3.555   0.861   1.465
 8103SOL    HW125208   3.648   0.837   1.492
 8103SOL    HW225209   3.500   0.778   1.454
 8104SOL     OW25210   2.432   5.069   0.152
 8104SOL    HW125211   2.501   5.000   0.175
 8104SOL    HW225212   2.455   5.110   0.063
 8105SOL     OW25213   6.890   6.718   3.665
 8105SOL    HW125214   6.842   6.798   3.631
 8105SOL    HW225215   6.969   6.699   3.607
 8106SOL     OW25216   2.507   6.731   6.170
 8106SOL    HW125217   2.523   6.716   6.268
 8106SOL    HW225218   2.459   6.652   6.133
 8107SOL     OW25219   1.713   6.193   6.753
 8107SOL    HW125220   1.760   6.275   6.722
 8107SOL    HW225221   1.730   6.118   6.690
 8108SOL     OW25222   1.082   1.262   6.997
 8108SOL    HW125223   1.143   1.317   6.940
 8108SOL    HW225224   1.022   1.207   6.938
 8109SOL     OW25225   6.506   2.924   1.640
 8109SOL    HW125226   6.426   2.924   1.701
 8109SOL    HW225227   6.584   2.966   1.688
 8110SOL     OW25228   3.936   4.738   0.992
 8110SOL    HW125229   3.984   4.773   1.071
 8110SOL    HW225230   3.969   4.784   0.909
 8111SOL     OW25231   6.596   1.199   2.852
 8111SOL    HW125232   6.541   1.136   2.906
 8111SOL    HW225233   6.616   1.158   2.764
 8112SOL     OW25234   1.691   4.643   6.529
 8112SOL    HW125235   1.758   4.702   6.485
 8112SOL    HW225236   1.648   4.584   6.461
 8113SOL     OW25237   5.480   4.331   5.727
 8113SOL    HW125238   5.448   4.426   5.724
 8113SOL    HW225239   5.485   4.301   5.822
 8114SOL     OW25240   1.679   3.593   2.759
 8114SOL    HW125241   1.699   3.499   2.784
 8114SOL    HW225242   1.736   3.620   2.681
 8115SOL     OW25243   2.426   1.245   6.206
 8115SOL    HW125244   2.353   1.185   6.175
 8115SOL    HW225245   2.387   1.329   6.245
 8116SOL     OW25246   3.825   3.149   1.714
 8116SOL    HW125247   3.910   3.199   1.731
 8116SOL    HW225248   3.837   3.053   1.737
 8117SOL     OW25249   2.832   6.515   4.201
 8117SOL    HW125250   2.845   6.435   4.260
 8117SOL    HW225251   2.865   6.495   4.109
 8118SOL     OW25252   6.698   2.824   0.082
 8118SOL    HW125253   6.626   2.754   0.094
 8118SOL    HW225254   6.681   2.874   7.017
 8119SOL     OW25255   5.595   6.590   6.932
 8119SOL    HW125256   5.570   6.494   6.919
 8119SOL    HW225257   5.668   6.596   7.000
 8120SOL     OW25258   1.799   6.673   2.091
 8120SOL    HW125259   1.838   6.652   2.181
 8120SOL    HW225260   1.872   6.702   2.029
 8121SOL     OW25261   0.922   3.027   2.305
 8121SOL    HW125262   0.924   3.020   2.405
 8121SOL    HW225263   0.890   2.941   2.266
 8122SOL     OW25264   0.531   5.218   1.412
 8122SOL    HW125265   0.569   5.274   1.338
 8122SOL    HW225266   0.566   5.250   1.500
 8123SOL     OW25267   6.661   1.735   6.765
 8123SOL    HW125268   6.748   1.702   6.730
 8123SOL    HW225269   6.644   1.694   6.855
 8124SOL     OW25270   5.666   5.536   4.837
 8124SOL    HW125271   5.631   5.507   4.926
 8124SOL    HW225272   5.685   5.634   4.838
 8125SOL     OW25273   1.586   5.560   2.384
 8125SOL    HW125274   1.493   5.587   2.357
 8125SOL    HW225275   1.607   5.471   2.343
 8126SOL     OW25276   3.619   5.783   4.492
 8126SOL    HW125277   3.674   5.843   4.550
 8126SOL    HW225278   3.588   5.704   4.546
 8127SOL     OW25279   3.323   2.086   6.542
 8127SOL    HW125280   3.260   2.161   6.563
 8127SOL    HW225281   3.303   2.009   6.602
 8128SOL     OW25282   3.303   2.815   1.244
 8128SOL    HW125283   3.335   2.886   1.308
 8128SOL    HW225284   3.268   2.738   1.297
 8129SOL     OW25285   0.901   2.417   2.291
 8129SOL    HW125286   0.848   2.383   2.213
 8129SOL    HW225287   0.979   2.356   2.308
 8130SOL     OW25288   0.647   5.661   7.014
 8130SOL    HW125289   0.604   5.675   6.924
 8130SOL    HW225290   0.643   5.746   0.046
 8131SOL     OW25291   1.862   2.919   6.840
 8131SOL    HW125292   1.904   2.970   6.766
 8131SOL    HW225293   1.931   2.891   6.906
 8132SOL     OW25294   0.309   0.938   5.022
 8132SOL    HW125295   0.276   0.844   5.017
 8132SOL    HW225296   0.368   0.957   4.944
 8133SOL     OW25297   3.691   4.685   0.534
 8133SOL    HW125298   3.661   4.704   0.627
 8133SOL    HW225299   3.729   4.593   0.529
 8134SOL     OW25300   5.462   1.862   5.938
 8134SOL    HW125301   5.494   1.796   5.871
 8134SOL    HW225302   5.538   1.886   5.999
 8135SOL     OW25303   2.694   6.695   2.040
 8135SOL    HW125304   2.639   6.612   2.033
 8135SOL    HW225305   2.752   6.691   2.122
 8136SOL     OW25306   5.123   4.190   1.937
 8136SOL    HW125307   5.112   4.095   1.966
 8136SOL    HW225308   5.206   4.200   1.883
 8137SOL     OW25309   4.235   1.915   5.873
 8137SOL    HW125310   4.314   1.940   5.930
 8137SOL    HW225311   4.210   1.993   5.815
 8138SOL     OW25312   5.144   1.172   2.530
 8138SOL    HW125313   5.189   1.173   2.440
 8138SOL    HW225314   5.161   1.084   2.575
 8139SOL     OW25315   0.276   2.400   3.154
 8139SOL    HW125316   0.315   2.340   3.223
 8139SOL    HW225317   0.260   2.491   3.195
 8140SOL     OW25318   4.445   2.103   3.539
 8140SOL    HW125319   4.402   2.190   3.566
 8140SOL    HW225320   4.439   2.093   3.440
 8141SOL     OW25321   5.439   4.510   4.254
 8141SOL    HW125322   5.409   4.579   4.189
 8141SOL    HW225323   5.365   4.445   4.271
 8142SOL     OW25324   0.323   6.243   6.466
 8142SOL    HW125325   0.376   6.163   6.440
 8142SOL    HW225326   0.229   6.216   6.488
 8143SOL     OW25327   6.389   3.112   5.885
 8143SOL    HW125328   6.392   3.113   5.785
 8143SOL    HW225329   6.359   3.201   5.919
 8144SOL     OW25330   5.018   0.226   0.030
 8144SOL    HW125331   4.986   0.132   0.043
 8144SOL    HW225332   5.117   0.226   0.014
 8145SOL     OW25333   5.068   6.099   2.749
 8145SOL    HW125334   4.991   6.042   2.777
 8145SOL    HW225335   5.051   6.194   2.778
 8146SOL     OW25336   3.778   1.075   4.438
 8146SOL    HW125337   3.762   1.122   4.525
 8146SOL    HW225338   3.703   1.010   4.421
 8147SOL     OW25339   4.630   0.844   3.298
 8147SOL    HW125340   4.705   0.798   3.249
 8147SOL    HW225341   4.542   0.811   3.261
 8148SOL     OW25342   5.678   4.568   3.527
 8148SOL    HW125343   5.695   4.516   3.611
 8148SOL    HW225344   5.764   4.608   3.495
 8149SOL     OW25345   3.740   5.071   2.899
 8149SOL    HW125346   3.688   4.988   2.919
 8149SOL    HW225347   3.755   5.078   2.800
 8150SOL     OW25348   0.673   5.360   1.217
 8150SOL    HW125349   0.669   5.364   1.117
 8150SOL    HW225350   0.720   5.441   1.251
 8151SOL     OW25351   0.731   1.581   4.976
 8151SOL    HW125352   0.821   1.611   4.944
 8151SOL    HW225353   0.674   1.557   4.898
 8152SOL     OW25354   1.631   0.511   2.673
 8152SOL    HW125355   1.546   0.545   2.714
 8152SOL    HW225356   1.613   0.481   2.579
 8153SOL     OW25357   1.771   6.725   0.326
 8153SOL    HW125358   1.790   6.820   0.303
 8153SOL    HW225359   1.674   6.705   0.312
 8154SOL     OW25360   2.490   6.750   3.579
 8154SOL    HW125361   2.408   6.737   3.634
 8154SOL    HW225362   2.464   6.759   3.482
 8155SOL     OW25363   3.313   3.421   4.097
 8155SOL    HW125364   3.381   3.492   4.110
 8155SOL    HW225365   3.244   3.452   4.031
 8156SOL     OW25366   6.917   0.437   5.571
 8156SOL    HW125367   6.887   0.532   5.580
 8156SOL    HW225368   6.837   0.377   5.577
 8157SOL     OW25369   6.308   2.452   6.535
 8157SOL    HW125370   6.284   2.543   6.500
 8157SOL    HW225371   6.402   2.453   6.568
 8158SOL     OW25372   1.882   5.380   2.480
 8158SOL    HW125373   1.935   5.438   2.418
 8158SOL    HW225374   1.931   5.369   2.567
 8159SOL     OW25375   0.777   4.941   1.574
 8159SOL    HW125376   0.680   4.965   1.580
 8159SOL    HW225377   0.812   4.922   1.666
 8160SOL     OW25378   4.786   1.745   2.320
 8160SOL    HW125379   4.755   1.786   2.234
 8160SOL    HW225380   4.810   1.650   2.304
 8161SOL     OW25381   4.356   1.923   1.515
 8161SOL    HW125382   4.370   1.837   1.466
 8161SOL    HW225383   4.377   1.910   1.612
 8162SOL     OW25384   6.143   0.535   1.660
 8162SOL    HW125385   6.152   0.544   1.561
 8162SOL    HW225386   6.217   0.584   1.705
 8163SOL     OW25387   1.715   3.354   4.705
 8163SOL    HW125388   1.776   3.334   4.782
 8163SOL    HW225389   1.638   3.289   4.706
 8164SOL     OW25390   4.834   2.437   2.931
 8164SOL    HW125391   4.794   2.528   2.919
 8164SOL    HW225392   4.822   2.407   3.025
 8165SOL     OW25393   2.333   4.857   1.065
 8165SOL    HW125394   2.344   4.808   1.152
 8165SOL    HW225395   2.422   4.894   1.037
 8166SOL     OW25396   3.421   6.477   1.269
 8166SOL    HW125397   3.343   6.493   1.209
 8166SOL    HW225398   3.502   6.521   1.232
 8167SOL     OW25399   5.397   3.399   4.034
 8167SOL    HW125400   5.347   3.456   4.098
 8167SOL    HW225401   5.384   3.433   3.941
 8168SOL     OW25402   3.292   1.821   2.547
 8168SOL    HW125403   3.277   1.920   2.551
 8168SOL    HW225404   3.357   1.800   2.473
 8169SOL     OW25405   5.274   4.225   5.197
 8169SOL    HW125406   5.323   4.270   5.270
 8169SOL    HW225407   5.317   4.136   5.177
 8170SOL     OW25408   1.502   4.976   4.332
 8170SOL    HW125409   1.445   4.931   4.263
 8170SOL    HW225410   1.579   4.916   4.354
 8171SOL     OW25411   1.587   1.405   6.020
 8171SOL    HW125412   1.624   1.484   6.069
 8171SOL    HW225413   1.618   1.321   6.065
 8172SOL     OW25414   0.047   6.053   1.697
 8172SOL    HW125415   0.076   6.115   1.624
 8172SOL    HW225416   0.048   5.959   1.663
 8173SOL     OW25417   5.869   2.412   6.744
 8173SOL    HW125418   5.930   2.424   6.666
 8173SOL    HW225419   5.897   2.330   6.795
 8174SOL     OW25420   5.522   7.017   2.223
 8174SOL    HW125421   5.463   0.019   2.145
 8174SOL    HW225422   5.575   6.935   2.202
 8175SOL     OW25423   1.585   2.854   4.816
 8175SOL    HW125424   1.534   2.810   4.891
 8175SOL    HW225425   1.650   2.919   4.854
 8176SOL     OW25426   4.177   5.229   3.148
 8176SOL    HW125427   4.121   5.169   3.090
 8176SOL    HW225428   4.171   5.323   3.114
 8177SOL     OW25429   0.983   0.000   5.624
 8177SOL    HW125430   0.937   0.045   5.547
 8177SOL    HW225431   0.936   0.023   5.709
 8178SOL     OW25432   2.047   6.834   6.182
 8178SOL    HW125433   2.102   6.766   6.133
 8178SOL    HW225434   2.087   6.925   6.168
 8179SOL     OW25435   3.230   0.438   6.969
 8179SOL    HW125436   3.171   0.461   6.891
 8179SOL    HW225437   3.212   0.501   0.024
 8180SOL     OW25438   4.660   4.919   5.613
 8180SOL    HW125439   4.588   4.923   5.543
 8180SOL    HW225440   4.749   4.915   5.568
 8181SOL     OW25441   2.717   2.178   2.570
 8181SOL    HW125442   2.747   2.220   2.484
 8181SOL    HW225443   2.618   2.165   2.568
 8182SOL     OW25444   5.270   2.543   5.976
 8182SOL    HW125445   5.204   2.597   5.924
 8182SOL    HW225446   5.235   2.450   5.989
 8183SOL     OW25447   2.059   2.713   3.615
 8183SOL    HW125448   2.045   2.812   3.619
 8183SOL    HW225449   2.156   2.693   3.599
 8184SOL     OW25450   5.730   6.277   5.012
 8184SOL    HW125451   5.725   6.368   5.055
 8184SOL    HW225452   5.732   6.288   4.913
 8185SOL     OW25453   1.844   2.121   2.805
 8185SOL    HW125454   1.800   2.043   2.849
 8185SOL    HW225455   1.903   2.089   2.731
 8186SOL     OW25456   4.095   4.126   6.322
 8186SOL    HW125457   4.000   4.096   6.331
 8186SOL    HW225458   4.097   4.218   6.284
 8187SOL     OW25459   1.890   0.940   6.081
 8187SOL    HW125460   1.987   0.915   6.073
 8187SOL    HW225461   1.865   1.000   6.005
 8188SOL     OW25462   5.646   3.128   2.847
 8188SOL    HW125463   5.633   3.126   2.748
 8188SOL    HW225464   5.682   3.039   2.877
 8189SOL     OW25465   6.866   4.970   2.855
 8189SOL    HW125466   6.861   4.894   2.790
 8189SOL    HW225467   6.825   4.943   2.942
 8190SOL     OW25468   5.651   3.467   2.227
 8190SOL    HW125469   5.582   3.425   2.168
 8190SOL    HW225470   5.693   3.544   2.179
 8191SOL     OW25471   0.198   5.161   1.803
 8191SOL    HW125472   0.212   5.152   1.704
 8191SOL    HW225473   0.215   5.073   1.848
 8192SOL     OW25474   1.567   3.459   0.668
 8192SOL    HW125475   1.624   3.532   0.630
 8192SOL    HW225476   1.476   3.496   0.690
 8193SOL     OW25477   3.461   0.293   5.318
 8193SOL    HW125478   3.422   0.384   5.301
 8193SOL    HW225479   3.435   0.262   5.409
 8194SOL     OW25480   1.912   0.159   1.727
 8194SOL    HW125481   1.998   0.130   1.769
 8194SOL    HW225482   1.839   0.097   1.757
 8195SOL     OW25483   5.167   1.129   0.992
 8195SOL    HW125484   5.143   1.043   1.037
 8195SOL    HW225485   5.089   1.191   0.996
 8196SOL     OW25486   1.980   0.465   6.734
 8196SOL    HW125487   2.064   0.411   6.740
 8196SOL    HW225488   1.991   0.551   6.783
 8197SOL     OW25489   0.873   6.797   0.905
 8197SOL    HW125490   0.858   6.896   0.903
 8197SOL    HW225491   0.809   6.752   0.843
 8198SOL     OW25492   3.305   0.559   2.841
 8198SOL    HW125493   3.267   0.640   2.886
 8198SOL    HW225494   3.387   0.585   2.790
 8199SOL     OW25495   5.588   4.939   0.290
 8199SOL    HW125496   5.566   5.032   0.318
 8199SOL    HW225497   5.516   4.877   0.322
 8200SOL     OW25498   4.151   3.448   1.863
 8200SOL    HW125499   4.154   3.474   1.959
 8200SOL    HW225500   4.057   3.455   1.829
 8201SOL     OW25501   6.489   0.730   4.772
 8201SOL    HW125502   6.414   0.747   4.836
 8201SOL    HW225503   6.538   0.816   4.756
 8202SOL     OW25504   1.878   3.942   4.063
 8202SOL    HW125505   1.867   4.027   4.012
 8202SOL    HW225506   1.903   3.963   4.158
 8203SOL     OW25507   5.826   4.205   0.362
 8203SOL    HW125508   5.852   4.123   0.311
 8203SOL    HW225509   5.864   4.286   0.317
 8204SOL     OW25510   3.522   0.348   0.820
 8204SOL    HW125511   3.478   0.357   0.730
 8204SOL    HW225512   3.610   0.394   0.819
 8205SOL     OW25513   5.329   5.581   3.158
 8205SOL    HW125514   5.235   5.558   3.184
 8205SOL    HW225515   5.349   5.675   3.185
 8206SOL     OW25516   4.397   1.601   4.400
 8206SOL    HW125517   4.471   1.641   4.454
 8206SOL    HW225518   4.411   1.623   4.303
 8207SOL     OW25519   3.011   5.646   6.657
 8207SOL    HW125520   2.990   5.733   6.614
 8207SOL    HW225521   3.064   5.662   6.741
 8208SOL     OW25522   1.525   5.741   0.092
 8208SOL    HW125523   1.559   5.739   7.017
 8208SOL    HW225524   1.558   5.823   0.137
 8209SOL     OW25525   1.462   5.786   4.969
 8209SOL    HW125526   1.396   5.838   5.024
 8209SOL    HW225527   1.512   5.848   4.909
 8210SOL     OW25528   2.263   1.908   0.198
 8210SOL    HW125529   2.267   1.993   0.147
 8210SOL    HW225530   2.168   1.891   0.227
 8211SOL     OW25531   3.711   3.946   4.055
 8211SOL    HW125532   3.675   3.873   4.113
 8211SOL    HW225533   3.809   3.957   4.073
 8212SOL     OW25534   4.252   5.355   0.230
 8212SOL    HW125535   4.170   5.297   0.223
 8212SOL    HW225536   4.250   5.424   0.158
 8213SOL     OW25537   4.596   4.228   1.632
 8213SOL    HW125538   4.530   4.231   1.708
 8213SOL    HW225539   4.682   4.268   1.661
 8214SOL     OW25540   3.728   5.538   2.995
 8214SOL    HW125541   3.686   5.605   2.934
 8214SOL    HW225542   3.693   5.447   2.974
 8215SOL     OW25543   2.533   6.125   6.242
 8215SOL    HW125544   2.526   6.158   6.336
 8215SOL    HW225545   2.538   6.025   6.242
 8216SOL     OW25546   5.341   5.908   1.613
 8216SOL    HW125547   5.258   5.854   1.626
 8216SOL    HW225548   5.317   6.004   1.603
 8217SOL     OW25549   3.466   6.563   3.941
 8217SOL    HW125550   3.489   6.565   3.843
 8217SOL    HW225551   3.445   6.469   3.968
 8218SOL     OW25552   2.224   6.480   5.130
 8218SOL    HW125553   2.212   6.384   5.104
 8218SOL    HW225554   2.314   6.511   5.100
 8219SOL     OW25555   3.975   3.071   2.613
 8219SOL    HW125556   3.964   3.108   2.520
 8219SOL    HW225557   4.068   3.088   2.645
 8220SOL     OW25558   3.521   4.121   5.472
 8220SOL    HW125559   3.567   4.034   5.459
 8220SOL    HW225560   3.562   4.191   5.413
 8221SOL     OW25561   6.273   3.929   4.178
 8221SOL    HW125562   6.287   3.842   4.225
 8221SOL    HW225563   6.359   3.980   4.176
 8222SOL     OW25564   5.934   2.498   0.107
 8222SOL    HW125565   5.922   2.399   0.120
 8222SOL    HW225566   6.026   2.515   0.071
 8223SOL     OW25567   1.927   6.264   5.558
 8223SOL    HW125568   1.920   6.168   5.529
 8223SOL    HW225569   1.991   6.312   5.498
 8224SOL     OW25570   5.142   1.334   6.490
 8224SOL    HW125571   5.081   1.324   6.568
 8224SOL    HW225572   5.167   1.243   6.455
 8225SOL     OW25573   5.571   3.155   0.259
 8225SOL    HW125574   5.476   3.121   0.265
 8225SOL    HW225575   5.633   3.077   0.248
 8226SOL     OW25576   3.966   0.942   6.535
 8226SOL    HW125577   3.868   0.954   6.516
 8226SOL    HW225578   3.988   0.984   6.622
 8227SOL     OW25579   4.666   2.641   3.267
 8227SOL    HW125580   4.711   2.722   3.229
 8227SOL    HW225581   4.718   2.559   3.244
 8228SOL     OW25582   3.000   0.140   5.073
 8228SOL    HW125583   3.092   0.160   5.038
 8228SOL    HW225584   2.936   0.210   5.041
 8229SOL     OW25585   4.576   4.593   0.879
 8229SOL    HW125586   4.650   4.575   0.814
 8229SOL    HW225587   4.546   4.507   0.920
 8230SOL     OW25588   6.207   1.177   5.729
 8230SOL    HW125589   6.209   1.221   5.640
 8230SOL    HW225590   6.197   1.246   5.801
 8231SOL     OW25591   2.893   1.160   2.040
 8231SOL    HW125592   2.919   1.248   2.000
 8231SOL    HW225593   2.963   1.132   2.106
 8232SOL     OW25594   3.811   6.273   2.933
 8232SOL    HW125595   3.748   6.244   3.004
 8232SOL    HW225596   3.900   6.231   2.948
 8233SOL     OW25597   1.895   1.201   6.482
 8233SOL    HW125598   1.918   1.132   6.551
 8233SOL    HW225599   1.864   1.285   6.528
 8234SOL     OW25600   0.805   2.668   0.603
 8234SOL    HW125601   0.712   2.642   0.575
 8234SOL    HW225602   0.866   2.664   0.524
 8235SOL     OW25603   1.080   0.820   1.385
 8235SOL    HW125604   1.061   0.813   1.287
 8235SOL    HW225605   1.091   0.729   1.424
 8236SOL     OW25606   0.432   0.016   1.928
 8236SOL    HW125607   0.435   0.087   1.858
 8236SOL    HW225608   0.410   6.948   1.885
 8237SOL     OW25609   3.834   4.812   5.220
 8237SOL    HW125610   3.779   4.837   5.299
 8237SOL    HW225611   3.858   4.715   5.225
 8238SOL     OW25612   0.204   5.655   0.550
 8238SOL    HW125613   0.189   5.565   0.509
 8238SOL    HW225614   0.201   5.647   0.650
 8239SOL     OW25615   3.182   1.809   5.731
 8239SOL    HW125616   3.168   1.907   5.740
 8239SOL    HW225617   3.167   1.782   5.635
 8240SOL     OW25618   3.744   3.330   4.946
 8240SOL    HW125619   3.753   3.329   4.846
 8240SOL    HW225620   3.692   3.410   4.973
 8241SOL     OW25621   1.349   3.623   5.380
 8241SOL    HW125622   1.277   3.555   5.370
 8241SOL    HW225623   1.308   3.714   5.392
 8242SOL     OW25624   0.225   2.634   2.525
 8242SOL    HW125625   0.280   2.555   2.553
 8242SOL    HW225626   0.270   2.718   2.557
 8243SOL     OW25627   1.340   6.722   3.681
 8243SOL    HW125628   1.363   6.803   3.735
 8243SOL    HW225629   1.302   6.651   3.740
 8244SOL     OW25630   6.636   0.952   3.629
 8244SOL    HW125631   6.561   0.921   3.687
 8244SOL    HW225632   6.687   1.025   3.675
 8245SOL     OW25633   4.905   2.761   2.769
 8245SOL    HW125634   4.820   2.764   2.821
 8245SOL    HW225635   4.968   2.831   2.805
 8246SOL     OW25636   1.681   4.409   6.808
 8246SOL    HW125637   1.634   4.423   6.895
 8246SOL    HW225638   1.614   4.395   6.735
 8247SOL     OW25639   2.809   5.112   3.665
 8247SOL    HW125640   2.909   5.106   3.657
 8247SOL    HW225641   2.771   5.020   3.669
 8248SOL     OW25642   6.956   5.223   3.025
 8248SOL    HW125643   6.987   5.315   3.048
 8248SOL    HW225644   6.867   5.206   3.068
 8249SOL     OW25645   3.154   1.359   6.515
 8249SOL    HW125646   3.237   1.307   6.536
 8249SOL    HW225647   3.170   1.415   6.434
 8250SOL     OW25648   1.518   2.070   0.099
 8250SOL    HW125649   1.586   2.122   0.047
 8250SOL    HW225650   1.553   1.979   0.118
 8251SOL     OW25651   1.003   2.185   6.084
 8251SOL    HW125652   1.092   2.206   6.045
 8251SOL    HW225653   0.999   2.088   6.109
 8252SOL     OW25654   0.794   2.127   6.668
 8252SOL    HW125655   0.764   2.074   6.588
 8252SOL    HW225656   0.890   2.151   6.658
 8253SOL     OW25657   5.678   5.144   6.146
 8253SOL    HW125658   5.726   5.164   6.231
 8253SOL    HW225659   5.702   5.053   6.115
 8254SOL     OW25660   6.309   5.898   0.012
 8254SOL    HW125661   6.211   5.888   7.014
 8254SOL    HW225662   6.360   5.883   6.948
 8255SOL     OW25663   0.935   0.327   5.557
 8255SOL    HW125664   0.949   0.295   5.650
 8255SOL    HW225665   0.999   0.281   5.496
 8256SOL     OW25666   1.406   6.122   4.228
 8256SOL    HW125667   1.311   6.093   4.242
 8256SOL    HW225668   1.431   6.107   4.132
 8257SOL     OW25669   4.869   3.870   3.283
 8257SOL    HW125670   4.958   3.915   3.298
 8257SOL    HW225671   4.831   3.843   3.372
 8258SOL     OW25672   0.672   2.979   3.772
 8258SOL    HW125673   0.726   2.994   3.855
 8258SOL    HW225674   0.621   2.894   3.780
 8259SOL     OW25675   5.805   1.937   4.335
 8259SOL    HW125676   5.732   1.910   4.272
 8259SOL    HW225677   5.812   2.037   4.337
 8260SOL     OW25678   5.072   2.716   0.135
 8260SOL    HW125679   5.049   2.784   0.066
 8260SOL    HW225680   5.163   2.734   0.171
 8261SOL     OW25681   6.225   1.299   2.914
 8261SOL    HW125682   6.279   1.300   2.830
 8261SOL    HW225683   6.257   1.225   2.973
 8262SOL     OW25684   5.189   3.515   2.100
 8262SOL    HW125685   5.238   3.591   2.059
 8262SOL    HW225686   5.222   3.429   2.060
 8263SOL     OW25687   6.775   1.810   6.145
 8263SOL    HW125688   6.772   1.710   6.149
 8263SOL    HW225689   6.870   1.841   6.160
 8264SOL     OW25690   3.000   1.009   1.845
 8264SOL    HW125691   2.950   1.038   1.763
 8264SOL    HW225692   2.974   1.067   1.922
 8265SOL     OW25693   4.468   5.311   0.737
 8265SOL    HW125694   4.502   5.388   0.683
 8265SOL    HW225695   4.505   5.226   0.701
 8266SOL     OW25696   3.410   1.440   3.522
 8266SOL    HW125697   3.420   1.343   3.548
 8266SOL    HW225698   3.499   1.478   3.500
 8267SOL     OW25699   1.739   2.445   3.378
 8267SOL    HW125700   1.717   2.372   3.314
 8267SOL    HW225701   1.825   2.488   3.352
 8268SOL     OW25702   3.296   4.392   6.970
 8268SOL    HW125703   3.311   4.479   6.922
 8268SOL    HW225704   3.202   4.362   6.955
 8269SOL     OW25705   6.534   2.020   5.298
 8269SOL    HW125706   6.573   2.073   5.222
 8269SOL    HW225707   6.590   1.938   5.312
 8270SOL     OW25708   4.267   4.909   0.515
 8270SOL    HW125709   4.251   4.960   0.430
 8270SOL    HW225710   4.331   4.834   0.497
 8271SOL     OW25711   3.158   6.545   5.670
 8271SOL    HW125712   3.183   6.582   5.581
 8271SOL    HW225713   3.156   6.618   5.738
 8272SOL     OW25714   0.102   0.382   2.191
 8272SOL    HW125715   0.127   0.343   2.102
 8272SOL    HW225716   0.009   0.352   2.215
 8273SOL     OW25717   3.491   0.292   6.322
 8273SOL    HW125718   3.414   0.310   6.384
 8273SOL    HW225719   3.546   0.217   6.359
 8274SOL     OW25720   5.413   6.170   5.276
 8274SOL    HW125721   5.314   6.187   5.281
 8274SOL    HW225722   5.436   6.091   5.333
 8275SOL     OW25723   4.933   0.930   5.094
 8275SOL    HW125724   4.928   0.833   5.070
 8275SOL    HW225725   4.897   0.943   5.187
 8276SOL     OW25726   5.775   2.685   0.238
 8276SOL    HW125727   5.844   2.631   0.189
 8276SOL    HW225728   5.704   2.625   0.274
 8277SOL     OW25729   1.301   6.294   1.379
 8277SOL    HW125730   1.282   6.263   1.286
 8277SOL    HW225731   1.291   6.393   1.384
 8278SOL     OW25732   1.690   0.051   1.151
 8278SOL    HW125733   1.704   0.141   1.108
 8278SOL    HW225734   1.779   0.007   1.165
 8279SOL     OW25735   5.028   5.728   5.825
 8279SOL    HW125736   5.041   5.710   5.922
 8279SOL    HW225737   5.115   5.760   5.786
 8280SOL     OW25738   5.311   4.408   6.602
 8280SOL    HW125739   5.340   4.496   6.640
 8280SOL    HW225740   5.387   4.342   6.609
 8281SOL     OW25741   2.792   5.466   6.050
 8281SOL    HW125742   2.802   5.548   5.994
 8281SOL    HW225743   2.843   5.478   6.135
 8282SOL     OW25744   3.669   2.849   1.195
 8282SOL    HW125745   3.736   2.778   1.170
 8282SOL    HW225746   3.576   2.813   1.182
 8283SOL     OW25747   0.565   0.389   3.225
 8283SOL    HW125748   0.587   0.292   3.228
 8283SOL    HW225749   0.570   0.427   3.318
 8284SOL     OW25750   5.099   1.896   2.040
 8284SOL    HW125751   5.192   1.900   2.002
 8284SOL    HW225752   5.103   1.912   2.139
 8285SOL     OW25753   0.761   4.395   0.358
 8285SOL    HW125754   0.821   4.316   0.369
 8285SOL    HW225755   0.681   4.385   0.419
 8286SOL     OW25756   6.367   2.310   7.013
 8286SOL    HW125757   6.386   2.302   6.915
 8286SOL    HW225758   6.311   2.233   0.022
 8287SOL     OW25759   1.481   1.333   3.179
 8287SOL    HW125760   1.527   1.260   3.128
 8287SOL    HW225761   1.471   1.306   3.275
 8288SOL     OW25762   2.125   0.395   2.108
 8288SOL    HW125763   2.081   0.402   2.018
 8288SOL    HW225764   2.189   0.471   2.120
 8289SOL     OW25765   5.648   7.002   7.014
 8289SOL    HW125766   5.551   7.005   6.988
 8289SOL    HW225767   5.656   6.974   0.090
 8290SOL     OW25768   4.737   2.495   2.184
 8290SOL    HW125769   4.816   2.551   2.207
 8290SOL    HW225770   4.726   2.491   2.085
 8291SOL     OW25771   5.097   6.009   6.448
 8291SOL    HW125772   5.015   5.997   6.504
 8291SOL    HW225773   5.137   5.920   6.428
 8292SOL     OW25774   0.142   2.755   5.688
 8292SOL    HW125775   0.092   2.840   5.702
 8292SOL    HW225776   0.170   2.718   5.776
 8293SOL     OW25777   3.067   5.160   4.137
 8293SOL    HW125778   3.043   5.171   4.041
 8293SOL    HW225779   2.987   5.182   4.194
 8294SOL     OW25780   6.086   3.764   5.728
 8294SOL    HW125781   6.069   3.832   5.799
 8294SOL    HW225782   6.000   3.736   5.687
 8295SOL     OW25783   4.827   5.043   2.670
 8295SOL    HW125784   4.816   4.958   2.723
 8295SOL    HW225785   4.898   5.030   2.601
 8296SOL     OW25786   4.095   0.635   2.644
 8296SOL    HW125787   4.172   0.600   2.592
 8296SOL    HW225788   4.061   0.719   2.601
 8297SOL     OW25789   5.607   4.286   1.679
 8297SOL    HW125790   5.629   4.219   1.607
 8297SOL    HW225791   5.635   4.377   1.649
 8298SOL     OW25792   6.591   6.495   0.734
 8298SOL    HW125793   6.679   6.495   0.783
 8298SOL    HW225794   6.607   6.510   0.637
 8299SOL     OW25795   1.342   3.180   6.954
 8299SOL    HW125796   1.301   3.268   6.930
 8299SOL    HW225797   1.273   3.108   6.947
 8300SOL     OW25798   6.037   5.071   4.709
 8300SOL    HW125799   6.073   4.985   4.673
 8300SOL    HW225800   5.937   5.068   4.707
 8301SOL     OW25801   6.789   5.817   0.076
 8301SOL    HW125802   6.854   5.768   0.134
 8301SOL    HW225803   6.696   5.797   0.107
 8302SOL     OW25804   4.101   6.674   5.549
 8302SOL    HW125805   4.163   6.598   5.568
 8302SOL    HW225806   4.115   6.746   5.616
 8303SOL     OW25807   1.358   4.797   4.152
 8303SOL    HW125808   1.299   4.819   4.074
 8303SOL    HW225809   1.302   4.758   4.226
 8304SOL     OW25810   6.223   2.890   3.821
 8304SOL    HW125811   6.212   2.979   3.778
 8304SOL    HW225812   6.200   2.818   3.755
 8305SOL     OW25813   4.331   0.453   5.812
 8305SOL    HW125814   4.362   0.517   5.742
 8305SOL    HW225815   4.357   0.360   5.787
 8306SOL     OW25816   6.132   0.566   4.176
 8306SOL    HW125817   6.048   0.517   4.201
 8306SOL    HW225818   6.179   0.515   4.104
 8307SOL     OW25819   1.367   4.108   3.530
 8307SOL    HW125820   1.307   4.160   3.590
 8307SOL    HW225821   1.312   4.051   3.470
 8308SOL     OW25822   1.465   5.166   0.234
 8308SOL    HW125823   1.378   5.206   0.208
 8308SOL    HW225824   1.524   5.236   0.273
 8309SOL     OW25825   6.423   5.341   3.080
 8309SOL    HW125826   6.409   5.242   3.074
 8309SOL    HW225827   6.354   5.380   3.141
 8310SOL     OW25828   2.480   6.426   2.778
 8310SOL    HW125829   2.535   6.470   2.848
 8310SOL    HW225830   2.486   6.326   2.787
 8311SOL     OW25831   4.532   6.131   2.284
 8311SOL    HW125832   4.530   6.034   2.259
 8311SOL    HW225833   4.454   6.152   2.342
 8312SOL     OW25834   6.369   1.511   0.928
 8312SOL    HW125835   6.387   1.455   0.847
 8312SOL    HW225836   6.384   1.457   1.010
 8313SOL     OW25837   5.605   2.752   6.435
 8313SOL    HW125838   5.619   2.662   6.393
 8313SOL    HW225839   5.508   2.775   6.433
 8314SOL     OW25840   4.364   6.034   3.933
 8314SOL    HW125841   4.287   5.994   3.884
 8314SOL    HW225842   4.442   5.971   3.932
 8315SOL     OW25843   3.278   2.834   6.381
 8315SOL    HW125844   3.325   2.817   6.294
 8315SOL    HW225845   3.180   2.819   6.369
 8316SOL     OW25846   1.456   1.845   5.565
 8316SOL    HW125847   1.415   1.761   5.528
 8316SOL    HW225848   1.385   1.903   5.603
 8317SOL     OW25849   1.049   2.165   4.509
 8317SOL    HW125850   1.136   2.194   4.469
 8317SOL    HW225851   1.043   2.065   4.510
 8318SOL     OW25852   4.310   0.035   5.919
 8318SOL    HW125853   4.356   0.088   5.990
 8318SOL    HW225854   4.212   0.055   5.921
 8319SOL     OW25855   2.233   5.564   6.821
 8319SOL    HW125856   2.265   5.496   6.886
 8319SOL    HW225857   2.205   5.519   6.736
 8320SOL     OW25858   4.054   3.891   5.145
 8320SOL    HW125859   4.024   3.820   5.209
 8320SOL    HW225860   4.131   3.856   5.092
 8321SOL     OW25861   0.401   0.146   0.913
 8321SOL    HW125862   0.443   0.101   0.992
 8321SOL    HW225863   0.430   0.241   0.910
 8322SOL     OW25864   1.058   0.453   0.809
 8322SOL    HW125865   0.972   0.498   0.785
 8322SOL    HW225866   1.124   0.465   0.735
 8323SOL     OW25867   5.390   4.654   6.683
 8323SOL    HW125868   5.351   4.745   6.697
 8323SOL    HW225869   5.466   4.661   6.618
 8324SOL     OW25870   5.431   6.632   6.602
 8324SOL    HW125871   5.473   6.696   6.666
 8324SOL    HW225872   5.487   6.549   6.595
 8325SOL     OW25873   1.553   6.267   4.950
 8325SOL    HW125874   1.514   6.328   5.019
 8325SOL    HW225875   1.480   6.228   4.894
 8326SOL     OW25876   2.060   2.823   0.031
 8326SOL    HW125877   2.115   2.891   0.080
 8326SOL    HW225878   2.031   2.752   0.095
 8327SOL     OW25879   0.738   6.176   5.193
 8327SOL    HW125880   0.684   6.138   5.268
 8327SOL    HW225881   0.835   6.154   5.207
 8328SOL     OW25882   1.248   6.238   1.130
 8328SOL    HW125883   1.225   6.310   1.066
 8328SOL    HW225884   1.237   6.149   1.086
 8329SOL     OW25885   1.506   2.536   5.436
 8329SOL    HW125886   1.446   2.588   5.375
 8329SOL    HW225887   1.581   2.496   5.384
 8330SOL     OW25888   2.750   6.761   0.249
 8330SOL    HW125889   2.704   6.825   0.310
 8330SOL    HW225890   2.682   6.705   0.202
 8331SOL     OW25891   2.330   2.534   5.982
 8331SOL    HW125892   2.395   2.570   6.048
 8331SOL    HW225893   2.353   2.439   5.960
 8332SOL     OW25894   5.986   4.103   1.275
 8332SOL    HW125895   6.024   4.191   1.249
 8332SOL    HW225896   5.898   4.116   1.320
 8333SOL     OW25897   2.510   4.014   6.814
 8333SOL    HW125898   2.490   3.919   6.836
 8333SOL    HW225899   2.472   4.036   6.724
 8334SOL     OW25900   3.403   2.298   5.317
 8334SOL    HW125901   3.314   2.328   5.282
 8334SOL    HW225902   3.444   2.234   5.253
 8335SOL     OW25903   5.111   4.755   5.741
 8335SOL    HW125904   5.044   4.682   5.726
 8335SOL    HW225905   5.093   4.799   5.829
 8336SOL     OW25906   1.421   3.322   3.467
 8336SOL    HW125907   1.453   3.408   3.427
 8336SOL    HW225908   1.499   3.274   3.508
 8337SOL     OW25909   6.823   1.106   4.470
 8337SOL    HW125910   6.842   1.101   4.568
 8337SOL    HW225911   6.786   1.018   4.439
 8338SOL     OW25912   2.680   5.740   0.892
 8338SOL    HW125913   2.741   5.751   0.814
 8338SOL    HW225914   2.616   5.665   0.873
 8339SOL     OW25915   6.081   0.258   1.691
 8339SOL    HW125916   6.169   0.218   1.714
 8339SOL    HW225917   6.093   0.355   1.669
 8340SOL     OW25918   6.016   2.439   6.527
 8340SOL    HW125919   5.982   2.395   6.444
 8340SOL    HW225920   6.115   2.449   6.521
 8341SOL     OW25921   3.966   0.908   0.940
 8341SOL    HW125922   3.924   0.904   1.030
 8341SOL    HW225923   3.964   1.002   0.906
 8342SOL     OW25924   3.718   0.795   0.180
 8342SOL    HW125925   3.660   0.858   0.128
 8342SOL    HW225926   3.705   0.702   0.146
 8343SOL     OW25927   5.910   5.052   2.896
 8343SOL    HW125928   5.825   5.005   2.871
 8343SOL    HW225929   5.951   5.007   2.975
 8344SOL     OW25930   2.316   5.119   5.524
 8344SOL    HW125931   2.369   5.173   5.589
 8344SOL    HW225932   2.363   5.115   5.436
 8345SOL     OW25933   5.903   0.442   4.270
 8345SOL    HW125934   5.848   0.515   4.229
 8345SOL    HW225935   5.845   0.387   4.331
 8346SOL     OW25936   5.449   3.864   4.239
 8346SOL    HW125937   5.510   3.935   4.276
 8346SOL    HW225938   5.355   3.881   4.270
 8347SOL     OW25939   1.323   1.425   6.005
 8347SOL    HW125940   1.423   1.426   6.006
 8347SOL    HW225941   1.291   1.333   6.028
 8348SOL     OW25942   2.999   5.652   1.931
 8348SOL    HW125943   3.044   5.730   1.974
 8348SOL    HW225944   2.920   5.624   1.986
 8349SOL     OW25945   4.855   6.294   1.678
 8349SOL    HW125946   4.765   6.308   1.638
 8349SOL    HW225947   4.885   6.377   1.724
 8350SOL     OW25948   1.140   6.934   0.312
 8350SOL    HW125949   1.168   6.841   0.290
 8350SOL    HW225950   1.221   6.994   0.310
 8351SOL     OW25951   6.964   2.808   2.652
 8351SOL    HW125952   6.922   2.850   2.733
 8351SOL    HW225953   0.008   2.737   2.680
 8352SOL     OW25954   2.616   6.716   6.868
 8352SOL    HW125955   2.700   6.674   6.834
 8352SOL    HW225956   2.569   6.653   6.930
 8353SOL     OW25957   0.784   6.332   2.016
 8353SOL    HW125958   0.790   6.253   2.077
 8353SOL    HW225959   0.819   6.414   2.063
 8354SOL     OW25960   4.377   1.478   3.200
 8354SOL    HW125961   4.413   1.523   3.118
 8354SOL    HW225962   4.444   1.485   3.274
 8355SOL     OW25963   2.863   5.213   5.976
 8355SOL    HW125964   2.937   5.178   6.034
 8355SOL    HW225965   2.827   5.298   6.016
 8356SOL     OW25966   2.968   4.189   1.167
 8356SOL    HW125967   2.897   4.131   1.205
 8356SOL    HW225968   2.961   4.281   1.206
 8357SOL     OW25969   4.354   0.131   4.723
 8357SOL    HW125970   4.399   0.137   4.634
 8357SOL    HW225971   4.399   0.063   4.779
 8358SOL     OW25972   0.572   0.870   5.217
 8358SOL    HW125973   0.475   0.857   5.237
 8358SOL    HW225974   0.589   0.967   5.197
 8359SOL     OW25975   4.307   2.489   5.791
 8359SOL    HW125976   4.312   2.391   5.812
 8359SOL    HW225977   4.300   2.541   5.876
 8360SOL     OW25978   3.812   6.984   1.334
 8360SOL    HW125979   3.836   0.038   1.396
 8360SOL    HW225980   3.887   6.918   1.329
 8361SOL     OW25981   4.520   1.559   0.139
 8361SOL    HW125982   4.561   1.471   0.117
 8361SOL    HW225983   4.521   1.573   0.238
 8362SOL     OW25984   6.965   3.256   1.348
 8362SOL    HW125985   6.953   3.157   1.352
 8362SOL    HW225986   6.897   3.296   1.286
 8363SOL     OW25987   1.490   2.712   1.483
 8363SOL    HW125988   1.512   2.793   1.429
 8363SOL    HW225989   1.542   2.634   1.449
 8364SOL     OW25990   0.540   2.367   4.204
 8364SOL    HW125991   0.483   2.434   4.156
 8364SOL    HW225992   0.485   2.287   4.226
 8365SOL     OW25993   1.444   2.377   1.354
 8365SOL    HW125994   1.412   2.455   1.300
 8365SOL    HW225995   1.474   2.304   1.293
 8366SOL     OW25996   5.337   5.464   1.870
 8366SOL    HW125997   5.435   5.476   1.852
 8366SOL    HW225998   5.323   5.380   1.923
 8367SOL     OW25999   2.045   4.552   3.824
 8367SOL    HW126000   2.064   4.458   3.794
 8367SOL    HW226001   1.976   4.593   3.764
 8368SOL     OW26002   6.188   5.097   5.798
 8368SOL    HW126003   6.252   5.071   5.870
 8368SOL    HW226004   6.168   5.018   5.741
 8369SOL     OW26005   1.728   6.808   7.011
 8369SOL    HW126006   1.784   6.781   0.070
 8369SOL    HW226007   1.676   6.730   6.978
 8370SOL     OW26008   2.998   2.828   0.730
 8370SOL    HW126009   2.925   2.860   0.669
 8370SOL    HW226010   2.992   2.877   0.817
 8371SOL     OW26011   2.996   3.984   6.936
 8371SOL    HW126012   3.067   3.961   6.869
 8371SOL    HW226013   2.943   3.902   6.956
 8372SOL     OW26014   1.460   6.163   1.585
 8372SOL    HW126015   1.553   6.197   1.596
 8372SOL    HW226016   1.411   6.219   1.518
 8373SOL     OW26017   6.917   1.016   4.005
 8373SOL    HW126018   6.920   1.111   4.035
 8373SOL    HW226019   6.918   1.013   3.905
 8374SOL     OW26020   0.800   1.287   3.593
 8374SOL    HW126021   0.800   1.368   3.534
 8374SOL    HW226022   0.711   1.280   3.639
 8375SOL     OW26023   1.553   2.335   5.155
 8375SOL    HW126024   1.522   2.249   5.195
 8375SOL    HW226025   1.493   2.361   5.080
 8376SOL     OW26026   1.377   1.907   3.711
 8376SOL    HW126027   1.439   1.902   3.633
 8376SOL    HW226028   1.348   1.815   3.737
 8377SOL     OW26029   4.044   5.588   0.108
 8377SOL    HW126030   4.018   5.666   0.165
 8377SOL    HW226031   3.985   5.585   0.027
 8378SOL     OW26032   4.449   5.705   4.652
 8378SOL    HW126033   4.511   5.721   4.728
 8378SOL    HW226034   4.435   5.791   4.602
 8379SOL     OW26035   5.881   2.204   1.734
 8379SOL    HW126036   5.934   2.120   1.725
 8379SOL    HW226037   5.852   2.235   1.643
 8380SOL     OW26038   0.821   6.106   1.568
 8380SOL    HW126039   0.770   6.082   1.650
 8380SOL    HW226040   0.787   6.053   1.490
 8381SOL     OW26041   1.231   1.785   2.565
 8381SOL    HW126042   1.235   1.885   2.575
 8381SOL    HW226043   1.158   1.749   2.623
 8382SOL     OW26044   1.051   0.262   1.733
 8382SOL    HW126045   1.038   0.252   1.634
 8382SOL    HW226046   1.047   0.358   1.758
 8383SOL     OW26047   3.176   6.767   6.092
 8383SOL    HW126048   3.237   6.696   6.125
 8383SOL    HW226049   3.163   6.836   6.163
 8384SOL     OW26050   0.463   3.823   2.728
 8384SOL    HW126051   0.508   3.888   2.789
 8384SOL    HW226052   0.497   3.836   2.635
 8385SOL     OW26053   4.248   2.306   2.292
 8385SOL    HW126054   4.318   2.362   2.248
 8385SOL    HW226055   4.205   2.246   2.224
 8386SOL     OW26056   2.071   5.564   1.755
 8386SOL    HW126057   1.994   5.577   1.818
 8386SOL    HW226058   2.115   5.476   1.774
 8387SOL     OW26059   0.928   1.638   3.814
 8387SOL    HW126060   0.965   1.679   3.898
 8387SOL    HW226061   0.833   1.612   3.830
 8388SOL     OW26062   3.728   5.341   1.365
 8388SOL    HW126063   3.721   5.280   1.444
 8388SOL    HW226064   3.824   5.353   1.340
 8389SOL     OW26065   0.772   3.200   4.190
 8389SOL    HW126066   0.730   3.225   4.102
 8389SOL    HW226067   0.848   3.262   4.209
 8390SOL     OW26068   2.939   0.258   6.489
 8390SOL    HW126069   2.842   0.234   6.490
 8390SOL    HW226070   2.950   0.353   6.458
 8391SOL     OW26071   5.181   6.091   0.707
 8391SOL    HW126072   5.170   6.122   0.613
 8391SOL    HW226073   5.117   6.017   0.726
 8392SOL     OW26074   4.823   6.110   6.941
 8392SOL    HW126075   4.828   6.209   6.952
 8392SOL    HW226076   4.822   6.067   0.011
 8393SOL     OW26077   0.693   4.656   2.671
 8393SOL    HW126078   0.596   4.654   2.694
 8393SOL    HW226079   0.725   4.751   2.669
 8394SOL     OW26080   1.491   1.491   2.589
 8394SOL    HW126081   1.446   1.576   2.614
 8394SOL    HW226082   1.508   1.437   2.671
 8395SOL     OW26083   1.140   6.487   5.497
 8395SOL    HW126084   1.060   6.433   5.470
 8395SOL    HW226085   1.146   6.491   5.597
 8396SOL     OW26086   4.216   2.313   1.809
 8396SOL    HW126087   4.284   2.379   1.776
 8396SOL    HW226088   4.199   2.245   1.737
 8397SOL     OW26089   2.091   5.325   3.939
 8397SOL    HW126090   2.044   5.317   4.026
 8397SOL    HW226091   2.052   5.401   3.887
 8398SOL     OW26092   5.927   1.369   0.311
 8398SOL    HW126093   5.894   1.317   0.233
 8398SOL    HW226094   5.918   1.467   0.293
 8399SOL     OW26095   5.453   5.827   6.827
 8399SOL    HW126096   5.520   5.759   6.800
 8399SOL    HW226097   5.496   5.917   6.830
 8400SOL     OW26098   6.428   6.632   4.094
 8400SOL    HW126099   6.511   6.642   4.148
 8400SOL    HW226100   6.348   6.642   4.153
 8401SOL     OW26101   2.814   3.959   5.496
 8401SOL    HW126102   2.759   3.917   5.568
 8401SOL    HW226103   2.907   3.924   5.500
 8402SOL     OW26104   4.414   0.640   5.610
 8402SOL    HW126105   4.378   0.675   5.523
 8402SOL    HW226106   4.511   0.664   5.617
 8403SOL     OW26107   0.935   2.642   5.173
 8403SOL    HW126108   0.880   2.687   5.103
 8403SOL    HW226109   0.975   2.558   5.137
 8404SOL     OW26110   4.461   5.045   5.171
 8404SOL    HW126111   4.435   5.125   5.118
 8404SOL    HW226112   4.398   4.970   5.152
 8405SOL     OW26113   1.704   2.553   5.059
 8405SOL    HW126114   1.667   2.475   5.110
 8405SOL    HW226115   1.708   2.633   5.118
 8406SOL     OW26116   5.399   3.185   1.599
 8406SOL    HW126117   5.312   3.149   1.566
 8406SOL    HW226118   5.474   3.146   1.546
 8407SOL     OW26119   4.884   3.727   3.052
 8407SOL    HW126120   4.873   3.784   2.971
 8407SOL    HW226121   4.872   3.783   3.134
 8408SOL     OW26122   4.734   4.608   4.181
 8408SOL    HW126123   4.693   4.613   4.090
 8408SOL    HW226124   4.667   4.570   4.245
 8409SOL     OW26125   0.526   2.070   3.984
 8409SOL    HW126126   0.573   2.017   3.913
 8409SOL    HW226127   0.442   2.023   4.011
 8410SOL     OW26128   2.422   6.199   2.527
 8410SOL    HW126129   2.442   6.297   2.531
 8410SOL    HW226130   2.480   6.155   2.458
 8411SOL     OW26131   2.080   3.175   3.152
 8411SOL    HW126132   2.093   3.257   3.207
 8411SOL    HW226133   1.982   3.163   3.132
 8412SOL     OW26134   6.268   2.474   2.669
 8412SOL    HW126135   6.277   2.393   2.727
 8412SOL    HW226136   6.192   2.530   2.702
 8413SOL     OW26137   2.490   4.697   1.509
 8413SOL    HW126138   2.488   4.796   1.517
 8413SOL    HW226139   2.444   4.668   1.426
 8414SOL     OW26140   5.787   6.717   3.386
 8414SOL    HW126141   5.823   6.742   3.297
 8414SOL    HW226142   5.863   6.709   3.452
 8415SOL     OW26143   6.684   4.028   1.952
 8415SOL    HW126144   6.616   4.100   1.963
 8415SOL    HW226145   6.689   4.001   1.855
 8416SOL     OW26146   4.636   4.331   2.290
 8416SOL    HW126147   4.697   4.252   2.301
 8416SOL    HW226148   4.586   4.322   2.204
 8417SOL     OW26149   2.169   6.030   6.490
 8417SOL    HW126150   2.187   6.117   6.445
 8417SOL    HW226151   2.128   5.966   6.425
 8418SOL     OW26152   6.320   5.466   2.527
 8418SOL    HW126153   6.313   5.420   2.438
 8418SOL    HW226154   6.416   5.477   2.551
 8419SOL     OW26155   5.026   0.061   4.226
 8419SOL    HW126156   5.007   0.152   4.189
 8419SOL    HW226157   5.117   0.031   4.198
 8420SOL     OW26158   3.952   2.257   5.710
 8420SOL    HW126159   3.897   2.235   5.629
 8420SOL    HW226160   4.047   2.231   5.694
 8421SOL     OW26161   0.055   0.385   0.917
 8421SOL    HW126162   0.080   0.293   0.887
 8421SOL    HW226163   0.112   0.411   0.995
 8422SOL     OW26164   4.242   0.198   1.591
 8422SOL    HW126165   4.246   0.160   1.683
 8422SOL    HW226166   4.318   0.161   1.536
 8423SOL     OW26167   1.967   3.615   1.711
 8423SOL    HW126168   1.870   3.605   1.691
 8423SOL    HW226169   2.018   3.625   1.625
 8424SOL     OW26170   2.667   2.269   1.943
 8424SOL    HW126171   2.755   2.298   1.981
 8424SOL    HW226172   2.623   2.348   1.898
 8425SOL     OW26173   6.162   4.693   6.665
 8425SOL    HW126174   6.246   4.690   6.611
 8425SOL    HW226175   6.163   4.619   6.732
 8426SOL     OW26176   3.610   3.527   2.633
 8426SOL    HW126177   3.664   3.473   2.697
 8426SOL    HW226178   3.522   3.550   2.675
 8427SOL     OW26179   2.147   2.638   6.864
 8427SOL    HW126180   2.086   2.560   6.850
 8427SOL    HW226181   2.106   2.701   6.931
 8428SOL     OW26182   6.335   4.403   1.073
 8428SOL    HW126183   6.263   4.347   1.034
 8428SOL    HW226184   6.378   4.354   1.149
 8429SOL     OW26185   1.831   6.908   3.176
 8429SOL    HW126186   1.849   7.003   3.203
 8429SOL    HW226187   1.736   6.899   3.145
 8430SOL     OW26188   5.389   4.281   3.059
 8430SOL    HW126189   5.479   4.311   3.028
 8430SOL    HW226190   5.356   4.207   3.000
 8431SOL     OW26191   2.810   3.564   1.836
 8431SOL    HW126192   2.837   3.495   1.769
 8431SOL    HW226193   2.711   3.558   1.851
 8432SOL     OW26194   4.848   6.392   0.052
 8432SOL    HW126195   4.894   6.438   0.128
 8432SOL    HW226196   4.769   6.447   0.023
 8433SOL     OW26197   0.677   1.896   4.184
 8433SOL    HW126198   0.658   1.799   4.197
 8433SOL    HW226199   0.621   1.931   4.109
 8434SOL     OW26200   5.520   6.059   6.336
 8434SOL    HW126201   5.605   6.014   6.306
 8434SOL    HW226202   5.458   5.991   6.373
 8435SOL     OW26203   4.884   2.323   1.910
 8435SOL    HW126204   4.932   2.373   1.982
 8435SOL    HW226205   4.789   2.355   1.905
 8436SOL     OW26206   3.057   4.386   1.669
 8436SOL    HW126207   3.014   4.319   1.609
 8436SOL    HW226208   3.001   4.397   1.751
 8437SOL     OW26209   6.943   1.503   0.892
 8437SOL    HW126210   0.007   1.482   0.844
 8437SOL    HW226211   6.936   1.602   0.905
 8438SOL     OW26212   2.237   5.692   1.076
 8438SOL    HW126213   2.253   5.661   1.170
 8438SOL    HW226214   2.143   5.725   1.067
 8439SOL     OW26215   6.078   0.493   2.117
 8439SOL    HW126216   6.137   0.491   2.198
 8439SOL    HW226217   6.107   0.568   2.057
 8440SOL     OW26218   0.472   2.691   4.432
 8440SOL    HW126219   0.465   2.747   4.515
 8440SOL    HW226220   0.445   2.745   4.353
 8441SOL     OW26221   4.337   5.711   2.328
 8441SOL    HW126222   4.339   5.641   2.399
 8441SOL    HW226223   4.265   5.777   2.347
 8442SOL     OW26224   2.087   2.737   0.639
 8442SOL    HW126225   2.005   2.751   0.694
 8442SOL    HW226226   2.139   2.660   0.678
 8443SOL     OW26227   0.817   2.170   1.798
 8443SOL    HW126228   0.852   2.085   1.837
 8443SOL    HW226229   0.884   2.243   1.812
 8444SOL     OW26230   4.310   1.578   2.899
 8444SOL    HW126231   4.229   1.569   2.842
 8444SOL    HW226232   4.375   1.506   2.875
 8445SOL     OW26233   4.736   5.393   1.961
 8445SOL    HW126234   4.738   5.452   2.042
 8445SOL    HW226235   4.816   5.413   1.904
 8446SOL     OW26236   6.717   3.835   3.107
 8446SOL    HW126237   6.625   3.799   3.086
 8446SOL    HW226238   6.723   3.854   3.204
 8447SOL     OW26239   4.388   3.153   1.065
 8447SOL    HW126240   4.455   3.079   1.066
 8447SOL    HW226241   4.295   3.114   1.066
 8448SOL     OW26242   1.680   3.369   5.767
 8448SOL    HW126243   1.768   3.358   5.812
 8448SOL    HW226244   1.624   3.434   5.819
 8449SOL     OW26245   0.987   1.455   4.387
 8449SOL    HW126246   0.973   1.473   4.484
 8449SOL    HW226247   1.069   1.502   4.355
 8450SOL     OW26248   1.816   5.276   1.267
 8450SOL    HW126249   1.754   5.318   1.201
 8450SOL    HW226250   1.861   5.348   1.320
 8451SOL     OW26251   4.054   2.558   0.173
 8451SOL    HW126252   4.099   2.561   0.262
 8451SOL    HW226253   4.078   2.474   0.126
 8452SOL     OW26254   0.343   5.501   1.802
 8452SOL    HW126255   0.387   5.507   1.892
 8452SOL    HW226256   0.260   5.447   1.810
 8453SOL     OW26257   6.437   5.606   5.182
 8453SOL    HW126258   6.443   5.555   5.096
 8453SOL    HW226259   6.519   5.661   5.194
 8454SOL     OW26260   2.424   6.786   4.551
 8454SOL    HW126261   2.419   6.775   4.452
 8454SOL    HW226262   2.370   6.865   4.579
 8455SOL     OW26263   5.857   2.572   0.821
 8455SOL    HW126264   5.897   2.614   0.740
 8455SOL    HW226265   5.778   2.625   0.851
 8456SOL     OW26266   5.239   5.434   3.503
 8456SOL    HW126267   5.304   5.384   3.560
 8456SOL    HW226268   5.146   5.406   3.527
 8457SOL     OW26269   6.296   6.027   6.116
 8457SOL    HW126270   6.320   6.044   6.021
 8457SOL    HW226271   6.375   5.987   6.163
 8458SOL     OW26272   1.554   2.139   1.229
 8458SOL    HW126273   1.586   2.127   1.323
 8458SOL    HW226274   1.633   2.141   1.168
 8459SOL     OW26275   2.433   5.837   2.999
 8459SOL    HW126276   2.444   5.773   3.075
 8459SOL    HW226277   2.488   5.919   3.017
 8460SOL     OW26278   3.839   1.221   0.980
 8460SOL    HW126279   3.740   1.205   0.984
 8460SOL    HW226280   3.878   1.214   1.072
 8461SOL     OW26281   5.130   4.383   3.055
 8461SOL    HW126282   5.093   4.339   3.136
 8461SOL    HW226283   5.227   4.360   3.046
 8462SOL     OW26284   2.225   4.103   0.865
 8462SOL    HW126285   2.268   4.023   0.906
 8462SOL    HW226286   2.183   4.077   0.778
 8463SOL     OW26287   6.319   0.491   0.379
 8463SOL    HW126288   6.265   0.575   0.389
 8463SOL    HW226289   6.398   0.495   0.440
 8464SOL     OW26290   6.456   3.793   6.501
 8464SOL    HW126291   6.487   3.754   6.588
 8464SOL    HW226292   6.489   3.736   6.425
 8465SOL     OW26293   4.667   3.461   0.926
 8465SOL    HW126294   4.676   3.390   0.996
 8465SOL    HW226295   4.688   3.550   0.966
 8466SOL     OW26296   0.839   1.056   5.273
 8466SOL    HW126297   0.800   1.107   5.350
 8466SOL    HW226298   0.776   1.060   5.196
 8467SOL     OW26299   3.194   1.391   0.305
 8467SOL    HW126300   3.257   1.410   0.381
 8467SOL    HW226301   3.110   1.443   0.318
 8468SOL     OW26302   5.539   3.904   0.128
 8468SOL    HW126303   5.465   3.924   0.191
 8468SOL    HW226304   5.507   3.842   0.057
 8469SOL     OW26305   3.858   3.467   5.420
 8469SOL    HW126306   3.947   3.484   5.463
 8469SOL    HW226307   3.788   3.456   5.491
 8470SOL     OW26308   1.567   5.150   1.597
 8470SOL    HW126309   1.657   5.107   1.598
 8470SOL    HW226310   1.508   5.105   1.664
 8471SOL     OW26311   4.271   1.901   4.483
 8471SOL    HW126312   4.242   1.807   4.500
 8471SOL    HW226313   4.192   1.962   4.492
 8472SOL     OW26314   5.937   1.587   6.787
 8472SOL    HW126315   5.849   1.569   6.830
 8472SOL    HW226316   6.003   1.518   6.815
 8473SOL     OW26317   4.961   5.161   5.839
 8473SOL    HW126318   5.024   5.087   5.866
 8473SOL    HW226319   4.951   5.225   5.914
 8474SOL     OW26320   3.202   4.075   4.669
 8474SOL    HW126321   3.209   4.089   4.768
 8474SOL    HW226322   3.140   3.998   4.651
 8475SOL     OW26323   6.894   1.825   3.141
 8475SOL    HW126324   6.890   1.727   3.163
 8475SOL    HW226325   6.913   1.836   3.044
 8476SOL     OW26326   5.824   1.362   1.730
 8476SOL    HW126327   5.777   1.312   1.657
 8476SOL    HW226328   5.758   1.421   1.777
 8477SOL     OW26329   5.717   0.347   1.950
 8477SOL    HW126330   5.764   0.428   1.914
 8477SOL    HW226331   5.724   0.346   2.050
 8478SOL     OW26332   0.501   6.770   5.357
 8478SOL    HW126333   0.433   6.746   5.426
 8478SOL    HW226334   0.563   6.839   5.394
 8479SOL     OW26335   0.424   3.011   0.490
 8479SOL    HW126336   0.408   3.001   0.588
 8479SOL    HW226337   0.400   3.104   0.462
 8480SOL     OW26338   3.986   4.414   0.840
 8480SOL    HW126339   3.887   4.427   0.850
 8480SOL    HW226340   4.008   4.317   0.838
 8481SOL     OW26341   3.937   2.134   3.068
 8481SOL    HW126342   3.905   2.043   3.094
 8481SOL    HW226343   3.945   2.140   2.969
 8482SOL     OW26344   4.277   1.213   6.616
 8482SOL    HW126345   4.259   1.115   6.606
 8482SOL    HW226346   4.353   1.238   6.556
 8483SOL     OW26347   3.883   5.037   3.396
 8483SOL    HW126348   3.824   5.033   3.315
 8483SOL    HW226349   3.960   4.975   3.384
 8484SOL     OW26350   5.976   5.849   5.105
 8484SOL    HW126351   5.884   5.824   5.074
 8484SOL    HW226352   5.974   5.872   5.202
 8485SOL     OW26353   4.013   1.319   6.438
 8485SOL    HW126354   3.935   1.318   6.377
 8485SOL    HW226355   4.086   1.262   6.401
 8486SOL     OW26356   6.131   2.522   4.760
 8486SOL    HW126357   6.074   2.592   4.803
 8486SOL    HW226358   6.167   2.556   4.673
 8487SOL     OW26359   6.451   2.250   6.025
 8487SOL    HW126360   6.442   2.186   6.102
 8487SOL    HW226361   6.510   2.326   6.051
 8488SOL     OW26362   4.556   4.848   2.748
 8488SOL    HW126363   4.654   4.833   2.746
 8488SOL    HW226364   4.509   4.760   2.762
 8489SOL     OW26365   6.108   2.371   2.028
 8489SOL    HW126366   6.166   2.290   2.016
 8489SOL    HW226367   6.014   2.342   2.042
 8490SOL     OW26368   3.028   6.673   6.987
 8490SOL    HW126369   3.028   6.668   0.067
 8490SOL    HW226370   3.121   6.692   6.955
 8491SOL     OW26371   2.907   5.714   2.195
 8491SOL    HW126372   2.999   5.703   2.231
 8491SOL    HW226373   2.851   5.635   2.218
 8492SOL     OW26374   6.524   5.988   4.369
 8492SOL    HW126375   6.506   5.972   4.271
 8492SOL    HW226376   6.573   6.074   4.380
 8493SOL     OW26377   4.861   1.363   6.038
 8493SOL    HW126378   4.911   1.419   6.104
 8493SOL    HW226379   4.881   1.266   6.054
 8494SOL     OW26380   6.879   3.600   2.523
 8494SOL    HW126381   6.923   3.527   2.470
 8494SOL    HW226382   6.782   3.604   2.500
 8495SOL     OW26383   5.785   5.435   6.391
 8495SOL    HW126384   5.715   5.481   6.336
 8495SOL    HW226385   5.874   5.474   6.370
 8496SOL     OW26386   5.138   2.551   3.001
 8496SOL    HW126387   5.086   2.590   2.924
 8496SOL    HW226388   5.234   2.540   2.973
 8497SOL     OW26389   6.976   0.236   2.870
 8497SOL    HW126390   0.012   0.279   2.940
 8497SOL    HW226391   6.922   0.162   2.910
 8498SOL     OW26392   4.818   6.712   4.119
 8498SOL    HW126393   4.739   6.695   4.060
 8498SOL    HW226394   4.813   6.805   4.156
 8499SOL     OW26395   6.266   6.931   5.577
 8499SOL    HW126396   6.239   6.926   5.674
 8499SOL    HW226397   6.355   6.976   5.570
 8500SOL     OW26398   1.223   0.691   6.712
 8500SOL    HW126399   1.179   0.723   6.796
 8500SOL    HW226400   1.235   0.592   6.716
 8501SOL     OW26401   2.335   1.299   6.629
 8501SOL    HW126402   2.337   1.331   6.535
 8501SOL    HW226403   2.339   1.378   6.691
 8502SOL     OW26404   6.196   3.702   6.855
 8502SOL    HW126405   6.203   3.653   6.942
 8502SOL    HW226406   6.128   3.775   6.863
 8503SOL     OW26407   5.306   2.551   5.274
 8503SOL    HW126408   5.213   2.516   5.285
 8503SOL    HW226409   5.302   2.649   5.253
 8504SOL     OW26410   0.993   0.165   2.376
 8504SOL    HW126411   0.921   0.201   2.435
 8504SOL    HW226412   0.991   0.212   2.288
 8505SOL     OW26413   5.342   2.573   2.172
 8505SOL    HW126414   5.362   2.601   2.266
 8505SOL    HW226415   5.419   2.519   2.137
 8506SOL     OW26416   0.999   6.686   6.197
 8506SOL    HW126417   1.074   6.623   6.220
 8506SOL    HW226418   0.984   6.748   6.275
 8507SOL     OW26419   3.586   5.552   5.376
 8507SOL    HW126420   3.668   5.608   5.361
 8507SOL    HW226421   3.601   5.462   5.336
 8508SOL     OW26422   2.655   0.906   6.728
 8508SOL    HW126423   2.659   0.985   6.667
 8508SOL    HW226424   2.744   0.891   6.770
 8509SOL     OW26425   5.212   1.976   2.694
 8509SOL    HW126426   5.293   1.918   2.686
 8509SOL    HW226427   5.238   2.062   2.739
 8510SOL     OW26428   0.742   1.958   4.780
 8510SOL    HW126429   0.798   2.038   4.763
 8510SOL    HW226430   0.679   1.976   4.856
 8511SOL     OW26431   5.990   1.672   3.394
 8511SOL    HW126432   6.044   1.606   3.447
 8511SOL    HW226433   6.027   1.678   3.301
 8512SOL     OW26434   2.354   6.511   5.705
 8512SOL    HW126435   2.397   6.471   5.624
 8512SOL    HW226436   2.278   6.453   5.733
 8513SOL     OW26437   5.239   6.060   6.793
 8513SOL    HW126438   5.254   6.111   6.708
 8513SOL    HW226439   5.306   5.986   6.799
 8514SOL     OW26440   3.815   5.753   3.813
 8514SOL    HW126441   3.757   5.679   3.780
 8514SOL    HW226442   3.911   5.727   3.803
 8515SOL     OW26443   6.272   2.320   1.090
 8515SOL    HW126444   6.291   2.251   1.160
 8515SOL    HW226445   6.173   2.327   1.077
 8516SOL     OW26446   6.839   1.939   2.298
 8516SOL    HW126447   6.827   1.893   2.210
 8516SOL    HW226448   6.824   2.037   2.287
 8517SOL     OW26449   1.617   4.000   6.750
 8517SOL    HW126450   1.564   3.957   6.824
 8517SOL    HW226451   1.633   3.934   6.677
 8518SOL     OW26452   2.707   6.033   0.402
 8518SOL    HW126453   2.786   6.022   0.342
 8518SOL    HW226454   2.739   6.041   0.497
 8519SOL     OW26455   2.567   6.118   3.700
 8519SOL    HW126456   2.636   6.119   3.628
 8519SOL    HW226457   2.495   6.054   3.676
 8520SOL     OW26458   3.676   6.164   0.030
 8520SOL    HW126459   3.732   6.194   6.973
 8520SOL    HW226460   3.626   6.241   0.068
 8521SOL     OW26461   1.790   0.392   1.638
 8521SOL    HW126462   1.750   0.362   1.552
 8521SOL    HW226463   1.822   0.312   1.689
 8522SOL     OW26464   2.479   0.163   4.496
 8522SOL    HW126465   2.436   0.086   4.449
 8522SOL    HW226466   2.476   0.148   4.595
 8523SOL     OW26467   1.604   6.569   6.602
 8523SOL    HW126468   1.586   6.570   6.700
 8523SOL    HW226469   1.541   6.505   6.557
 8524SOL     OW26470   1.304   1.396   6.422
 8524SOL    HW126471   1.404   1.386   6.416
 8524SOL    HW226472   1.262   1.307   6.438
 8525SOL     OW26473   5.480   3.907   3.669
 8525SOL    HW126474   5.449   3.891   3.762
 8525SOL    HW226475   5.441   3.838   3.608
 8526SOL     OW26476   2.112   3.580   2.234
 8526SOL    HW126477   2.154   3.533   2.157
 8526SOL    HW226478   2.102   3.516   2.311
 8527SOL     OW26479   4.580   0.792   4.305
 8527SOL    HW126480   4.624   0.756   4.222
 8527SOL    HW226481   4.643   0.852   4.353
 8528SOL     OW26482   5.673   1.551   6.807
 8528SOL    HW126483   5.606   1.587   6.743
 8528SOL    HW226484   5.630   1.484   6.867
 8529SOL     OW26485   6.767   5.691   5.769
 8529SOL    HW126486   6.703   5.725   5.700
 8529SOL    HW226487   6.779   5.592   5.758
 8530SOL     OW26488   2.132   4.833   6.208
 8530SOL    HW126489   2.192   4.851   6.286
 8530SOL    HW226490   2.096   4.919   6.173
 8531SOL     OW26491   4.292   4.739   1.972
 8531SOL    HW126492   4.367   4.673   1.972
 8531SOL    HW226493   4.218   4.706   1.913
 8532SOL     OW26494   1.237   4.150   0.924
 8532SOL    HW126495   1.199   4.232   0.967
 8532SOL    HW226496   1.298   4.104   0.988
 8533SOL     OW26497   4.227   6.410   5.598
 8533SOL    HW126498   4.323   6.420   5.624
 8533SOL    HW226499   4.220   6.395   5.500
 8534SOL     OW26500   1.877   2.765   1.850
 8534SOL    HW126501   1.835   2.855   1.837
 8534SOL    HW226502   1.976   2.773   1.843
 8535SOL     OW26503   0.461   3.379   5.207
 8535SOL    HW126504   0.376   3.364   5.257
 8535SOL    HW226505   0.466   3.316   5.129
 8536SOL     OW26506   5.901   1.384   5.447
 8536SOL    HW126507   5.994   1.420   5.454
 8536SOL    HW226508   5.900   1.308   5.382
 8537SOL     OW26509   4.666   6.604   2.870
 8537SOL    HW126510   4.593   6.562   2.925
 8537SOL    HW226511   4.674   6.700   2.894
 8538SOL     OW26512   5.463   0.498   5.621
 8538SOL    HW126513   5.471   0.405   5.657
 8538SOL    HW226514   5.498   0.563   5.688
 8539SOL     OW26515   0.427   3.288   2.800
 8539SOL    HW126516   0.372   3.211   2.767
 8539SOL    HW226517   0.389   3.373   2.765
 8540SOL     OW26518   4.078   6.942   6.544
 8540SOL    HW126519   4.133   7.010   6.495
 8540SOL    HW226520   4.044   6.873   6.479
 8541SOL     OW26521   2.786   6.472   5.167
 8541SOL    HW126522   2.739   6.506   5.248
 8541SOL    HW226523   2.812   6.549   5.109
 8542SOL     OW26524   1.388   5.058   5.090
 8542SOL    HW126525   1.413   5.037   5.184
 8542SOL    HW226526   1.293   5.032   5.074
 8543SOL     OW26527   2.794   2.418   5.500
 8543SOL    HW126528   2.836   2.509   5.504
 8543SOL    HW226529   2.862   2.351   5.470
 8544SOL     OW26530   5.253   4.805   5.061
 8544SOL    HW126531   5.290   4.822   5.153
 8544SOL    HW226532   5.183   4.873   5.040
 8545SOL     OW26533   2.015   6.946   6.462
 8545SOL    HW126534   1.978   6.879   6.526
 8545SOL    HW226535   2.041   6.901   6.377
 8546SOL     OW26536   4.484   1.562   3.912
 8546SOL    HW126537   4.520   1.469   3.913
 8546SOL    HW226538   4.549   1.622   3.864
 8547SOL     OW26539   5.795   6.176   5.783
 8547SOL    HW126540   5.746   6.099   5.741
 8547SOL    HW226541   5.730   6.249   5.803
 8548SOL     OW26542   1.484   4.586   4.383
 8548SOL    HW126543   1.456   4.583   4.287
 8548SOL    HW226544   1.560   4.650   4.394
 8549SOL     OW26545   1.632   0.656   3.830
 8549SOL    HW126546   1.691   0.575   3.826
 8549SOL    HW226547   1.677   0.727   3.884
 8550SOL     OW26548   6.994   4.497   6.130
 8550SOL    HW126549   6.912   4.553   6.140
 8550SOL    HW226550   0.001   4.495   6.034
 8551SOL     OW26551   3.793   0.729   4.884
 8551SOL    HW126552   3.747   0.710   4.797
 8551SOL    HW226553   3.733   0.785   4.942
 8552SOL     OW26554   3.461   1.568   1.717
 8552SOL    HW126555   3.433   1.509   1.793
 8552SOL    HW226556   3.380   1.609   1.674
 8553SOL     OW26557   4.948   3.764   0.560
 8553SOL    HW126558   4.905   3.762   0.650
 8553SOL    HW226559   4.935   3.676   0.514
 8554SOL     OW26560   1.661   0.650   6.610
 8554SOL    HW126561   1.694   0.615   6.697
 8554SOL    HW226562   1.580   0.598   6.581
 8555SOL     OW26563   3.598   1.883   3.346
 8555SOL    HW126564   3.692   1.849   3.343
 8555SOL    HW226565   3.548   1.851   3.266
 8556SOL     OW26566   0.468   5.409   5.582
 8556SOL    HW126567   0.528   5.331   5.563
 8556SOL    HW226568   0.379   5.375   5.612
 8557SOL     OW26569   6.686   1.068   6.343
 8557SOL    HW126570   6.708   1.150   6.395
 8557SOL    HW226571   6.611   1.019   6.387
 8558SOL     OW26572   3.133   5.901   3.956
 8558SOL    HW126573   3.039   5.890   3.988
 8558SOL    HW226574   3.190   5.831   3.998
 8559SOL     OW26575   1.696   3.431   2.452
 8559SOL    HW126576   1.772   3.367   2.451
 8559SOL    HW226577   1.719   3.508   2.512
 8560SOL     OW26578   3.475   4.058   1.254
 8560SOL    HW126579   3.379   4.071   1.230
 8560SOL    HW226580   3.497   4.111   1.336
 8561SOL     OW26581   3.237   0.795   2.980
 8561SOL    HW126582   3.274   0.884   2.953
 8561SOL    HW226583   3.265   0.774   3.073
 8562SOL     OW26584   5.702   2.133   0.029
 8562SOL    HW126585   5.751   2.089   6.974
 8562SOL    HW226586   5.630   2.192   7.012
 8563SOL     OW26587   2.509   5.256   2.548
 8563SOL    HW126588   2.564   5.258   2.464
 8563SOL    HW226589   2.437   5.326   2.541
 8564SOL     OW26590   3.668   6.135   0.724
 8564SOL    HW126591   3.588   6.088   0.689
 8564SOL    HW226592   3.668   6.230   0.693
 8565SOL     OW26593   1.147   4.843   1.066
 8565SOL    HW126594   1.180   4.858   1.160
 8565SOL    HW226595   1.052   4.873   1.059
 8566SOL     OW26596   3.221   0.721   3.498
 8566SOL    HW126597   3.156   0.648   3.479
 8566SOL    HW226598   3.250   0.717   3.594
 8567SOL     OW26599   1.741   2.645   2.302
 8567SOL    HW126600   1.644   2.635   2.279
 8567SOL    HW226601   1.791   2.677   2.222
 8568SOL     OW26602   6.079   0.964   5.936
 8568SOL    HW126603   6.098   1.036   5.870
 8568SOL    HW226604   6.032   0.888   5.890
 8569SOL     OW26605   5.010   1.940   0.372
 8569SOL    HW126606   5.085   1.963   0.310
 8569SOL    HW226607   4.928   1.918   0.318
 8570SOL     OW26608   2.241   1.841   2.633
 8570SOL    HW126609   2.238   1.770   2.703
 8570SOL    HW226610   2.269   1.800   2.546
 8571SOL     OW26611   1.523   0.764   3.112
 8571SOL    HW126612   1.614   0.792   3.141
 8571SOL    HW226613   1.455   0.819   3.161
 8572SOL     OW26614   2.886   3.718   6.313
 8572SOL    HW126615   2.933   3.689   6.229
 8572SOL    HW226616   2.887   3.817   6.319
 8573SOL     OW26617   1.998   5.987   6.182
 8573SOL    HW126618   1.992   5.916   6.253
 8573SOL    HW226619   1.914   6.041   6.183
 8574SOL     OW26620   5.017   1.087   5.391
 8574SOL    HW126621   5.077   1.148   5.339
 8574SOL    HW226622   5.060   1.063   5.477
 8575SOL     OW26623   3.353   6.316   4.070
 8575SOL    HW126624   3.307   6.248   4.015
 8575SOL    HW226625   3.406   6.271   4.142
 8576SOL     OW26626   1.744   4.578   4.193
 8576SOL    HW126627   1.771   4.495   4.242
 8576SOL    HW226628   1.658   4.562   4.144
 8577SOL     OW26629   1.683   0.657   0.415
 8577SOL    HW126630   1.685   0.639   0.316
 8577SOL    HW226631   1.701   0.754   0.432
 8578SOL     OW26632   1.247   6.888   5.906
 8578SOL    HW126633   1.309   6.909   5.830
 8578SOL    HW226634   1.301   6.858   5.985
 8579SOL     OW26635   3.078   0.028   2.474
 8579SOL    HW126636   3.008   0.096   2.456
 8579SOL    HW226637   3.143   0.026   2.397
 8580SOL     OW26638   1.730   0.741   1.995
 8580SOL    HW126639   1.644   0.719   1.949
 8580SOL    HW226640   1.781   0.657   2.011
 8581SOL     OW26641   3.893   3.733   1.871
 8581SOL    HW126642   3.913   3.729   1.969
 8581SOL    HW226643   3.853   3.821   1.849
 8582SOL     OW26644   4.083   5.196   5.817
 8582SOL    HW126645   4.175   5.178   5.851
 8582SOL    HW226646   4.020   5.207   5.894
 8583SOL     OW26647   3.222   6.432   2.747
 8583SOL    HW126648   3.176   6.483   2.820
 8583SOL    HW226649   3.231   6.491   2.667
 8584SOL     OW26650   6.341   1.571   4.761
 8584SOL    HW126651   6.400   1.641   4.722
 8584SOL    HW226652   6.298   1.519   4.687
 8585SOL     OW26653   5.213   2.846   2.588
 8585SOL    HW126654   5.258   2.811   2.670
 8585SOL    HW226655   5.150   2.777   2.552
 8586SOL     OW26656   6.145   5.802   5.512
 8586SOL    HW126657   6.105   5.787   5.602
 8586SOL    HW226658   6.176   5.715   5.474
 8587SOL     OW26659   6.682   1.264   6.545
 8587SOL    HW126660   6.642   1.327   6.478
 8587SOL    HW226661   6.624   1.261   6.626
 8588SOL     OW26662   1.861   0.936   5.316
 8588SOL    HW126663   1.843   0.846   5.354
 8588SOL    HW226664   1.949   0.935   5.269
 8589SOL     OW26665   5.776   2.968   0.217
 8589SOL    HW126666   5.784   2.869   0.227
 8589SOL    HW226667   5.851   3.003   0.162
 8590SOL     OW26668   0.683   1.952   3.785
 8590SOL    HW126669   0.767   1.992   3.749
 8590SOL    HW226670   0.700   1.858   3.813
 8591SOL     OW26671   0.003   4.354   5.354
 8591SOL    HW126672   0.004   4.296   5.273
 8591SOL    HW226673   0.086   4.410   5.356
 8592SOL     OW26674   6.971   1.852   4.344
 8592SOL    HW126675   6.893   1.907   4.376
 8592SOL    HW226676   6.941   1.758   4.329
 8593SOL     OW26677   6.095   1.100   6.885
 8593SOL    HW126678   6.173   1.108   6.947
 8593SOL    HW226679   6.030   1.034   6.922
 8594SOL     OW26680   6.254   3.901   6.056
 8594SOL    HW126681   6.154   3.894   6.048
 8594SOL    HW226682   6.277   3.943   6.144
 8595SOL     OW26683   5.269   5.847   3.135
 8595SOL    HW126684   5.176   5.812   3.137
 8595SOL    HW226685   5.282   5.913   3.209
 8596SOL     OW26686   0.905   2.479   4.905
 8596SOL    HW126687   0.814   2.481   4.862
 8596SOL    HW226688   0.935   2.385   4.914
 8597SOL     OW26689   5.984   2.778   6.301
 8597SOL    HW126690   5.922   2.736   6.235
 8597SOL    HW226691   5.941   2.780   6.391
 8598SOL     OW26692   6.872   0.288   5.189
 8598SOL    HW126693   6.943   0.358   5.202
 8598SOL    HW226694   6.888   0.240   5.104
 8599SOL     OW26695   6.135   3.899   5.087
 8599SOL    HW126696   6.100   3.904   4.994
 8599SOL    HW226697   6.152   3.803   5.111
 8600SOL     OW26698   4.528   2.710   1.813
 8600SOL    HW126699   4.598   2.670   1.872
 8600SOL    HW226700   4.531   2.809   1.820
 8601SOL     OW26701   6.400   6.019   3.068
 8601SOL    HW126702   6.387   6.099   3.126
 8601SOL    HW226703   6.399   6.047   2.972
 8602SOL     OW26704   1.871   0.031   5.303
 8602SOL    HW126705   1.896   0.111   5.358
 8602SOL    HW226706   1.772   0.022   5.299
 8603SOL     OW26707   0.252   0.613   6.618
 8603SOL    HW126708   0.293   0.528   6.650
 8603SOL    HW226709   0.206   0.596   6.530
 8604SOL     OW26710   2.070   5.318   5.882
 8604SOL    HW126711   2.013   5.289   5.806
 8604SOL    HW226712   2.025   5.392   5.932
 8605SOL     OW26713   0.232   4.998   3.788
 8605SOL    HW126714   0.151   5.056   3.782
 8605SOL    HW226715   0.218   4.927   3.857
 8606SOL     OW26716   1.479   1.055   0.014
 8606SOL    HW126717   1.553   1.021   6.977
 8606SOL    HW226718   1.505   1.046   0.111
 8607SOL     OW26719   2.942   3.382   1.353
 8607SOL    HW126720   2.982   3.466   1.317
 8607SOL    HW226721   3.015   3.319   1.380
 8608SOL     OW26722   1.802   5.737   2.417
 8608SOL    HW126723   1.829   5.706   2.508
 8608SOL    HW226724   1.714   5.697   2.393
 8609SOL     OW26725   4.902   1.973   4.235
 8609SOL    HW126726   4.819   2.003   4.281
 8609SOL    HW226727   4.975   2.039   4.251
 8610SOL     OW26728   0.067   6.084   2.785
 8610SOL    HW126729   0.021   6.016   2.842
 8610SOL    HW226730   0.154   6.047   2.752
 8611SOL     OW26731   1.737   1.366   5.136
 8611SOL    HW126732   1.831   1.335   5.147
 8611SOL    HW226733   1.729   1.462   5.163
 8612SOL     OW26734   3.246   2.934   4.808
 8612SOL    HW126735   3.322   2.906   4.750
 8612SOL    HW226736   3.249   2.883   4.894
 8613SOL     OW26737   3.744   2.999   3.056
 8613SOL    HW126738   3.764   2.959   2.966
 8613SOL    HW226739   3.788   3.089   3.063
 8614SOL     OW26740   0.719   2.697   3.553
 8614SOL    HW126741   0.753   2.614   3.509
 8614SOL    HW226742   0.731   2.775   3.492
 8615SOL     OW26743   3.158   2.109   5.472
 8615SOL    HW126744   3.109   2.069   5.394
 8615SOL    HW226745   3.254   2.123   5.447
 8616SOL     OW26746   5.644   4.180   4.742
 8616SOL    HW126747   5.723   4.236   4.766
 8616SOL    HW226748   5.586   4.230   4.677
 8617SOL     OW26749   1.397   6.638   3.018
 8617SOL    HW126750   1.330   6.570   3.048
 8617SOL    HW226751   1.465   6.595   2.959
 8618SOL     OW26752   5.737   4.238   0.881
 8618SOL    HW126753   5.783   4.249   0.793
 8618SOL    HW226754   5.729   4.141   0.903
 8619SOL     OW26755   5.491   5.810   0.618
 8619SOL    HW126756   5.421   5.792   0.550
 8619SOL    HW226757   5.574   5.759   0.596
 8620SOL     OW26758   2.134   6.931   3.888
 8620SOL    HW126759   2.107   6.861   3.954
 8620SOL    HW226760   2.233   6.927   3.873
 8621SOL     OW26761   5.801   3.318   1.966
 8621SOL    HW126762   5.722   3.377   1.979
 8621SOL    HW226763   5.775   3.238   1.911
 8622SOL     OW26764   0.534   5.610   2.802
 8622SOL    HW126765   0.603   5.589   2.871
 8622SOL    HW226766   0.556   5.697   2.758
 8623SOL     OW26767   1.825   2.451   3.924
 8623SOL    HW126768   1.823   2.391   3.844
 8623SOL    HW226769   1.883   2.530   3.904
 8624SOL     OW26770   3.426   3.760   5.075
 8624SOL    HW126771   3.497   3.831   5.082
 8624SOL    HW226772   3.339   3.803   5.050
 8625SOL     OW26773   4.364   2.978   5.786
 8625SOL    HW126774   4.288   3.028   5.827
 8625SOL    HW226775   4.329   2.897   5.739
 8626SOL     OW26776   4.443   1.838   1.753
 8626SOL    HW126777   4.394   1.842   1.840
 8626SOL    HW226778   4.540   1.824   1.770
 8627SOL     OW26779   1.987   0.634   2.150
 8627SOL    HW126780   2.025   0.543   2.164
 8627SOL    HW226781   1.942   0.665   2.234
 8628SOL     OW26782   0.704   6.768   0.380
 8628SOL    HW126783   0.745   6.679   0.398
 8628SOL    HW226784   0.702   6.784   0.281
 8629SOL     OW26785   0.505   6.968   4.594
 8629SOL    HW126786   0.594   7.006   4.568
 8629SOL    HW226787   0.515   6.913   4.676
 8630SOL     OW26788   5.005   2.688   2.542
 8630SOL    HW126789   4.916   2.721   2.573
 8630SOL    HW226790   5.020   2.595   2.574
 8631SOL     OW26791   2.226   5.972   6.032
 8631SOL    HW126792   2.146   5.976   6.092
 8631SOL    HW226793   2.237   5.879   5.998
 8632SOL     OW26794   5.799   5.698   4.180
 8632SOL    HW126795   5.873   5.650   4.132
 8632SOL    HW226796   5.779   5.784   4.132
 8633SOL     OW26797   5.838   3.648   5.179
 8633SOL    HW126798   5.870   3.682   5.090
 8633SOL    HW226799   5.916   3.622   5.235
 8634SOL     OW26800   4.965   4.058   6.699
 8634SOL    HW126801   4.995   4.055   6.795
 8634SOL    HW226802   4.927   3.969   6.674
 8635SOL     OW26803   5.336   2.657   0.215
 8635SOL    HW126804   5.361   2.586   0.150
 8635SOL    HW226805   5.418   2.691   0.261
 8636SOL     OW26806   4.476   6.062   1.767
 8636SOL    HW126807   4.503   6.022   1.855
 8636SOL    HW226808   4.388   6.107   1.777
 8637SOL     OW26809   1.831   1.964   6.548
 8637SOL    HW126810   1.743   2.012   6.556
 8637SOL    HW226811   1.887   2.009   6.478
 8638SOL     OW26812   4.941   3.423   3.661
 8638SOL    HW126813   4.929   3.432   3.760
 8638SOL    HW226814   4.915   3.508   3.616
 8639SOL     OW26815   3.225   3.653   0.256
 8639SOL    HW126816   3.265   3.739   0.291
 8639SOL    HW226817   3.297   3.599   0.213
 8640SOL     OW26818   3.814   2.244   0.449
 8640SOL    HW126819   3.770   2.162   0.484
 8640SOL    HW226820   3.891   2.269   0.508
 8641SOL     OW26821   3.669   5.394   2.374
 8641SOL    HW126822   3.762   5.367   2.351
 8641SOL    HW226823   3.627   5.325   2.433
 8642SOL     OW26824   1.723   5.785   2.763
 8642SOL    HW126825   1.691   5.691   2.750
 8642SOL    HW226826   1.651   5.849   2.737
 8643SOL     OW26827   3.677   6.694   1.175
 8643SOL    HW126828   3.650   6.780   1.218
 8643SOL    HW226829   3.774   6.698   1.150
 8644SOL     OW26830   6.408   2.656   6.059
 8644SOL    HW126831   6.436   2.730   5.997
 8644SOL    HW226832   6.322   2.617   6.027
 8645SOL     OW26833   5.747   5.961   2.942
 8645SOL    HW126834   5.707   6.018   2.870
 8645SOL    HW226835   5.846   5.960   2.932
 8646SOL     OW26836   6.981   2.610   5.529
 8646SOL    HW126837   0.053   2.642   5.552
 8646SOL    HW226838   6.988   2.524   5.478
 8647SOL     OW26839   1.954   5.243   1.846
 8647SOL    HW126840   1.901   5.165   1.812
 8647SOL    HW226841   2.018   5.273   1.775
 8648SOL     OW26842   4.801   5.161   0.599
 8648SOL    HW126843   4.721   5.116   0.639
 8648SOL    HW226844   4.839   5.104   0.527
 8649SOL     OW26845   5.166   1.253   0.574
 8649SOL    HW126846   5.174   1.342   0.531
 8649SOL    HW226847   5.073   1.239   0.606
 8650SOL     OW26848   2.055   0.205   5.427
 8650SOL    HW126849   2.065   0.111   5.459
 8650SOL    HW226850   2.117   0.220   5.350
 8651SOL     OW26851   3.825   2.224   1.541
 8651SOL    HW126852   3.815   2.309   1.593
 8651SOL    HW226853   3.737   2.200   1.500
 8652SOL     OW26854   0.660   2.932   3.320
 8652SOL    HW126855   0.598   3.008   3.343
 8652SOL    HW226856   0.740   2.936   3.380
 8653SOL     OW26857   5.557   1.298   6.474
 8653SOL    HW126858   5.522   1.389   6.453
 8653SOL    HW226859   5.653   1.305   6.503
 8654SOL     OW26860   0.239   4.247   3.054
 8654SOL    HW126861   0.249   4.330   3.109
 8654SOL    HW226862   0.329   4.218   3.022
 8655SOL     OW26863   0.911   0.297   4.913
 8655SOL    HW126864   0.866   0.367   4.858
 8655SOL    HW226865   0.848   0.222   4.931
 8656SOL     OW26866   4.784   6.531   0.711
 8656SOL    HW126867   4.726   6.613   0.705
 8656SOL    HW226868   4.805   6.499   0.619
 8657SOL     OW26869   3.129   2.087   2.913
 8657SOL    HW126870   3.068   2.104   2.991
 8657SOL    HW226871   3.220   2.063   2.947
 8658SOL     OW26872   5.984   4.853   1.520
 8658SOL    HW126873   6.021   4.945   1.509
 8658SOL    HW226874   5.892   4.850   1.482
 8659SOL     OW26875   3.880   0.824   2.242
 8659SOL    HW126876   3.930   0.739   2.226
 8659SOL    HW226877   3.932   0.881   2.307
 8660SOL     OW26878   0.484   4.501   1.742
 8660SOL    HW126879   0.487   4.600   1.746
 8660SOL    HW226880   0.457   4.464   1.831
 8661SOL     OW26881   6.942   3.640   2.247
 8661SOL    HW126882   6.919   3.651   2.150
 8661SOL    HW226883   6.883   3.697   2.303
 8662SOL     OW26884   1.352   2.594   2.702
 8662SOL    HW126885   1.307   2.590   2.613
 8662SOL    HW226886   1.440   2.641   2.692
 8663SOL     OW26887   3.826   5.039   2.644
 8663SOL    HW126888   3.858   4.949   2.615
 8663SOL    HW226889   3.854   5.108   2.577
 8664SOL     OW26890   4.021   6.367   3.744
 8664SOL    HW126891   4.090   6.430   3.779
 8664SOL    HW226892   3.977   6.407   3.664
 8665SOL     OW26893   4.851   3.826   6.642
 8665SOL    HW126894   4.790   3.878   6.582
 8665SOL    HW226895   4.812   3.735   6.658
 8666SOL     OW26896   4.564   0.598   2.952
 8666SOL    HW126897   4.622   0.533   3.002
 8666SOL    HW226898   4.468   0.573   2.965
 8667SOL     OW26899   4.985   2.659   2.235
 8667SOL    HW126900   4.989   2.659   2.335
 8667SOL    HW226901   5.019   2.746   2.200
 8668SOL     OW26902   4.816   2.465   4.573
 8668SOL    HW126903   4.827   2.366   4.576
 8668SOL    HW226904   4.719   2.487   4.560
 8669SOL     OW26905   6.677   6.145   6.267
 8669SOL    HW126906   6.619   6.065   6.281
 8669SOL    HW226907   6.719   6.140   6.176
 8670SOL     OW26908   6.507   4.911   5.406
 8670SOL    HW126909   6.470   4.977   5.340
 8670SOL    HW226910   6.523   4.824   5.359
 8671SOL     OW26911   0.024   3.139   3.276
 8671SOL    HW126912   0.013   3.139   3.176
 8671SOL    HW226913   6.958   3.113   3.319
 8672SOL     OW26914   0.011   1.719   2.430
 8672SOL    HW126915   6.948   1.692   2.381
 8672SOL    HW226916   0.008   1.818   2.448
 8673SOL     OW26917   1.312   1.783   1.274
 8673SOL    HW126918   1.264   1.819   1.194
 8673SOL    HW226919   1.405   1.759   1.249
 8674SOL     OW26920   6.985   4.075   2.779
 8674SOL    HW126921   0.046   4.016   2.783
 8674SOL    HW226922   7.013   4.168   2.754
 8675SOL     OW26923   4.299   2.340   4.784
 8675SOL    HW126924   4.399   2.338   4.793
 8675SOL    HW226925   4.258   2.364   4.872
 8676SOL     OW26926   4.978   1.850   1.474
 8676SOL    HW126927   5.007   1.939   1.509
 8676SOL    HW226928   4.976   1.853   1.374
 8677SOL     OW26929   2.424   6.870   5.926
 8677SOL    HW126930   2.462   6.818   5.850
 8677SOL    HW226931   2.469   6.843   6.011
 8678SOL     OW26932   2.740   1.999   0.486
 8678SOL    HW126933   2.655   2.023   0.439
 8678SOL    HW226934   2.780   1.918   0.443
 8679SOL     OW26935   1.012   1.497   6.665
 8679SOL    HW126936   1.052   1.406   6.678
 8679SOL    HW226937   1.021   1.550   6.749
 8680SOL     OW26938   0.218   0.176   0.525
 8680SOL    HW126939   0.135   0.208   0.479
 8680SOL    HW226940   0.254   0.095   0.478
 8681SOL     OW26941   4.900   4.852   1.426
 8681SOL    HW126942   4.998   4.859   1.410
 8681SOL    HW226943   4.883   4.805   1.512
 8682SOL     OW26944   2.546   1.000   2.592
 8682SOL    HW126945   2.594   0.931   2.646
 8682SOL    HW226946   2.502   0.956   2.514
 8683SOL     OW26947   2.515   4.650   4.487
 8683SOL    HW126948   2.562   4.590   4.551
 8683SOL    HW226949   2.435   4.603   4.449
 8684SOL     OW26950   2.632   4.639   3.420
 8684SOL    HW126951   2.582   4.571   3.368
 8684SOL    HW226952   2.629   4.616   3.517
 8685SOL     OW26953   4.950   3.102   4.502
 8685SOL    HW126954   4.955   3.010   4.542
 8685SOL    HW226955   4.903   3.098   4.414
 8686SOL     OW26956   1.485   5.539   3.262
 8686SOL    HW126957   1.399   5.582   3.235
 8686SOL    HW226958   1.482   5.518   3.359
 8687SOL     OW26959   6.065   4.592   4.990
 8687SOL    HW126960   6.097   4.529   4.919
 8687SOL    HW226961   5.966   4.582   5.001
 8688SOL     OW26962   1.619   3.996   5.137
 8688SOL    HW126963   1.611   3.897   5.125
 8688SOL    HW226964   1.703   4.028   5.094
 8689SOL     OW26965   4.299   3.343   0.825
 8689SOL    HW126966   4.370   3.279   0.797
 8689SOL    HW226967   4.216   3.293   0.850
 8690SOL     OW26968   1.287   1.314   2.492
 8690SOL    HW126969   1.221   1.386   2.471
 8690SOL    HW226970   1.365   1.354   2.541
 8691SOL     OW26971   3.346   2.401   6.224
 8691SOL    HW126972   3.427   2.393   6.282
 8691SOL    HW226973   3.354   2.483   6.167
 8692SOL     OW26974   5.081   3.245   4.140
 8692SOL    HW126975   5.119   3.177   4.077
 8692SOL    HW226976   5.154   3.305   4.172
 8693SOL     OW26977   6.464   6.646   5.725
 8693SOL    HW126978   6.538   6.661   5.660
 8693SOL    HW226979   6.389   6.598   5.679
 8694SOL     OW26980   5.067   3.224   5.624
 8694SOL    HW126981   4.971   3.223   5.596
 8694SOL    HW226982   5.091   3.137   5.667
 8695SOL     OW26983   3.333   4.992   0.700
 8695SOL    HW126984   3.370   4.900   0.716
 8695SOL    HW226985   3.359   5.052   0.775
 8696SOL     OW26986   2.296   5.708   6.005
 8696SOL    HW126987   2.371   5.642   6.015
 8696SOL    HW226988   2.217   5.678   6.059
 8697SOL     OW26989   0.852   3.814   5.126
 8697SOL    HW126990   0.857   3.773   5.217
 8697SOL    HW226991   0.943   3.844   5.098
 8698SOL     OW26992   4.484   4.756   6.427
 8698SOL    HW126993   4.471   4.672   6.375
 8698SOL    HW226994   4.431   4.751   6.512
 8699SOL     OW26995   1.923   2.494   0.501
 8699SOL    HW126996   1.854   2.558   0.534
 8699SOL    HW226997   1.882   2.430   0.437
 8700SOL     OW26998   0.754   1.320   4.715
 8700SOL    HW126999   0.813   1.399   4.700
 8700SOL    HW227000   0.659   1.351   4.722
 8701SOL     OW27001   1.365   3.257   6.599
 8701SOL    HW127002   1.412   3.313   6.667
 8701SOL    HW227003   1.299   3.198   6.644
 8702SOL     OW27004   5.754   4.497   1.185
 8702SOL    HW127005   5.849   4.473   1.203
 8702SOL    HW227006   5.702   4.413   1.165
 8703SOL     OW27007   2.633   5.657   1.367
 8703SOL    HW127008   2.554   5.619   1.318
 8703SOL    HW227009   2.704   5.587   1.377
 8704SOL     OW27010   0.146   1.313   4.798
 8704SOL    HW127011   0.147   1.248   4.874
 8704SOL    HW227012   0.053   1.321   4.762
 8705SOL     OW27013   3.859   2.083   0.030
 8705SOL    HW127014   3.892   2.167   7.007
 8705SOL    HW227015   3.905   2.004   7.009
 8706SOL     OW27016   4.749   2.338   6.637
 8706SOL    HW127017   4.766   2.305   6.544
 8706SOL    HW227018   4.815   2.410   6.659
 8707SOL     OW27019   1.677   1.267   4.467
 8707SOL    HW127020   1.634   1.181   4.441
 8707SOL    HW227021   1.742   1.295   4.397
 8708SOL     OW27022   5.838   2.228   0.768
 8708SOL    HW127023   5.811   2.312   0.720
 8708SOL    HW227024   5.930   2.239   0.805
 8709SOL     OW27025   6.397   6.339   4.347
 8709SOL    HW127026   6.368   6.433   4.329
 8709SOL    HW227027   6.316   6.283   4.364
 8710SOL     OW27028   2.065   1.930   3.530
 8710SOL    HW127029   2.009   1.852   3.502
 8710SOL    HW227030   2.081   1.925   3.629
 8711SOL     OW27031   1.483   1.246   2.061
 8711SOL    HW127032   1.480   1.146   2.059
 8711SOL    HW227033   1.462   1.282   1.970
 8712SOL     OW27034   0.997   4.453   4.213
 8712SOL    HW127035   1.039   4.370   4.177
 8712SOL    HW227036   0.986   4.445   4.312
 8713SOL     OW27037   0.581   3.608   2.054
 8713SOL    HW127038   0.584   3.621   1.955
 8713SOL    HW227039   0.544   3.518   2.074
 8714SOL     OW27040   5.821   4.470   6.701
 8714SOL    HW127041   5.776   4.443   6.616
 8714SOL    HW227042   5.787   4.560   6.730
 8715SOL     OW27043   2.176   4.908   1.650
 8715SOL    HW127044   2.097   4.949   1.695
 8715SOL    HW227045   2.239   4.870   1.718
 8716SOL     OW27046   6.300   0.131   1.787
 8716SOL    HW127047   6.286   0.058   1.854
 8716SOL    HW227048   6.375   0.105   1.725
 8717SOL     OW27049   3.228   2.720   0.315
 8717SOL    HW127050   3.232   2.746   0.412
 8717SOL    HW227051   3.316   2.738   0.272
 8718SOL     OW27052   2.773   5.156   6.708
 8718SOL    HW127053   2.782   5.179   6.611
 8718SOL    HW227054   2.805   5.233   6.764
 8719SOL     OW27055   3.223   1.499   4.914
 8719SOL    HW127056   3.322   1.486   4.917
 8719SOL    HW227057   3.189   1.512   5.008
 8720SOL     OW27058   1.146   5.710   4.629
 8720SOL    HW127059   1.198   5.795   4.641
 8720SOL    HW227060   1.205   5.640   4.589
 8721SOL     OW27061   1.036   6.882   0.582
 8721SOL    HW127062   1.053   6.938   0.501
 8721SOL    HW227063   0.978   6.933   0.645
 8722SOL     OW27064   3.064   0.990   0.700
 8722SOL    HW127065   3.002   1.065   0.721
 8722SOL    HW227066   3.147   0.999   0.754
 8723SOL     OW27067   4.289   6.597   2.123
 8723SOL    HW127068   4.364   6.539   2.155
 8723SOL    HW227069   4.227   6.616   2.199
 8724SOL     OW27070   3.492   1.523   4.910
 8724SOL    HW127071   3.485   1.572   4.997
 8724SOL    HW227072   3.548   1.576   4.846
 8725SOL     OW27073   6.534   0.341   3.165
 8725SOL    HW127074   6.434   0.342   3.171
 8725SOL    HW227075   6.568   0.254   3.200
 8726SOL     OW27076   6.442   0.603   0.774
 8726SOL    HW127077   6.369   0.666   0.801
 8726SOL    HW227078   6.430   0.576   0.678
 8727SOL     OW27079   5.279   6.160   0.021
 8727SOL    HW127080   5.216   6.236   0.035
 8727SOL    HW227081   5.263   6.120   6.951
 8728SOL     OW27082   6.151   6.850   4.431
 8728SOL    HW127083   6.054   6.834   4.454
 8728SOL    HW227084   6.203   6.862   4.516
 8729SOL     OW27085   5.579   5.798   5.928
 8729SOL    HW127086   5.546   5.877   5.980
 8729SOL    HW227087   5.670   5.817   5.891
 8730SOL     OW27088   4.311   4.553   1.629
 8730SOL    HW127089   4.391   4.556   1.690
 8730SOL    HW227090   4.340   4.524   1.538
 8731SOL     OW27091   0.026   1.739   3.997
 8731SOL    HW127092   6.967   1.679   4.011
 8731SOL    HW227093   0.010   1.826   4.044
 8732SOL     OW27094   5.071   6.081   5.922
 8732SOL    HW127095   5.121   6.090   5.835
 8732SOL    HW227096   4.977   6.052   5.903
 8733SOL     OW27097   6.391   4.647   2.442
 8733SOL    HW127098   6.384   4.627   2.344
 8733SOL    HW227099   6.307   4.693   2.472
 8734SOL     OW27100   1.387   4.558   0.646
 8734SOL    HW127101   1.408   4.648   0.682
 8734SOL    HW227102   1.466   4.524   0.594
 8735SOL     OW27103   1.232   2.980   5.797
 8735SOL    HW127104   1.231   3.079   5.813
 8735SOL    HW227105   1.198   2.933   5.878
 8736SOL     OW27106   1.752   5.604   3.260
 8736SOL    HW127107   1.653   5.599   3.249
 8736SOL    HW227108   1.791   5.661   3.188
 8737SOL     OW27109   0.235   5.686   6.898
 8737SOL    HW127110   0.164   5.754   6.915
 8737SOL    HW227111   0.229   5.655   6.803
 8738SOL     OW27112   2.103   2.503   2.229
 8738SOL    HW127113   2.062   2.585   2.188
 8738SOL    HW227114   2.170   2.530   2.298
 8739SOL     OW27115   5.610   4.651   3.867
 8739SOL    HW127116   5.610   4.644   3.967
 8739SOL    HW227117   5.618   4.560   3.828
 8740SOL     OW27118   3.402   1.898   3.598
 8740SOL    HW127119   3.384   1.996   3.601
 8740SOL    HW227120   3.501   1.883   3.601
 8741SOL     OW27121   1.066   1.466   2.469
 8741SOL    HW127122   1.041   1.515   2.385
 8741SOL    HW227123   1.001   1.489   2.542
 8742SOL     OW27124   2.668   2.535   1.768
 8742SOL    HW127125   2.597   2.553   1.836
 8742SOL    HW227126   2.754   2.512   1.815
 8743SOL     OW27127   0.736   3.249   0.666
 8743SOL    HW127128   0.710   3.264   0.761
 8743SOL    HW227129   0.707   3.328   0.611
 8744SOL     OW27130   3.607   4.010   5.895
 8744SOL    HW127131   3.677   3.939   5.890
 8744SOL    HW227132   3.519   3.969   5.916
 8745SOL     OW27133   5.737   1.614   6.184
 8745SOL    HW127134   5.837   1.622   6.192
 8745SOL    HW227135   5.714   1.568   6.098
 8746SOL     OW27136   4.067   4.957   5.142
 8746SOL    HW127137   4.049   4.995   5.052
 8746SOL    HW227138   3.996   4.891   5.165
 8747SOL     OW27139   1.192   0.709   2.678
 8747SOL    HW127140   1.180   0.641   2.606
 8747SOL    HW227141   1.154   0.797   2.647
 8748SOL     OW27142   5.575   1.855   4.796
 8748SOL    HW127143   5.513   1.927   4.827
 8748SOL    HW227144   5.522   1.778   4.763
 8749SOL     OW27145   2.653   1.176   4.185
 8749SOL    HW127146   2.607   1.133   4.263
 8749SOL    HW227147   2.706   1.254   4.216
 8750SOL     OW27148   4.162   3.629   1.491
 8750SOL    HW127149   4.217   3.585   1.561
 8750SOL    HW227150   4.081   3.574   1.472
 8751SOL     OW27151   2.415   6.772   0.413
 8751SOL    HW127152   2.333   6.790   0.467
 8751SOL    HW227153   2.493   6.819   0.454
 8752SOL     OW27154   6.965   3.086   5.926
 8752SOL    HW127155   6.976   3.035   5.840
 8752SOL    HW227156   6.977   3.023   6.003
 8753SOL     OW27157   2.159   1.712   0.797
 8753SOL    HW127158   2.062   1.734   0.807
 8753SOL    HW227159   2.203   1.711   0.887
 8754SOL     OW27160   0.940   5.562   6.552
 8754SOL    HW127161   1.039   5.567   6.539
 8754SOL    HW227162   0.917   5.481   6.605
 8755SOL     OW27163   0.342   2.604   1.970
 8755SOL    HW127164   0.343   2.530   1.902
 8755SOL    HW227165   0.327   2.691   1.924
 8756SOL     OW27166   1.465   1.590   2.308
 8756SOL    HW127167   1.387   1.652   2.314
 8756SOL    HW227168   1.474   1.540   2.394
 8757SOL     OW27169   5.613   6.202   5.471
 8757SOL    HW127170   5.536   6.214   5.408
 8757SOL    HW227171   5.579   6.201   5.565
 8758SOL     OW27172   3.886   5.883   5.701
 8758SOL    HW127173   3.905   5.916   5.609
 8758SOL    HW227174   3.801   5.925   5.735
 8759SOL     OW27175   6.147   1.083   2.015
 8759SOL    HW127176   6.180   1.049   1.927
 8759SOL    HW227177   6.122   1.179   2.006
 8760SOL     OW27178   2.478   2.178   4.081
 8760SOL    HW127179   2.481   2.206   4.177
 8760SOL    HW227180   2.384   2.189   4.047
 8761SOL     OW27181   4.669   2.193   2.686
 8761SOL    HW127182   4.758   2.173   2.646
 8761SOL    HW227183   4.658   2.292   2.695
 8762SOL     OW27184   4.049   6.148   2.690
 8762SOL    HW127185   4.020   6.243   2.701
 8762SOL    HW227186   3.977   6.096   2.645
 8763SOL     OW27187   0.124   1.451   5.547
 8763SOL    HW127188   0.209   1.467   5.597
 8763SOL    HW227189   0.110   1.525   5.481
 8764SOL     OW27190   3.501   5.201   6.043
 8764SOL    HW127191   3.414   5.214   5.995
 8764SOL    HW227192   3.550   5.123   6.004
 8765SOL     OW27193   3.748   6.765   3.759
 8765SOL    HW127194   3.694   6.838   3.800
 8765SOL    HW227195   3.815   6.804   3.696
 8766SOL     OW27196   5.289   6.795   5.174
 8766SOL    HW127197   5.257   6.736   5.100
 8766SOL    HW227198   5.254   6.888   5.161
 8767SOL     OW27199   1.779   1.488   3.590
 8767SOL    HW127200   1.776   1.485   3.690
 8767SOL    HW227201   1.874   1.497   3.560
 8768SOL     OW27202   6.672   1.532   0.278
 8768SOL    HW127203   6.677   1.505   0.182
 8768SOL    HW227204   6.765   1.543   0.315
 8769SOL     OW27205   6.149   0.030   6.430
 8769SOL    HW127206   6.175   6.973   6.372
 8769SOL    HW227207   6.178   0.012   6.524
 8770SOL     OW27208   4.902   2.279   0.264
 8770SOL    HW127209   4.858   2.190   0.283
 8770SOL    HW227210   4.994   2.264   0.229
 8771SOL     OW27211   0.785   2.925   6.323
 8771SOL    HW127212   0.834   2.930   6.410
 8771SOL    HW227213   0.701   2.872   6.336
 8772SOL     OW27214   0.219   0.202   4.045
 8772SOL    HW127215   0.139   0.261   4.056
 8772SOL    HW227216   0.242   0.161   4.134
 8773SOL     OW27217   0.381   1.614   3.225
 8773SOL    HW127218   0.410   1.535   3.279
 8773SOL    HW227219   0.287   1.599   3.194
 8774SOL     OW27220   0.970   1.942   6.921
 8774SOL    HW127221   0.930   1.965   7.010
 8774SOL    HW227222   1.032   2.014   6.892
 8775SOL     OW27223   5.449   2.432   3.097
 8775SOL    HW127224   5.437   2.497   3.171
 8775SOL    HW227225   5.530   2.456   3.044
 8776SOL     OW27226   4.845   2.593   0.941
 8776SOL    HW127227   4.879   2.678   0.901
 8776SOL    HW227228   4.832   2.606   1.040
 8777SOL     OW27229   6.713   2.364   3.652
 8777SOL    HW127230   6.715   2.289   3.718
 8777SOL    HW227231   6.638   2.349   3.587
 8778SOL     OW27232   3.259   3.714   6.908
 8778SOL    HW127233   3.262   3.629   6.962
 8778SOL    HW227234   3.169   3.722   6.865
 8779SOL     OW27235   3.802   5.389   2.685
 8779SOL    HW127236   3.765   5.470   2.640
 8779SOL    HW227237   3.741   5.362   2.760
 8780SOL     OW27238   1.105   4.089   3.802
 8780SOL    HW127239   1.187   4.056   3.849
 8780SOL    HW227240   1.066   4.015   3.748
 8781SOL     OW27241   2.379   0.796   0.883
 8781SOL    HW127242   2.472   0.823   0.857
 8781SOL    HW227243   2.331   0.761   0.804
 8782SOL     OW27244   6.028   2.371   0.946
 8782SOL    HW127245   5.937   2.411   0.953
 8782SOL    HW227246   6.057   2.371   0.850
 8783SOL     OW27247   4.827   4.330   4.763
 8783SOL    HW127248   4.736   4.372   4.764
 8783SOL    HW227249   4.839   4.273   4.844
 8784SOL     OW27250   4.434   0.799   6.993
 8784SOL    HW127251   4.363   0.859   6.956
 8784SOL    HW227252   4.470   0.741   6.920
 8785SOL     OW27253   6.825   5.431   5.723
 8785SOL    HW127254   6.891   5.377   5.777
 8785SOL    HW227255   6.815   5.389   5.633
 8786SOL     OW27256   5.704   1.656   3.102
 8786SOL    HW127257   5.779   1.670   3.038
 8786SOL    HW227258   5.617   1.655   3.053
 8787SOL     OW27259   3.403   5.555   1.540
 8787SOL    HW127260   3.375   5.520   1.450
 8787SOL    HW227261   3.338   5.624   1.571
 8788SOL     OW27262   0.420   6.097   4.321
 8788SOL    HW127263   0.379   6.098   4.412
 8788SOL    HW227264   0.358   6.141   4.256
 8789SOL     OW27265   1.425   2.592   6.256
 8789SOL    HW127266   1.376   2.666   6.303
 8789SOL    HW227267   1.513   2.577   6.301
 8790SOL     OW27268   4.474   2.585   5.077
 8790SOL    HW127269   4.379   2.601   5.102
 8790SOL    HW227270   4.501   2.492   5.102
 8791SOL     OW27271   4.060   6.259   4.583
 8791SOL    HW127272   3.983   6.241   4.522
 8791SOL    HW227273   4.104   6.172   4.607
 8792SOL     OW27274   5.568   5.309   1.750
 8792SOL    HW127275   5.505   5.232   1.760
 8792SOL    HW227276   5.590   5.346   1.840
 8793SOL     OW27277   6.608   6.063   5.712
 8793SOL    HW127278   6.629   5.984   5.654
 8793SOL    HW227279   6.511   6.087   5.702
 8794SOL     OW27280   0.151   1.624   2.647
 8794SOL    HW127281   0.102   1.676   2.576
 8794SOL    HW227282   0.248   1.648   2.644
 8795SOL     OW27283   1.300   6.295   6.846
 8795SOL    HW127284   1.315   6.357   6.923
 8795SOL    HW227285   1.234   6.224   6.872
 8796SOL     OW27286   5.850   3.714   4.899
 8796SOL    HW127287   5.834   3.657   4.818
 8796SOL    HW227288   5.803   3.801   4.889
 8797SOL     OW27289   5.065   5.959   4.203
 8797SOL    HW127290   5.128   5.895   4.160
 8797SOL    HW227291   5.113   6.009   4.276
 8798SOL     OW27292   2.472   6.435   5.474
 8798SOL    HW127293   2.451   6.363   5.407
 8798SOL    HW227294   2.560   6.477   5.452
 8799SOL     OW27295   1.383   5.783   1.919
 8799SOL    HW127296   1.319   5.721   1.873
 8799SOL    HW227297   1.474   5.771   1.879
 8800SOL     OW27298   6.539   5.964   4.088
 8800SOL    HW127299   6.526   6.028   4.012
 8800SOL    HW227300   6.502   5.874   4.063
 8801SOL     OW27301   5.612   3.696   5.800
 8801SOL    HW127302   5.703   3.670   5.834
 8801SOL    HW227303   5.542   3.654   5.857
 8802SOL     OW27304   1.647   5.796   6.225
 8802SOL    HW127305   1.573   5.792   6.292
 8802SOL    HW227306   1.646   5.886   6.180
 8803SOL     OW27307   5.941   5.905   5.359
 8803SOL    HW127308   5.943   6.003   5.378
 8803SOL    HW227309   6.010   5.858   5.413
 8804SOL     OW27310   1.115   6.110   2.136
 8804SOL    HW127311   1.069   6.073   2.056
 8804SOL    HW227312   1.139   6.036   2.198
 8805SOL     OW27313   5.227   5.051   3.194
 8805SOL    HW127314   5.276   5.002   3.266
 8805SOL    HW227315   5.257   5.147   3.192
 8806SOL     OW27316   1.384   0.397   1.872
 8806SOL    HW127317   1.401   0.495   1.881
 8806SOL    HW227318   1.380   0.356   1.963
 8807SOL     OW27319   5.506   2.534   0.762
 8807SOL    HW127320   5.421   2.489   0.789
 8807SOL    HW227321   5.573   2.465   0.736
 8808SOL     OW27322   2.297   2.154   0.123
 8808SOL    HW127323   2.239   2.197   0.192
 8808SOL    HW227324   2.267   2.183   0.032
 8809SOL     OW27325   6.782   3.367   3.182
 8809SOL    HW127326   6.762   3.313   3.100
 8809SOL    HW227327   6.828   3.452   3.155
 8810SOL     OW27328   0.501   1.856   5.362
 8810SOL    HW127329   0.463   1.846   5.454
 8810SOL    HW227330   0.428   1.874   5.297
 8811SOL     OW27331   4.187   4.759   2.382
 8811SOL    HW127332   4.232   4.678   2.421
 8811SOL    HW227333   4.102   4.731   2.337
 8812SOL     OW27334   5.157   1.005   0.080
 8812SOL    HW127335   5.205   0.933   0.130
 8812SOL    HW227336   5.134   1.080   0.142
 8813SOL     OW27337   2.152   3.261   2.575
 8813SOL    HW127338   2.055   3.244   2.555
 8813SOL    HW227339   2.173   3.229   2.667
 8814SOL     OW27340   5.458   6.591   5.245
 8814SOL    HW127341   5.409   6.522   5.192
 8814SOL    HW227342   5.415   6.680   5.231
 8815SOL     OW27343   5.098   0.880   1.152
 8815SOL    HW127344   5.109   0.885   1.251
 8815SOL    HW227345   5.001   0.875   1.129
 8816SOL     OW27346   0.388   6.743   3.787
 8816SOL    HW127347   0.339   6.808   3.846
 8816SOL    HW227348   0.482   6.733   3.821
 8817SOL     OW27349   1.329   2.763   3.181
 8817SOL    HW127350   1.350   2.675   3.222
 8817SOL    HW227351   1.254   2.806   3.231
 8818SOL     OW27352   0.834   6.672   5.598
 8818SOL    HW127353   0.806   6.599   5.660
 8818SOL    HW227354   0.819   6.643   5.504
 8819SOL     OW27355   4.962   5.705   6.092
 8819SOL    HW127356   4.942   5.631   6.156
 8819SOL    HW227357   4.878   5.733   6.045
 8820SOL     OW27358   4.305   0.132   5.505
 8820SOL    HW127359   4.363   0.146   5.586
 8820SOL    HW227360   4.242   0.209   5.495
 8821SOL     OW27361   0.785   5.029   6.118
 8821SOL    HW127362   0.811   4.956   6.056
 8821SOL    HW227363   0.686   5.024   6.136
 8822SOL     OW27364   6.171   0.236   4.815
 8822SOL    HW127365   6.166   0.315   4.876
 8822SOL    HW227366   6.090   0.179   4.827
 8823SOL     OW27367   3.945   1.781   2.687
 8823SOL    HW127368   3.986   1.868   2.716
 8823SOL    HW227369   3.853   1.774   2.724
 8824SOL     OW27370   1.595   0.253   3.165
 8824SOL    HW127371   1.542   0.325   3.119
 8824SOL    HW227372   1.535   0.201   3.226
 8825SOL     OW27373   0.283   0.115   0.138
 8825SOL    HW127374   0.203   0.056   0.126
 8825SOL    HW227375   0.360   0.078   0.087
 8826SOL     OW27376   0.104   4.044   0.190
 8826SOL    HW127377   0.164   3.965   0.177
 8826SOL    HW227378   0.157   4.128   0.186
 8827SOL     OW27379   4.529   6.758   3.178
 8827SOL    HW127380   4.443   6.808   3.166
 8827SOL    HW227381   4.604   6.823   3.191
 8828SOL     OW27382   4.965   2.565   6.209
 8828SOL    HW127383   4.928   2.657   6.193
 8828SOL    HW227384   4.914   2.498   6.157
 8829SOL     OW27385   6.851   0.875   2.912
 8829SOL    HW127386   6.856   0.957   2.854
 8829SOL    HW227387   6.823   0.797   2.856
 8830SOL     OW27388   3.095   0.744   3.765
 8830SOL    HW127389   3.129   0.833   3.795
 8830SOL    HW227390   2.998   0.736   3.789
 8831SOL     OW27391   0.153   3.497   2.723
 8831SOL    HW127392   0.081   3.433   2.698
 8831SOL    HW227393   0.137   3.533   2.815
 8832SOL     OW27394   5.473   0.629   5.889
 8832SOL    HW127395   5.455   0.552   5.951
 8832SOL    HW227396   5.390   0.684   5.880
 8833SOL     OW27397   5.189   2.316   1.129
 8833SOL    HW127398   5.199   2.415   1.141
 8833SOL    HW227399   5.245   2.269   1.197
 8834SOL     OW27400   5.437   4.547   6.337
 8834SOL    HW127401   5.359   4.598   6.373
 8834SOL    HW227402   5.418   4.517   6.244
 8835SOL     OW27403   0.068   0.838   5.205
 8835SOL    HW127404   0.043   0.789   5.121
 8835SOL    HW227405   0.050   0.780   5.284
 8836SOL     OW27406   4.180   1.302   1.039
 8836SOL    HW127407   4.133   1.226   1.084
 8836SOL    HW227408   4.187   1.379   1.103
 8837SOL     OW27409   4.517   6.224   0.593
 8837SOL    HW127410   4.550   6.225   0.498
 8837SOL    HW227411   4.595   6.220   0.655
 8838SOL     OW27412   1.829   3.371   3.357
 8838SOL    HW127413   1.808   3.446   3.420
 8838SOL    HW227414   1.910   3.322   3.390
 8839SOL     OW27415   4.851   5.187   1.428
 8839SOL    HW127416   4.807   5.164   1.515
 8839SOL    HW227417   4.949   5.169   1.435
 8840SOL     OW27418   6.657   1.022   0.536
 8840SOL    HW127419   6.693   0.937   0.496
 8840SOL    HW227420   6.683   1.026   0.633
 8841SOL     OW27421   3.383   1.098   0.604
 8841SOL    HW127422   3.301   1.153   0.587
 8841SOL    HW227423   3.366   1.036   0.681
 8842SOL     OW27424   3.522   3.175   4.051
 8842SOL    HW127425   3.604   3.216   4.092
 8842SOL    HW227426   3.458   3.247   4.025
 8843SOL     OW27427   3.052   5.486   5.179
 8843SOL    HW127428   3.078   5.390   5.176
 8843SOL    HW227429   3.001   5.505   5.262
 8844SOL     OW27430   3.417   2.812   6.130
 8844SOL    HW127431   3.426   2.742   6.059
 8844SOL    HW227432   3.470   2.893   6.105
 8845SOL     OW27433   0.779   3.335   1.824
 8845SOL    HW127434   0.811   3.242   1.807
 8845SOL    HW227435   0.804   3.362   1.917
 8846SOL     OW27436   5.805   4.784   4.506
 8846SOL    HW127437   5.716   4.750   4.476
 8846SOL    HW227438   5.813   4.881   4.484
 8847SOL     OW27439   1.047   2.135   4.022
 8847SOL    HW127440   0.975   2.091   4.076
 8847SOL    HW227441   1.009   2.167   3.935
 8848SOL     OW27442   6.437   1.341   0.729
 8848SOL    HW127443   6.370   1.268   0.740
 8848SOL    HW227444   6.475   1.338   0.637
 8849SOL     OW27445   3.441   5.484   4.312
 8849SOL    HW127446   3.400   5.394   4.297
 8849SOL    HW227447   3.369   5.550   4.331
 8850SOL     OW27448   2.392   1.587   1.437
 8850SOL    HW127449   2.331   1.626   1.505
 8850SOL    HW227450   2.435   1.660   1.384
 8851SOL     OW27451   0.069   5.275   2.649
 8851SOL    HW127452   0.107   5.211   2.582
 8851SOL    HW227453   0.089   5.369   2.620
 8852SOL     OW27454   5.421   2.738   4.723
 8852SOL    HW127455   5.329   2.777   4.720
 8852SOL    HW227456   5.420   2.647   4.683
 8853SOL     OW27457   4.698   2.033   5.510
 8853SOL    HW127458   4.685   2.006   5.606
 8853SOL    HW227459   4.704   1.951   5.453
 8854SOL     OW27460   1.682   0.740   6.065
 8854SOL    HW127461   1.628   0.811   6.019
 8854SOL    HW227462   1.747   0.783   6.128
 8855SOL     OW27463   6.454   4.831   6.403
 8855SOL    HW127464   6.492   4.743   6.377
 8855SOL    HW227465   6.501   4.866   6.484
 8856SOL     OW27466   5.143   0.749   5.299
 8856SOL    HW127467   5.227   0.784   5.257
 8856SOL    HW227468   5.094   0.825   5.343
 8857SOL     OW27469   1.172   3.242   4.424
 8857SOL    HW127470   1.215   3.153   4.415
 8857SOL    HW227471   1.215   3.293   4.498
 8858SOL     OW27472   6.838   4.014   5.705
 8858SOL    HW127473   6.925   4.057   5.680
 8858SOL    HW227474   6.800   4.061   5.784
 8859SOL     OW27475   3.103   6.129   5.259
 8859SOL    HW127476   3.035   6.189   5.302
 8859SOL    HW227477   3.187   6.181   5.244
 8860SOL     OW27478   1.397   2.035   1.037
 8860SOL    HW127479   1.438   2.067   1.123
 8860SOL    HW227480   1.299   2.022   1.050
 8861SOL     OW27481   2.263   2.801   1.256
 8861SOL    HW127482   2.250   2.892   1.215
 8861SOL    HW227483   2.360   2.787   1.275
 8862SOL     OW27484   6.582   2.185   5.096
 8862SOL    HW127485   6.489   2.150   5.101
 8862SOL    HW227486   6.580   2.285   5.096
 8863SOL     OW27487   1.283   5.478   5.159
 8863SOL    HW127488   1.214   5.413   5.190
 8863SOL    HW227489   1.261   5.569   5.194
 8864SOL     OW27490   1.354   4.018   5.912
 8864SOL    HW127491   1.439   3.966   5.902
 8864SOL    HW227492   1.375   4.110   5.944
 8865SOL     OW27493   2.280   2.370   5.587
 8865SOL    HW127494   2.277   2.467   5.564
 8865SOL    HW227495   2.367   2.331   5.559
 8866SOL     OW27496   4.744   6.545   5.527
 8866SOL    HW127497   4.696   6.626   5.491
 8866SOL    HW227498   4.775   6.489   5.450
 8867SOL     OW27499   6.687   1.383   4.111
 8867SOL    HW127500   6.623   1.319   4.070
 8867SOL    HW227501   6.684   1.470   4.062
 8868SOL     OW27502   4.717   3.239   1.090
 8868SOL    HW127503   4.656   3.162   1.107
 8868SOL    HW227504   4.808   3.219   1.125
 8869SOL     OW27505   3.825   2.164   3.361
 8869SOL    HW127506   3.904   2.225   3.360
 8869SOL    HW227507   3.789   2.157   3.454
 8870SOL     OW27508   4.740   1.289   2.173
 8870SOL    HW127509   4.669   1.224   2.146
 8870SOL    HW227510   4.743   1.296   2.272
 8871SOL     OW27511   1.418   2.660   4.308
 8871SOL    HW127512   1.461   2.570   4.305
 8871SOL    HW227513   1.485   2.729   4.335
 8872SOL     OW27514   1.818   2.987   2.444
 8872SOL    HW127515   1.760   3.000   2.364
 8872SOL    HW227516   1.861   2.897   2.441
 8873SOL     OW27517   0.135   5.824   5.028
 8873SOL    HW127518   0.221   5.856   4.987
 8873SOL    HW227519   0.142   5.726   5.046
 8874SOL     OW27520   0.748   1.520   6.812
 8874SOL    HW127521   0.824   1.507   6.748
 8874SOL    HW227522   0.663   1.491   6.769
 8875SOL     OW27523   1.357   1.067   4.650
 8875SOL    HW127524   1.450   1.083   4.683
 8875SOL    HW227525   1.308   1.009   4.715
 8876SOL     OW27526   2.367   0.484   4.822
 8876SOL    HW127527   2.440   0.469   4.890
 8876SOL    HW227528   2.315   0.565   4.848
 8877SOL     OW27529   3.160   6.633   4.507
 8877SOL    HW127530   3.073   6.675   4.532
 8877SOL    HW227531   3.144   6.541   4.472
 8878SOL     OW27532   5.566   4.701   5.530
 8878SOL    HW127533   5.615   4.614   5.521
 8878SOL    HW227534   5.633   4.776   5.528
 8879SOL     OW27535   4.984   5.660   4.574
 8879SOL    HW127536   5.054   5.720   4.535
 8879SOL    HW227537   4.982   5.574   4.524
 8880SOL     OW27538   0.248   6.070   5.391
 8880SOL    HW127539   0.211   5.978   5.383
 8880SOL    HW227540   0.215   6.126   5.315
 8881SOL     OW27541   6.671   0.703   1.730
 8881SOL    HW127542   6.759   0.751   1.725
 8881SOL    HW227543   6.685   0.606   1.707
 8882SOL     OW27544   5.493   2.542   6.976
 8882SOL    HW127545   5.492   2.447   6.944
 8882SOL    HW227546   5.501   2.604   6.898
 8883SOL     OW27547   0.380   1.790   5.595
 8883SOL    HW127548   0.290   1.824   5.568
 8883SOL    HW227549   0.371   1.700   5.637
 8884SOL     OW27550   6.999   1.181   5.440
 8884SOL    HW127551   6.933   1.120   5.484
 8884SOL    HW227552   7.004   1.267   5.492
 8885SOL     OW27553   5.469   3.449   1.743
 8885SOL    HW127554   5.565   3.470   1.725
 8885SOL    HW227555   5.436   3.382   1.676
 8886SOL     OW27556   2.992   5.709   6.101
 8886SOL    HW127557   2.970   5.664   6.014
 8886SOL    HW227558   3.089   5.694   6.123
 8887SOL     OW27559   1.582   0.170   1.366
 8887SOL    HW127560   1.536   0.251   1.330
 8887SOL    HW227561   1.624   0.119   1.291
 8888SOL     OW27562   3.327   2.158   3.248
 8888SOL    HW127563   3.374   2.172   3.335
 8888SOL    HW227564   3.235   2.197   3.252
 8889SOL     OW27565   3.510   0.159   4.647
 8889SOL    HW127566   3.446   0.235   4.659
 8889SOL    HW227567   3.557   0.170   4.559
 8890SOL     OW27568   0.640   4.202   3.572
 8890SOL    HW127569   0.568   4.264   3.602
 8890SOL    HW227570   0.629   4.182   3.475
 8891SOL     OW27571   2.390   1.846   5.896
 8891SOL    HW127572   2.331   1.903   5.838
 8891SOL    HW227573   2.467   1.901   5.929
 8892SOL     OW27574   1.098   6.942   2.498
 8892SOL    HW127575   1.097   6.866   2.434
 8892SOL    HW227576   1.011   6.991   2.494
 8893SOL     OW27577   0.435   0.619   0.429
 8893SOL    HW127578   0.483   0.539   0.393
 8893SOL    HW227579   0.390   0.594   0.515
 8894SOL     OW27580   4.412   2.596   6.473
 8894SOL    HW127581   4.441   2.661   6.544
 8894SOL    HW227582   4.334   2.633   6.424
 8895SOL     OW27583   1.663   0.950   2.443
 8895SOL    HW127584   1.572   0.980   2.412
 8895SOL    HW227585   1.715   1.029   2.475
 8896SOL     OW27586   2.259   4.154   4.659
 8896SOL    HW127587   2.257   4.163   4.758
 8896SOL    HW227588   2.230   4.061   4.633
 8897SOL     OW27589   1.145   2.254   1.250
 8897SOL    HW127590   1.176   2.333   1.302
 8897SOL    HW227591   1.193   2.172   1.282
 8898SOL     OW27592   6.750   2.609   4.745
 8898SOL    HW127593   6.795   2.522   4.763
 8898SOL    HW227594   6.673   2.620   4.808
 8899SOL     OW27595   3.616   4.772   0.764
 8899SOL    HW127596   3.528   4.757   0.808
 8899SOL    HW227597   3.651   4.862   0.789
 8900SOL     OW27598   0.151   1.631   3.438
 8900SOL    HW127599   0.137   1.728   3.416
 8900SOL    HW227600   0.230   1.597   3.388
 8901SOL     OW27601   1.976   6.764   1.913
 8901SOL    HW127602   1.990   6.837   1.981
 8901SOL    HW227603   1.928   6.801   1.834
 8902SOL     OW27604   3.359   6.170   5.052
 8902SOL    HW127605   3.272   6.124   5.034
 8902SOL    HW227606   3.429   6.102   5.076
 8903SOL     OW27607   0.639   0.752   3.374
 8903SOL    HW127608   0.649   0.684   3.447
 8903SOL    HW227609   0.727   0.762   3.325
 8904SOL     OW27610   1.474   5.097   3.007
 8904SOL    HW127611   1.475   5.071   2.911
 8904SOL    HW227612   1.519   5.025   3.061
 8905SOL     OW27613   2.177   4.151   4.926
 8905SOL    HW127614   2.094   4.103   4.896
 8905SOL    HW227615   2.223   4.095   4.995
 8906SOL     OW27616   1.354   5.371   4.393
 8906SOL    HW127617   1.366   5.428   4.475
 8906SOL    HW227618   1.307   5.287   4.417
 8907SOL     OW27619   4.091   2.877   6.062
 8907SOL    HW127620   4.065   2.943   5.992
 8907SOL    HW227621   4.043   2.897   6.147
 8908SOL     OW27622   0.032   2.488   2.406
 8908SOL    HW127623   0.090   2.478   2.325
 8908SOL    HW227624   0.066   2.563   2.463
 8909SOL     OW27625   2.407   0.263   5.511
 8909SOL    HW127626   2.406   0.195   5.584
 8909SOL    HW227627   2.372   0.222   5.427
 8910SOL     OW27628   4.104   3.050   6.867
 8910SOL    HW127629   4.059   2.972   6.911
 8910SOL    HW227630   4.150   3.020   6.783
 8911SOL     OW27631   4.754   2.246   3.888
 8911SOL    HW127632   4.666   2.199   3.876
 8911SOL    HW227633   4.740   2.345   3.881
 8912SOL     OW27634   5.468   1.638   6.662
 8912SOL    HW127635   5.496   1.595   6.576
 8912SOL    HW227636   5.371   1.620   6.678
 8913SOL     OW27637   4.712   4.146   0.730
 8913SOL    HW127638   4.675   4.178   0.817
 8913SOL    HW227639   4.787   4.082   0.747
 8914SOL     OW27640   4.782   1.863   3.533
 8914SOL    HW127641   4.772   1.959   3.558
 8914SOL    HW227642   4.695   1.816   3.544
 8915SOL     OW27643   0.956   5.650   1.951
 8915SOL    HW127644   0.911   5.739   1.961
 8915SOL    HW227645   0.932   5.592   2.029
 8916SOL     OW27646   6.199   3.203   2.323
 8916SOL    HW127647   6.230   3.249   2.406
 8916SOL    HW227648   6.127   3.257   2.280
 8917SOL     OW27649   5.695   5.596   5.211
 8917SOL    HW127650   5.612   5.571   5.262
 8917SOL    HW227651   5.773   5.590   5.273
 8918SOL     OW27652   4.813   3.966   6.001
 8918SOL    HW127653   4.899   3.935   5.962
 8918SOL    HW227654   4.803   3.930   6.094
 8919SOL     OW27655   2.329   3.617   1.338
 8919SOL    HW127656   2.261   3.598   1.267
 8919SOL    HW227657   2.361   3.711   1.330
 8920SOL     OW27658   6.625   5.125   5.579
 8920SOL    HW127659   6.556   5.187   5.543
 8920SOL    HW227660   6.584   5.034   5.592
 8921SOL     OW27661   1.469   5.473   3.522
 8921SOL    HW127662   1.481   5.495   3.619
 8921SOL    HW227663   1.400   5.402   3.512
 8922SOL     OW27664   6.232   4.322   6.824
 8922SOL    HW127665   6.233   4.421   6.839
 8922SOL    HW227666   6.305   4.279   6.878
 8923SOL     OW27667   2.125   3.889   4.632
 8923SOL    HW127668   2.146   3.800   4.671
 8923SOL    HW227669   2.051   3.932   4.684
 8924SOL     OW27670   2.490   5.626   5.032
 8924SOL    HW127671   2.419   5.694   5.051
 8924SOL    HW227672   2.579   5.663   5.060
 8925SOL     OW27673   4.872   5.996   1.727
 8925SOL    HW127674   4.913   5.942   1.653
 8925SOL    HW227675   4.853   6.088   1.694
 8926SOL     OW27676   4.921   0.742   6.943
 8926SOL    HW127677   5.008   0.695   6.951
 8926SOL    HW227678   4.936   0.839   6.927
 8927SOL     OW27679   2.336   1.639   4.110
 8927SOL    HW127680   2.431   1.636   4.143
 8927SOL    HW227681   2.336   1.647   4.010
 8928SOL     OW27682   0.879   0.110   4.206
 8928SOL    HW127683   0.931   0.113   4.121
 8928SOL    HW227684   0.943   0.107   4.284
 8929SOL     OW27685   5.286   4.419   3.853
 8929SOL    HW127686   5.282   4.517   3.870
 8929SOL    HW227687   5.347   4.401   3.776
 8930SOL     OW27688   1.143   4.951   5.014
 8930SOL    HW127689   1.148   4.855   4.986
 8930SOL    HW227690   1.065   4.963   5.076
 8931SOL     OW27691   5.122   0.994   1.438
 8931SOL    HW127692   5.060   1.064   1.475
 8931SOL    HW227693   5.216   1.020   1.456
 8932SOL     OW27694   5.884   0.819   0.175
 8932SOL    HW127695   5.900   0.858   0.084
 8932SOL    HW227696   5.792   0.782   0.180
 8933SOL     OW27697   1.289   0.376   5.558
 8933SOL    HW127698   1.228   0.297   5.554
 8933SOL    HW227699   1.238   0.458   5.533
 8934SOL     OW27700   4.213   6.841   3.565
 8934SOL    HW127701   4.153   6.857   3.644
 8934SOL    HW227702   4.302   6.883   3.581
 8935SOL     OW27703   5.908   1.916   2.563
 8935SOL    HW127704   5.826   1.919   2.506
 8935SOL    HW227705   5.950   2.007   2.566
 8936SOL     OW27706   1.927   3.909   2.816
 8936SOL    HW127707   1.849   3.892   2.878
 8936SOL    HW227708   1.951   4.006   2.819
 8937SOL     OW27709   3.994   0.185   5.414
 8937SOL    HW127710   3.941   0.269   5.423
 8937SOL    HW227711   4.008   0.164   5.317
 8938SOL     OW27712   5.811   6.566   1.631
 8938SOL    HW127713   5.808   6.469   1.605
 8938SOL    HW227714   5.858   6.618   1.560
 8939SOL     OW27715   0.461   2.916   4.605
 8939SOL    HW127716   0.557   2.944   4.599
 8939SOL    HW227717   0.403   2.985   4.562
 8940SOL     OW27718   6.269   3.294   1.891
 8940SOL    HW127719   6.336   3.247   1.834
 8940SOL    HW227720   6.184   3.307   1.841
 8941SOL     OW27721   5.462   2.418   2.774
 8941SOL    HW127722   5.423   2.328   2.795
 8941SOL    HW227723   5.561   2.414   2.784
 8942SOL     OW27724   4.790   4.376   3.924
 8942SOL    HW127725   4.751   4.468   3.936
 8942SOL    HW227726   4.885   4.376   3.953
 8943SOL     OW27727   4.405   2.432   0.713
 8943SOL    HW127728   4.493   2.462   0.751
 8943SOL    HW227729   4.419   2.348   0.661
 8944SOL     OW27730   4.518   5.555   5.044
 8944SOL    HW127731   4.592   5.611   5.008
 8944SOL    HW227732   4.446   5.613   5.081
 8945SOL     OW27733   6.043   3.981   2.190
 8945SOL    HW127734   6.093   3.906   2.233
 8945SOL    HW227735   5.946   3.957   2.183
 8946SOL     OW27736   4.447   1.366   4.893
 8946SOL    HW127737   4.447   1.368   4.993
 8946SOL    HW227738   4.405   1.450   4.859
 8947SOL     OW27739   2.055   4.608   0.349
 8947SOL    HW127740   2.050   4.540   0.275
 8947SOL    HW227741   2.131   4.671   0.331
 8948SOL     OW27742   5.333   0.552   2.818
 8948SOL    HW127743   5.236   0.576   2.826
 8948SOL    HW227744   5.350   0.468   2.870
 8949SOL     OW27745   3.477   6.061   0.547
 8949SOL    HW127746   3.523   6.079   0.460
 8949SOL    HW227747   3.471   5.962   0.561
 8950SOL     OW27748   3.174   3.680   2.509
 8950SOL    HW127749   3.167   3.585   2.477
 8950SOL    HW227750   3.221   3.735   2.440
 8951SOL     OW27751   0.672   0.470   4.227
 8951SOL    HW127752   0.585   0.422   4.217
 8951SOL    HW227753   0.694   0.480   4.324
 8952SOL     OW27754   1.748   4.639   4.630
 8952SOL    HW127755   1.740   4.656   4.532
 8952SOL    HW227756   1.666   4.593   4.663
 8953SOL     OW27757   0.870   4.806   1.349
 8953SOL    HW127758   0.861   4.711   1.378
 8953SOL    HW227759   0.823   4.866   1.415
 8954SOL     OW27760   1.974   4.020   5.556
 8954SOL    HW127761   1.930   3.947   5.503
 8954SOL    HW227762   2.049   4.059   5.502
 8955SOL     OW27763   5.674   2.845   5.684
 8955SOL    HW127764   5.693   2.930   5.733
 8955SOL    HW227765   5.585   2.851   5.639
 8956SOL     OW27766   0.765   6.025   1.027
 8956SOL    HW127767   0.815   6.075   1.098
 8956SOL    HW227768   0.830   5.989   0.960
 8957SOL     OW27769   1.109   6.738   2.280
 8957SOL    HW127770   1.144   6.644   2.278
 8957SOL    HW227771   1.099   6.771   2.186
 8958SOL     OW27772   0.619   4.199   4.563
 8958SOL    HW127773   0.676   4.117   4.571
 8958SOL    HW227774   0.537   4.177   4.509
 8959SOL     OW27775   5.759   2.140   4.058
 8959SOL    HW127776   5.825   2.071   4.028
 8959SOL    HW227777   5.799   2.231   4.048
 8960SOL     OW27778   5.418   5.262   2.843
 8960SOL    HW127779   5.449   5.328   2.912
 8960SOL    HW227780   5.498   5.213   2.806
 8961SOL     OW27781   2.649   1.694   4.820
 8961SOL    HW127782   2.712   1.754   4.772
 8961SOL    HW227783   2.691   1.663   4.906
 8962SOL     OW27784   6.351   5.635   2.105
 8962SOL    HW127785   6.385   5.542   2.090
 8962SOL    HW227786   6.279   5.634   2.174
 8963SOL     OW27787   2.874   6.439   6.017
 8963SOL    HW127788   2.814   6.360   6.020
 8963SOL    HW227789   2.856   6.498   6.096
 8964SOL     OW27790   2.196   3.188   3.732
 8964SOL    HW127791   2.190   3.286   3.712
 8964SOL    HW227792   2.176   3.172   3.829
 8965SOL     OW27793   4.233   5.806   0.509
 8965SOL    HW127794   4.267   5.829   0.600
 8965SOL    HW227795   4.283   5.726   0.474
 8966SOL     OW27796   5.441   6.908   5.513
 8966SOL    HW127797   5.367   6.858   5.468
 8966SOL    HW227798   5.529   6.869   5.485
 8967SOL     OW27799   3.087   0.195   3.291
 8967SOL    HW127800   3.072   0.103   3.328
 8967SOL    HW227801   3.041   0.262   3.349
 8968SOL     OW27802   3.542   4.945   2.311
 8968SOL    HW127803   3.449   4.938   2.348
 8968SOL    HW227804   3.540   4.932   2.212
 8969SOL     OW27805   6.913   1.065   2.722
 8969SOL    HW127806   6.997   1.010   2.727
 8969SOL    HW227807   6.895   1.089   2.627
 8970SOL     OW27808   1.959   1.217   3.606
 8970SOL    HW127809   1.949   1.222   3.507
 8970SOL    HW227810   2.026   1.284   3.637
 8971SOL     OW27811   3.223   4.070   1.172
 8971SOL    HW127812   3.228   3.995   1.106
 8971SOL    HW227813   3.127   4.090   1.193
 8972SOL     OW27814   5.215   4.089   6.564
 8972SOL    HW127815   5.124   4.112   6.598
 8972SOL    HW227816   5.218   3.992   6.538
 8973SOL     OW27817   2.594   2.071   2.900
 8973SOL    HW127818   2.495   2.071   2.885
 8973SOL    HW227819   2.635   2.151   2.857
 8974SOL     OW27820   1.997   4.341   4.060
 8974SOL    HW127821   2.030   4.342   4.155
 8974SOL    HW227822   2.020   4.427   4.015
 8975SOL     OW27823   6.820   4.282   5.834
 8975SOL    HW127824   6.727   4.289   5.800
 8975SOL    HW227825   6.818   4.262   5.932
 8976SOL     OW27826   6.026   0.243   1.965
 8976SOL    HW127827   6.047   0.267   1.870
 8976SOL    HW227828   6.034   0.323   2.023
 8977SOL     OW27829   6.936   4.479   6.890
 8977SOL    HW127830   6.924   4.472   6.791
 8977SOL    HW227831   6.995   4.405   6.922
 8978SOL     OW27832   6.037   5.681   6.021
 8978SOL    HW127833   6.124   5.690   6.069
 8978SOL    HW227834   5.962   5.702   6.084
 8979SOL     OW27835   1.859   5.124   3.879
 8979SOL    HW127836   1.829   5.062   3.951
 8979SOL    HW227837   1.859   5.218   3.914
 8980SOL     OW27838   3.864   0.998   0.288
 8980SOL    HW127839   3.816   0.930   0.232
 8980SOL    HW227840   3.797   1.060   0.330
 8981SOL     OW27841   3.973   1.987   6.706
 8981SOL    HW127842   4.005   2.081   6.716
 8981SOL    HW227843   3.893   1.985   6.646
 8982SOL     OW27844   0.193   1.318   1.713
 8982SOL    HW127845   0.110   1.334   1.659
 8982SOL    HW227846   0.240   1.237   1.680
 8983SOL     OW27847   1.656   6.932   2.142
 8983SOL    HW127848   1.716   6.856   2.119
 8983SOL    HW227849   1.592   6.949   2.066
 8984SOL     OW27850   6.869   1.624   4.974
 8984SOL    HW127851   6.914   1.574   5.048
 8984SOL    HW227852   6.823   1.705   5.012
 8985SOL     OW27853   4.971   1.607   2.694
 8985SOL    HW127854   4.884   1.658   2.694
 8985SOL    HW227855   4.956   1.516   2.656
 8986SOL     OW27856   0.156   5.779   0.294
 8986SOL    HW127857   0.185   5.755   0.387
 8986SOL    HW227858   0.057   5.776   0.288
 8987SOL     OW27859   2.637   6.585   1.613
 8987SOL    HW127860   2.636   6.489   1.643
 8987SOL    HW227861   2.702   6.636   1.670
 8988SOL     OW27862   2.896   0.131   1.015
 8988SOL    HW127863   2.840   0.174   1.086
 8988SOL    HW227864   2.991   0.128   1.045
 8989SOL     OW27865   5.895   1.635   2.386
 8989SOL    HW127866   5.956   1.649   2.464
 8989SOL    HW227867   5.940   1.661   2.302
 8990SOL     OW27868   3.160   0.845   3.262
 8990SOL    HW127869   3.182   0.813   3.354
 8990SOL    HW227870   3.176   0.944   3.257
 8991SOL     OW27871   1.064   2.685   0.958
 8991SOL    HW127872   1.034   2.775   0.925
 8991SOL    HW227873   1.049   2.617   0.887
 8992SOL     OW27874   6.453   4.214   6.276
 8992SOL    HW127875   6.426   4.218   6.179
 8992SOL    HW227876   6.549   4.238   6.284
 8993SOL     OW27877   5.445   4.332   4.633
 8993SOL    HW127878   5.524   4.383   4.598
 8993SOL    HW227879   5.361   4.375   4.601
 8994SOL     OW27880   1.529   6.377   2.660
 8994SOL    HW127881   1.547   6.446   2.730
 8994SOL    HW227882   1.453   6.407   2.602
 8995SOL     OW27883   2.188   4.003   4.376
 8995SOL    HW127884   2.197   3.967   4.469
 8995SOL    HW227885   2.093   4.033   4.361
 8996SOL     OW27886   1.773   3.609   1.317
 8996SOL    HW127887   1.725   3.668   1.381
 8996SOL    HW227888   1.868   3.597   1.345
 8997SOL     OW27889   4.269   0.984   5.509
 8997SOL    HW127890   4.234   1.072   5.478
 8997SOL    HW227891   4.263   0.979   5.609
 8998SOL     OW27892   0.663   1.663   6.129
 8998SOL    HW127893   0.689   1.640   6.035
 8998SOL    HW227894   0.685   1.587   6.190
 8999SOL     OW27895   5.279   2.664   5.602
 8999SOL    HW127896   5.220   2.668   5.522
 8999SOL    HW227897   5.314   2.755   5.623
 9000SOL     OW27898   3.774   4.956   0.520
 9000SOL    HW127899   3.868   4.989   0.506
 9000SOL    HW227900   3.772   4.856   0.513
 9001SOL     OW27901   2.070   4.148   3.386
 9001SOL    HW127902   2.144   4.213   3.368
 9001SOL    HW227903   2.075   4.117   3.481
 9002SOL     OW27904   5.429   4.315   5.426
 9002SOL    HW127905   5.428   4.225   5.471
 9002SOL    HW227906   5.420   4.386   5.495
 9003SOL     OW27907   6.282   3.073   6.550
 9003SOL    HW127908   6.244   3.045   6.639
 9003SOL    HW227909   6.225   3.036   6.477
 9004SOL     OW27910   4.781   5.553   1.185
 9004SOL    HW127911   4.762   5.455   1.182
 9004SOL    HW227912   4.708   5.603   1.140
 9005SOL     OW27913   5.163   2.929   3.705
 9005SOL    HW127914   5.179   2.956   3.799
 9005SOL    HW227915   5.148   2.830   3.701
 9006SOL     OW27916   2.154   6.872   1.104
 9006SOL    HW127917   2.091   6.840   1.033
 9006SOL    HW227918   2.209   6.947   1.069
 9007SOL     OW27919   2.261   6.203   5.036
 9007SOL    HW127920   2.350   6.158   5.029
 9007SOL    HW227921   2.192   6.136   5.061
 9008SOL     OW27922   0.655   4.325   2.637
 9008SOL    HW127923   0.700   4.269   2.568
 9008SOL    HW227924   0.680   4.292   2.728
 9009SOL     OW27925   4.287   6.196   6.890
 9009SOL    HW127926   4.268   6.120   6.953
 9009SOL    HW227927   4.267   6.282   6.935
 9010SOL     OW27928   0.160   5.246   4.665
 9010SOL    HW127929   0.143   5.340   4.638
 9010SOL    HW227930   0.187   5.192   4.585
 9011SOL     OW27931   4.563   2.451   2.658
 9011SOL    HW127932   4.602   2.524   2.602
 9011SOL    HW227933   4.475   2.423   2.621
 9012SOL     OW27934   5.245   5.105   2.302
 9012SOL    HW127935   5.336   5.102   2.260
 9012SOL    HW227936   5.254   5.111   2.401
 9013SOL     OW27937   4.603   6.413   2.665
 9013SOL    HW127938   4.649   6.482   2.721
 9013SOL    HW227939   4.572   6.455   2.580
 9014SOL     OW27940   2.398   0.551   1.231
 9014SOL    HW127941   2.478   0.526   1.177
 9014SOL    HW227942   2.403   0.505   1.320
 9015SOL     OW27943   6.164   1.836   4.861
 9015SOL    HW127944   6.170   1.775   4.941
 9015SOL    HW227945   6.250   1.887   4.853
 9016SOL     OW27946   6.697   5.735   6.329
 9016SOL    HW127947   6.679   5.667   6.401
 9016SOL    HW227948   6.703   5.689   6.241
 9017SOL     OW27949   0.125   3.882   3.057
 9017SOL    HW127950   0.183   3.909   2.981
 9017SOL    HW227951   0.056   3.953   3.073
 9018SOL     OW27952   3.820   1.830   6.030
 9018SOL    HW127953   3.803   1.897   5.957
 9018SOL    HW227954   3.907   1.785   6.014
 9019SOL     OW27955   1.599   5.482   0.114
 9019SOL    HW127956   1.579   5.575   0.084
 9019SOL    HW227957   1.612   5.423   0.034
 9020SOL     OW27958   1.103   4.828   3.968
 9020SOL    HW127959   1.091   4.927   3.961
 9020SOL    HW227960   1.016   4.786   3.993
 9021SOL     OW27961   6.254   5.586   5.397
 9021SOL    HW127962   6.214   5.496   5.413
 9021SOL    HW227963   6.318   5.581   5.320
 9022SOL     OW27964   2.952   6.383   6.611
 9022SOL    HW127965   3.027   6.364   6.548
 9022SOL    HW227966   2.962   6.327   6.693
 9023SOL     OW27967   3.266   3.261   3.541
 9023SOL    HW127968   3.340   3.238   3.603
 9023SOL    HW227969   3.295   3.337   3.482
 9024SOL     OW27970   1.113   0.150   6.578
 9024SOL    HW127971   1.100   0.248   6.592
 9024SOL    HW227972   1.093   0.127   6.483
 9025SOL     OW27973   0.344   3.512   0.081
 9025SOL    HW127974   0.278   3.442   0.052
 9025SOL    HW227975   0.380   3.488   0.171
 9026SOL     OW27976   2.957   3.195   5.663
 9026SOL    HW127977   3.006   3.260   5.720
 9026SOL    HW227978   2.877   3.161   5.712
 9027SOL     OW27979   2.267   2.547   2.451
 9027SOL    HW127980   2.217   2.504   2.526
 9027SOL    HW227981   2.361   2.513   2.450
 9028SOL     OW27982   2.679   4.869   4.770
 9028SOL    HW127983   2.688   4.848   4.867
 9028SOL    HW227984   2.624   4.797   4.726
 9029SOL     OW27985   5.816   5.360   2.520
 9029SOL    HW127986   5.767   5.365   2.433
 9029SOL    HW227987   5.795   5.440   2.576
 9030SOL     OW27988   3.854   2.111   2.288
 9030SOL    HW127989   3.788   2.120   2.214
 9030SOL    HW227990   3.806   2.096   2.374
 9031SOL     OW27991   1.593   1.424   1.267
 9031SOL    HW127992   1.690   1.423   1.242
 9031SOL    HW227993   1.537   1.422   1.185
 9032SOL     OW27994   0.923   2.587   2.532
 9032SOL    HW127995   0.901   2.555   2.440
 9032SOL    HW227996   0.841   2.584   2.589
 9033SOL     OW27997   1.319   3.948   1.910
 9033SOL    HW127998   1.416   3.938   1.930
 9033SOL    HW227999   1.306   4.022   1.843
 9034SOL     OW28000   1.881   6.717   6.603
 9034SOL    HW128001   1.905   6.716   6.700
 9034SOL    HW228002   1.800   6.660   6.588
 9035SOL     OW28003   6.945   0.552   4.582
 9035SOL    HW128004   6.961   0.639   4.535
 9035SOL    HW228005   6.862   0.509   4.545
 9036SOL     OW28006   1.169   1.536   4.103
 9036SOL    HW128007   1.269   1.547   4.111
 9036SOL    HW228008   1.148   1.442   4.079
 9037SOL     OW28009   2.946   3.809   5.783
 9037SOL    HW128010   2.929   3.886   5.845
 9037SOL    HW228011   2.864   3.753   5.775
 9038SOL     OW28012   4.560   5.933   5.115
 9038SOL    HW128013   4.621   6.012   5.121
 9038SOL    HW228014   4.471   5.955   5.156
 9039SOL     OW28015   2.691   4.429   6.665
 9039SOL    HW128016   2.723   4.464   6.577
 9039SOL    HW228017   2.595   4.454   6.679
 9040SOL     OW28018   2.864   1.909   2.249
 9040SOL    HW128019   2.873   1.895   2.151
 9040SOL    HW228020   2.849   1.820   2.294
 9041SOL     OW28021   1.583   3.000   6.338
 9041SOL    HW128022   1.633   3.060   6.400
 9041SOL    HW228023   1.584   3.038   6.245
 9042SOL     OW28024   2.263   5.514   3.205
 9042SOL    HW128025   2.333   5.584   3.221
 9042SOL    HW228026   2.223   5.487   3.292
 9043SOL     OW28027   6.611   2.129   0.585
 9043SOL    HW128028   6.615   2.204   0.651
 9043SOL    HW228029   6.565   2.160   0.502
 9044SOL     OW28030   6.824   4.245   0.255
 9044SOL    HW128031   6.761   4.169   0.266
 9044SOL    HW228032   6.903   4.217   0.201
 9045SOL     OW28033   2.361   5.402   3.932
 9045SOL    HW128034   2.269   5.375   3.906
 9045SOL    HW228035   2.379   5.372   4.026
 9046SOL     OW28036   3.909   4.476   6.037
 9046SOL    HW128037   3.848   4.552   6.015
 9046SOL    HW228038   3.857   4.401   6.078
 9047SOL     OW28039   1.023   4.390   4.489
 9047SOL    HW128040   0.967   4.421   4.566
 9047SOL    HW228041   1.053   4.296   4.505
 9048SOL     OW28042   1.781   2.210   5.020
 9048SOL    HW128043   1.811   2.235   4.928
 9048SOL    HW228044   1.708   2.272   5.049
 9049SOL     OW28045   4.834   6.627   6.592
 9049SOL    HW128046   4.828   6.654   6.496
 9049SOL    HW228047   4.925   6.648   6.628
 9050SOL     OW28048   6.845   5.262   5.525
 9050SOL    HW128049   6.870   5.253   5.428
 9050SOL    HW228050   6.756   5.219   5.540
 9051SOL     OW28051   5.409   6.649   6.156
 9051SOL    HW128052   5.395   6.737   6.110
 9051SOL    HW228053   5.470   6.662   6.234
 9052SOL     OW28054   3.006   5.167   5.115
 9052SOL    HW128055   3.042   5.121   5.034
 9052SOL    HW228056   2.918   5.208   5.094
 9053SOL     OW28057   3.303   1.494   2.998
 9053SOL    HW128058   3.214   1.539   3.005
 9053SOL    HW228059   3.348   1.524   2.914
 9054SOL     OW28060   2.223   0.083   0.954
 9054SOL    HW128061   2.305   0.077   1.011
 9054SOL    HW228062   2.243   0.135   0.871
 9055SOL     OW28063   0.785   2.771   4.942
 9055SOL    HW128064   0.857   2.773   4.873
 9055SOL    HW228065   0.704   2.726   4.905
 9056SOL     OW28066   4.763   2.846   2.431
 9056SOL    HW128067   4.744   2.916   2.500
 9056SOL    HW228068   4.797   2.889   2.348
 9057SOL     OW28069   3.871   6.236   0.514
 9057SOL    HW128070   3.866   6.328   0.552
 9057SOL    HW228071   3.964   6.200   0.524
 9058SOL     OW28072   2.502   2.642   4.467
 9058SOL    HW128073   2.502   2.545   4.493
 9058SOL    HW228074   2.549   2.652   4.379
 9059SOL     OW28075   0.269   1.084   2.506
 9059SOL    HW128076   0.200   1.088   2.433
 9059SOL    HW228077   0.306   1.176   2.521
 9060SOL     OW28078   0.343   5.298   1.129
 9060SOL    HW128079   0.333   5.380   1.073
 9060SOL    HW228080   0.425   5.305   1.185
 9061SOL     OW28081   5.140   3.911   2.299
 9061SOL    HW128082   5.216   3.951   2.350
 9061SOL    HW228083   5.101   3.836   2.352
 9062SOL     OW28084   1.257   5.834   2.854
 9062SOL    HW128085   1.314   5.755   2.877
 9062SOL    HW228086   1.171   5.830   2.904
 9063SOL     OW28087   4.671   1.504   1.761
 9063SOL    HW128088   4.597   1.447   1.797
 9063SOL    HW228089   4.757   1.452   1.764
 9064SOL     OW28090   1.386   5.838   3.286
 9064SOL    HW128091   1.334   5.753   3.279
 9064SOL    HW228092   1.446   5.847   3.207
 9065SOL     OW28093   3.708   4.336   6.544
 9065SOL    HW128094   3.638   4.345   6.615
 9065SOL    HW228095   3.793   4.306   6.586
 9066SOL     OW28096   4.340   5.159   4.096
 9066SOL    HW128097   4.380   5.238   4.142
 9066SOL    HW228098   4.329   5.178   3.999
 9067SOL     OW28099   1.752   6.762   4.437
 9067SOL    HW128100   1.733   6.686   4.499
 9067SOL    HW228101   1.837   6.807   4.465
 9068SOL     OW28102   4.003   0.498   6.129
 9068SOL    HW128103   4.097   0.531   6.140
 9068SOL    HW228104   3.940   0.575   6.135
 9069SOL     OW28105   5.473   2.809   1.907
 9069SOL    HW128106   5.523   2.725   1.887
 9069SOL    HW228107   5.375   2.794   1.895
 9070SOL     OW28108   1.833   1.329   5.576
 9070SOL    HW128109   1.810   1.295   5.668
 9070SOL    HW228110   1.812   1.426   5.571
 9071SOL     OW28111   5.600   2.389   6.657
 9071SOL    HW128112   5.602   2.351   6.564
 9071SOL    HW228113   5.693   2.412   6.686
 9072SOL     OW28114   5.692   0.100   2.424
 9072SOL    HW128115   5.615   0.070   2.368
 9072SOL    HW228116   5.660   0.119   2.517
 9073SOL     OW28117   4.761   2.952   5.311
 9073SOL    HW128118   4.731   2.871   5.262
 9073SOL    HW228119   4.682   3.003   5.343
 9074SOL     OW28120   1.885   1.304   3.059
 9074SOL    HW128121   1.790   1.272   3.061
 9074SOL    HW228122   1.887   1.404   3.059
 9075SOL     OW28123   5.721   6.081   0.417
 9075SOL    HW128124   5.681   6.061   0.507
 9075SOL    HW228125   5.647   6.087   0.349
 9076SOL     OW28126   0.904   6.630   2.456
 9076SOL    HW128127   0.884   6.642   2.359
 9076SOL    HW228128   0.953   6.711   2.490
 9077SOL     OW28129   6.076   1.824   6.662
 9077SOL    HW128130   6.001   1.761   6.683
 9077SOL    HW228131   6.040   1.917   6.651
 9078SOL     OW28132   5.286   0.127   0.073
 9078SOL    HW128133   5.236   0.088   7.016
 9078SOL    HW228134   5.289   0.060   0.148
 9079SOL     OW28135   0.749   1.463   6.329
 9079SOL    HW128136   0.708   1.524   6.397
 9079SOL    HW228137   0.848   1.473   6.330
 9080SOL     OW28138   6.485   3.896   2.579
 9080SOL    HW128139   6.556   3.931   2.518
 9080SOL    HW228140   6.439   3.973   2.624
 9081SOL     OW28141   4.784   1.495   0.721
 9081SOL    HW128142   4.797   1.426   0.792
 9081SOL    HW228143   4.865   1.554   0.718
 9082SOL     OW28144   3.545   5.427   6.205
 9082SOL    HW128145   3.459   5.471   6.177
 9082SOL    HW228146   3.557   5.342   6.155
 9083SOL     OW28147   3.497   6.846   0.822
 9083SOL    HW128148   3.591   6.825   0.799
 9083SOL    HW228149   3.495   6.904   0.904
 9084SOL     OW28150   6.915   3.903   4.967
 9084SOL    HW128151   6.992   3.878   5.026
 9084SOL    HW228152   6.938   3.884   4.872
 9085SOL     OW28153   2.765   5.119   0.007
 9085SOL    HW128154   2.767   5.210   0.046
 9085SOL    HW228155   2.794   5.052   0.075
 9086SOL     OW28156   6.958   3.192   0.609
 9086SOL    HW128157   6.913   3.257   0.548
 9086SOL    HW228158   0.033   3.220   0.624
 9087SOL     OW28159   5.240   1.491   1.065
 9087SOL    HW128160   5.231   1.519   1.161
 9087SOL    HW228161   5.317   1.539   1.024
 9088SOL     OW28162   6.249   5.621   0.259
 9088SOL    HW128163   6.196   5.648   0.178
 9088SOL    HW228164   6.244   5.695   0.327
 9089SOL     OW28165   4.797   5.738   3.599
 9089SOL    HW128166   4.783   5.703   3.506
 9089SOL    HW228167   4.890   5.773   3.609
 9090SOL     OW28168   5.271   5.799   5.721
 9090SOL    HW128169   5.334   5.723   5.731
 9090SOL    HW228170   5.321   5.885   5.724
 9091SOL     OW28171   2.881   2.077   1.884
 9091SOL    HW128172   2.877   2.008   1.956
 9091SOL    HW228173   2.823   2.154   1.909
 9092SOL     OW28174   2.271   1.385   5.116
 9092SOL    HW128175   2.241   1.478   5.096
 9092SOL    HW228176   2.217   1.347   5.191
 9093SOL     OW28177   2.422   3.457   0.988
 9093SOL    HW128178   2.436   3.398   0.909
 9093SOL    HW228179   2.506   3.508   1.008
 9094SOL     OW28180   6.571   4.141   0.578
 9094SOL    HW128181   6.590   4.172   0.485
 9094SOL    HW228182   6.579   4.042   0.582
 9095SOL     OW28183   1.991   3.173   0.155
 9095SOL    HW128184   1.906   3.176   0.102
 9095SOL    HW228185   2.056   3.239   0.117
 9096SOL     OW28186   6.045   3.546   2.916
 9096SOL    HW128187   6.133   3.591   2.933
 9096SOL    HW228188   6.059   3.468   2.855
 9097SOL     OW28189   6.412   5.484   5.892
 9097SOL    HW128190   6.401   5.420   5.816
 9097SOL    HW228191   6.462   5.440   5.966
 9098SOL     OW28192   3.627   3.565   4.460
 9098SOL    HW128193   3.555   3.626   4.496
 9098SOL    HW228194   3.601   3.470   4.476
 9099SOL     OW28195   2.164   2.217   0.383
 9099SOL    HW128196   2.236   2.285   0.366
 9099SOL    HW228197   2.162   2.194   0.481
 9100SOL     OW28198   1.042   2.691   0.404
 9100SOL    HW128199   1.080   2.604   0.437
 9100SOL    HW228200   1.074   2.708   0.311
 9101SOL     OW28201   2.027   2.358   0.039
 9101SOL    HW128202   1.953   2.319   0.095
 9101SOL    HW228203   2.057   2.291   6.991
 9102SOL     OW28204   5.238   6.470   2.705
 9102SOL    HW128205   5.313   6.508   2.759
 9102SOL    HW228206   5.181   6.413   2.764
 9103SOL     OW28207   0.438   4.063   6.428
 9103SOL    HW128208   0.482   4.123   6.495
 9103SOL    HW228209   0.339   4.080   6.429
 9104SOL     OW28210   5.023   0.310   1.748
 9104SOL    HW128211   5.112   0.268   1.729
 9104SOL    HW228212   4.961   0.292   1.671
 9105SOL     OW28213   2.580   1.512   5.741
 9105SOL    HW128214   2.601   1.446   5.669
 9105SOL    HW228215   2.610   1.603   5.713
 9106SOL     OW28216   6.437   5.069   1.382
 9106SOL    HW128217   6.480   5.129   1.315
 9106SOL    HW228218   6.496   5.061   1.462
 9107SOL     OW28219   4.640   0.324   0.964
 9107SOL    HW128220   4.574   0.336   1.038
 9107SOL    HW228221   4.721   0.276   0.998
 9108SOL     OW28222   4.091   5.957   6.707
 9108SOL    HW128223   4.075   6.044   6.753
 9108SOL    HW228224   4.133   5.972   6.618
 9109SOL     OW28225   2.785   1.694   4.432
 9109SOL    HW128226   2.721   1.769   4.449
 9109SOL    HW228227   2.821   1.661   4.519
 9110SOL     OW28228   1.387   2.960   2.993
 9110SOL    HW128229   1.354   2.891   3.057
 9110SOL    HW228230   1.310   3.009   2.953
 9111SOL     OW28231   4.434   3.970   1.705
 9111SOL    HW128232   4.344   3.927   1.700
 9111SOL    HW228233   4.427   4.056   1.756
 9112SOL     OW28234   0.669   4.948   2.380
 9112SOL    HW128235   0.661   4.861   2.332
 9112SOL    HW228236   0.755   4.992   2.355
 9113SOL     OW28237   3.611   6.059   0.301
 9113SOL    HW128238   3.676   6.080   0.229
 9113SOL    HW228239   3.523   6.101   0.280
 9114SOL     OW28240   2.402   4.391   1.642
 9114SOL    HW128241   2.338   4.349   1.706
 9114SOL    HW228242   2.443   4.472   1.684
 9115SOL     OW28243   1.888   4.147   3.916
 9115SOL    HW128244   1.919   4.232   3.959
 9115SOL    HW228245   1.791   4.156   3.892
 9116SOL     OW28246   1.802   1.359   5.868
 9116SOL    HW128247   1.733   1.363   5.940
 9116SOL    HW228248   1.888   1.395   5.903
 9117SOL     OW28249   6.565   2.478   6.679
 9117SOL    HW128250   6.596   2.527   6.761
 9117SOL    HW228251   6.631   2.405   6.658
 9118SOL     OW28252   0.257   5.781   1.761
 9118SOL    HW128253   0.300   5.694   1.784
 9118SOL    HW228254   0.159   5.768   1.749
 9119SOL     OW28255   6.143   6.976   1.270
 9119SOL    HW128256   6.130   0.027   1.200
 9119SOL    HW228257   6.132   6.886   1.229
 9120SOL     OW28258   5.548   1.217   6.196
 9120SOL    HW128259   5.636   1.263   6.182
 9120SOL    HW228260   5.521   1.225   6.292
 9121SOL     OW28261   1.741   0.993   6.958
 9121SOL    HW128262   1.812   1.058   6.930
 9121SOL    HW228263   1.776   0.900   6.950
 9122SOL     OW28264   0.311   2.767   1.041
 9122SOL    HW128265   0.364   2.702   1.095
 9122SOL    HW228266   0.330   2.753   0.944
 9123SOL     OW28267   2.925   5.766   6.993
 9123SOL    HW128268   2.843   5.822   6.976
 9123SOL    HW228269   2.898   5.673   7.015
 9124SOL     OW28270   5.797   4.854   5.508
 9124SOL    HW128271   5.848   4.778   5.549
 9124SOL    HW228272   5.848   4.939   5.520
 9125SOL     OW28273   4.762   6.196   2.595
 9125SOL    HW128274   4.708   6.265   2.645
 9125SOL    HW228275   4.711   6.110   2.592
 9126SOL     OW28276   5.684   0.743   2.235
 9126SOL    HW128277   5.755   0.678   2.260
 9126SOL    HW228278   5.600   0.722   2.285
 9127SOL     OW28279   4.881   0.442   6.824
 9127SOL    HW128280   4.822   0.371   6.787
 9127SOL    HW228281   4.923   0.410   6.909
 9128SOL     OW28282   4.703   2.377   5.037
 9128SOL    HW128283   4.731   2.283   5.057
 9128SOL    HW228284   4.780   2.439   5.049
 9129SOL     OW28285   1.831   1.789   6.287
 9129SOL    HW128286   1.819   1.888   6.279
 9129SOL    HW228287   1.782   1.756   6.368
 9130SOL     OW28288   5.995   5.200   0.650
 9130SOL    HW128289   6.041   5.281   0.685
 9130SOL    HW228290   6.012   5.123   0.713
 9131SOL     OW28291   0.577   4.161   4.150
 9131SOL    HW128292   0.566   4.064   4.171
 9131SOL    HW228293   0.630   4.204   4.222
 9132SOL     OW28294   0.940   3.193   4.608
 9132SOL    HW128295   0.936   3.258   4.684
 9132SOL    HW228296   0.988   3.234   4.531
 9133SOL     OW28297   1.568   4.179   1.049
 9133SOL    HW128298   1.523   4.254   1.000
 9133SOL    HW228299   1.650   4.152   0.999
 9134SOL     OW28300   3.096   5.311   6.090
 9134SOL    HW128301   3.137   5.400   6.071
 9134SOL    HW228302   3.026   5.321   6.160
 9135SOL     OW28303   0.069   6.111   4.144
 9135SOL    HW128304   0.058   6.106   4.243
 9135SOL    HW228305   0.009   6.044   4.100
 9136SOL     OW28306   4.647   4.565   5.477
 9136SOL    HW128307   4.728   4.508   5.489
 9136SOL    HW228308   4.577   4.538   5.542
 9137SOL     OW28309   4.101   1.208   2.282
 9137SOL    HW128310   4.122   1.179   2.189
 9137SOL    HW228311   4.144   1.297   2.300
 9138SOL     OW28312   3.828   4.939   0.236
 9138SOL    HW128313   3.748   4.935   0.296
 9138SOL    HW228314   3.800   4.926   0.141
 9139SOL     OW28315   2.591   1.209   5.704
 9139SOL    HW128316   2.614   1.143   5.775
 9139SOL    HW228317   2.506   1.255   5.726
 9140SOL     OW28318   0.130   2.145   3.845
 9140SOL    HW128319   0.080   2.068   3.806
 9140SOL    HW228320   0.176   2.195   3.771
 9141SOL     OW28321   5.819   0.388   6.068
 9141SOL    HW128322   5.844   0.483   6.052
 9141SOL    HW228323   5.755   0.358   5.997
 9142SOL     OW28324   0.560   3.927   6.191
 9142SOL    HW128325   0.563   3.947   6.289
 9142SOL    HW228326   0.476   3.965   6.152
 9143SOL     OW28327   5.208   3.582   0.829
 9143SOL    HW128328   5.293   3.625   0.860
 9143SOL    HW228329   5.207   3.582   0.729
 9144SOL     OW28330   2.007   4.586   4.982
 9144SOL    HW128331   2.066   4.513   5.016
 9144SOL    HW228332   1.985   4.570   4.886
 9145SOL     OW28333   0.400   4.435   6.482
 9145SOL    HW128334   0.392   4.483   6.395
 9145SOL    HW228335   0.358   4.490   6.555
 9146SOL     OW28336   6.247   2.145   2.007
 9146SOL    HW128337   6.273   2.123   1.913
 9146SOL    HW228338   6.327   2.139   2.067
 9147SOL     OW28339   4.537   5.943   5.899
 9147SOL    HW128340   4.536   6.039   5.871
 9147SOL    HW228341   4.508   5.885   5.823
 9148SOL     OW28342   4.103   6.187   2.963
 9148SOL    HW128343   4.092   6.158   2.868
 9148SOL    HW228344   4.200   6.196   2.984
 9149SOL     OW28345   5.645   3.509   3.948
 9149SOL    HW128346   5.590   3.510   4.032
 9149SOL    HW228347   5.684   3.600   3.934
 9150SOL     OW28348   4.863   1.064   3.139
 9150SOL    HW128349   4.817   1.014   3.066
 9150SOL    HW228350   4.809   1.144   3.163
 9151SOL     OW28351   1.607   3.973   2.125
 9151SOL    HW128352   1.562   3.969   2.214
 9151SOL    HW228353   1.706   3.972   2.137
 9152SOL     OW28354   2.544   5.861   2.589
 9152SOL    HW128355   2.458   5.873   2.639
 9152SOL    HW228356   2.527   5.880   2.492
 9153SOL     OW28357   1.471   3.398   6.193
 9153SOL    HW128358   1.487   3.458   6.271
 9153SOL    HW228359   1.379   3.359   6.200
 9154SOL     OW28360   2.236   6.019   0.377
 9154SOL    HW128361   2.320   6.051   0.421
 9154SOL    HW228362   2.221   5.923   0.400
 9155SOL     OW28363   1.317   4.065   0.447
 9155SOL    HW128364   1.348   3.981   0.403
 9155SOL    HW228365   1.249   4.044   0.517
 9156SOL     OW28366   4.866   2.526   1.689
 9156SOL    HW128367   4.772   2.548   1.663
 9156SOL    HW228368   4.889   2.575   1.772
 9157SOL     OW28369   5.242   3.918   5.349
 9157SOL    HW128370   5.144   3.933   5.341
 9157SOL    HW228371   5.274   3.864   5.271
 9158SOL     OW28372   0.699   4.015   3.766
 9158SOL    HW128373   0.722   3.918   3.757
 9158SOL    HW228374   0.697   4.058   3.676
 9159SOL     OW28375   6.962   4.450   3.246
 9159SOL    HW128376   6.965   4.513   3.169
 9159SOL    HW228377   6.872   4.454   3.289
 9160SOL     OW28378   6.741   6.811   6.557
 9160SOL    HW128379   6.741   6.827   6.458
 9160SOL    HW228380   6.757   6.714   6.574
 9161SOL     OW28381   5.181   3.888   4.362
 9161SOL    HW128382   5.120   3.914   4.436
 9161SOL    HW228383   5.130   3.884   4.276
 9162SOL     OW28384   5.018   2.412   2.668
 9162SOL    HW128385   4.962   2.418   2.750
 9162SOL    HW228386   4.995   2.328   2.618
 9163SOL     OW28387   3.115   1.839   3.749
 9163SOL    HW128388   3.161   1.832   3.838
 9163SOL    HW228389   3.145   1.764   3.690
 9164SOL     OW28390   3.241   0.239   0.412
 9164SOL    HW128391   3.300   0.189   0.348
 9164SOL    HW228392   3.298   0.293   0.474
 9165SOL     OW28393   5.997   6.799   6.924
 9165SOL    HW128394   6.026   6.744   6.846
 9165SOL    HW228395   5.972   6.891   6.892
 9166SOL     OW28396   3.116   5.572   1.229
 9166SOL    HW128397   3.120   5.547   1.132
 9166SOL    HW228398   3.119   5.672   1.238
 9167SOL     OW28399   1.471   4.465   5.282
 9167SOL    HW128400   1.403   4.432   5.216
 9167SOL    HW228401   1.511   4.550   5.248
 9168SOL     OW28402   1.998   0.809   6.500
 9168SOL    HW128403   1.987   0.745   6.424
 9168SOL    HW228404   1.943   0.891   6.483
 9169SOL     OW28405   6.912   0.124   3.781
 9169SOL    HW128406   6.985   0.058   3.766
 9169SOL    HW228407   6.946   0.217   3.763
 9170SOL     OW28408   6.318   6.107   6.602
 9170SOL    HW128409   6.281   6.138   6.690
 9170SOL    HW228410   6.415   6.128   6.598
 9171SOL     OW28411   2.476   5.928   6.530
 9171SOL    HW128412   2.378   5.943   6.534
 9171SOL    HW228413   2.502   5.860   6.598
 9172SOL     OW28414   2.922   1.893   4.057
 9172SOL    HW128415   2.907   1.868   3.961
 9172SOL    HW228416   2.977   1.976   4.061
 9173SOL     OW28417   0.641   5.393   4.552
 9173SOL    HW128418   0.737   5.388   4.526
 9173SOL    HW228419   0.631   5.371   4.649
 9174SOL     OW28420   0.617   4.894   0.877
 9174SOL    HW128421   0.591   4.904   0.781
 9174SOL    HW228422   0.572   4.815   0.916
 9175SOL     OW28423   1.683   6.235   5.718
 9175SOL    HW128424   1.758   6.256   5.655
 9175SOL    HW228425   1.713   6.165   5.783
 9176SOL     OW28426   2.461   0.820   6.020
 9176SOL    HW128427   2.449   0.741   5.960
 9176SOL    HW228428   2.501   0.791   6.107
 9177SOL     OW28429   0.836   5.078   3.954
 9177SOL    HW128430   0.896   5.054   4.030
 9177SOL    HW228431   0.866   5.031   3.871
 9178SOL     OW28432   2.720   4.678   6.972
 9178SOL    HW128433   2.797   4.615   6.959
 9178SOL    HW228434   2.711   4.700   0.049
 9179SOL     OW28435   3.682   5.103   4.282
 9179SOL    HW128436   3.604   5.041   4.271
 9179SOL    HW228437   3.673   5.181   4.220
 9180SOL     OW28438   5.248   1.871   3.087
 9180SOL    HW128439   5.272   1.967   3.068
 9180SOL    HW228440   5.184   1.838   3.017
 9181SOL     OW28441   4.312   1.497   2.540
 9181SOL    HW128442   4.324   1.589   2.577
 9181SOL    HW228443   4.219   1.466   2.560
 9182SOL     OW28444   1.418   6.692   1.342
 9182SOL    HW128445   1.427   6.738   1.430
 9182SOL    HW228446   1.454   6.751   1.270
 9183SOL     OW28447   5.205   6.127   0.418
 9183SOL    HW128448   5.111   6.152   0.392
 9183SOL    HW228449   5.240   6.060   0.353
 9184SOL     OW28450   4.986   0.241   0.315
 9184SOL    HW128451   4.891   0.209   0.319
 9184SOL    HW228452   5.015   0.248   0.220
 9185SOL     OW28453   3.762   1.145   5.079
 9185SOL    HW128454   3.750   1.210   5.004
 9185SOL    HW228455   3.859   1.123   5.089
 9186SOL     OW28456   5.340   0.714   6.216
 9186SOL    HW128457   5.383   0.790   6.168
 9186SOL    HW228458   5.371   0.628   6.175
 9187SOL     OW28459   2.205   6.132   2.351
 9187SOL    HW128460   2.277   6.165   2.413
 9187SOL    HW228461   2.155   6.057   2.395
 9188SOL     OW28462   2.625   6.247   1.023
 9188SOL    HW128463   2.704   6.262   1.082
 9188SOL    HW228464   2.642   6.167   0.965
 9189SOL     OW28465   5.264   5.406   2.234
 9189SOL    HW128466   5.167   5.382   2.238
 9189SOL    HW228467   5.305   5.390   2.324
 9190SOL     OW28468   2.002   5.152   0.189
 9190SOL    HW128469   2.101   5.162   0.197
 9190SOL    HW228470   1.958   5.239   0.207
 9191SOL     OW28471   0.071   0.451   6.142
 9191SOL    HW128472   0.125   0.434   6.060
 9191SOL    HW228473   7.012   0.389   6.144
 9192SOL     OW28474   6.951   4.184   4.255
 9192SOL    HW128475   6.900   4.099   4.240
 9192SOL    HW228476   0.022   4.176   4.214
 9193SOL     OW28477   2.515   3.337   6.705
 9193SOL    HW128478   2.473   3.401   6.769
 9193SOL    HW228479   2.571   3.388   6.639
 9194SOL     OW28480   3.733   0.498   3.691
 9194SOL    HW128481   3.780   0.430   3.747
 9194SOL    HW228482   3.778   0.586   3.701
 9195SOL     OW28483   1.927   1.802   3.962
 9195SOL    HW128484   1.955   1.712   3.930
 9195SOL    HW228485   1.991   1.834   4.033
 9196SOL     OW28486   5.018   2.532   5.358
 9196SOL    HW128487   4.951   2.479   5.411
 9196SOL    HW228488   5.035   2.619   5.403
 9197SOL     OW28489   2.273   3.628   1.644
 9197SOL    HW128490   2.241   3.719   1.672
 9197SOL    HW228491   2.278   3.568   1.724
 9198SOL     OW28492   6.972   4.753   4.175
 9198SOL    HW128493   7.004   4.700   4.097
 9198SOL    HW228494   6.994   4.706   4.260
 9199SOL     OW28495   6.345   4.295   4.661
 9199SOL    HW128496   6.431   4.271   4.707
 9199SOL    HW228497   6.350   4.269   4.565
 9200SOL     OW28498   2.841   6.978   0.693
 9200SOL    HW128499   2.892   6.947   0.773
 9200SOL    HW228500   2.869   0.050   0.669
 9201SOL     OW28501   1.734   4.245   0.406
 9201SOL    HW128502   1.702   4.186   0.480
 9201SOL    HW228503   1.830   4.225   0.386
 9202SOL     OW28504   2.226   0.409   3.109
 9202SOL    HW128505   2.275   0.416   3.195
 9202SOL    HW228506   2.290   0.389   3.035
 9203SOL     OW28507   6.861   6.545   0.821
 9203SOL    HW128508   6.854   6.506   0.913
 9203SOL    HW228509   6.928   6.493   0.768
 9204SOL     OW28510   5.079   1.091   5.966
 9204SOL    HW128511   4.982   1.083   5.943
 9204SOL    HW228512   5.134   1.078   5.884
 9205SOL     OW28513   0.170   4.246   1.836
 9205SOL    HW128514   0.106   4.220   1.908
 9205SOL    HW228515   0.263   4.237   1.869
 9206SOL     OW28516   3.489   5.791   0.585
 9206SOL    HW128517   3.467   5.765   0.679
 9206SOL    HW228518   3.542   5.718   0.542
 9207SOL     OW28519   4.845   5.512   6.708
 9207SOL    HW128520   4.906   5.590   6.723
 9207SOL    HW228521   4.789   5.497   6.790
 9208SOL     OW28522   1.141   3.858   3.140
 9208SOL    HW128523   1.070   3.916   3.100
 9208SOL    HW228524   1.138   3.768   3.097
 9209SOL     OW28525   2.908   0.564   6.507
 9209SOL    HW128526   2.992   0.578   6.455
 9209SOL    HW228527   2.919   0.604   6.599
 9210SOL     OW28528   0.163   0.672   3.344
 9210SOL    HW128529   0.237   0.608   3.366
 9210SOL    HW228530   0.105   0.631   3.274
 9211SOL     OW28531   1.030   1.689   2.749
 9211SOL    HW128532   1.047   1.692   2.848
 9211SOL    HW228533   0.988   1.602   2.725
 9212SOL     OW28534   3.038   4.911   4.250
 9212SOL    HW128535   2.987   4.852   4.189
 9212SOL    HW228536   3.071   4.991   4.200
 9213SOL     OW28537   5.673   3.890   6.453
 9213SOL    HW128538   5.643   3.963   6.391
 9213SOL    HW228539   5.773   3.885   6.453
 9214SOL     OW28540   6.929   4.777   0.753
 9214SOL    HW128541   6.956   4.863   0.796
 9214SOL    HW228542   6.843   4.745   0.792
 9215SOL     OW28543   0.721   1.174   0.946
 9215SOL    HW128544   0.724   1.273   0.936
 9215SOL    HW228545   0.671   1.134   0.869
 9216SOL     OW28546   2.494   6.668   2.972
 9216SOL    HW128547   2.549   6.632   3.048
 9216SOL    HW228548   2.552   6.723   2.912
 9217SOL     OW28549   1.039   2.431   6.794
 9217SOL    HW128550   1.123   2.485   6.792
 9217SOL    HW228551   0.967   2.479   6.744
 9218SOL     OW28552   2.654   0.551   0.639
 9218SOL    HW128553   2.671   0.649   0.632
 9218SOL    HW228554   2.558   0.532   0.618
 9219SOL     OW28555   0.083   2.084   0.804
 9219SOL    HW128556   0.008   2.048   0.860
 9219SOL    HW228557   0.046   2.141   0.731
 9220SOL     OW28558   3.290   6.525   1.985
 9220SOL    HW128559   3.337   6.612   1.971
 9220SOL    HW228560   3.328   6.479   2.065
 9221SOL     OW28561   3.003   5.439   4.237
 9221SOL    HW128562   3.050   5.444   4.325
 9221SOL    HW228563   2.906   5.421   4.253
 9222SOL     OW28564   2.420   2.284   5.948
 9222SOL    HW128565   2.507   2.300   5.994
 9222SOL    HW228566   2.436   2.243   5.858
 9223SOL     OW28567   2.721   3.063   5.331
 9223SOL    HW128568   2.693   3.127   5.402
 9223SOL    HW228569   2.645   3.047   5.268
 9224SOL     OW28570   2.493   4.661   5.422
 9224SOL    HW128571   2.548   4.595   5.372
 9224SOL    HW228572   2.396   4.648   5.399
 9225SOL     OW28573   1.923   6.391   6.770
 9225SOL    HW128574   2.012   6.401   6.813
 9225SOL    HW228575   1.933   6.397   6.670
 9226SOL     OW28576   4.079   6.863   1.353
 9226SOL    HW128577   4.144   6.828   1.286
 9226SOL    HW228578   4.091   6.815   1.439
 9227SOL     OW28579   1.750   6.036   2.358
 9227SOL    HW128580   1.824   6.095   2.324
 9227SOL    HW228581   1.781   5.941   2.356
 9228SOL     OW28582   0.824   0.036   6.441
 9228SOL    HW128583   0.773   7.001   6.376
 9228SOL    HW228584   0.843   0.126   6.401
 9229SOL     OW28585   0.532   5.134   5.459
 9229SOL    HW128586   0.540   5.103   5.554
 9229SOL    HW228587   0.541   5.056   5.397
 9230SOL     OW28588   5.556   0.241   4.181
 9230SOL    HW128589   5.582   0.249   4.084
 9230SOL    HW228590   5.634   0.268   4.238
 9231SOL     OW28591   1.597   2.691   3.350
 9231SOL    HW128592   1.656   2.615   3.379
 9231SOL    HW228593   1.610   2.708   3.253
 9232SOL     OW28594   3.937   4.824   1.287
 9232SOL    HW128595   3.842   4.791   1.278
 9232SOL    HW228596   3.940   4.903   1.348
 9233SOL     OW28597   4.852   4.967   1.012
 9233SOL    HW128598   4.759   4.999   0.997
 9233SOL    HW228599   4.853   4.901   1.087
 9234SOL     OW28600   2.167   6.103   3.829
 9234SOL    HW128601   2.079   6.149   3.814
 9234SOL    HW228602   2.229   6.166   3.876
 9235SOL     OW28603   0.645   2.176   3.225
 9235SOL    HW128604   0.635   2.269   3.260
 9235SOL    HW228605   0.742   2.152   3.223
 9236SOL     OW28606   3.405   2.847   5.786
 9236SOL    HW128607   3.312   2.837   5.821
 9236SOL    HW228608   3.404   2.848   5.686
 9237SOL     OW28609   1.826   3.559   3.548
 9237SOL    HW128610   1.773   3.635   3.586
 9237SOL    HW228611   1.843   3.492   3.621
 9238SOL     OW28612   4.414   3.137   6.124
 9238SOL    HW128613   4.508   3.169   6.111
 9238SOL    HW228614   4.399   3.116   6.220
 9239SOL     OW28615   2.002   4.080   0.649
 9239SOL    HW128616   2.049   4.152   0.599
 9239SOL    HW228617   1.970   4.009   0.586
 9240SOL     OW28618   4.721   1.227   2.443
 9240SOL    HW128619   4.629   1.216   2.481
 9240SOL    HW228620   4.766   1.138   2.438
 9241SOL     OW28621   0.777   5.808   6.188
 9241SOL    HW128622   0.780   5.745   6.266
 9241SOL    HW228623   0.847   5.878   6.199
 9242SOL     OW28624   0.019   6.000   1.955
 9242SOL    HW128625   0.012   6.023   1.858
 9242SOL    HW228626   0.084   6.060   2.000
 9243SOL     OW28627   6.252   5.954   4.780
 9243SOL    HW128628   6.155   5.962   4.755
 9243SOL    HW228629   6.268   5.996   4.869
 9244SOL     OW28630   3.854   5.127   6.510
 9244SOL    HW128631   3.873   5.187   6.432
 9244SOL    HW228632   3.768   5.077   6.493
 9245SOL     OW28633   0.452   5.044   1.058
 9245SOL    HW128634   0.441   5.144   1.062
 9245SOL    HW228635   0.491   5.018   0.970
 9246SOL     OW28636   0.094   4.982   4.324
 9246SOL    HW128637   0.012   5.031   4.291
 9246SOL    HW228638   0.167   5.048   4.340
 9247SOL     OW28639   1.766   6.487   2.358
 9247SOL    HW128640   1.691   6.431   2.321
 9247SOL    HW228641   1.743   6.584   2.348
 9248SOL     OW28642   2.894   1.454   6.509
 9248SOL    HW128643   2.986   1.414   6.518
 9248SOL    HW228644   2.835   1.419   6.582
 9249SOL     OW28645   4.565   0.614   3.858
 9249SOL    HW128646   4.532   0.576   3.772
 9249SOL    HW228647   4.665   0.604   3.863
 9250SOL     OW28648   5.178   3.721   4.090
 9250SOL    HW128649   5.235   3.660   4.145
 9250SOL    HW228650   5.083   3.690   4.092
 9251SOL     OW28651   3.171   2.090   2.519
 9251SOL    HW128652   3.211   2.168   2.566
 9251SOL    HW228653   3.090   2.118   2.468
 9252SOL     OW28654   1.263   0.113   4.604
 9252SOL    HW128655   1.314   0.174   4.544
 9252SOL    HW228656   1.300   0.020   4.595
 9253SOL     OW28657   1.396   6.629   5.621
 9253SOL    HW128658   1.448   6.713   5.635
 9253SOL    HW228659   1.299   6.652   5.610
 9254SOL     OW28660   5.747   3.470   1.379
 9254SOL    HW128661   5.731   3.391   1.319
 9254SOL    HW228662   5.683   3.543   1.356
 9255SOL     OW28663   6.010   4.474   0.824
 9255SOL    HW128664   5.952   4.552   0.848
 9255SOL    HW228665   5.967   4.422   0.750
 9256SOL     OW28666   4.258   4.921   1.721
 9256SOL    HW128667   4.200   4.891   1.797
 9256SOL    HW228668   4.242   5.019   1.705
 9257SOL     OW28669   0.964   4.247   1.033
 9257SOL    HW128670   1.032   4.184   1.070
 9257SOL    HW228671   0.905   4.199   0.967
 9258SOL     OW28672   4.077   3.764   3.837
 9258SOL    HW128673   4.053   3.788   3.743
 9258SOL    HW228674   4.137   3.834   3.875
 9259SOL     OW28675   0.688   2.710   0.188
 9259SOL    HW128676   0.681   2.792   0.246
 9259SOL    HW228677   0.768   2.657   0.214
 9260SOL     OW28678   5.592   3.628   6.486
 9260SOL    HW128679   5.500   3.614   6.521
 9260SOL    HW228680   5.607   3.725   6.467
 9261SOL     OW28681   4.590   6.966   6.804
 9261SOL    HW128682   4.625   6.924   6.720
 9261SOL    HW228683   4.631   0.036   6.816
 9262SOL     OW28684   4.575   1.019   5.511
 9262SOL    HW128685   4.477   1.008   5.501
 9262SOL    HW228686   4.607   1.092   5.450
 9263SOL     OW28687   5.291   3.649   1.760
 9263SOL    HW128688   5.291   3.698   1.847
 9263SOL    HW228689   5.371   3.590   1.754
 9264SOL     OW28690   6.426   3.471   0.366
 9264SOL    HW128691   6.457   3.376   0.373
 9264SOL    HW228692   6.399   3.489   0.271
 9265SOL     OW28693   1.562   0.815   6.354
 9265SOL    HW128694   1.591   0.909   6.371
 9265SOL    HW228695   1.469   0.815   6.315
 9266SOL     OW28696   1.898   6.247   2.289
 9266SOL    HW128697   1.861   6.335   2.317
 9266SOL    HW228698   1.929   6.253   2.194
 9267SOL     OW28699   2.238   4.595   5.312
 9267SOL    HW128700   2.248   4.500   5.282
 9267SOL    HW228701   2.142   4.623   5.305
 9268SOL     OW28702   0.018   0.702   2.732
 9268SOL    HW128703   0.052   0.794   2.751
 9268SOL    HW228704   0.044   0.641   2.807
 9269SOL     OW28705   3.560   1.183   5.807
 9269SOL    HW128706   3.637   1.222   5.859
 9269SOL    HW228707   3.526   1.252   5.743
 9270SOL     OW28708   0.407   6.985   5.653
 9270SOL    HW128709   0.435   0.018   5.733
 9270SOL    HW228710   0.476   6.993   5.581
 9271SOL     OW28711   1.496   4.919   0.092
 9271SOL    HW128712   1.488   5.014   0.123
 9271SOL    HW228713   1.448   4.859   0.156
 9272SOL     OW28714   2.674   4.552   6.410
 9272SOL    HW128715   2.582   4.532   6.444
 9272SOL    HW228716   2.698   4.647   6.433
 9273SOL     OW28717   3.895   6.392   5.446
 9273SOL    HW128718   3.897   6.368   5.349
 9273SOL    HW228719   3.927   6.314   5.500
 9274SOL     OW28720   6.231   1.844   0.280
 9274SOL    HW128721   6.315   1.898   0.275
 9274SOL    HW228722   6.234   1.785   0.361
 9275SOL     OW28723   1.441   0.504   6.527
 9275SOL    HW128724   1.487   0.428   6.481
 9275SOL    HW228725   1.379   0.468   6.597
 9276SOL     OW28726   4.650   6.276   4.913
 9276SOL    HW128727   4.567   6.244   4.867
 9276SOL    HW228728   4.675   6.213   4.985
 9277SOL     OW28729   3.386   3.288   0.233
 9277SOL    HW128730   3.299   3.252   0.268
 9277SOL    HW228731   3.416   3.233   0.156
 9278SOL     OW28732   1.300   2.284   1.556
 9278SOL    HW128733   1.337   2.231   1.631
 9278SOL    HW228734   1.373   2.308   1.492
 9279SOL     OW28735   3.420   0.075   2.008
 9279SOL    HW128736   3.404   0.108   2.101
 9279SOL    HW228737   3.339   0.090   1.952
 9280SOL     OW28738   2.165   0.148   3.392
 9280SOL    HW128739   2.164   0.207   3.312
 9280SOL    HW228740   2.196   0.057   3.367
 9281SOL     OW28741   1.871   2.276   0.321
 9281SOL    HW128742   1.809   2.205   0.355
 9281SOL    HW228743   1.965   2.253   0.344
 9282SOL     OW28744   4.619   2.119   6.015
 9282SOL    HW128745   4.549   2.055   6.045
 9282SOL    HW228746   4.682   2.137   6.091
 9283SOL     OW28747   5.769   2.581   2.192
 9283SOL    HW128748   5.744   2.510   2.126
 9283SOL    HW228749   5.827   2.649   2.147
 9284SOL     OW28750   3.193   3.504   1.629
 9284SOL    HW128751   3.240   3.416   1.626
 9284SOL    HW228752   3.095   3.489   1.618
 9285SOL     OW28753   6.168   3.012   6.817
 9285SOL    HW128754   6.072   3.040   6.824
 9285SOL    HW228755   6.175   2.913   6.829
 9286SOL     OW28756   5.690   6.531   5.456
 9286SOL    HW128757   5.693   6.512   5.555
 9286SOL    HW228758   5.602   6.501   5.419
 9287SOL     OW28759   3.229   6.438   1.735
 9287SOL    HW128760   3.289   6.471   1.662
 9287SOL    HW228761   3.270   6.459   1.824
 9288SOL     OW28762   4.889   2.735   5.984
 9288SOL    HW128763   4.982   2.701   5.995
 9288SOL    HW228764   4.834   2.667   5.934
 9289SOL     OW28765   4.954   3.263   3.138
 9289SOL    HW128766   4.999   3.207   3.207
 9289SOL    HW228767   4.900   3.335   3.182
 9290SOL     OW28768   4.826   2.138   5.037
 9290SOL    HW128769   4.849   2.048   5.075
 9290SOL    HW228770   4.910   2.192   5.028
 9291SOL     OW28771   0.899   1.875   5.158
 9291SOL    HW128772   0.918   1.843   5.065
 9291SOL    HW228773   0.936   1.967   5.170
 9292SOL     OW28774   0.180   3.433   6.666
 9292SOL    HW128775   0.166   3.395   6.575
 9292SOL    HW228776   0.096   3.420   6.720
 9293SOL     OW28777   5.280   4.126   0.022
 9293SOL    HW128778   5.301   4.223   0.037
 9293SOL    HW228779   5.363   4.077   7.016
 9294SOL     OW28780   6.315   6.205   6.886
 9294SOL    HW128781   6.396   6.190   6.943
 9294SOL    HW228782   6.233   6.204   6.944
 9295SOL     OW28783   4.543   1.745   3.538
 9295SOL    HW128784   4.534   1.650   3.508
 9295SOL    HW228785   4.460   1.795   3.515
 9296SOL     OW28786   6.133   0.215   5.789
 9296SOL    HW128787   6.081   0.159   5.725
 9296SOL    HW228788   6.152   0.162   5.872
 9297SOL     OW28789   0.799   1.387   0.551
 9297SOL    HW128790   0.756   1.337   0.626
 9297SOL    HW228791   0.831   1.323   0.482
 9298SOL     OW28792   1.082   6.236   4.701
 9298SOL    HW128793   1.098   6.160   4.763
 9298SOL    HW228794   0.984   6.256   4.697
 9299SOL     OW28795   2.108   3.079   4.282
 9299SOL    HW128796   2.103   2.999   4.222
 9299SOL    HW228797   2.143   3.051   4.371
 9300SOL     OW28798   5.551   4.665   4.489
 9300SOL    HW128799   5.535   4.605   4.411
 9300SOL    HW228800   5.464   4.703   4.521
 9301SOL     OW28801   5.539   4.227   2.640
 9301SOL    HW128802   5.626   4.232   2.591
 9301SOL    HW228803   5.528   4.309   2.697
 9302SOL     OW28804   2.350   1.732   2.370
 9302SOL    HW128805   2.437   1.729   2.321
 9302SOL    HW228806   2.291   1.801   2.329
 9303SOL     OW28807   3.675   5.321   0.374
 9303SOL    HW128808   3.674   5.314   0.473
 9303SOL    HW228809   3.623   5.245   0.335
 9304SOL     OW28810   3.880   3.147   1.196
 9304SOL    HW128811   3.921   3.058   1.214
 9304SOL    HW228812   3.783   3.136   1.175
 9305SOL     OW28813   5.571   2.813   2.169
 9305SOL    HW128814   5.513   2.823   2.089
 9305SOL    HW228815   5.618   2.725   2.165
 9306SOL     OW28816   6.794   3.963   3.882
 9306SOL    HW128817   6.749   4.024   3.817
 9306SOL    HW228818   6.846   3.893   3.833
 9307SOL     OW28819   1.907   1.529   6.711
 9307SOL    HW128820   1.943   1.623   6.708
 9307SOL    HW228821   1.910   1.496   6.806
 9308SOL     OW28822   6.697   2.933   1.030
 9308SOL    HW128823   6.722   2.847   1.076
 9308SOL    HW228824   6.780   2.977   0.996
 9309SOL     OW28825   4.704   3.369   6.863
 9309SOL    HW128826   4.777   3.329   6.807
 9309SOL    HW228827   4.707   3.329   6.955
 9310SOL     OW28828   4.080   5.862   6.988
 9310SOL    HW128829   4.071   5.887   6.891
 9310SOL    HW228830   3.990   5.834   0.003
 9311SOL     OW28831   6.122   2.975   0.705
 9311SOL    HW128832   6.153   3.013   0.793
 9311SOL    HW228833   6.175   3.017   0.631
 9312SOL     OW28834   1.118   4.627   6.117
 9312SOL    HW128835   1.207   4.644   6.158
 9312SOL    HW228836   1.119   4.539   6.069
 9313SOL     OW28837   6.448   6.880   3.083
 9313SOL    HW128838   6.402   6.966   3.061
 9313SOL    HW228839   6.483   6.838   2.999
 9314SOL     OW28840   5.209   4.768   0.141
 9314SOL    HW128841   5.287   4.721   0.100
 9314SOL    HW228842   5.166   4.826   0.072
 9315SOL     OW28843   6.956   6.507   6.360
 9315SOL    HW128844   6.872   6.486   6.311
 9315SOL    HW228845   6.935   6.518   6.458
 9316SOL     OW28846   3.746   6.041   3.698
 9316SOL    HW128847   3.650   6.020   3.717
 9316SOL    HW228848   3.804   5.973   3.742
 9317SOL     OW28849   6.244   4.311   4.119
 9317SOL    HW128850   6.208   4.400   4.145
 9317SOL    HW228851   6.324   4.323   4.060
 9318SOL     OW28852   6.768   6.964   6.276
 9318SOL    HW128853   6.709   7.016   6.338
 9318SOL    HW228854   6.726   6.958   6.186
 9319SOL     OW28855   0.234   3.250   5.084
 9319SOL    HW128856   0.260   3.159   5.050
 9319SOL    HW228857   0.165   3.239   5.156
 9320SOL     OW28858   4.990   2.832   6.389
 9320SOL    HW128859   5.053   2.774   6.337
 9320SOL    HW228860   5.042   2.882   6.459
 9321SOL     OW28861   6.681   5.612   3.206
 9321SOL    HW128862   6.582   5.631   3.204
 9321SOL    HW228863   6.700   5.537   3.269
 9322SOL     OW28864   0.826   6.168   6.871
 9322SOL    HW128865   0.916   6.154   6.829
 9322SOL    HW228866   0.838   6.181   6.970
 9323SOL     OW28867   0.223   1.258   5.871
 9323SOL    HW128868   0.312   1.285   5.907
 9323SOL    HW228869   0.152   1.319   5.908
 9324SOL     OW28870   1.596   5.744   6.861
 9324SOL    HW128871   1.660   5.726   6.786
 9324SOL    HW228872   1.561   5.837   6.852
 9325SOL     OW28873   6.381   2.483   0.884
 9325SOL    HW128874   6.328   2.486   0.969
 9325SOL    HW228875   6.415   2.575   0.863
 9326SOL     OW28876   2.427   6.417   1.073
 9326SOL    HW128877   2.419   6.418   1.172
 9326SOL    HW228878   2.502   6.357   1.046
 9327SOL     OW28879   3.991   0.971   3.341
 9327SOL    HW128880   4.076   1.002   3.383
 9327SOL    HW228881   4.012   0.916   3.260
 9328SOL     OW28882   3.120   1.237   2.183
 9328SOL    HW128883   3.148   1.175   2.256
 9328SOL    HW228884   3.077   1.318   2.223
 9329SOL     OW28885   1.556   3.886   1.650
 9329SOL    HW128886   1.638   3.850   1.695
 9329SOL    HW228887   1.475   3.838   1.685
 9330SOL     OW28888   5.556   0.648   6.890
 9330SOL    HW128889   5.586   0.684   6.979
 9330SOL    HW228890   5.457   0.653   6.883
 9331SOL     OW28891   0.746   1.300   6.978
 9331SOL    HW128892   0.736   1.387   6.931
 9331SOL    HW228893   0.812   1.243   6.929
 9332SOL     OW28894   3.481   3.339   4.482
 9332SOL    HW128895   3.390   3.360   4.445
 9332SOL    HW228896   3.472   3.270   4.554
 9333SOL     OW28897   5.966   5.085   0.902
 9333SOL    HW128898   5.995   4.990   0.915
 9333SOL    HW228899   5.869   5.087   0.877
 9334SOL     OW28900   2.877   6.943   4.840
 9334SOL    HW128901   2.824   6.980   4.764
 9334SOL    HW228902   2.815   6.917   4.914
 9335SOL     OW28903   0.899   1.006   0.786
 9335SOL    HW128904   0.865   1.049   0.870
 9335SOL    HW228905   0.821   0.974   0.732
 9336SOL     OW28906   3.459   6.822   5.667
 9336SOL    HW128907   3.387   6.762   5.631
 9336SOL    HW228908   3.417   6.902   5.710
 9337SOL     OW28909   5.136   0.417   2.475
 9337SOL    HW128910   5.162   0.339   2.419
 9337SOL    HW228911   5.102   0.385   2.564
 9338SOL     OW28912   3.422   6.985   1.672
 9338SOL    HW128913   3.328   6.969   1.643
 9338SOL    HW228914   3.431   0.059   1.706
 9339SOL     OW28915   4.455   6.257   0.929
 9339SOL    HW128916   4.401   6.303   0.858
 9339SOL    HW228917   4.542   6.226   0.890
 9340SOL     OW28918   5.942   3.399   0.268
 9340SOL    HW128919   6.011   3.365   0.331
 9340SOL    HW228920   5.985   3.459   0.200
 9341SOL     OW28921   6.880   4.949   6.218
 9341SOL    HW128922   6.900   4.982   6.126
 9341SOL    HW228923   6.940   4.994   6.283
 9342SOL     OW28924   1.067   6.100   5.827
 9342SOL    HW128925   1.105   6.023   5.776
 9342SOL    HW228926   1.097   6.095   5.923
 9343SOL     OW28927   6.449   5.643   4.628
 9343SOL    HW128928   6.403   5.721   4.586
 9343SOL    HW228929   6.380   5.583   4.670
 9344SOL     OW28930   4.862   6.584   1.441
 9344SOL    HW128931   4.771   6.556   1.409
 9344SOL    HW228932   4.917   6.502   1.460
 9345SOL     OW28933   6.723   2.657   0.722
 9345SOL    HW128934   6.682   2.747   0.739
 9345SOL    HW228935   6.709   2.598   0.801
 9346SOL     OW28936   5.823   0.471   0.249
 9346SOL    HW128937   5.859   0.500   0.160
 9346SOL    HW228938   5.799   0.374   0.246
 9347SOL     OW28939   1.562   6.655   1.970
 9347SOL    HW128940   1.581   6.654   1.871
 9347SOL    HW228941   1.648   6.645   2.020
 9348SOL     OW28942   3.347   4.647   6.856
 9348SOL    HW128943   3.300   4.714   6.798
 9348SOL    HW228944   3.370   4.688   6.944
 9349SOL     OW28945   1.867   6.562   2.708
 9349SOL    HW128946   1.876   6.649   2.659
 9349SOL    HW228947   1.913   6.490   2.656
 9350SOL     OW28948   0.689   3.012   6.086
 9350SOL    HW128949   0.765   3.007   6.021
 9350SOL    HW228950   0.718   2.974   6.174
 9351SOL     OW28951   2.561   1.463   6.851
 9351SOL    HW128952   2.594   1.557   6.851
 9351SOL    HW228953   2.597   1.415   6.771
 9352SOL     OW28954   2.647   4.487   5.841
 9352SOL    HW128955   2.705   4.537   5.906
 9352SOL    HW228956   2.594   4.551   5.786
 9353SOL     OW28957   6.603   0.481   0.974
 9353SOL    HW128958   6.542   0.505   0.899
 9353SOL    HW228959   6.607   0.381   0.983
 9354SOL     OW28960   0.509   1.775   6.713
 9354SOL    HW128961   0.473   1.811   6.627
 9354SOL    HW228962   0.570   1.843   6.754
 9355SOL     OW28963   0.806   1.913   5.662
 9355SOL    HW128964   0.893   1.880   5.698
 9355SOL    HW228965   0.774   1.853   5.589
 9356SOL     OW28966   5.536   6.816   3.172
 9356SOL    HW128967   5.486   6.902   3.180
 9356SOL    HW228968   5.494   6.747   3.230
 9357SOL     OW28969   0.812   1.933   0.188
 9357SOL    HW128970   0.747   1.864   0.157
 9357SOL    HW228971   0.796   2.019   0.140
 9358SOL     OW28972   0.310   3.098   1.630
 9358SOL    HW128973   0.227   3.043   1.639
 9358SOL    HW228974   0.389   3.044   1.661
 9359SOL     OW28975   1.081   0.178   5.361
 9359SOL    HW128976   1.016   0.102   5.358
 9359SOL    HW228977   1.116   0.196   5.269
 9360SOL     OW28978   0.965   0.261   5.819
 9360SOL    HW128979   0.876   0.216   5.831
 9360SOL    HW228980   1.038   0.193   5.826
 9361SOL     OW28981   1.908   6.183   3.798
 9361SOL    HW128982   1.842   6.257   3.806
 9361SOL    HW228983   1.878   6.105   3.853
 9362SOL     OW28984   2.160   0.043   1.845
 9362SOL    HW128985   2.257   0.067   1.841
 9362SOL    HW228986   2.137   0.009   1.937
 9363SOL     OW28987   1.935   4.804   2.712
 9363SOL    HW128988   1.993   4.782   2.635
 9363SOL    HW228989   1.990   4.810   2.796
 9364SOL     OW28990   1.148   2.800   1.432
 9364SOL    HW128991   1.156   2.802   1.333
 9364SOL    HW228992   1.237   2.819   1.474
 9365SOL     OW28993   3.041   1.356   4.624
 9365SOL    HW128994   3.033   1.388   4.530
 9365SOL    HW228995   2.979   1.407   4.683
 9366SOL     OW28996   4.034   5.884   2.136
 9366SOL    HW128997   4.015   5.787   2.155
 9366SOL    HW228998   4.054   5.931   2.222
 9367SOL     OW28999   6.978   0.802   1.624
 9367SOL    HW129000   6.976   0.702   1.625
 9367SOL    HW229001   7.007   0.834   1.534
 9368SOL     OW29002   2.653   0.277   3.285
 9368SOL    HW129003   2.716   0.336   3.233
 9368SOL    HW229004   2.682   0.182   3.275
 9369SOL     OW29005   3.464   5.118   0.240
 9369SOL    HW129006   3.547   5.130   0.186
 9369SOL    HW229007   3.489   5.095   0.334
 9370SOL     OW29008   4.864   1.841   4.814
 9370SOL    HW129009   4.782   1.830   4.758
 9370SOL    HW229010   4.939   1.787   4.774
 9371SOL     OW29011   4.424   5.477   1.050
 9371SOL    HW129012   4.480   5.555   1.078
 9371SOL    HW229013   4.452   5.396   1.102
 9372SOL     OW29014   4.581   6.305   1.644
 9372SOL    HW129015   4.581   6.214   1.685
 9372SOL    HW229016   4.531   6.368   1.703
 9373SOL     OW29017   6.910   2.411   1.318
 9373SOL    HW129018   6.914   2.473   1.239
 9373SOL    HW229019   6.922   2.317   1.287
 9374SOL     OW29020   0.480   5.711   5.891
 9374SOL    HW129021   0.503   5.801   5.927
 9374SOL    HW229022   0.381   5.696   5.899
 9375SOL     OW29023   0.625   1.221   0.191
 9375SOL    HW129024   0.528   1.199   0.187
 9375SOL    HW229025   0.660   1.234   0.098
 9376SOL     OW29026   2.186   4.081   1.370
 9376SOL    HW129027   2.261   4.139   1.400
 9376SOL    HW229028   2.163   4.104   1.275
 9377SOL     OW29029   1.463   1.204   3.435
 9377SOL    HW129030   1.379   1.183   3.485
 9377SOL    HW229031   1.537   1.221   3.500
 9378SOL     OW29032   3.613   1.182   4.670
 9378SOL    HW129033   3.599   1.083   4.671
 9378SOL    HW229034   3.528   1.228   4.694
 9379SOL     OW29035   5.071   6.599   4.118
 9379SOL    HW129036   5.056   6.512   4.163
 9379SOL    HW229037   4.990   6.657   4.129
 9380SOL     OW29038   5.512   5.466   0.285
 9380SOL    HW129039   5.565   5.490   0.366
 9380SOL    HW229040   5.563   5.490   0.203
 9381SOL     OW29041   5.792   1.609   5.297
 9381SOL    HW129042   5.831   1.597   5.206
 9381SOL    HW229043   5.809   1.527   5.351
 9382SOL     OW29044   3.200   5.383   5.679
 9382SOL    HW129045   3.139   5.455   5.710
 9382SOL    HW229046   3.266   5.420   5.614
 9383SOL     OW29047   5.996   4.187   2.645
 9383SOL    HW129048   5.965   4.244   2.721
 9383SOL    HW229049   5.924   4.183   2.575
 9384SOL     OW29050   2.916   0.751   1.908
 9384SOL    HW129051   2.845   0.767   1.839
 9384SOL    HW229052   2.967   0.836   1.923
 9385SOL     OW29053   4.765   1.674   3.902
 9385SOL    HW129054   4.821   1.611   3.848
 9385SOL    HW229055   4.812   1.762   3.909
 9386SOL     OW29056   4.892   6.024   0.400
 9386SOL    HW129057   4.923   5.930   0.388
 9386SOL    HW229058   4.870   6.039   0.496
 9387SOL     OW29059   2.819   1.735   0.329
 9387SOL    HW129060   2.889   1.677   0.288
 9387SOL    HW229061   2.774   1.789   0.257
 9388SOL     OW29062   2.319   0.132   5.279
 9388SOL    HW129063   2.396   0.147   5.218
 9388SOL    HW229064   2.241   0.097   5.227
 9389SOL     OW29065   1.995   4.603   2.285
 9389SOL    HW129066   2.074   4.579   2.341
 9389SOL    HW229067   1.995   4.547   2.202
 9390SOL     OW29068   5.075   5.306   4.348
 9390SOL    HW129069   5.061   5.307   4.249
 9390SOL    HW229070   5.171   5.325   4.369
 9391SOL     OW29071   1.522   3.972   4.294
 9391SOL    HW129072   1.585   3.912   4.343
 9391SOL    HW229073   1.511   3.939   4.200
 9392SOL     OW29074   5.054   4.835   2.976
 9392SOL    HW129075   5.122   4.807   2.908
 9392SOL    HW229076   5.085   4.918   3.023
 9393SOL     OW29077   2.264   6.268   6.097
 9393SOL    HW129078   2.201   6.274   6.019
 9393SOL    HW229079   2.319   6.185   6.088
 9394SOL     OW29080   3.918   0.731   0.363
 9394SOL    HW129081   3.839   0.745   0.303
 9394SOL    HW229082   3.941   0.816   0.409
 9395SOL     OW29083   1.574   1.755   1.173
 9395SOL    HW129084   1.656   1.790   1.219
 9395SOL    HW229085   1.572   1.788   1.079
 9396SOL     OW29086   0.820   0.223   6.234
 9396SOL    HW129087   0.783   0.133   6.208
 9396SOL    HW229088   0.804   0.289   6.161
 9397SOL     OW29089   3.413   0.764   4.975
 9397SOL    HW129090   3.465   0.846   5.000
 9397SOL    HW229091   3.344   0.788   4.907
 9398SOL     OW29092   0.776   2.201   0.093
 9398SOL    HW129093   0.822   2.274   0.042
 9398SOL    HW229094   0.681   2.226   0.108
 9399SOL     OW29095   0.920   2.523   4.523
 9399SOL    HW129096   0.860   2.598   4.550
 9399SOL    HW229097   0.947   2.534   4.427
 9400SOL     OW29098   5.652   1.725   1.187
 9400SOL    HW129099   5.678   1.772   1.103
 9400SOL    HW229100   5.709   1.644   1.199
 9401SOL     OW29101   0.459   2.451   3.623
 9401SOL    HW129102   0.483   2.548   3.633
 9401SOL    HW229103   0.501   2.399   3.698
 9402SOL     OW29104   2.580   6.541   4.537
 9402SOL    HW129105   2.528   6.620   4.572
 9402SOL    HW229106   2.542   6.512   4.450
 9403SOL     OW29107   5.222   2.207   1.483
 9403SOL    HW129108   5.201   2.299   1.516
 9403SOL    HW229109   5.155   2.143   1.520
 9404SOL     OW29110   2.407   2.173   0.808
 9404SOL    HW129111   2.410   2.197   0.905
 9404SOL    HW229112   2.312   2.168   0.778
 9405SOL     OW29113   6.458   5.583   5.602
 9405SOL    HW129114   6.388   5.601   5.533
 9405SOL    HW229115   6.418   5.528   5.676
 9406SOL     OW29116   0.585   2.312   0.485
 9406SOL    HW129117   0.664   2.314   0.547
 9406SOL    HW229118   0.600   2.243   0.415
 9407SOL     OW29119   2.318   4.930   4.915
 9407SOL    HW129120   2.413   4.957   4.901
 9407SOL    HW229121   2.314   4.859   4.986
 9408SOL     OW29122   6.883   3.936   4.135
 9408SOL    HW129123   6.947   3.859   4.128
 9408SOL    HW229124   6.851   3.960   4.043
 9409SOL     OW29125   6.408   5.347   2.035
 9409SOL    HW129126   6.505   5.335   2.018
 9409SOL    HW229127   6.355   5.306   1.961
 9410SOL     OW29128   3.929   0.707   0.735
 9410SOL    HW129129   3.970   0.750   0.655
 9410SOL    HW229130   3.959   0.754   0.818
 9411SOL     OW29131   3.115   3.996   3.588
 9411SOL    HW129132   3.168   4.067   3.541
 9411SOL    HW229133   3.152   3.983   3.680
 9412SOL     OW29134   4.894   6.549   1.763
 9412SOL    HW129135   4.931   6.603   1.839
 9412SOL    HW229136   4.916   6.594   1.677
 9413SOL     OW29137   4.786   4.107   3.115
 9413SOL    HW129138   4.822   4.061   3.033
 9413SOL    HW229139   4.773   4.040   3.187
 9414SOL     OW29140   2.453   2.502   3.124
 9414SOL    HW129141   2.528   2.478   3.062
 9414SOL    HW229142   2.389   2.563   3.077
 9415SOL     OW29143   5.137   0.827   1.842
 9415SOL    HW129144   5.111   0.766   1.766
 9415SOL    HW229145   5.073   0.814   1.918
 9416SOL     OW29146   5.390   5.256   5.591
 9416SOL    HW129147   5.347   5.272   5.502
 9416SOL    HW229148   5.385   5.159   5.613
 9417SOL     OW29149   3.191   5.567   2.485
 9417SOL    HW129150   3.091   5.573   2.490
 9417SOL    HW229151   3.225   5.638   2.424
 9418SOL     OW29152   3.153   1.777   5.157
 9418SOL    HW129153   3.221   1.838   5.197
 9418SOL    HW229154   3.104   1.824   5.084
 9419SOL     OW29155   1.709   2.760   6.393
 9419SOL    HW129156   1.731   2.768   6.490
 9419SOL    HW229157   1.663   2.844   6.363
 9420SOL     OW29158   5.773   4.325   5.927
 9420SOL    HW129159   5.776   4.372   6.016
 9420SOL    HW229160   5.833   4.372   5.863
 9421SOL     OW29161   3.760   6.391   6.880
 9421SOL    HW129162   3.818   6.423   6.804
 9421SOL    HW229163   3.673   6.440   6.878
 9422SOL     OW29164   2.553   6.294   5.901
 9422SOL    HW129165   2.620   6.247   5.958
 9422SOL    HW229166   2.478   6.232   5.878
 9423SOL     OW29167   4.457   4.550   2.436
 9423SOL    HW129168   4.428   4.593   2.350
 9423SOL    HW229169   4.525   4.479   2.417
 9424SOL     OW29170   6.414   0.299   4.220
 9424SOL    HW129171   6.507   0.319   4.190
 9424SOL    HW229172   6.379   0.376   4.274
 9425SOL     OW29173   6.707   3.668   0.807
 9425SOL    HW129174   6.773   3.690   0.735
 9425SOL    HW229175   6.755   3.654   0.894
 9426SOL     OW29176   5.681   3.020   6.356
 9426SOL    HW129177   5.624   2.960   6.413
 9426SOL    HW229178   5.762   3.046   6.407
 9427SOL     OW29179   4.724   4.151   2.602
 9427SOL    HW129180   4.665   4.079   2.637
 9427SOL    HW229181   4.807   4.110   2.562
 9428SOL     OW29182   1.290   6.134   5.303
 9428SOL    HW129183   1.381   6.168   5.329
 9428SOL    HW229184   1.228   6.143   5.381
 9429SOL     OW29185   2.157   2.843   3.876
 9429SOL    HW129186   2.229   2.881   3.818
 9429SOL    HW229187   2.099   2.781   3.821
 9430SOL     OW29188   1.572   1.883   4.122
 9430SOL    HW129189   1.592   1.912   4.028
 9430SOL    HW229190   1.518   1.799   4.120
 9431SOL     OW29191   0.928   4.626   5.662
 9431SOL    HW129192   0.986   4.595   5.737
 9431SOL    HW229193   0.981   4.686   5.601
 9432SOL     OW29194   0.001   0.802   4.485
 9432SOL    HW129195   0.098   0.819   4.472
 9432SOL    HW229196   6.971   0.832   4.404
 9433SOL     OW29197   4.872   5.469   1.718
 9433SOL    HW129198   4.796   5.457   1.654
 9433SOL    HW229199   4.956   5.433   1.678
 9434SOL     OW29200   4.132   5.886   3.702
 9434SOL    HW129201   4.141   5.790   3.729
 9434SOL    HW229202   4.078   5.890   3.617
 9435SOL     OW29203   6.193   3.677   0.660
 9435SOL    HW129204   6.128   3.610   0.625
 9435SOL    HW229205   6.250   3.634   0.731
 9436SOL     OW29206   2.423   0.942   3.197
 9436SOL    HW129207   2.495   0.966   3.133
 9436SOL    HW229208   2.394   0.847   3.181
 9437SOL     OW29209   5.407   0.742   5.227
 9437SOL    HW129210   5.430   0.645   5.236
 9437SOL    HW229211   5.406   0.767   5.131
 9438SOL     OW29212   4.669   0.275   2.530
 9438SOL    HW129213   4.706   0.368   2.525
 9438SOL    HW229214   4.587   0.275   2.587
 9439SOL     OW29215   1.792   4.077   0.843
 9439SOL    HW129216   1.706   4.089   0.792
 9439SOL    HW229217   1.867   4.118   0.791
 9440SOL     OW29218   1.888   5.298   3.633
 9440SOL    HW129219   1.986   5.281   3.617
 9440SOL    HW229220   1.859   5.247   3.714
 9441SOL     OW29221   0.245   6.435   4.354
 9441SOL    HW129222   0.300   6.376   4.413
 9441SOL    HW229223   0.150   6.436   4.385
 9442SOL     OW29224   5.637   3.379   0.956
 9442SOL    HW129225   5.643   3.462   1.011
 9442SOL    HW229226   5.651   3.401   0.860
 9443SOL     OW29227   1.915   4.817   2.083
 9443SOL    HW129228   1.869   4.801   1.996
 9443SOL    HW229229   1.960   4.733   2.113
 9444SOL     OW29230   2.083   4.558   6.554
 9444SOL    HW129231   2.010   4.515   6.609
 9444SOL    HW229232   2.121   4.490   6.492
 9445SOL     OW29233   0.360   1.861   4.416
 9445SOL    HW129234   0.351   1.772   4.371
 9445SOL    HW229235   0.444   1.906   4.384
 9446SOL     OW29236   6.188   4.127   4.903
 9446SOL    HW129237   6.166   4.125   5.001
 9446SOL    HW229238   6.286   4.112   4.891
 9447SOL     OW29239   4.967   4.325   2.126
 9447SOL    HW129240   4.902   4.369   2.064
 9447SOL    HW229241   5.040   4.281   2.073
 9448SOL     OW29242   6.300   1.987   6.467
 9448SOL    HW129243   6.397   1.966   6.478
 9448SOL    HW229244   6.255   1.983   6.556
 9449SOL     OW29245   5.439   0.325   2.414
 9449SOL    HW129246   5.487   0.284   2.337
 9449SOL    HW229247   5.340   0.322   2.397
 9450SOL     OW29248   1.333   6.567   3.458
 9450SOL    HW129249   1.337   6.653   3.509
 9450SOL    HW229250   1.425   6.541   3.427
 9451SOL     OW29251   4.040   5.221   0.242
 9451SOL    HW129252   3.993   5.175   0.166
 9451SOL    HW229253   4.006   5.184   0.329
 9452SOL     OW29254   6.303   3.984   6.304
 9452SOL    HW129255   6.356   3.931   6.370
 9452SOL    HW229256   6.342   4.076   6.296
 9453SOL     OW29257   5.243   4.631   1.552
 9453SOL    HW129258   5.210   4.658   1.461
 9453SOL    HW229259   5.252   4.531   1.555
 9454SOL     OW29260   6.458   5.058   0.705
 9454SOL    HW129261   6.407   4.973   0.692
 9454SOL    HW229262   6.553   5.036   0.729
 9455SOL     OW29263   4.091   0.800   1.833
 9455SOL    HW129264   4.100   0.830   1.738
 9455SOL    HW229265   4.102   0.701   1.838
 9456SOL     OW29266   6.579   1.953   3.262
 9456SOL    HW129267   6.656   1.974   3.201
 9456SOL    HW229268   6.585   1.857   3.290
 9457SOL     OW29269   6.635   6.009   4.629
 9457SOL    HW129270   6.592   6.090   4.669
 9457SOL    HW229271   6.592   5.986   4.543
 9458SOL     OW29272   5.757   4.220   0.023
 9458SOL    HW129273   5.827   4.272   6.995
 9458SOL    HW229274   5.799   4.145   0.074
 9459SOL     OW29275   4.582   4.438   4.723
 9459SOL    HW129276   4.492   4.463   4.760
 9459SOL    HW229277   4.578   4.440   4.623
 9460SOL     OW29278   1.072   3.237   2.174
 9460SOL    HW129279   1.033   3.183   2.249
 9460SOL    HW229280   1.138   3.302   2.210
 9461SOL     OW29281   1.725   1.371   1.643
 9461SOL    HW129282   1.683   1.452   1.602
 9461SOL    HW229283   1.802   1.341   1.587
 9462SOL     OW29284   6.666   1.399   5.225
 9462SOL    HW129285   6.637   1.467   5.159
 9462SOL    HW229286   6.645   1.307   5.190
 9463SOL     OW29287   6.563   4.067   0.323
 9463SOL    HW129288   6.477   4.029   0.359
 9463SOL    HW229289   6.547   4.103   0.231
 9464SOL     OW29290   1.300   0.527   1.626
 9464SOL    HW129291   1.318   0.443   1.678
 9464SOL    HW229292   1.384   0.579   1.615
 9465SOL     OW29293   6.917   5.705   0.299
 9465SOL    HW129294   6.855   5.767   0.347
 9465SOL    HW229295   6.934   5.624   0.355
 9466SOL     OW29296   4.600   3.506   5.339
 9466SOL    HW129297   4.591   3.561   5.422
 9466SOL    HW229298   4.652   3.557   5.270
 9467SOL     OW29299   1.156   3.078   0.978
 9467SOL    HW129300   1.161   3.046   0.883
 9467SOL    HW229301   1.060   3.084   1.006
 9468SOL     OW29302   5.682   1.405   0.898
 9468SOL    HW129303   5.779   1.426   0.910
 9468SOL    HW229304   5.649   1.354   0.977
 9469SOL     OW29305   6.762   6.656   1.572
 9469SOL    HW129306   6.681   6.605   1.544
 9469SOL    HW229307   6.820   6.674   1.493
 9470SOL     OW29308   3.711   3.088   0.510
 9470SOL    HW129309   3.770   3.124   0.437
 9470SOL    HW229310   3.765   3.029   0.571
 9471SOL     OW29311   6.516   2.577   4.897
 9471SOL    HW129312   6.465   2.661   4.877
 9471SOL    HW229313   6.474   2.501   4.848
 9472SOL     OW29314   1.813   3.806   5.492
 9472SOL    HW129315   1.735   3.855   5.530
 9472SOL    HW229316   1.834   3.727   5.548
 9473SOL     OW29317   2.825   3.717   1.271
 9473SOL    HW129318   2.836   3.810   1.238
 9473SOL    HW229319   2.907   3.664   1.250
 9474SOL     OW29320   5.254   4.200   0.832
 9474SOL    HW129321   5.320   4.127   0.816
 9474SOL    HW229322   5.270   4.274   0.766
 9475SOL     OW29323   4.962   3.956   5.365
 9475SOL    HW129324   4.978   4.011   5.447
 9475SOL    HW229325   4.867   3.924   5.364
 9476SOL     OW29326   4.325   3.738   1.302
 9476SOL    HW129327   4.374   3.663   1.257
 9476SOL    HW229328   4.259   3.700   1.366
 9477SOL     OW29329   2.839   4.323   0.665
 9477SOL    HW129330   2.765   4.356   0.723
 9477SOL    HW229331   2.822   4.350   0.570
 9478SOL     OW29332   5.604   4.099   6.294
 9478SOL    HW129333   5.675   4.149   6.244
 9478SOL    HW229334   5.536   4.163   6.330
 9479SOL     OW29335   4.606   0.792   1.962
 9479SOL    HW129336   4.626   0.872   1.906
 9479SOL    HW229337   4.682   0.727   1.956
 9480SOL     OW29338   5.647   0.656   0.850
 9480SOL    HW129339   5.591   0.594   0.795
 9480SOL    HW229340   5.603   0.746   0.854
 9481SOL     OW29341   4.745   0.437   3.538
 9481SOL    HW129342   4.745   0.428   3.438
 9481SOL    HW229343   4.652   0.456   3.570
 9482SOL     OW29344   6.046   5.503   6.329
 9482SOL    HW129345   6.101   5.479   6.409
 9482SOL    HW229346   6.101   5.554   6.264
 9483SOL     OW29347   6.447   6.787   6.996
 9483SOL    HW129348   6.494   6.849   6.934
 9483SOL    HW229349   6.404   6.713   6.943
 9484SOL     OW29350   3.073   5.728   4.674
 9484SOL    HW129351   3.067   5.733   4.774
 9484SOL    HW229352   3.006   5.663   4.639
 9485SOL     OW29353   0.366   1.516   5.654
 9485SOL    HW129354   0.339   1.486   5.745
 9485SOL    HW229355   0.462   1.492   5.638
 9486SOL     OW29356   6.275   5.243   6.823
 9486SOL    HW129357   6.275   5.236   6.923
 9486SOL    HW229358   6.308   5.158   6.783
 9487SOL     OW29359   3.584   3.824   3.360
 9487SOL    HW129360   3.531   3.871   3.431
 9487SOL    HW229361   3.549   3.849   3.270
 9488SOL     OW29362   1.501   0.796   1.517
 9488SOL    HW129363   1.423   0.813   1.577
 9488SOL    HW229364   1.484   0.835   1.427
 9489SOL     OW29365   5.548   3.638   0.519
 9489SOL    HW129366   5.594   3.595   0.596
 9489SOL    HW229367   5.600   3.622   0.435
 9490SOL     OW29368   5.577   3.631   5.182
 9490SOL    HW129369   5.673   3.650   5.201
 9490SOL    HW229370   5.570   3.561   5.111
 9491SOL     OW29371   5.721   0.318   3.022
 9491SOL    HW129372   5.753   0.224   3.036
 9491SOL    HW229373   5.740   0.346   2.928
 9492SOL     OW29374   4.980   2.746   3.518
 9492SOL    HW129375   4.944   2.836   3.545
 9492SOL    HW229376   5.022   2.702   3.598
 9493SOL     OW29377   3.844   6.266   1.059
 9493SOL    HW129378   3.803   6.311   1.138
 9493SOL    HW229379   3.775   6.211   1.012
 9494SOL     OW29380   5.489   2.246   1.672
 9494SOL    HW129381   5.558   2.271   1.603
 9494SOL    HW229382   5.400   2.235   1.627
 9495SOL     OW29383   5.721   2.708   1.233
 9495SOL    HW129384   5.696   2.641   1.164
 9495SOL    HW229385   5.818   2.700   1.254
 9496SOL     OW29386   5.756   2.254   1.482
 9496SOL    HW129387   5.744   2.157   1.457
 9496SOL    HW229388   5.702   2.311   1.419
 9497SOL     OW29389   4.545   4.702   4.894
 9497SOL    HW129390   4.524   4.742   4.805
 9497SOL    HW229391   4.466   4.651   4.928
 9498SOL     OW29392   0.921   5.356   4.536
 9498SOL    HW129393   0.903   5.258   4.526
 9498SOL    HW229394   0.969   5.390   4.456
 9499SOL     OW29395   5.609   5.759   4.422
 9499SOL    HW129396   5.568   5.845   4.392
 9499SOL    HW229397   5.649   5.712   4.344
 9500SOL     OW29398   2.949   1.416   0.474
 9500SOL    HW129399   2.938   1.501   0.526
 9500SOL    HW229400   2.873   1.355   0.495
 9501SOL     OW29401   2.098   3.841   4.978
 9501SOL    HW129402   2.021   3.899   5.006
 9501SOL    HW229403   2.183   3.881   5.010
 9502SOL     OW29404   5.309   4.722   3.857
 9502SOL    HW129405   5.232   4.749   3.798
 9502SOL    HW229406   5.389   4.777   3.835
 9503SOL     OW29407   5.926   0.787   0.567
 9503SOL    HW129408   5.876   0.701   0.576
 9503SOL    HW229409   5.958   0.817   0.658
 9504SOL     OW29410   6.280   5.582   1.774
 9504SOL    HW129411   6.320   5.636   1.848
 9504SOL    HW229412   6.252   5.642   1.699
 9505SOL     OW29413   4.592   4.175   6.047
 9505SOL    HW129414   4.687   4.148   6.036
 9505SOL    HW229415   4.583   4.274   6.035
 9506SOL     OW29416   2.655   0.975   0.751
 9506SOL    HW129417   2.663   0.939   0.843
 9506SOL    HW229418   2.738   1.025   0.727
 9507SOL     OW29419   6.025   6.973   2.322
 9507SOL    HW129420   6.001   0.049   2.313
 9507SOL    HW229421   6.087   6.961   2.400
 9508SOL     OW29422   4.529   1.427   2.371
 9508SOL    HW129423   4.596   1.363   2.409
 9508SOL    HW229424   4.461   1.450   2.440
 9509SOL     OW29425   5.532   0.891   3.823
 9509SOL    HW129426   5.497   0.893   3.729
 9509SOL    HW229427   5.593   0.969   3.837
 9510SOL     OW29428   1.993   2.772   3.105
 9510SOL    HW129429   2.018   2.841   3.174
 9510SOL    HW229430   1.966   2.688   3.151
 9511SOL     OW29431   0.367   1.933   1.158
 9511SOL    HW129432   0.373   2.009   1.223
 9511SOL    HW229433   0.391   1.965   1.067
 9512SOL     OW29434   6.314   1.595   1.726
 9512SOL    HW129435   6.287   1.671   1.786
 9512SOL    HW229436   6.244   1.523   1.729
 9513SOL     OW29437   4.729   3.825   5.333
 9513SOL    HW129438   4.719   3.751   5.267
 9513SOL    HW229439   4.644   3.878   5.337
 9514SOL     OW29440   3.793   2.951   0.107
 9514SOL    HW129441   3.775   2.864   0.153
 9514SOL    HW229442   3.841   2.934   0.021
 9515SOL     OW29443   0.963   5.707   3.662
 9515SOL    HW129444   0.869   5.720   3.692
 9515SOL    HW229445   0.988   5.780   3.599
 9516SOL     OW29446   6.792   3.980   6.044
 9516SOL    HW129447   6.696   3.959   6.024
 9516SOL    HW229448   6.803   3.993   6.142
 9517SOL     OW29449   0.264   6.502   1.386
 9517SOL    HW129450   0.262   6.565   1.463
 9517SOL    HW229451   0.355   6.461   1.379
 9518SOL     OW29452   1.326   0.431   0.881
 9518SOL    HW129453   1.365   0.340   0.876
 9518SOL    HW229454   1.227   0.426   0.863
 9519SOL     OW29455   0.830   2.973   5.539
 9519SOL    HW129456   0.861   2.929   5.455
 9519SOL    HW229457   0.741   2.938   5.565
 9520SOL     OW29458   3.794   6.717   1.666
 9520SOL    HW129459   3.889   6.735   1.694
 9520SOL    HW229460   3.732   6.771   1.723
 9521SOL     OW29461   5.242   5.693   3.441
 9521SOL    HW129462   5.337   5.713   3.419
 9521SOL    HW229463   5.225   5.595   3.431
 9522SOL     OW29464   3.265   5.319   7.007
 9522SOL    HW129465   3.328   5.244   6.987
 9522SOL    HW229466   3.177   5.302   6.962
 9523SOL     OW29467   2.684   6.420   5.681
 9523SOL    HW129468   2.779   6.392   5.695
 9523SOL    HW229469   2.627   6.384   5.755
 9524SOL     OW29470   4.638   2.437   0.873
 9524SOL    HW129471   4.727   2.480   0.884
 9524SOL    HW229472   4.643   2.343   0.907
 9525SOL     OW29473   3.734   0.215   4.821
 9525SOL    HW129474   3.675   0.226   4.742
 9525SOL    HW229475   3.797   0.292   4.828
 9526SOL     OW29476   4.577   6.432   2.184
 9526SOL    HW129477   4.512   6.357   2.188
 9526SOL    HW229478   4.626   6.430   2.096
 9527SOL     OW29479   6.918   2.132   1.267
 9527SOL    HW129480   6.995   2.069   1.281
 9527SOL    HW229481   6.835   2.080   1.249
 9528SOL     OW29482   6.889   1.298   1.696
 9528SOL    HW129483   6.839   1.212   1.686
 9528SOL    HW229484   6.869   1.357   1.617
 9529SOL     OW29485   1.121   3.755   4.870
 9529SOL    HW129486   1.127   3.673   4.928
 9529SOL    HW229487   1.115   3.727   4.775
 9530SOL     OW29488   1.566   2.402   4.324
 9530SOL    HW129489   1.603   2.447   4.405
 9530SOL    HW229490   1.539   2.308   4.348
 9531SOL     OW29491   2.939   6.200   3.617
 9531SOL    HW129492   2.985   6.118   3.585
 9531SOL    HW229493   2.853   6.213   3.566
 9532SOL     OW29494   3.062   1.643   1.836
 9532SOL    HW129495   3.145   1.679   1.878
 9532SOL    HW229496   3.021   1.714   1.778
 9533SOL     OW29497   0.997   1.203   4.763
 9533SOL    HW129498   0.910   1.213   4.715
 9533SOL    HW229499   0.987   1.137   4.837
 9534SOL     OW29500   5.685   1.694   4.510
 9534SOL    HW129501   5.671   1.605   4.553
 9534SOL    HW229502   5.700   1.763   4.581
 9535SOL     OW29503   3.240   2.079   4.666
 9535SOL    HW129504   3.237   2.094   4.567
 9535SOL    HW229505   3.160   2.120   4.708
 9536SOL     OW29506   2.577   6.183   6.504
 9536SOL    HW129507   2.676   6.175   6.512
 9536SOL    HW229508   2.535   6.094   6.526
 9537SOL     OW29509   2.816   6.723   0.850
 9537SOL    HW129510   2.820   6.693   0.754
 9537SOL    HW229511   2.902   6.769   0.874
 9538SOL     OW29512   5.926   3.744   3.288
 9538SOL    HW129513   5.983   3.822   3.262
 9538SOL    HW229514   5.830   3.766   3.273
 9539SOL     OW29515   0.394   3.685   6.910
 9539SOL    HW129516   0.360   3.619   6.977
 9539SOL    HW229517   0.494   3.687   6.913
 9540SOL     OW29518   5.482   3.427   5.905
 9540SOL    HW129519   5.488   3.437   5.805
 9540SOL    HW229520   5.414   3.358   5.928
 9541SOL     OW29521   0.337   1.826   3.645
 9541SOL    HW129522   0.399   1.894   3.606
 9541SOL    HW229523   0.258   1.815   3.584
 9542SOL     OW29524   4.552   4.461   4.307
 9542SOL    HW129525   4.503   4.499   4.384
 9542SOL    HW229526   4.488   4.440   4.233
 9543SOL     OW29527   5.171   2.422   1.803
 9543SOL    HW129528   5.071   2.425   1.809
 9543SOL    HW229529   5.201   2.474   1.723
 9544SOL     OW29530   4.009   1.281   1.541
 9544SOL    HW129531   4.033   1.343   1.615
 9544SOL    HW229532   3.923   1.234   1.563
 9545SOL     OW29533   1.343   0.381   4.478
 9545SOL    HW129534   1.326   0.433   4.394
 9545SOL    HW229535   1.295   0.425   4.554
 9546SOL     OW29536   2.290   4.694   2.212
 9546SOL    HW129537   2.221   4.760   2.244
 9546SOL    HW229538   2.321   4.721   2.121
 9547SOL     OW29539   5.899   5.540   3.558
 9547SOL    HW129540   5.879   5.541   3.656
 9547SOL    HW229541   5.827   5.588   3.509
 9548SOL     OW29542   5.060   0.614   2.860
 9548SOL    HW129543   5.063   0.704   2.904
 9548SOL    HW229544   4.969   0.599   2.822
 9549SOL     OW29545   2.613   5.544   0.186
 9549SOL    HW129546   2.529   5.598   0.173
 9549SOL    HW229547   2.653   5.566   0.275
 9550SOL     OW29548   1.279   1.163   0.398
 9550SOL    HW129549   1.269   1.130   0.304
 9550SOL    HW229550   1.267   1.087   0.462
 9551SOL     OW29551   1.738   5.565   5.202
 9551SOL    HW129552   1.720   5.560   5.103
 9551SOL    HW229553   1.764   5.475   5.236
 9552SOL     OW29554   0.889   5.399   3.654
 9552SOL    HW129555   0.859   5.362   3.566
 9552SOL    HW229556   0.920   5.494   3.640
 9553SOL     OW29557   5.393   4.457   6.096
 9553SOL    HW129558   5.411   4.368   6.054
 9553SOL    HW229559   5.425   4.530   6.036
 9554SOL     OW29560   1.747   1.853   1.407
 9554SOL    HW129561   1.796   1.857   1.321
 9554SOL    HW229562   1.705   1.942   1.427
 9555SOL     OW29563   6.818   2.627   6.077
 9555SOL    HW129564   6.866   2.625   5.990
 9555SOL    HW229565   6.782   2.536   6.098
 9556SOL     OW29566   6.698   1.140   0.810
 9556SOL    HW129567   6.785   1.101   0.841
 9556SOL    HW229568   6.685   1.230   0.851
 9557SOL     OW29569   5.024   1.648   2.027
 9557SOL    HW129570   5.033   1.744   2.051
 9557SOL    HW229571   5.032   1.592   2.109
 9558SOL     OW29572   6.346   4.223   1.454
 9558SOL    HW129573   6.403   4.274   1.389
 9558SOL    HW229574   6.402   4.158   1.504
 9559SOL     OW29575   0.002   4.195   2.064
 9559SOL    HW129576   0.043   4.222   2.151
 9559SOL    HW229577   6.949   4.128   2.080
 9560SOL     OW29578   4.046   2.203   4.977
 9560SOL    HW129579   4.010   2.203   4.884
 9560SOL    HW229580   4.094   2.289   4.995
 9561SOL     OW29581   2.948   6.396   5.748
 9561SOL    HW129582   2.918   6.409   5.842
 9561SOL    HW229583   3.000   6.476   5.718
 9562SOL     OW29584   5.779   5.015   4.363
 9562SOL    HW129585   5.692   5.020   4.315
 9562SOL    HW229586   5.849   4.976   4.303
 9563SOL     OW29587   0.702   6.406   6.833
 9563SOL    HW129588   0.744   6.316   6.837
 9563SOL    HW229589   0.603   6.397   6.828
 9564SOL     OW29590   1.442   0.640   6.172
 9564SOL    HW129591   1.530   0.679   6.145
 9564SOL    HW229592   1.437   0.544   6.145
 9565SOL     OW29593   3.430   5.940   4.050
 9565SOL    HW129594   3.476   5.953   4.137
 9565SOL    HW229595   3.373   5.857   4.055
 9566SOL     OW29596   3.365   4.901   6.044
 9566SOL    HW129597   3.377   4.994   6.009
 9566SOL    HW229598   3.410   4.893   6.133
 9567SOL     OW29599   6.348   4.948   4.971
 9567SOL    HW129600   6.277   5.017   4.959
 9567SOL    HW229601   6.353   4.890   4.890
 9568SOL     OW29602   5.013   4.143   6.194
 9568SOL    HW129603   4.986   4.207   6.121
 9568SOL    HW229604   5.109   4.119   6.183
 9569SOL     OW29605   5.749   6.817   1.929
 9569SOL    HW129606   5.780   6.903   1.889
 9569SOL    HW229607   5.684   6.773   1.866
 9570SOL     OW29608   1.072   1.615   6.893
 9570SOL    HW129609   1.117   1.699   6.923
 9570SOL    HW229610   1.030   1.570   6.972
 9571SOL     OW29611   2.749   2.349   0.826
 9571SOL    HW129612   2.673   2.413   0.818
 9571SOL    HW229613   2.722   2.260   0.789
 9572SOL     OW29614   0.438   3.727   1.215
 9572SOL    HW129615   0.404   3.808   1.167
 9572SOL    HW229616   0.420   3.645   1.160
 9573SOL     OW29617   5.295   1.293   2.760
 9573SOL    HW129618   5.279   1.307   2.858
 9573SOL    HW229619   5.208   1.302   2.711
 9574SOL     OW29620   2.862   2.288   3.582
 9574SOL    HW129621   2.956   2.286   3.548
 9574SOL    HW229622   2.808   2.218   3.536
 9575SOL     OW29623   4.265   1.201   3.116
 9575SOL    HW129624   4.282   1.138   3.192
 9575SOL    HW229625   4.316   1.286   3.131
 9576SOL     OW29626   3.989   3.102   5.255
 9576SOL    HW129627   3.985   3.002   5.263
 9576SOL    HW229628   3.903   3.141   5.288
 9577SOL     OW29629   1.038   5.921   3.500
 9577SOL    HW129630   1.113   5.971   3.458
 9577SOL    HW229631   0.959   5.981   3.510
 9578SOL     OW29632   6.527   4.332   1.271
 9578SOL    HW129633   6.608   4.278   1.250
 9578SOL    HW229634   6.529   4.417   1.219
 9579SOL     OW29635   1.931   5.288   2.979
 9579SOL    HW129636   2.007   5.353   2.988
 9579SOL    HW229637   1.855   5.333   2.932
 9580SOL     OW29638   4.547   3.363   5.873
 9580SOL    HW129639   4.556   3.406   5.963
 9580SOL    HW229640   4.604   3.412   5.807
 9581SOL     OW29641   0.977   5.881   5.422
 9581SOL    HW129642   0.881   5.879   5.449
 9581SOL    HW229643   0.991   5.950   5.352
 9582SOL     OW29644   4.514   5.236   2.856
 9582SOL    HW129645   4.588   5.186   2.901
 9582SOL    HW229646   4.526   5.230   2.757
 9583SOL     OW29647   2.079   5.077   2.107
 9583SOL    HW129648   2.035   5.128   2.033
 9583SOL    HW229649   2.024   4.997   2.129
 9584SOL     OW29650   5.318   5.066   0.138
 9584SOL    HW129651   5.262   5.010   0.199
 9584SOL    HW229652   5.270   5.152   0.120
 9585SOL     OW29653   0.022   0.787   3.091
 9585SOL    HW129654   0.109   0.825   3.059
 9585SOL    HW229655   6.968   0.821   3.033
 9586SOL     OW29656   5.064   3.734   2.498
 9586SOL    HW129657   5.095   3.672   2.426
 9586SOL    HW229658   5.008   3.684   2.564
 9587SOL     OW29659   4.866   6.158   1.313
 9587SOL    HW129660   4.944   6.176   1.252
 9587SOL    HW229661   4.891   6.085   1.377
 9588SOL     OW29662   6.685   1.023   3.348
 9588SOL    HW129663   6.586   1.014   3.340
 9588SOL    HW229664   6.711   1.020   3.445
 9589SOL     OW29665   2.982   1.941   5.005
 9589SOL    HW129666   2.884   1.925   5.009
 9589SOL    HW229667   3.004   1.997   4.926
 9590SOL     OW29668   0.831   5.077   4.424
 9590SOL    HW129669   0.815   5.129   4.341
 9590SOL    HW229670   0.905   5.011   4.408
 9591SOL     OW29671   1.536   4.186   2.541
 9591SOL    HW129672   1.571   4.132   2.618
 9591SOL    HW229673   1.474   4.257   2.576
 9592SOL     OW29674   4.772   5.863   0.926
 9592SOL    HW129675   4.863   5.825   0.943
 9592SOL    HW229676   4.731   5.817   0.848
 9593SOL     OW29677   2.777   2.352   3.161
 9593SOL    HW129678   2.723   2.402   3.229
 9593SOL    HW229679   2.742   2.373   3.069
 9594SOL     OW29680   6.045   6.987   0.830
 9594SOL    HW129681   5.983   0.045   0.827
 9594SOL    HW229682   5.995   6.904   0.805
 9595SOL     OW29683   0.859   5.463   4.795
 9595SOL    HW129684   0.844   5.381   4.849
 9595SOL    HW229685   0.897   5.437   4.706
 9596SOL     OW29686   5.128   5.663   1.841
 9596SOL    HW129687   5.194   5.589   1.856
 9596SOL    HW229688   5.059   5.662   1.913
 9597SOL     OW29689   2.037   4.571   0.877
 9597SOL    HW129690   2.127   4.552   0.916
 9597SOL    HW229691   1.969   4.573   0.951
 9598SOL     OW29692   0.695   6.037   5.842
 9598SOL    HW129693   0.694   5.988   5.754
 9598SOL    HW229694   0.601   6.060   5.867
 9599SOL     OW29695   3.818   1.579   4.949
 9599SOL    HW129696   3.829   1.485   4.915
 9599SOL    HW229697   3.741   1.622   4.903
 9600SOL     OW29698   1.365   6.360   6.588
 9600SOL    HW129699   1.283   6.413   6.563
 9600SOL    HW229700   1.367   6.347   6.687
 9601SOL     OW29701   0.656   6.540   5.408
 9601SOL    HW129702   0.591   6.604   5.366
 9601SOL    HW229703   0.615   6.449   5.411
 9602SOL     OW29704   1.088   5.366   6.375
 9602SOL    HW129705   1.121   5.329   6.462
 9602SOL    HW229706   0.994   5.399   6.387
 9603SOL     OW29707   1.065   4.840   2.445
 9603SOL    HW129708   1.151   4.857   2.397
 9603SOL    HW229709   0.989   4.873   2.389
 9604SOL     OW29710   0.076   6.847   6.549
 9604SOL    HW129711   0.078   6.802   6.460
 9604SOL    HW229712   0.031   6.936   6.541
 9605SOL     OW29713   3.015   4.677   0.457
 9605SOL    HW129714   3.062   4.589   0.461
 9605SOL    HW229715   3.083   4.750   0.451
 9606SOL     OW29716   6.927   6.895   5.228
 9606SOL    HW129717   6.934   6.808   5.276
 9606SOL    HW229718   7.019   6.929   5.206
 9607SOL     OW29719   6.796   2.214   2.228
 9607SOL    HW129720   6.720   2.275   2.207
 9607SOL    HW229721   6.834   2.236   2.318
 9608SOL     OW29722   6.653   0.579   2.234
 9608SOL    HW129723   6.716   0.595   2.310
 9608SOL    HW229724   6.627   0.483   2.230
 9609SOL     OW29725   1.762   2.078   3.400
 9609SOL    HW129726   1.717   1.992   3.425
 9609SOL    HW229727   1.851   2.083   3.446
 9610SOL     OW29728   3.700   0.857   5.329
 9610SOL    HW129729   3.647   0.775   5.351
 9610SOL    HW229730   3.775   0.868   5.394
 9611SOL     OW29731   5.377   6.004   1.270
 9611SOL    HW129732   5.301   5.963   1.320
 9611SOL    HW229733   5.379   5.969   1.177
 9612SOL     OW29734   5.342   3.684   3.548
 9612SOL    HW129735   5.297   3.663   3.634
 9612SOL    HW229736   5.319   3.613   3.481
 9613SOL     OW29737   5.761   0.928   5.272
 9613SOL    HW129738   5.680   0.928   5.214
 9613SOL    HW229739   5.815   0.846   5.255
 9614SOL     OW29740   2.673   2.624   0.586
 9614SOL    HW129741   2.650   2.715   0.551
 9614SOL    HW229742   2.760   2.595   0.547
 9615SOL     OW29743   0.693   5.690   3.710
 9615SOL    HW129744   0.640   5.606   3.699
 9615SOL    HW229745   0.639   5.768   3.679
 9616SOL     OW29746   0.937   2.550   1.169
 9616SOL    HW129747   0.872   2.604   1.223
 9616SOL    HW229748   0.988   2.610   1.108
 9617SOL     OW29749   0.242   3.492   2.431
 9617SOL    HW129750   0.206   3.399   2.422
 9617SOL    HW229751   0.234   3.522   2.526
 9618SOL     OW29752   4.723   3.813   1.260
 9618SOL    HW129753   4.644   3.828   1.320
 9618SOL    HW229754   4.807   3.810   1.316
 9619SOL     OW29755   0.600   6.782   1.402
 9619SOL    HW129756   0.593   6.705   1.466
 9619SOL    HW229757   0.566   6.865   1.445
 9620SOL     OW29758   3.183   1.501   6.773
 9620SOL    HW129759   3.180   1.476   6.676
 9620SOL    HW229760   3.156   1.422   6.829
 9621SOL     OW29761   0.248   0.517   1.579
 9621SOL    HW129762   0.292   0.524   1.668
 9621SOL    HW229763   0.237   0.609   1.540
 9622SOL     OW29764   6.211   5.637   5.764
 9622SOL    HW129765   6.125   5.616   5.811
 9622SOL    HW229766   6.285   5.582   5.804
 9623SOL     OW29767   3.292   6.022   5.455
 9623SOL    HW129768   3.208   6.050   5.408
 9623SOL    HW229769   3.355   6.099   5.460
 9624SOL     OW29770   4.444   5.327   5.675
 9624SOL    HW129771   4.388   5.284   5.603
 9624SOL    HW229772   4.487   5.255   5.730
 9625SOL     OW29773   4.391   4.001   6.037
 9625SOL    HW129774   4.398   3.903   6.023
 9625SOL    HW229775   4.483   4.041   6.042
 9626SOL     OW29776   2.436   2.369   6.311
 9626SOL    HW129777   2.452   2.271   6.313
 9626SOL    HW229778   2.478   2.412   6.391
 9627SOL     OW29779   0.147   5.785   0.831
 9627SOL    HW129780   0.125   5.835   0.915
 9627SOL    HW229781   0.077   5.715   0.814
 9628SOL     OW29782   6.059   1.311   5.938
 9628SOL    HW129783   5.977   1.260   5.914
 9628SOL    HW229784   6.033   1.391   5.993
 9629SOL     OW29785   0.539   5.469   3.694
 9629SOL    HW129786   0.469   5.477   3.765
 9629SOL    HW229787   0.569   5.373   3.688
 9630SOL     OW29788   5.212   1.611   6.381
 9630SOL    HW129789   5.187   1.515   6.391
 9630SOL    HW229790   5.206   1.657   6.469
 9631SOL     OW29791   4.538   6.615   0.446
 9631SOL    HW129792   4.597   6.539   0.420
 9631SOL    HW229793   4.534   6.622   0.546
 9632SOL     OW29794   2.352   5.080   3.001
 9632SOL    HW129795   2.361   5.140   3.080
 9632SOL    HW229796   2.351   5.134   2.917
 9633SOL     OW29797   3.623   2.885   4.973
 9633SOL    HW129798   3.669   2.797   4.986
 9633SOL    HW229799   3.682   2.945   4.919
 9634SOL     OW29800   5.480   4.975   3.046
 9634SOL    HW129801   5.534   4.955   3.128
 9634SOL    HW229802   5.395   5.021   3.073
 9635SOL     OW29803   0.633   4.620   4.037
 9635SOL    HW129804   0.613   4.555   3.963
 9635SOL    HW229805   0.613   4.713   4.006
 9636SOL     OW29806   5.816   3.764   3.962
 9636SOL    HW129807   5.913   3.741   3.957
 9636SOL    HW229808   5.803   3.838   4.027
 9637SOL     OW29809   1.571   3.918   0.390
 9637SOL    HW129810   1.639   3.928   0.317
 9637SOL    HW229811   1.617   3.915   0.478
 9638SOL     OW29812   6.039   5.335   5.741
 9638SOL    HW129813   6.083   5.254   5.778
 9638SOL    HW229814   5.966   5.365   5.804
 9639SOL     OW29815   4.920   2.404   1.451
 9639SOL    HW129816   4.907   2.441   1.543
 9639SOL    HW229817   4.858   2.327   1.437
 9640SOL     OW29818   3.472   0.251   3.022
 9640SOL    HW129819   3.445   0.327   2.962
 9640SOL    HW229820   3.408   0.174   3.009
 9641SOL     OW29821   6.787   2.826   4.997
 9641SOL    HW129822   6.806   2.778   4.911
 9641SOL    HW229823   6.871   2.834   5.051
 9642SOL     OW29824   0.655   2.412   4.758
 9642SOL    HW129825   0.598   2.490   4.783
 9642SOL    HW229826   0.693   2.426   4.667
 9643SOL     OW29827   5.389   5.026   4.435
 9643SOL    HW129828   5.437   5.002   4.519
 9643SOL    HW229829   5.352   5.119   4.443
 9644SOL     OW29830   1.463   4.969   3.790
 9644SOL    HW129831   1.534   5.025   3.746
 9644SOL    HW229832   1.498   4.877   3.805
 9645SOL     OW29833   1.396   4.793   6.475
 9645SOL    HW129834   1.496   4.803   6.483
 9645SOL    HW229835   1.352   4.836   6.554
 9646SOL     OW29836   3.349   5.537   0.422
 9646SOL    HW129837   3.392   5.501   0.340
 9646SOL    HW229838   3.389   5.627   0.443
 9647SOL     OW29839   5.922   6.792   3.151
 9647SOL    HW129840   5.969   6.710   3.183
 9647SOL    HW229841   5.949   6.812   3.057
 9648SOL     OW29842   2.633   1.754   1.316
 9648SOL    HW129843   2.708   1.693   1.290
 9648SOL    HW229844   2.669   1.845   1.336
 9649SOL     OW29845   0.312   5.518   0.914
 9649SOL    HW129846   0.390   5.542   0.856
 9649SOL    HW229847   0.282   5.598   0.965
 9650SOL     OW29848   1.159   4.700   4.313
 9650SOL    HW129849   1.129   4.651   4.231
 9650SOL    HW229850   1.137   4.646   4.394
 9651SOL     OW29851   3.546   1.812   6.633
 9651SOL    HW129852   3.552   1.817   6.534
 9651SOL    HW229853   3.628   1.852   6.674
 9652SOL     OW29854   0.411   4.184   0.308
 9652SOL    HW129855   0.440   4.180   0.404
 9652SOL    HW229856   0.458   4.112   0.257
 9653SOL     OW29857   4.893   4.464   5.354
 9653SOL    HW129858   4.850   4.377   5.329
 9653SOL    HW229859   4.941   4.501   5.274
 9654SOL     OW29860   3.830   3.604   2.887
 9654SOL    HW129861   3.908   3.542   2.890
 9654SOL    HW229862   3.862   3.698   2.894
 9655SOL     OW29863   4.643   1.725   1.198
 9655SOL    HW129864   4.630   1.721   1.297
 9655SOL    HW229865   4.625   1.635   1.159
 9656SOL     OW29866   4.817   4.284   6.336
 9656SOL    HW129867   4.897   4.228   6.316
 9656SOL    HW229868   4.777   4.318   6.251
 9657SOL     OW29869   5.010   4.757   3.739
 9657SOL    HW129870   5.076   4.783   3.668
 9657SOL    HW229871   4.957   4.678   3.708
 9658SOL     OW29872   5.720   1.381   2.924
 9658SOL    HW129873   5.812   1.354   2.896
 9658SOL    HW229874   5.659   1.379   2.845
 9659SOL     OW29875   3.256   2.936   6.652
 9659SOL    HW129876   3.160   2.909   6.659
 9659SOL    HW229877   3.295   2.899   6.567
 9660SOL     OW29878   1.839   6.298   1.308
 9660SOL    HW129879   1.751   6.342   1.321
 9660SOL    HW229880   1.826   6.200   1.295
 9661SOL     OW29881   4.014   3.086   2.057
 9661SOL    HW129882   4.053   3.115   1.970
 9661SOL    HW229883   4.073   3.017   2.099
 9662SOL     OW29884   4.695   6.430   5.863
 9662SOL    HW129885   4.692   6.529   5.872
 9662SOL    HW229886   4.683   6.388   5.952
 9663SOL     OW29887   0.998   5.627   2.645
 9663SOL    HW129888   1.011   5.712   2.697
 9663SOL    HW229889   1.083   5.605   2.595
 9664SOL     OW29890   3.299   5.288   2.516
 9664SOL    HW129891   3.341   5.289   2.607
 9664SOL    HW229892   3.229   5.358   2.511
 9665SOL     OW29893   5.970   4.392   5.746
 9665SOL    HW129894   6.068   4.407   5.737
 9665SOL    HW229895   5.930   4.374   5.656
 9666SOL     OW29896   5.447   3.745   0.768
 9666SOL    HW129897   5.522   3.719   0.707
 9666SOL    HW229898   5.364   3.762   0.714
 9667SOL     OW29899   5.284   6.595   0.020
 9667SOL    HW129900   5.366   6.542   0.002
 9667SOL    HW229901   5.226   6.594   6.959
 9668SOL     OW29902   1.756   1.206   6.169
 9668SOL    HW129903   1.741   1.136   6.239
 9668SOL    HW229904   1.853   1.227   6.162
 9669SOL     OW29905   2.903   0.333   0.049
 9669SOL    HW129906   2.825   0.285   0.088
 9669SOL    HW229907   2.946   0.276   6.999
 9670SOL     OW29908   0.802   0.613   0.899
 9670SOL    HW129909   0.854   0.699   0.897
 9670SOL    HW229910   0.840   0.553   0.969
 9671SOL     OW29911   1.188   5.323   6.621
 9671SOL    HW129912   1.137   5.238   6.608
 9671SOL    HW229913   1.166   5.362   6.711
 9672SOL     OW29914   0.998   3.731   4.230
 9672SOL    HW129915   1.033   3.770   4.145
 9672SOL    HW229916   1.072   3.683   4.278
 9673SOL     OW29917   2.501   2.888   6.871
 9673SOL    HW129918   2.521   2.840   6.786
 9673SOL    HW229919   2.445   2.968   6.852
 9674SOL     OW29920   1.981   6.808   4.112
 9674SOL    HW129921   1.974   6.882   4.179
 9674SOL    HW229922   1.970   6.720   4.158
 9675SOL     OW29923   6.219   4.235   5.637
 9675SOL    HW129924   6.294   4.173   5.661
 9675SOL    HW229925   6.178   4.205   5.551
 9676SOL     OW29926   0.919   3.470   5.177
 9676SOL    HW129927   0.864   3.387   5.186
 9676SOL    HW229928   0.873   3.545   5.224
 9677SOL     OW29929   6.724   4.800   2.484
 9677SOL    HW129930   6.665   4.790   2.564
 9677SOL    HW229931   6.721   4.895   2.452
 9678SOL     OW29932   3.862   3.696   5.238
 9678SOL    HW129933   3.790   3.755   5.275
 9678SOL    HW229934   3.868   3.613   5.293
 9679SOL     OW29935   1.465   0.938   4.133
 9679SOL    HW129936   1.517   0.962   4.050
 9679SOL    HW229937   1.492   0.998   4.208
 9680SOL     OW29938   4.506   0.630   2.411
 9680SOL    HW129939   4.517   0.693   2.333
 9680SOL    HW229940   4.593   0.588   2.433
 9681SOL     OW29941   1.459   2.981   1.400
 9681SOL    HW129942   1.379   3.037   1.379
 9681SOL    HW229943   1.494   3.005   1.490
 9682SOL     OW29944   4.904   6.917   5.994
 9682SOL    HW129945   4.991   6.922   6.043
 9682SOL    HW229946   4.920   6.934   5.897
 9683SOL     OW29947   4.458   6.490   4.062
 9683SOL    HW129948   4.441   6.584   4.092
 9683SOL    HW229949   4.428   6.427   4.134
 9684SOL     OW29950   0.332   3.499   5.833
 9684SOL    HW129951   0.355   3.539   5.744
 9684SOL    HW229952   0.244   3.537   5.865
 9685SOL     OW29953   3.420   4.790   1.716
 9685SOL    HW129954   3.474   4.715   1.755
 9685SOL    HW229955   3.329   4.757   1.692
 9686SOL     OW29956   0.649   1.539   5.612
 9686SOL    HW129957   0.667   1.605   5.538
 9686SOL    HW229958   0.709   1.460   5.600
 9687SOL     OW29959   5.746   1.077   3.826
 9687SOL    HW129960   5.698   1.159   3.794
 9687SOL    HW229961   5.822   1.057   3.764
 9688SOL     OW29962   0.336   5.047   1.572
 9688SOL    HW129963   0.377   5.052   1.481
 9688SOL    HW229964   0.386   4.980   1.627
 9689SOL     OW29965   1.565   5.468   1.612
 9689SOL    HW129966   1.559   5.370   1.629
 9689SOL    HW229967   1.475   5.502   1.582
 9690SOL     OW29968   0.543   4.583   5.185
 9690SOL    HW129969   0.519   4.488   5.163
 9690SOL    HW229970   0.501   4.644   5.117
 9691SOL     OW29971   3.785   3.261   1.993
 9691SOL    HW129972   3.824   3.322   1.924
 9691SOL    HW229973   3.848   3.255   2.071
 9692SOL     OW29974   5.023   4.579   0.257
 9692SOL    HW129975   5.050   4.643   0.185
 9692SOL    HW229976   4.950   4.619   0.312
 9693SOL     OW29977   4.876   3.148   5.900
 9693SOL    HW129978   4.822   3.094   5.964
 9693SOL    HW229979   4.902   3.234   5.942
 9694SOL     OW29980   2.909   6.266   1.086
 9694SOL    HW129981   2.922   6.176   1.045
 9694SOL    HW229982   2.946   6.267   1.179
 9695SOL     OW29983   0.994   3.032   4.180
 9695SOL    HW129984   0.995   2.954   4.242
 9695SOL    HW229985   0.999   3.117   4.233
 9696SOL     OW29986   5.070   3.090   3.502
 9696SOL    HW129987   5.136   3.111   3.430
 9696SOL    HW229988   5.112   3.029   3.569
 9697SOL     OW29989   0.668   0.066   1.505
 9697SOL    HW129990   0.661   0.043   1.602
 9697SOL    HW229991   0.593   0.129   1.480
 9698SOL     OW29992   6.970   3.767   1.758
 9698SOL    HW129993   0.035   3.808   1.791
 9698SOL    HW229994   6.980   3.742   1.662
 9699SOL     OW29995   0.975   5.813   1.719
 9699SOL    HW129996   0.999   5.898   1.766
 9699SOL    HW229997   0.996   5.735   1.777
 9700SOL     OW29998   5.164   0.921   6.141
 9700SOL    HW129999   5.118   0.980   6.075
 9700SOL    HW230000   5.215   0.850   6.094
 9701SOL     OW30001   5.246   3.834   0.121
 9701SOL    HW130002   5.281   3.824   0.214
 9701SOL    HW230003   5.216   3.928   0.106
 9702SOL     OW30004   3.946   3.876   1.624
 9702SOL    HW130005   3.877   3.949   1.622
 9702SOL    HW230006   3.905   3.790   1.594
 9703SOL     OW30007   5.897   5.074   3.332
 9703SOL    HW130008   5.982   5.048   3.285
 9703SOL    HW230009   5.910   5.162   3.377
 9704SOL     OW30010   1.499   3.961   2.367
 9704SOL    HW130011   1.540   3.882   2.411
 9704SOL    HW230012   1.509   4.042   2.426
 9705SOL     OW30013   0.345   3.179   5.624
 9705SOL    HW130014   0.341   3.191   5.723
 9705SOL    HW230015   0.430   3.134   5.599
 9706SOL     OW30016   0.846   0.875   2.425
 9706SOL    HW130017   0.877   0.822   2.346
 9706SOL    HW230018   0.747   0.869   2.433
 9707SOL     OW30019   1.094   5.233   2.474
 9707SOL    HW130020   1.042   5.215   2.558
 9707SOL    HW230021   1.192   5.233   2.494
 9708SOL     OW30022   2.697   0.793   1.738
 9708SOL    HW130023   2.666   0.744   1.657
 9708SOL    HW230024   2.672   0.890   1.731
 9709SOL     OW30025   5.404   1.419   1.812
 9709SOL    HW130026   5.401   1.387   1.906
 9709SOL    HW230027   5.377   1.515   1.807
 9710SOL     OW30028   4.758   5.395   4.869
 9710SOL    HW130029   4.791   5.482   4.832
 9710SOL    HW230030   4.682   5.362   4.814
 9711SOL     OW30031   2.924   0.896   6.834
 9711SOL    HW130032   2.937   0.797   6.825
 9711SOL    HW230033   2.969   0.943   6.758
 9712SOL     OW30034   5.171   0.409   6.179
 9712SOL    HW130035   5.130   0.338   6.121
 9712SOL    HW230036   5.125   0.497   6.162
 9713SOL     OW30037   2.131   6.939   2.957
 9713SOL    HW130038   2.183   6.993   3.024
 9713SOL    HW230039   2.106   6.997   2.880
 9714SOL     OW30040   2.138   3.497   4.213
 9714SOL    HW130041   2.127   3.465   4.119
 9714SOL    HW230042   2.163   3.420   4.272
 9715SOL     OW30043   6.791   2.855   6.596
 9715SOL    HW130044   6.696   2.827   6.605
 9715SOL    HW230045   6.836   2.799   6.525
 9716SOL     OW30046   2.559   6.533   0.431
 9716SOL    HW130047   2.615   6.494   0.358
 9716SOL    HW230048   2.541   6.630   0.410
 9717SOL     OW30049   3.865   2.431   5.936
 9717SOL    HW130050   3.783   2.391   5.977
 9717SOL    HW230051   3.897   2.373   5.861
 9718SOL     OW30052   4.053   2.303   6.615
 9718SOL    HW130053   4.009   2.309   6.705
 9718SOL    HW230054   4.152   2.310   6.626
 9719SOL     OW30055   4.685   0.025   5.890
 9719SOL    HW130056   4.736   6.991   5.957
 9719SOL    HW230057   4.657   6.986   5.814
 9720SOL     OW30058   1.960   2.249   2.204
 9720SOL    HW130059   1.880   2.275   2.259
 9720SOL    HW230060   2.020   2.328   2.196
 9721SOL     OW30061   0.608   1.542   1.295
 9721SOL    HW130062   0.687   1.572   1.242
 9721SOL    HW230063   0.554   1.477   1.241
 9722SOL     OW30064   4.031   2.487   5.519
 9722SOL    HW130065   4.040   2.448   5.611
 9722SOL    HW230066   3.935   2.503   5.498
 9723SOL     OW30067   6.182   0.487   4.983
 9723SOL    HW130068   6.255   0.419   4.972
 9723SOL    HW230069   6.191   0.531   5.072
 9724SOL     OW30070   1.150   4.559   1.026
 9724SOL    HW130071   1.162   4.654   1.057
 9724SOL    HW230072   1.141   4.559   0.926
 9725SOL     OW30073   5.208   5.626   3.753
 9725SOL    HW130074   5.238   5.565   3.680
 9725SOL    HW230075   5.150   5.698   3.715
 9726SOL     OW30076   6.612   0.122   2.866
 9726SOL    HW130077   6.609   0.045   2.802
 9726SOL    HW230078   6.690   0.111   2.927
 9727SOL     OW30079   6.096   2.826   1.593
 9727SOL    HW130080   6.107   2.739   1.545
 9727SOL    HW230081   6.033   2.815   1.669
 9728SOL     OW30082   5.555   2.195   4.227
 9728SOL    HW130083   5.514   2.124   4.285
 9728SOL    HW230084   5.616   2.153   4.161
 9729SOL     OW30085   0.617   3.532   3.223
 9729SOL    HW130086   0.566   3.515   3.307
 9729SOL    HW230087   0.566   3.496   3.145
 9730SOL     OW30088   0.964   5.380   2.822
 9730SOL    HW130089   1.061   5.360   2.828
 9730SOL    HW230090   0.951   5.476   2.798
 9731SOL     OW30091   6.165   3.103   1.651
 9731SOL    HW130092   6.155   3.004   1.660
 9731SOL    HW230093   6.101   3.149   1.713
 9732SOL     OW30094   1.344   3.588   2.766
 9732SOL    HW130095   1.321   3.553   2.675
 9732SOL    HW230096   1.442   3.608   2.770
 9733SOL     OW30097   6.378   4.605   2.133
 9733SOL    HW130098   6.293   4.651   2.157
 9733SOL    HW230099   6.436   4.666   2.079
 9734SOL     OW30100   4.401   5.211   6.466
 9734SOL    HW130101   4.390   5.218   6.366
 9734SOL    HW230102   4.499   5.214   6.488
 9735SOL     OW30103   0.006   1.812   0.582
 9735SOL    HW130104   6.990   1.885   0.640
 9735SOL    HW230105   6.968   1.731   0.591
 9736SOL     OW30106   4.891   2.576   5.068
 9736SOL    HW130107   4.959   2.542   5.133
 9736SOL    HW230108   4.839   2.650   5.110
 9737SOL     OW30109   5.787   2.835   4.039
 9737SOL    HW130110   5.823   2.802   4.127
 9737SOL    HW230111   5.741   2.760   3.992
 9738SOL     OW30112   2.438   6.446   1.341
 9738SOL    HW130113   2.432   6.544   1.324
 9738SOL    HW230114   2.532   6.420   1.360
 9739SOL     OW30115   6.120   6.061   0.578
 9739SOL    HW130116   6.032   6.090   0.615
 9739SOL    HW230117   6.183   6.139   0.577
 9740SOL     OW30118   6.112   0.732   1.988
 9740SOL    HW130119   6.051   0.763   2.061
 9740SOL    HW230120   6.073   0.756   1.900
 9741SOL     OW30121   2.499   2.260   3.317
 9741SOL    HW130122   2.557   2.186   3.283
 9741SOL    HW230123   2.444   2.296   3.242
 9742SOL     OW30124   3.523   1.799   6.351
 9742SOL    HW130125   3.448   1.850   6.308
 9742SOL    HW230126   3.498   1.703   6.360
 9743SOL     OW30127   6.535   3.769   4.014
 9743SOL    HW130128   6.550   3.769   3.915
 9743SOL    HW230129   6.599   3.705   4.057
 9744SOL     OW30130   1.909   1.822   2.378
 9744SOL    HW130131   1.914   1.803   2.477
 9744SOL    HW230132   1.827   1.875   2.359
 9745SOL     OW30133   0.348   0.147   5.910
 9745SOL    HW130134   0.284   0.091   5.962
 9745SOL    HW230135   0.301   0.229   5.877
 9746SOL     OW30136   3.377   6.337   5.704
 9746SOL    HW130137   3.470   6.360   5.676
 9746SOL    HW230138   3.317   6.416   5.686
 9747SOL     OW30139   3.677   1.989   3.877
 9747SOL    HW130140   3.699   1.911   3.818
 9747SOL    HW230141   3.669   1.957   3.972
 9748SOL     OW30142   0.617   1.215   2.334
 9748SOL    HW130143   0.666   1.141   2.379
 9748SOL    HW230144   0.567   1.178   2.256
 9749SOL     OW30145   6.668   0.455   1.639
 9749SOL    HW130146   6.741   0.387   1.632
 9749SOL    HW230147   6.596   0.421   1.698
 9750SOL     OW30148   5.752   2.609   5.794
 9750SOL    HW130149   5.730   2.700   5.761
 9750SOL    HW230150   5.669   2.555   5.805
 9751SOL     OW30151   3.151   6.935   1.616
 9751SOL    HW130152   3.149   6.969   1.522
 9751SOL    HW230153   3.120   6.840   1.617
 9752SOL     OW30154   3.221   2.788   0.577
 9752SOL    HW130155   3.149   2.816   0.640
 9752SOL    HW230156   3.289   2.733   0.626
 9753SOL     OW30157   0.027   5.745   3.915
 9753SOL    HW130158   0.061   5.817   3.855
 9753SOL    HW230159   0.060   5.656   3.883
 9754SOL     OW30160   3.526   1.294   2.281
 9754SOL    HW130161   3.463   1.356   2.326
 9754SOL    HW230162   3.556   1.334   2.194
 9755SOL     OW30163   3.662   3.757   0.058
 9755SOL    HW130164   3.762   3.750   0.055
 9755SOL    HW230165   3.623   3.698   7.007
 9756SOL     OW30166   5.416   0.455   6.078
 9756SOL    HW130167   5.486   0.425   6.143
 9756SOL    HW230168   5.326   0.425   6.110
 9757SOL     OW30169   5.275   3.516   4.248
 9757SOL    HW130170   5.184   3.520   4.289
 9757SOL    HW230171   5.340   3.475   4.312
 9758SOL     OW30172   2.786   0.998   2.323
 9758SOL    HW130173   2.814   0.972   2.416
 9758SOL    HW230174   2.755   1.093   2.323
 9759SOL     OW30175   6.461   1.978   1.830
 9759SOL    HW130176   6.399   1.900   1.832
 9759SOL    HW230177   6.414   2.057   1.791
 9760SOL     OW30178   4.261   0.675   6.590
 9760SOL    HW130179   4.345   0.658   6.538
 9760SOL    HW230180   4.183   0.677   6.528
 9761SOL     OW30181   0.681   2.521   1.477
 9761SOL    HW130182   0.677   2.569   1.565
 9761SOL    HW230183   0.739   2.440   1.487
 9762SOL     OW30184   3.186   1.133   5.691
 9762SOL    HW130185   3.257   1.081   5.738
 9762SOL    HW230186   3.221   1.163   5.602
 9763SOL     OW30187   6.269   2.562   1.263
 9763SOL    HW130188   6.265   2.475   1.213
 9763SOL    HW230189   6.342   2.558   1.331
 9764SOL     OW30190   0.532   2.094   2.385
 9764SOL    HW130191   0.570   2.184   2.363
 9764SOL    HW230192   0.482   2.099   2.471
 9765SOL     OW30193   6.730   0.896   1.331
 9765SOL    HW130194   6.714   0.889   1.233
 9765SOL    HW230195   6.642   0.899   1.379
 9766SOL     OW30196   0.517   2.738   2.862
 9766SOL    HW130197   0.491   2.832   2.885
 9766SOL    HW230198   0.441   2.677   2.882
 9767SOL     OW30199   2.730   1.573   5.352
 9767SOL    HW130200   2.665   1.502   5.325
 9767SOL    HW230201   2.781   1.544   5.432
 9768SOL     OW30202   5.342   3.020   0.305
 9768SOL    HW130203   5.253   3.027   0.349
 9768SOL    HW230204   5.384   2.932   0.328
 9769SOL     OW30205   3.122   1.708   5.429
 9769SOL    HW130206   3.216   1.676   5.436
 9769SOL    HW230207   3.116   1.778   5.358
 9770SOL     OW30208   1.956   3.164   5.660
 9770SOL    HW130209   1.923   3.078   5.700
 9770SOL    HW230210   1.924   3.171   5.565
 9771SOL     OW30211   3.364   0.566   1.515
 9771SOL    HW130212   3.290   0.621   1.552
 9771SOL    HW230213   3.355   0.472   1.546
 9772SOL     OW30214   0.873   0.434   1.110
 9772SOL    HW130215   0.971   0.453   1.109
 9772SOL    HW230216   0.837   0.449   1.202
 9773SOL     OW30217   5.659   5.878   2.132
 9773SOL    HW130218   5.653   5.964   2.183
 9773SOL    HW230219   5.574   5.862   2.082
 9774SOL     OW30220   2.178   5.078   4.312
 9774SOL    HW130221   2.220   5.000   4.359
 9774SOL    HW230222   2.152   5.050   4.219
 9775SOL     OW30223   2.103   1.187   2.711
 9775SOL    HW130224   2.129   1.278   2.743
 9775SOL    HW230225   2.072   1.132   2.788
 9776SOL     OW30226   2.433   5.476   1.235
 9776SOL    HW130227   2.351   5.460   1.289
 9776SOL    HW230228   2.458   5.392   1.187
 9777SOL     OW30229   4.490   1.567   5.263
 9777SOL    HW130230   4.523   1.532   5.350
 9777SOL    HW230231   4.394   1.593   5.271
 9778SOL     OW30232   0.929   4.073   3.052
 9778SOL    HW130233   1.006   4.118   3.007
 9778SOL    HW230234   0.901   4.126   3.132
 9779SOL     OW30235   2.654   0.460   3.847
 9779SOL    HW130236   2.560   0.437   3.872
 9779SOL    HW230237   2.673   0.429   3.754
 9780SOL     OW30238   0.596   1.723   0.817
 9780SOL    HW130239   0.637   1.641   0.778
 9780SOL    HW230240   0.499   1.728   0.792
 9781SOL     OW30241   0.862   0.936   1.902
 9781SOL    HW130242   0.939   0.991   1.869
 9781SOL    HW230243   0.795   0.996   1.944
 9782SOL     OW30244   0.040   2.316   0.580
 9782SOL    HW130245   0.138   2.321   0.565
 9782SOL    HW230246   0.012   2.389   0.642
 9783SOL     OW30247   4.306   1.789   3.059
 9783SOL    HW130248   4.288   1.715   2.995
 9783SOL    HW230249   4.350   1.865   3.011
 9784SOL     OW30250   1.572   1.360   6.440
 9784SOL    HW130251   1.596   1.267   6.410
 9784SOL    HW230252   1.644   1.423   6.412
 9785SOL     OW30253   0.778   3.965   4.628
 9785SOL    HW130254   0.711   3.893   4.643
 9785SOL    HW230255   0.845   3.935   4.560
 9786SOL     OW30256   2.766   4.085   6.727
 9786SOL    HW130257   2.694   4.073   6.795
 9786SOL    HW230258   2.855   4.071   6.771
 9787SOL     OW30259   3.093   3.893   2.064
 9787SOL    HW130260   3.086   3.798   2.096
 9787SOL    HW230261   3.019   3.911   1.998
 9788SOL     OW30262   3.894   0.179   2.496
 9788SOL    HW130263   3.947   0.251   2.541
 9788SOL    HW230264   3.831   0.220   2.430
 9789SOL     OW30265   3.094   0.925   0.244
 9789SOL    HW130266   3.145   0.842   0.219
 9789SOL    HW230267   3.134   1.004   0.197
 9790SOL     OW30268   4.599   5.834   4.838
 9790SOL    HW130269   4.625   5.904   4.772
 9790SOL    HW230270   4.561   5.878   4.919
 9791SOL     OW30271   1.131   6.947   1.465
 9791SOL    HW130272   1.183   6.939   1.380
 9791SOL    HW230273   1.040   6.906   1.452
 9792SOL     OW30274   3.381   4.435   1.208
 9792SOL    HW130275   3.474   4.425   1.174
 9792SOL    HW230276   3.318   4.436   1.130
 9793SOL     OW30277   6.094   0.924   3.105
 9793SOL    HW130278   6.005   0.970   3.100
 9793SOL    HW230279   6.161   0.974   3.050
 9794SOL     OW30280   4.193   5.068   4.304
 9794SOL    HW130281   4.104   5.111   4.292
 9794SOL    HW230282   4.251   5.089   4.226
 9795SOL     OW30283   0.842   3.491   3.509
 9795SOL    HW130284   0.889   3.576   3.486
 9795SOL    HW230285   0.785   3.463   3.432
 9796SOL     OW30286   2.888   3.519   3.983
 9796SOL    HW130287   2.943   3.461   4.044
 9796SOL    HW230288   2.796   3.529   4.021
 9797SOL     OW30289   2.869   5.429   6.797
 9797SOL    HW130290   2.878   5.494   6.722
 9797SOL    HW230291   2.956   5.381   6.810
 9798SOL     OW30292   0.182   4.376   6.671
 9798SOL    HW130293   0.087   4.389   6.641
 9798SOL    HW230294   0.203   4.278   6.674
 9799SOL     OW30295   3.358   0.589   0.260
 9799SOL    HW130296   3.268   0.547   0.248
 9799SOL    HW230297   3.430   0.521   0.248
 9800SOL     OW30298   6.476   3.728   4.418
 9800SOL    HW130299   6.538   3.793   4.373
 9800SOL    HW230300   6.410   3.693   4.352
 9801SOL     OW30301   5.030   5.772   0.413
 9801SOL    HW130302   4.963   5.698   0.402
 9801SOL    HW230303   5.121   5.739   0.388
 9802SOL     OW30304   3.962   3.746   0.042
 9802SOL    HW130305   3.975   3.647   0.045
 9802SOL    HW230306   4.043   3.792   0.079
 9803SOL     OW30307   1.236   3.776   6.314
 9803SOL    HW130308   1.180   3.695   6.333
 9803SOL    HW230309   1.198   3.824   6.234
 9804SOL     OW30310   0.954   4.358   3.045
 9804SOL    HW130311   1.039   4.330   3.090
 9804SOL    HW230312   0.972   4.438   2.988
 9805SOL     OW30313   0.728   5.618   3.993
 9805SOL    HW130314   0.821   5.583   4.001
 9805SOL    HW230315   0.700   5.620   3.897
 9806SOL     OW30316   3.549   1.640   0.468
 9806SOL    HW130317   3.580   1.660   0.561
 9806SOL    HW230318   3.550   1.541   0.453
 9807SOL     OW30319   4.109   3.384   3.204
 9807SOL    HW130320   4.091   3.407   3.299
 9807SOL    HW230321   4.206   3.363   3.192
 9808SOL     OW30322   3.581   5.556   2.178
 9808SOL    HW130323   3.490   5.521   2.154
 9808SOL    HW230324   3.622   5.498   2.248
 9809SOL     OW30325   6.201   2.370   0.718
 9809SOL    HW130326   6.283   2.387   0.774
 9809SOL    HW230327   6.172   2.455   0.675
 9810SOL     OW30328   2.227   2.265   1.075
 9810SOL    HW130329   2.151   2.289   1.015
 9810SOL    HW230330   2.194   2.204   1.148
 9811SOL     OW30331   5.720   3.710   4.490
 9811SOL    HW130332   5.644   3.772   4.508
 9811SOL    HW230333   5.803   3.762   4.473
 9812SOL     OW30334   3.311   5.809   5.620
 9812SOL    HW130335   3.306   5.886   5.556
 9812SOL    HW230336   3.325   5.724   5.569
 9813SOL     OW30337   5.147   0.889   2.601
 9813SOL    HW130338   5.180   0.798   2.579
 9813SOL    HW230339   5.103   0.888   2.691
 9814SOL     OW30340   0.456   1.351   5.983
 9814SOL    HW130341   0.523   1.277   5.983
 9814SOL    HW230342   0.433   1.375   6.078
 9815SOL     OW30343   4.343   2.401   4.098
 9815SOL    HW130344   4.255   2.364   4.068
 9815SOL    HW230345   4.398   2.426   4.018
 9816SOL     OW30346   2.874   1.199   0.832
 9816SOL    HW130347   2.813   1.276   0.816
 9816SOL    HW230348   2.944   1.224   0.899
 9817SOL     OW30349   6.527   0.070   2.145
 9817SOL    HW130350   6.455   0.032   2.087
 9817SOL    HW230351   6.552   0.004   2.215
 9818SOL     OW30352   5.082   2.776   5.429
 9818SOL    HW130353   5.068   2.799   5.333
 9818SOL    HW230354   5.008   2.816   5.484
 9819SOL     OW30355   4.174   0.819   2.111
 9819SOL    HW130356   4.151   0.812   2.014
 9819SOL    HW230357   4.119   0.753   2.163
 9820SOL     OW30358   4.000   2.787   6.942
 9820SOL    HW130359   4.018   2.792   6.844
 9820SOL    HW230360   4.050   2.710   6.981
 9821SOL     OW30361   6.894   5.399   0.087
 9821SOL    HW130362   6.899   5.459   0.007
 9821SOL    HW230363   6.871   5.452   0.168
 9822SOL     OW30364   1.105   0.249   3.155
 9822SOL    HW130365   1.084   0.243   3.057
 9822SOL    HW230366   1.129   0.343   3.179
 9823SOL     OW30367   3.530   6.765   1.557
 9823SOL    HW130368   3.626   6.743   1.568
 9823SOL    HW230369   3.507   6.844   1.614
 9824SOL     OW30370   0.918   4.021   5.648
 9824SOL    HW130371   0.874   3.948   5.701
 9824SOL    HW230372   1.008   4.041   5.687
 9825SOL     OW30373   4.124   5.144   5.393
 9825SOL    HW130374   4.039   5.151   5.445
 9825SOL    HW230375   4.107   5.090   5.310
 9826SOL     OW30376   5.057   0.205   6.030
 9826SOL    HW130377   5.065   0.111   6.063
 9826SOL    HW230378   5.068   0.207   5.930
 9827SOL     OW30379   1.071   3.707   4.614
 9827SOL    HW130380   1.064   3.617   4.571
 9827SOL    HW230381   1.012   3.772   4.565
 9828SOL     OW30382   2.792   2.527   6.396
 9828SOL    HW130383   2.847   2.554   6.475
 9828SOL    HW230384   2.695   2.544   6.415
 9829SOL     OW30385   3.229   4.242   1.381
 9829SOL    HW130386   3.249   4.329   1.337
 9829SOL    HW230387   3.256   4.167   1.320
 9830SOL     OW30388   6.314   1.140   0.302
 9830SOL    HW130389   6.375   1.067   0.334
 9830SOL    HW230390   6.331   1.158   0.205
 9831SOL     OW30391   5.765   6.693   0.475
 9831SOL    HW130392   5.703   6.766   0.503
 9831SOL    HW230393   5.713   6.610   0.457
 9832SOL     OW30394   4.398   5.005   0.888
 9832SOL    HW130395   4.320   5.068   0.894
 9832SOL    HW230396   4.380   4.924   0.944
 9833SOL     OW30397   4.052   3.860   5.563
 9833SOL    HW130398   3.959   3.896   5.552
 9833SOL    HW230399   4.080   3.869   5.658
 9834SOL     OW30400   1.575   2.698   4.587
 9834SOL    HW130401   1.611   2.721   4.497
 9834SOL    HW230402   1.576   2.779   4.646
 9835SOL     OW30403   4.917   1.677   4.362
 9835SOL    HW130404   4.851   1.653   4.292
 9835SOL    HW230405   4.953   1.769   4.345
 9836SOL     OW30406   4.798   4.845   2.177
 9836SOL    HW130407   4.752   4.861   2.090
 9836SOL    HW230408   4.771   4.755   2.213
 9837SOL     OW30409   1.447   6.659   4.729
 9837SOL    HW130410   1.531   6.625   4.773
 9837SOL    HW230411   1.376   6.589   4.734
 9838SOL     OW30412   6.620   5.258   5.232
 9838SOL    HW130413   6.591   5.344   5.274
 9838SOL    HW230414   6.556   5.185   5.259
 9839SOL     OW30415   6.721   2.323   2.597
 9839SOL    HW130416   6.695   2.413   2.561
 9839SOL    HW230417   6.737   2.261   2.520
 9840SOL     OW30418   6.725   0.616   0.693
 9840SOL    HW130419   6.776   0.607   0.778
 9840SOL    HW230420   6.628   0.603   0.711
 9841SOL     OW30421   1.718   3.794   4.382
 9841SOL    HW130422   1.778   3.788   4.462
 9841SOL    HW230423   1.730   3.713   4.325
 9842SOL     OW30424   3.299   2.910   2.794
 9842SOL    HW130425   3.308   2.877   2.888
 9842SOL    HW230426   3.203   2.933   2.776
 9843SOL     OW30427   5.733   3.213   2.324
 9843SOL    HW130428   5.737   3.151   2.246
 9843SOL    HW230429   5.699   3.302   2.295
 9844SOL     OW30430   4.929   0.535   2.361
 9844SOL    HW130431   5.010   0.496   2.405
 9844SOL    HW230432   4.951   0.558   2.266
 9845SOL     OW30433   0.923   2.022   3.570
 9845SOL    HW130434   0.883   2.114   3.571
 9845SOL    HW230435   1.014   2.026   3.610
 9846SOL     OW30436   2.926   3.544   3.069
 9846SOL    HW130437   2.884   3.477   3.130
 9846SOL    HW230438   2.943   3.502   2.980
 9847SOL     OW30439   2.231   4.415   4.984
 9847SOL    HW130440   2.207   4.321   4.959
 9847SOL    HW230441   2.315   4.415   5.038
 9848SOL     OW30442   4.800   3.398   0.532
 9848SOL    HW130443   4.746   3.447   0.600
 9848SOL    HW230444   4.846   3.464   0.472
 9849SOL     OW30445   0.415   6.776   5.086
 9849SOL    HW130446   0.335   6.717   5.077
 9849SOL    HW230447   0.450   6.771   5.180
 9850SOL     OW30448   4.332   0.090   2.761
 9850SOL    HW130449   4.348   0.057   2.668
 9850SOL    HW230450   4.366   0.023   2.827
 9851SOL     OW30451   5.932   2.763   4.828
 9851SOL    HW130452   5.930   2.862   4.823
 9851SOL    HW230453   5.842   2.729   4.858
 9852SOL     OW30454   4.940   2.099   3.743
 9852SOL    HW130455   4.915   2.006   3.769
 9852SOL    HW230456   4.895   2.164   3.803
 9853SOL     OW30457   6.532   3.813   1.612
 9853SOL    HW130458   6.577   3.724   1.609
 9853SOL    HW230459   6.598   3.883   1.641
 9854SOL     OW30460   4.473   6.065   3.261
 9854SOL    HW130461   4.553   6.032   3.311
 9854SOL    HW230462   4.403   5.994   3.261
 9855SOL     OW30463   1.474   3.198   1.080
 9855SOL    HW130464   1.433   3.121   1.032
 9855SOL    HW230465   1.530   3.251   1.016
 9856SOL     OW30466   4.168   2.522   0.787
 9856SOL    HW130467   4.191   2.503   0.882
 9856SOL    HW230468   4.252   2.529   0.733
 9857SOL     OW30469   5.734   4.047   3.373
 9857SOL    HW130470   5.714   3.958   3.331
 9857SOL    HW230471   5.651   4.082   3.417
 9858SOL     OW30472   4.353   1.549   0.912
 9858SOL    HW130473   4.395   1.471   0.865
 9858SOL    HW230474   4.254   1.546   0.901
 9859SOL     OW30475   6.381   0.370   1.383
 9859SOL    HW130476   6.469   0.402   1.347
 9859SOL    HW230477   6.390   0.351   1.481
 9860SOL     OW30478   0.570   0.912   2.441
 9860SOL    HW130479   0.578   0.891   2.343
 9860SOL    HW230480   0.536   0.831   2.489
 9861SOL     OW30481   3.812   6.762   4.834
 9861SOL    HW130482   3.767   6.693   4.891
 9861SOL    HW230483   3.810   6.732   4.739
 9862SOL     OW30484   0.363   2.702   0.785
 9862SOL    HW130485   0.425   2.624   0.797
 9862SOL    HW230486   0.299   2.683   0.711
 9863SOL     OW30487   2.992   6.922   0.920
 9863SOL    HW130488   2.938   6.988   0.974
 9863SOL    HW230489   3.076   6.900   0.969
 9864SOL     OW30490   4.575   5.871   2.267
 9864SOL    HW130491   4.655   5.873   2.326
 9864SOL    HW230492   4.519   5.790   2.288
 9865SOL     OW30493   0.518   2.527   5.246
 9865SOL    HW130494   0.447   2.523   5.316
 9865SOL    HW230495   0.496   2.600   5.181
 9866SOL     OW30496   4.053   4.864   3.297
 9866SOL    HW130497   4.048   4.823   3.206
 9866SOL    HW230498   4.145   4.899   3.313
 9867SOL     OW30499   4.072   0.225   6.151
 9867SOL    HW130500   3.980   0.194   6.132
 9867SOL    HW230501   4.073   0.325   6.158
 9868SOL     OW30502   6.979   5.309   6.746
 9868SOL    HW130503   6.963   5.242   6.819
 9868SOL    HW230504   7.009   5.395   6.787
 9869SOL     OW30505   1.817   3.905   3.469
 9869SOL    HW130506   1.863   3.844   3.534
 9869SOL    HW230507   1.725   3.926   3.502
 9870SOL     OW30508   4.903   4.373   2.503
 9870SOL    HW130509   4.930   4.364   2.407
 9870SOL    HW230510   4.823   4.316   2.520
 9871SOL     OW30511   1.505   1.380   5.301
 9871SOL    HW130512   1.549   1.427   5.378
 9871SOL    HW230513   1.567   1.380   5.223
 9872SOL     OW30514   1.662   5.110   3.640
 9872SOL    HW130515   1.693   5.205   3.649
 9872SOL    HW230516   1.740   5.051   3.621
 9873SOL     OW30517   0.725   2.939   0.674
 9873SOL    HW130518   0.703   3.023   0.625
 9873SOL    HW230519   0.742   2.866   0.609
 9874SOL     OW30520   0.794   3.046   3.530
 9874SOL    HW130521   0.743   3.026   3.614
 9874SOL    HW230522   0.885   3.080   3.554
 9875SOL     OW30523   1.030   0.872   3.628
 9875SOL    HW130524   1.026   0.970   3.648
 9875SOL    HW230525   1.125   0.844   3.616
 9876SOL     OW30526   6.903   6.266   2.651
 9876SOL    HW130527   6.894   6.364   2.666
 9876SOL    HW230528   6.962   6.226   2.722
 9877SOL     OW30529   3.461   0.230   2.511
 9877SOL    HW130530   3.383   0.280   2.550
 9877SOL    HW230531   3.429   0.172   2.436
 9878SOL     OW30532   0.714   0.120   4.983
 9878SOL    HW130533   0.626   0.096   4.943
 9878SOL    HW230534   0.700   0.182   5.060
 9879SOL     OW30535   5.392   6.009   6.050
 9879SOL    HW130536   5.316   5.944   6.058
 9879SOL    HW230537   5.355   6.102   6.053
 9880SOL     OW30538   1.898   1.929   4.742
 9880SOL    HW130539   1.826   1.932   4.811
 9880SOL    HW230540   1.987   1.927   4.787
 9881SOL     OW30541   6.900   2.365   6.286
 9881SOL    HW130542   6.965   2.383   6.361
 9881SOL    HW230543   6.814   2.411   6.305
 9882SOL     OW30544   1.253   1.751   3.188
 9882SOL    HW130545   1.253   1.706   3.277
 9882SOL    HW230546   1.268   1.684   3.116
 9883SOL     OW30547   2.259   0.384   1.666
 9883SOL    HW130548   2.179   0.436   1.697
 9883SOL    HW230549   2.307   0.348   1.746
 9884SOL     OW30550   3.668   0.817   3.981
 9884SOL    HW130551   3.596   0.793   3.916
 9884SOL    HW230552   3.713   0.734   4.013
 9885SOL     OW30553   6.069   5.090   4.023
 9885SOL    HW130554   6.163   5.125   4.022
 9885SOL    HW230555   6.034   5.088   3.930
 9886SOL     OW30556   1.328   3.575   2.492
 9886SOL    HW130557   1.299   3.662   2.451
 9886SOL    HW230558   1.361   3.514   2.420
 9887SOL     OW30559   4.291   0.596   6.163
 9887SOL    HW130560   4.237   0.674   6.195
 9887SOL    HW230561   4.386   0.607   6.192
 9888SOL     OW30562   0.211   4.357   0.298
 9888SOL    HW130563   0.177   4.380   0.389
 9888SOL    HW230564   0.265   4.273   0.303
 9889SOL     OW30565   0.226   5.050   0.562
 9889SOL    HW130566   0.184   4.980   0.504
 9889SOL    HW230567   0.250   5.009   0.650
 9890SOL     OW30568   0.814   2.793   1.361
 9890SOL    HW130569   0.831   2.756   1.452
 9890SOL    HW230570   0.719   2.823   1.354
 9891SOL     OW30571   5.191   1.696   1.577
 9891SOL    HW130572   5.274   1.745   1.606
 9891SOL    HW230573   5.140   1.752   1.512
 9892SOL     OW30574   6.631   5.525   6.495
 9892SOL    HW130575   6.542   5.556   6.527
 9892SOL    HW230576   6.647   5.430   6.524
 9893SOL     OW30577   1.788   0.946   1.307
 9893SOL    HW130578   1.874   0.900   1.284
 9893SOL    HW230579   1.782   0.955   1.407
 9894SOL     OW30580   1.521   2.047   0.809
 9894SOL    HW130581   1.485   2.045   0.902
 9894SOL    HW230582   1.479   1.974   0.755
 9895SOL     OW30583   5.097   3.350   5.909
 9895SOL    HW130584   5.172   3.300   5.954
 9895SOL    HW230585   5.093   3.325   5.813
 9896SOL     OW30586   5.832   6.752   0.134
 9896SOL    HW130587   5.890   6.717   0.208
 9896SOL    HW230588   5.887   6.810   0.073
 9897SOL     OW30589   4.806   5.292   3.462
 9897SOL    HW130590   4.870   5.321   3.533
 9897SOL    HW230591   4.817   5.194   3.445
 9898SOL     OW30592   2.909   6.306   5.361
 9898SOL    HW130593   2.852   6.284   5.441
 9898SOL    HW230594   2.852   6.348   5.290
 9899SOL     OW30595   6.924   5.581   6.863
 9899SOL    HW130596   6.970   5.662   6.900
 9899SOL    HW230597   6.834   5.606   6.828
 9900SOL     OW30598   2.044   3.652   3.417
 9900SOL    HW130599   2.096   3.697   3.489
 9900SOL    HW230600   1.961   3.612   3.456
 9901SOL     OW30601   2.057   2.548   5.439
 9901SOL    HW130602   2.117   2.557   5.518
 9901SOL    HW230603   1.992   2.474   5.455
 9902SOL     OW30604   2.582   4.122   0.088
 9902SOL    HW130605   2.513   4.091   0.023
 9902SOL    HW230606   2.663   4.153   0.039
 9903SOL     OW30607   5.789   0.616   3.539
 9903SOL    HW130608   5.841   0.565   3.470
 9903SOL    HW230609   5.786   0.712   3.514
 9904SOL     OW30610   6.917   2.725   6.370
 9904SOL    HW130611   6.837   2.682   6.328
 9904SOL    HW230612   6.995   2.717   6.307
 9905SOL     OW30613   4.244   1.172   0.223
 9905SOL    HW130614   4.309   1.100   0.199
 9905SOL    HW230615   4.154   1.149   0.187
 9906SOL     OW30616   4.132   3.535   4.214
 9906SOL    HW130617   4.088   3.514   4.127
 9906SOL    HW230618   4.221   3.577   4.197
 9907SOL     OW30619   0.775   0.121   1.203
 9907SOL    HW130620   0.874   0.130   1.217
 9907SOL    HW230621   0.758   0.074   1.117
 9908SOL     OW30622   5.243   3.432   3.372
 9908SOL    HW130623   5.230   3.333   3.360
 9908SOL    HW230624   5.167   3.481   3.329
 9909SOL     OW30625   2.104   0.034   5.132
 9909SOL    HW130626   2.030   7.009   5.183
 9909SOL    HW230627   2.065   0.096   5.064
 9910SOL     OW30628   1.006   4.227   3.350
 9910SOL    HW130629   0.926   4.173   3.377
 9910SOL    HW230630   1.017   4.304   3.413
 9911SOL     OW30631   2.837   6.232   2.202
 9911SOL    HW130632   2.889   6.258   2.284
 9911SOL    HW230633   2.848   6.302   2.132
 9912SOL     OW30634   4.720   1.052   6.919
 9912SOL    HW130635   4.674   1.001   6.991
 9912SOL    HW230636   4.658   1.122   6.883
 9913SOL     OW30637   5.613   2.966   6.899
 9913SOL    HW130638   5.542   2.949   6.968
 9913SOL    HW230639   5.676   3.037   6.933
 9914SOL     OW30640   0.288   3.007   4.985
 9914SOL    HW130641   0.240   3.006   4.897
 9914SOL    HW230642   0.363   2.940   4.982
 9915SOL     OW30643   5.610   0.499   3.734
 9915SOL    HW130644   5.615   0.552   3.818
 9915SOL    HW230645   5.657   0.548   3.661
 9916SOL     OW30646   2.248   2.525   1.825
 9916SOL    HW130647   2.210   2.436   1.852
 9916SOL    HW230648   2.271   2.524   1.728
 9917SOL     OW30649   6.895   4.175   4.824
 9917SOL    HW130650   6.960   4.190   4.750
 9917SOL    HW230651   6.898   4.080   4.853
 9918SOL     OW30652   4.312   2.187   2.884
 9918SOL    HW130653   4.278   2.223   2.797
 9918SOL    HW230654   4.299   2.256   2.956
 9919SOL     OW30655   6.781   5.890   0.440
 9919SOL    HW130656   6.686   5.913   0.464
 9919SOL    HW230657   6.844   5.952   0.488
 9920SOL     OW30658   4.942   1.470   2.227
 9920SOL    HW130659   4.874   1.420   2.174
 9920SOL    HW230660   4.926   1.453   2.325
 9921SOL     OW30661   4.031   5.673   5.867
 9921SOL    HW130662   4.070   5.756   5.826
 9921SOL    HW230663   3.932   5.682   5.872
 9922SOL     OW30664   0.511   5.253   0.652
 9922SOL    HW130665   0.439   5.189   0.627
 9922SOL    HW230666   0.559   5.220   0.734
 9923SOL     OW30667   5.255   4.886   0.384
 9923SOL    HW130668   5.249   4.830   0.301
 9923SOL    HW230669   5.223   4.833   0.462
 9924SOL     OW30670   0.979   3.993   4.801
 9924SOL    HW130671   1.022   3.904   4.818
 9924SOL    HW230672   0.887   3.978   4.764
 9925SOL     OW30673   5.363   2.375   3.796
 9925SOL    HW130674   5.286   2.320   3.764
 9925SOL    HW230675   5.337   2.423   3.880
 9926SOL     OW30676   2.120   4.906   0.091
 9926SOL    HW130677   2.085   4.999   0.107
 9926SOL    HW230678   2.043   4.842   0.087
 9927SOL     OW30679   6.185   7.019   2.966
 9927SOL    HW130680   6.171   0.020   3.063
 9927SOL    HW230681   6.114   6.956   2.935
 9928SOL     OW30682   5.004   4.387   1.347
 9928SOL    HW130683   4.999   4.288   1.333
 9928SOL    HW230684   4.911   4.425   1.351
 9929SOL     OW30685   2.283   4.156   3.657
 9929SOL    HW130686   2.349   4.169   3.583
 9929SOL    HW230687   2.332   4.143   3.744
 9930SOL     OW30688   6.725   0.359   3.866
 9930SOL    HW130689   6.743   0.456   3.848
 9930SOL    HW230690   6.712   0.311   3.779
 9931SOL     OW30691   0.972   4.862   5.483
 9931SOL    HW130692   0.923   4.862   5.396
 9931SOL    HW230693   0.925   4.923   5.547
 9932SOL     OW30694   0.969   6.052   5.205
 9932SOL    HW130695   0.932   6.012   5.121
 9932SOL    HW230696   1.033   6.126   5.181
 9933SOL     OW30697   0.206   5.711   2.296
 9933SOL    HW130698   0.212   5.702   2.395
 9933SOL    HW230699   0.203   5.808   2.271
 9934SOL     OW30700   6.546   1.981   6.132
 9934SOL    HW130701   6.630   1.928   6.127
 9934SOL    HW230702   6.485   1.954   6.057
 9935SOL     OW30703   3.132   1.081   6.311
 9935SOL    HW130704   3.135   1.165   6.365
 9935SOL    HW230705   3.036   1.056   6.295
 9936SOL     OW30706   0.752   4.357   4.239
 9936SOL    HW130707   0.715   4.446   4.266
 9936SOL    HW230708   0.781   4.361   4.143
 9937SOL     OW30709   6.697   2.139   6.306
 9937SOL    HW130710   6.634   2.092   6.244
 9937SOL    HW230711   6.758   2.198   6.253
 9938SOL     OW30712   6.401   6.489   3.118
 9938SOL    HW130713   6.432   6.570   3.168
 9938SOL    HW230714   6.472   6.460   3.054
 9939SOL     OW30715   3.049   3.182   2.340
 9939SOL    HW130716   3.102   3.118   2.394
 9939SOL    HW230717   3.003   3.133   2.266
 9940SOL     OW30718   0.116   1.369   0.702
 9940SOL    HW130719   0.105   1.313   0.620
 9940SOL    HW230720   0.184   1.440   0.685
 9941SOL     OW30721   3.529   4.687   5.502
 9941SOL    HW130722   3.458   4.757   5.502
 9941SOL    HW230723   3.493   4.603   5.463
 9942SOL     OW30724   2.637   5.370   3.327
 9942SOL    HW130725   2.562   5.328   3.275
 9942SOL    HW230726   2.720   5.316   3.314
 9943SOL     OW30727   1.154   6.605   5.250
 9943SOL    HW130728   1.141   6.703   5.268
 9943SOL    HW230729   1.154   6.555   5.336
 9944SOL     OW30730   0.799   3.794   0.183
 9944SOL    HW130731   0.759   3.880   0.211
 9944SOL    HW230732   0.865   3.763   0.252
 9945SOL     OW30733   6.556   5.496   0.067
 9945SOL    HW130734   6.537   5.454   6.998
 9945SOL    HW230735   6.500   5.452   0.137
 9946SOL     OW30736   5.001   0.594   5.119
 9946SOL    HW130737   5.042   0.662   5.178
 9946SOL    HW230738   5.059   0.513   5.114
 9947SOL     OW30739   5.864   4.659   3.792
 9947SOL    HW130740   5.775   4.648   3.836
 9947SOL    HW230741   5.856   4.723   3.716
 9948SOL     OW30742   5.170   4.925   4.298
 9948SOL    HW130743   5.209   4.948   4.387
 9948SOL    HW230744   5.081   4.881   4.311
 9949SOL     OW30745   5.766   5.107   2.606
 9949SOL    HW130746   5.711   5.109   2.689
 9949SOL    HW230747   5.796   5.200   2.584
 9950SOL     OW30748   4.034   5.935   5.431
 9950SOL    HW130749   4.014   5.889   5.344
 9950SOL    HW230750   4.083   5.872   5.491
 9951SOL     OW30751   6.050   1.955   3.075
 9951SOL    HW130752   5.996   1.880   3.113
 9951SOL    HW230753   6.032   2.039   3.127
 9952SOL     OW30754   0.278   5.254   0.294
 9952SOL    HW130755   0.207   5.323   0.281
 9952SOL    HW230756   0.354   5.272   0.232
 9953SOL     OW30757   6.897   1.588   4.306
 9953SOL    HW130758   6.807   1.562   4.339
 9953SOL    HW230759   6.903   1.570   4.208
 9954SOL     OW30760   4.656   0.171   5.509
 9954SOL    HW130761   4.743   0.144   5.468
 9954SOL    HW230762   4.595   0.205   5.437
 9955SOL     OW30763   0.786   4.667   5.099
 9955SOL    HW130764   0.780   4.651   5.001
 9955SOL    HW230765   0.703   4.632   5.143
 9956SOL     OW30766   1.559   6.037   1.137
 9956SOL    HW130767   1.522   6.092   1.062
 9956SOL    HW230768   1.493   5.966   1.162
 9957SOL     OW30769   6.153   4.304   3.023
 9957SOL    HW130770   6.095   4.320   3.104
 9957SOL    HW230771   6.112   4.349   2.944
 9958SOL     OW30772   2.317   4.562   1.331
 9958SOL    HW130773   2.275   4.510   1.405
 9958SOL    HW230774   2.281   4.530   1.243
 9959SOL     OW30775   3.853   3.833   0.873
 9959SOL    HW130776   3.854   3.832   0.773
 9959SOL    HW230777   3.833   3.741   0.907
 9960SOL     OW30778   0.724   1.461   2.390
 9960SOL    HW130779   0.800   1.504   2.340
 9960SOL    HW230780   0.694   1.379   2.341
 9961SOL     OW30781   2.203   4.503   4.705
 9961SOL    HW130782   2.214   4.458   4.794
 9961SOL    HW230783   2.260   4.458   4.637
 9962SOL     OW30784   5.620   6.023   5.088
 9962SOL    HW130785   5.678   6.098   5.057
 9962SOL    HW230786   5.605   6.030   5.187
 9963SOL     OW30787   3.108   0.711   0.709
 9963SOL    HW130788   3.027   0.667   0.748
 9963SOL    HW230789   3.090   0.808   0.695
 9964SOL     OW30790   4.987   5.808   5.328
 9964SOL    HW130791   5.002   5.749   5.249
 9964SOL    HW230792   4.891   5.837   5.330
 9965SOL     OW30793   3.774   0.345   6.951
 9965SOL    HW130794   3.872   0.326   6.949
 9965SOL    HW230795   3.725   0.263   6.981
 9966SOL     OW30796   0.461   6.919   2.739
 9966SOL    HW130797   0.363   6.940   2.732
 9966SOL    HW230798   0.508   6.997   2.779
 9967SOL     OW30799   1.239   5.131   0.894
 9967SOL    HW130800   1.283   5.077   0.966
 9967SOL    HW230801   1.285   5.115   0.807
 9968SOL     OW30802   3.553   2.864   2.719
 9968SOL    HW130803   3.459   2.866   2.755
 9968SOL    HW230804   3.552   2.834   2.624
 9969SOL     OW30805   0.749   3.516   1.610
 9969SOL    HW130806   0.782   3.454   1.681
 9969SOL    HW230807   0.667   3.562   1.641
 9970SOL     OW30808   5.589   4.619   1.402
 9970SOL    HW130809   5.582   4.561   1.483
 9970SOL    HW230810   5.649   4.575   1.335
 9971SOL     OW30811   2.412   5.700   0.107
 9971SOL    HW130812   2.425   5.794   0.138
 9971SOL    HW230813   2.315   5.675   0.115
 9972SOL     OW30814   6.707   4.623   1.483
 9972SOL    HW130815   6.669   4.653   1.572
 9972SOL    HW230816   6.741   4.530   1.491
 9973SOL     OW30817   5.569   6.916   4.562
 9973SOL    HW130818   5.540   6.857   4.638
 9973SOL    HW230819   5.644   6.871   4.513
 9974SOL     OW30820   1.780   0.782   4.024
 9974SOL    HW130821   1.772   0.881   4.034
 9974SOL    HW230822   1.869   0.752   4.058
 9975SOL     OW30823   6.787   2.975   0.535
 9975SOL    HW130824   6.699   2.954   0.579
 9975SOL    HW230825   6.831   3.051   0.583
 9976SOL     OW30826   1.725   0.382   5.097
 9976SOL    HW130827   1.662   0.377   5.020
 9976SOL    HW230828   1.796   0.449   5.078
 9977SOL     OW30829   6.580   4.461   4.229
 9977SOL    HW130830   6.536   4.381   4.270
 9977SOL    HW230831   6.570   4.540   4.290
 9978SOL     OW30832   0.056   2.072   4.462
 9978SOL    HW130833   0.144   2.104   4.425
 9978SOL    HW230834   0.044   1.976   4.438
 9979SOL     OW30835   0.669   3.970   5.243
 9979SOL    HW130836   0.618   3.995   5.161
 9979SOL    HW230837   0.750   3.916   5.217
 9980SOL     OW30838   3.560   6.917   5.012
 9980SOL    HW130839   3.632   6.858   4.973
 9980SOL    HW230840   3.493   6.860   5.059
 9981SOL     OW30841   3.245   2.004   4.124
 9981SOL    HW130842   3.255   1.907   4.148
 9981SOL    HW230843   3.294   2.021   4.038
 9982SOL     OW30844   6.418   5.724   3.173
 9982SOL    HW130845   6.330   5.681   3.156
 9982SOL    HW230846   6.414   5.821   3.147
 9983SOL     OW30847   0.147   1.178   1.380
 9983SOL    HW130848   0.123   1.126   1.461
 9983SOL    HW230849   0.153   1.117   1.301
 9984SOL     OW30850   2.465   0.870   0.249
 9984SOL    HW130851   2.500   0.827   0.166
 9984SOL    HW230852   2.524   0.847   0.326
 9985SOL     OW30853   1.132   1.043   1.856
 9985SOL    HW130854   1.108   1.077   1.947
 9985SOL    HW230855   1.155   1.121   1.797
 9986SOL     OW30856   5.367   4.642   4.862
 9986SOL    HW130857   5.390   4.548   4.888
 9986SOL    HW230858   5.322   4.687   4.939
 9987SOL     OW30859   0.037   4.005   5.977
 9987SOL    HW130860   0.045   4.094   6.022
 9987SOL    HW230861   6.962   3.974   5.980
 9988SOL     OW30862   6.726   6.676   4.590
 9988SOL    HW130863   6.689   6.588   4.618
 9988SOL    HW230864   6.671   6.749   4.631
 9989SOL     OW30865   0.907   3.440   4.769
 9989SOL    HW130866   0.809   3.451   4.782
 9989SOL    HW230867   0.938   3.502   4.697
 9990SOL     OW30868   0.896   5.063   2.314
 9990SOL    HW130869   0.936   5.152   2.337
 9990SOL    HW230870   0.886   5.055   2.215
 9991SOL     OW30871   3.841   1.916   3.236
 9991SOL    HW130872   3.935   1.923   3.270
 9991SOL    HW230873   3.786   1.989   3.276
 9992SOL     OW30874   6.610   5.192   6.214
 9992SOL    HW130875   6.553   5.132   6.158
 9992SOL    HW230876   6.680   5.234   6.156
 9993SOL     OW30877   0.731   0.576   1.659
 9993SOL    HW130878   0.723   0.476   1.665
 9993SOL    HW230879   0.692   0.617   1.741
 9994SOL     OW30880   5.784   4.725   2.894
 9994SOL    HW130881   5.834   4.715   2.980
 9994SOL    HW230882   5.847   4.713   2.817
 9995SOL     OW30883   5.103   1.221   4.880
 9995SOL    HW130884   5.093   1.231   4.781
 9995SOL    HW230885   5.166   1.146   4.900
 9996SOL     OW30886   2.381   3.435   0.154
 9996SOL    HW130887   2.472   3.448   0.114
 9996SOL    HW230888   2.387   3.368   0.229
 9997SOL     OW30889   2.901   6.770   4.557
 9997SOL    HW130890   2.858   6.851   4.597
 9997SOL    HW230891   2.851   6.688   4.585
 9998SOL     OW30892   5.900   6.166   5.435
 9998SOL    HW130893   5.801   6.164   5.418
 9998SOL    HW230894   5.920   6.235   5.504
 9999SOL     OW30895   0.175   3.017   4.663
 9999SOL    HW130896   0.136   2.925   4.656
 9999SOL    HW230897   0.104   3.082   4.686
10000SOL     OW30898   6.950   3.838   6.821
10000SOL    HW130899   0.028   3.827   6.803
10000SOL    HW230900   6.914   3.756   6.864
10001SOL     OW30901   4.074   0.145   3.097
10001SOL    HW130902   4.007   0.125   3.025
10001SOL    HW230903   4.051   0.094   3.179
10002SOL     OW30904   0.824   1.334   1.812
10002SOL    HW130905   0.781   1.375   1.731
10002SOL    HW230906   0.795   1.383   1.894
10003SOL     OW30907   4.859   2.147   3.501
10003SOL    HW130908   4.895   2.143   3.595
10003SOL    HW230909   4.789   2.218   3.496
10004SOL     OW30910   0.348   2.391   2.673
10004SOL    HW130911   0.411   2.382   2.750
10004SOL    HW230912   0.254   2.385   2.706
10005SOL     OW30913   5.351   6.939   4.368
10005SOL    HW130914   5.446   6.954   4.396
10005SOL    HW230915   5.297   6.913   4.448
10006SOL     OW30916   4.657   0.923   4.823
10006SOL    HW130917   4.687   0.900   4.731
10006SOL    HW230918   4.679   1.019   4.842
10007SOL     OW30919   6.374   3.348   4.534
10007SOL    HW130920   6.465   3.371   4.569
10007SOL    HW230921   6.305   3.366   4.605
10008SOL     OW30922   3.869   0.063   4.087
10008SOL    HW130923   3.869   0.052   4.187
10008SOL    HW230924   3.837   6.998   4.045
10009SOL     OW30925   0.978   4.343   1.945
10009SOL    HW130926   0.926   4.261   1.922
10009SOL    HW230927   1.062   4.317   1.992
10010SOL     OW30928   6.980   1.588   6.181
10010SOL    HW130929   6.962   1.494   6.153
10010SOL    HW230930   6.990   1.592   6.281
10011SOL     OW30931   0.244   6.699   4.718
10011SOL    HW130932   0.280   6.748   4.638
10011SOL    HW230933   0.155   6.660   4.696
10012SOL     OW30934   5.737   0.263   4.386
10012SOL    HW130935   5.673   0.246   4.461
10012SOL    HW230936   5.816   0.202   4.395
10013SOL     OW30937   1.310   0.935   2.167
10013SOL    HW130938   1.387   0.938   2.103
10013SOL    HW230939   1.285   0.840   2.183
10014SOL     OW30940   1.941   5.305   5.620
10014SOL    HW130941   1.937   5.233   5.551
10014SOL    HW230942   1.851   5.347   5.630
10015SOL     OW30943   2.281   4.769   0.283
10015SOL    HW130944   2.238   4.845   0.234
10015SOL    HW230945   2.380   4.782   0.285
10016SOL     OW30946   2.465   0.843   5.673
10016SOL    HW130947   2.556   0.833   5.713
10016SOL    HW230948   2.422   0.926   5.708
10017SOL     OW30949   0.921   1.984   4.226
10017SOL    HW130950   0.831   1.944   4.209
10017SOL    HW230951   0.944   1.974   4.323
10018SOL     OW30952   4.766   6.670   6.327
10018SOL    HW130953   4.777   6.604   6.252
10018SOL    HW230954   4.750   6.761   6.289
10019SOL     OW30955   1.905   1.321   2.245
10019SOL    HW130956   1.818   1.274   2.256
10019SOL    HW230957   1.957   1.315   2.330
10020SOL     OW30958   0.078   2.518   0.334
10020SOL    HW130959   7.016   2.571   0.313
10020SOL    HW230960   0.122   2.555   0.416
10021SOL     OW30961   5.580   3.033   1.428
10021SOL    HW130962   5.646   2.968   1.466
10021SOL    HW230963   5.557   3.007   1.334
10022SOL     OW30964   1.939   0.388   6.452
10022SOL    HW130965   1.951   0.445   6.533
10022SOL    HW230966   2.028   0.371   6.410
10023SOL     OW30967   0.178   3.346   1.152
10023SOL    HW130968   0.194   3.376   1.246
10023SOL    HW230969   0.115   3.268   1.152
10024SOL     OW30970   1.434   4.717   3.312
10024SOL    HW130971   1.437   4.617   3.305
10024SOL    HW230972   1.519   4.756   3.277
10025SOL     OW30973   1.247   1.643   0.216
10025SOL    HW130974   1.249   1.743   0.205
10025SOL    HW230975   1.167   1.617   0.269
10026SOL     OW30976   6.983   0.325   4.004
10026SOL    HW130977   6.989   0.425   4.001
10026SOL    HW230978   6.889   0.296   3.986
10027SOL     OW30979   5.242   2.267   5.971
10027SOL    HW130980   5.143   2.255   5.963
10027SOL    HW230981   5.282   2.189   6.020
10028SOL     OW30982   2.007   0.804   1.249
10028SOL    HW130983   2.018   0.753   1.164
10028SOL    HW230984   2.061   0.759   1.321
10029SOL     OW30985   5.205   2.066   3.869
10029SOL    HW130986   5.265   2.041   3.793
10029SOL    HW230987   5.114   2.089   3.834
10030SOL     OW30988   1.409   1.004   3.248
10030SOL    HW130989   1.337   1.062   3.208
10030SOL    HW230990   1.476   1.062   3.294
10031SOL     OW30991   6.717   4.282   4.036
10031SOL    HW130992   6.683   4.188   4.040
10031SOL    HW230993   6.667   4.338   4.101
10032SOL     OW30994   2.780   1.154   5.516
10032SOL    HW130995   2.727   1.156   5.432
10032SOL    HW230996   2.720   1.166   5.595
10033SOL     OW30997   5.920   2.674   4.539
10033SOL    HW130998   5.922   2.703   4.635
10033SOL    HW230999   5.910   2.575   4.535
10034SOL     OW31000   4.824   0.270   6.180
10034SOL    HW131001   4.913   0.267   6.136
10034SOL    HW231002   4.759   0.217   6.126
10035SOL     OW31003   0.054   6.660   3.497
10035SOL    HW131004   0.149   6.692   3.501
10035SOL    HW231005   0.051   6.568   3.459
10036SOL     OW31006   6.756   0.568   0.082
10036SOL    HW131007   6.684   0.552   0.015
10036SOL    HW231008   6.846   0.560   0.037
10037SOL     OW31009   0.249   6.723   1.037
10037SOL    HW131010   0.243   6.739   0.939
10037SOL    HW231011   0.345   6.709   1.063
10038SOL     OW31012   6.434   0.214   0.665
10038SOL    HW131013   6.406   0.157   0.742
10038SOL    HW231014   6.494   0.162   0.605
10039SOL     OW31015   3.052   0.552   3.311
10039SOL    HW131016   2.995   0.504   3.378
10039SOL    HW231017   3.080   0.489   3.238
10040SOL     OW31018   0.339   2.131   1.359
10040SOL    HW131019   0.311   2.049   1.410
10040SOL    HW231020   0.374   2.199   1.423
10041SOL     OW31021   1.531   5.902   0.834
10041SOL    HW131022   1.602   5.866   0.896
10041SOL    HW231023   1.483   5.826   0.791
10042SOL     OW31024   6.408   2.384   3.052
10042SOL    HW131025   6.476   2.380   3.125
10042SOL    HW231026   6.430   2.459   2.989
10043SOL     OW31027   0.795   3.083   4.984
10043SOL    HW131028   0.745   3.133   4.914
10043SOL    HW231029   0.784   2.985   4.969
10044SOL     OW31030   3.787   1.793   6.326
10044SOL    HW131031   3.689   1.814   6.335
10044SOL    HW231032   3.813   1.800   6.229
10045SOL     OW31033   2.112   0.818   0.341
10045SOL    HW131034   2.181   0.868   0.392
10045SOL    HW231035   2.128   0.829   0.243
10046SOL     OW31036   1.240   5.097   1.312
10046SOL    HW131037   1.194   5.183   1.288
10046SOL    HW231038   1.339   5.111   1.311
10047SOL     OW31039   1.138   4.019   0.696
10047SOL    HW131040   1.083   4.090   0.653
10047SOL    HW231041   1.171   4.051   0.785
10048SOL     OW31042   5.580   5.056   2.368
10048SOL    HW131043   5.656   5.075   2.430
10048SOL    HW231044   5.535   4.971   2.396
10049SOL     OW31045   5.872   1.185   5.267
10049SOL    HW131046   5.839   1.197   5.173
10049SOL    HW231047   5.833   1.101   5.305
10050SOL     OW31048   0.289   2.726   6.098
10050SOL    HW131049   0.256   2.780   6.176
10050SOL    HW231050   0.323   2.787   6.027
10051SOL     OW31051   2.145   1.905   4.072
10051SOL    HW131052   2.180   1.934   4.160
10051SOL    HW231053   2.181   1.814   4.050
10052SOL     OW31054   1.500   0.490   3.032
10052SOL    HW131055   1.459   0.504   2.941
10052SOL    HW231056   1.519   0.578   3.074
10053SOL     OW31057   5.798   5.280   2.939
10053SOL    HW131058   5.850   5.196   2.922
10053SOL    HW231059   5.702   5.264   2.917
10054SOL     OW31060   6.877   4.409   4.420
10054SOL    HW131061   6.885   4.338   4.349
10054SOL    HW231062   6.792   4.396   4.470
10055SOL     OW31063   1.605   2.523   6.648
10055SOL    HW131064   1.684   2.509   6.707
10055SOL    HW231065   1.630   2.501   6.553
10056SOL     OW31066   6.309   1.940   3.970
10056SOL    HW131067   6.214   1.942   3.999
10056SOL    HW231068   6.349   1.850   3.990
10057SOL     OW31069   5.383   4.966   5.603
10057SOL    HW131070   5.416   4.916   5.683
10057SOL    HW231071   5.306   4.917   5.562
10058SOL     OW31072   0.313   4.284   4.685
10058SOL    HW131073   0.359   4.221   4.622
10058SOL    HW231074   0.214   4.269   4.678
10059SOL     OW31075   5.551   6.773   6.365
10059SOL    HW131076   5.644   6.808   6.356
10059SOL    HW231077   5.545   6.714   6.446
10060SOL     OW31078   3.187   1.869   1.945
10060SOL    HW131079   3.176   1.962   1.979
10060SOL    HW231080   3.272   1.862   1.894
10061SOL     OW31081   3.226   0.195   2.196
10061SOL    HW131082   3.196   0.239   2.112
10061SOL    HW231083   3.211   0.256   2.274
10062SOL     OW31084   0.754   6.615   4.900
10062SOL    HW131085   0.720   6.534   4.948
10062SOL    HW231086   0.834   6.590   4.844
10063SOL     OW31087   2.754   2.222   4.685
10063SOL    HW131088   2.763   2.250   4.590
10063SOL    HW231089   2.657   2.217   4.710
10064SOL     OW31090   2.545   0.563   1.884
10064SOL    HW131091   2.454   0.604   1.879
10064SOL    HW231092   2.604   0.620   1.942
10065SOL     OW31093   0.015   1.720   1.610
10065SOL    HW131094   0.073   1.712   1.529
10065SOL    HW231095   0.058   1.670   1.686
10066SOL     OW31096   6.845   4.853   3.338
10066SOL    HW131097   6.832   4.763   3.380
10066SOL    HW231098   6.802   4.923   3.394
10067SOL     OW31099   6.771   3.591   5.282
10067SOL    HW131100   6.857   3.641   5.267
10067SOL    HW231101   6.726   3.626   5.364
10068SOL     OW31102   1.361   3.023   2.345
10068SOL    HW131103   1.448   3.027   2.296
10068SOL    HW231104   1.375   2.987   2.437
10069SOL     OW31105   3.375   4.733   0.852
10069SOL    HW131106   3.355   4.646   0.807
10069SOL    HW231107   3.295   4.762   0.906
10070SOL     OW31108   5.333   6.975   0.277
10070SOL    HW131109   5.273   6.922   0.338
10070SOL    HW231110   5.400   6.913   0.235
10071SOL     OW31111   5.180   0.986   5.745
10071SOL    HW131112   5.184   1.012   5.649
10071SOL    HW231113   5.165   0.887   5.752
10072SOL     OW31114   6.461   3.410   2.062
10072SOL    HW131115   6.386   3.359   2.019
10072SOL    HW231116   6.424   3.470   2.133
10073SOL     OW31117   5.382   5.126   4.984
10073SOL    HW131118   5.290   5.107   5.021
10073SOL    HW231119   5.451   5.094   5.049
10074SOL     OW31120   2.562   4.608   0.499
10074SOL    HW131121   2.467   4.612   0.469
10074SOL    HW231122   2.572   4.660   0.584
10075SOL     OW31123   1.149   3.269   1.685
10075SOL    HW131124   1.120   3.339   1.619
10075SOL    HW231125   1.127   3.300   1.778
10076SOL     OW31126   5.635   4.308   4.184
10076SOL    HW131127   5.608   4.272   4.095
10076SOL    HW231128   5.562   4.364   4.222
10077SOL     OW31129   4.841   3.455   6.438
10077SOL    HW131130   4.933   3.458   6.400
10077SOL    HW231131   4.782   3.520   6.390
10078SOL     OW31132   6.300   4.959   4.546
10078SOL    HW131133   6.373   5.021   4.575
10078SOL    HW231134   6.241   5.006   4.480
10079SOL     OW31135   4.984   4.302   3.631
10079SOL    HW131136   4.886   4.286   3.624
10079SOL    HW231137   5.001   4.382   3.688
10080SOL     OW31138   5.025   1.863   5.444
10080SOL    HW131139   5.097   1.835   5.507
10080SOL    HW231140   4.988   1.782   5.398
10081SOL     OW31141   1.005   4.754   0.152
10081SOL    HW131142   1.043   4.680   0.097
10081SOL    HW231143   0.959   4.717   0.232
10082SOL     OW31144   1.090   4.542   0.603
10082SOL    HW131145   1.188   4.547   0.586
10082SOL    HW231146   1.062   4.622   0.657
10083SOL     OW31147   2.527   6.085   2.299
10083SOL    HW131148   2.622   6.060   2.281
10083SOL    HW231149   2.467   6.034   2.237
10084SOL     OW31150   1.309   2.574   4.618
10084SOL    HW131151   1.398   2.614   4.594
10084SOL    HW231152   1.316   2.474   4.613
10085SOL     OW31153   4.956   0.009   1.616
10085SOL    HW131154   4.999   6.949   1.574
10085SOL    HW231155   4.970   0.088   1.557
10086SOL     OW31156   4.287   6.542   2.880
10086SOL    HW131157   4.365   6.519   2.938
10086SOL    HW231158   4.228   6.607   2.928
10087SOL     OW31159   1.775   6.393   5.128
10087SOL    HW131160   1.734   6.336   5.056
10087SOL    HW231161   1.802   6.481   5.089
10088SOL     OW31162   6.233   2.446   1.617
10088SOL    HW131163   6.313   2.493   1.579
10088SOL    HW231164   6.150   2.489   1.583
10089SOL     OW31165   4.300   0.422   1.986
10089SOL    HW131166   4.255   0.364   2.055
10089SOL    HW231167   4.230   0.474   1.937
10090SOL     OW31168   1.827   6.240   3.238
10090SOL    HW131169   1.926   6.249   3.225
10090SOL    HW231170   1.808   6.220   3.334
10091SOL     OW31171   5.761   5.076   4.640
10091SOL    HW131172   5.663   5.063   4.654
10091SOL    HW231173   5.782   5.064   4.543
10092SOL     OW31174   1.026   1.911   3.330
10092SOL    HW131175   1.093   1.851   3.285
10092SOL    HW231176   1.069   1.956   3.408
10093SOL     OW31177   4.637   3.656   6.359
10093SOL    HW131178   4.540   3.657   6.333
10093SOL    HW231179   4.683   3.735   6.320
10094SOL     OW31180   3.429   2.150   0.256
10094SOL    HW131181   3.335   2.173   0.281
10094SOL    HW231182   3.480   2.234   0.235
10095SOL     OW31183   4.101   3.211   5.674
10095SOL    HW131184   4.014   3.224   5.722
10095SOL    HW231185   4.170   3.178   5.739
10096SOL     OW31186   6.456   3.676   2.202
10096SOL    HW131187   6.406   3.709   2.282
10096SOL    HW231188   6.405   3.699   2.119
10097SOL     OW31189   0.804   1.441   0.865
10097SOL    HW131190   0.849   1.462   0.952
10097SOL    HW231191   0.871   1.444   0.791
10098SOL     OW31192   3.514   6.091   4.766
10098SOL    HW131193   3.429   6.130   4.731
10098SOL    HW231194   3.571   6.163   4.805
10099SOL     OW31195   0.098   4.897   3.290
10099SOL    HW131196   0.134   4.853   3.207
10099SOL    HW231197   0.005   4.864   3.307
10100SOL     OW31198   5.216   5.031   4.031
10100SOL    HW131199   5.285   5.104   4.028
10100SOL    HW231200   5.213   4.992   4.123
10101SOL     OW31201   6.517   2.644   0.232
10101SOL    HW131202   6.442   2.578   0.231
10101SOL    HW231203   6.562   2.642   0.321
10102SOL     OW31204   6.279   4.832   3.208
10102SOL    HW131205   6.266   4.736   3.181
10102SOL    HW231206   6.310   4.836   3.303
10103SOL     OW31207   0.381   6.467   6.777
10103SOL    HW131208   0.333   6.388   6.738
10103SOL    HW231209   0.352   6.479   6.872
10104SOL     OW31210   2.652   1.153   4.912
10104SOL    HW131211   2.633   1.203   4.827
10104SOL    HW231212   2.686   1.062   4.890
10105SOL     OW31213   3.054   1.282   3.449
10105SOL    HW131214   3.058   1.382   3.447
10105SOL    HW231215   3.067   1.250   3.542
10106SOL     OW31216   5.612   4.045   1.495
10106SOL    HW131217   5.515   4.020   1.498
10106SOL    HW231218   5.642   4.047   1.400
10107SOL     OW31219   5.374   5.552   6.331
10107SOL    HW131220   5.304   5.527   6.264
10107SOL    HW231221   5.376   5.652   6.342
10108SOL     OW31222   2.319   2.431   5.087
10108SOL    HW131223   2.416   2.432   5.062
10108SOL    HW231224   2.292   2.338   5.111
10109SOL     OW31225   0.960   2.901   1.132
10109SOL    HW131226   1.057   2.894   1.156
10109SOL    HW231227   0.906   2.848   1.197
10110SOL     OW31228   6.529   5.603   1.633
10110SOL    HW131229   6.516   5.665   1.556
10110SOL    HW231230   6.442   5.589   1.680
10111SOL     OW31231   6.166   2.625   1.850
10111SOL    HW131232   6.178   2.537   1.804
10111SOL    HW231233   6.210   2.623   1.940
10112SOL     OW31234   6.489   2.793   3.878
10112SOL    HW131235   6.528   2.753   3.795
10112SOL    HW231236   6.393   2.816   3.861
10113SOL     OW31237   6.768   6.410   5.889
10113SOL    HW131238   6.768   6.311   5.901
10113SOL    HW231239   6.835   6.451   5.952
10114SOL     OW31240   4.880   3.402   1.795
10114SOL    HW131241   4.891   3.349   1.879
10114SOL    HW231242   4.865   3.498   1.819
10115SOL     OW31243   3.468   3.072   5.981
10115SOL    HW131244   3.394   3.139   5.980
10115SOL    HW231245   3.453   3.005   5.908
10116SOL     OW31246   0.580   0.279   6.577
10116SOL    HW131247   0.634   0.348   6.529
10116SOL    HW231248   0.637   0.235   6.646
10117SOL     OW31249   6.825   4.378   1.536
10117SOL    HW131250   6.758   4.360   1.608
10117SOL    HW231251   6.908   4.324   1.554
10118SOL     OW31252   4.024   5.235   3.942
10118SOL    HW131253   3.987   5.246   3.850
10118SOL    HW231254   4.048   5.139   3.957
10119SOL     OW31255   6.025   6.277   6.609
10119SOL    HW131256   6.016   6.367   6.566
10119SOL    HW231257   6.085   6.219   6.553
10120SOL     OW31258   2.464   2.473   2.719
10120SOL    HW131259   2.388   2.413   2.743
10120SOL    HW231260   2.496   2.451   2.627
10121SOL     OW31261   6.877   5.599   1.316
10121SOL    HW131262   6.881   5.648   1.229
10121SOL    HW231263   6.804   5.531   1.313
10122SOL     OW31264   1.836   0.161   3.200
10122SOL    HW131265   1.744   0.168   3.162
10122SOL    HW231266   1.902   0.196   3.134
10123SOL     OW31267   6.267   5.594   6.176
10123SOL    HW131268   6.335   5.640   6.233
10123SOL    HW231269   6.309   5.566   6.090
10124SOL     OW31270   2.471   5.099   2.174
10124SOL    HW131271   2.417   5.025   2.213
10124SOL    HW231272   2.433   5.124   2.085
10125SOL     OW31273   1.304   0.853   5.033
10125SOL    HW131274   1.232   0.800   4.988
10125SOL    HW231275   1.265   0.939   5.067
10126SOL     OW31276   6.594   6.061   5.044
10126SOL    HW131277   6.498   6.089   5.046
10126SOL    HW231278   6.642   6.098   5.123
10127SOL     OW31279   2.199   6.986   5.805
10127SOL    HW131280   2.253   0.049   5.790
10127SOL    HW231281   2.253   6.920   5.858
10128SOL     OW31282   2.569   2.298   6.793
10128SOL    HW131283   2.665   2.306   6.821
10128SOL    HW231284   2.520   2.380   6.822
10129SOL     OW31285   6.215   1.774   4.334
10129SOL    HW131286   6.124   1.790   4.372
10129SOL    HW231287   6.248   1.685   4.365
10130SOL     OW31288   1.474   1.918   3.261
10130SOL    HW131289   1.400   1.871   3.310
10130SOL    HW231290   1.496   2.004   3.308
10131SOL     OW31291   1.705   0.251   5.355
10131SOL    HW131292   1.608   0.227   5.366
10131SOL    HW231293   1.720   0.283   5.262
10132SOL     OW31294   5.576   0.493   2.567
10132SOL    HW131295   5.536   0.415   2.518
10132SOL    HW231296   5.506   0.537   2.623
10133SOL     OW31297   4.963   5.937   1.448
10133SOL    HW131298   4.897   5.882   1.397
10133SOL    HW231299   5.055   5.918   1.416
10134SOL     OW31300   0.091   6.387   3.422
10134SOL    HW131301   0.058   6.316   3.484
10134SOL    HW231302   0.180   6.360   3.385
10135SOL     OW31303   6.559   6.504   3.448
10135SOL    HW131304   6.658   6.492   3.452
10135SOL    HW231305   6.534   6.544   3.360
10136SOL     OW31306   4.558   1.279   3.829
10136SOL    HW131307   4.553   1.232   3.917
10136SOL    HW231308   4.653   1.293   3.803
10137SOL     OW31309   0.291   5.687   4.119
10137SOL    HW131310   0.337   5.772   4.093
10137SOL    HW231311   0.256   5.695   4.212
10138SOL     OW31312   6.934   2.512   1.774
10138SOL    HW131313   6.936   2.611   1.766
10138SOL    HW231314   7.016   2.473   1.731
10139SOL     OW31315   4.030   2.788   6.659
10139SOL    HW131316   4.108   2.783   6.596
10139SOL    HW231317   3.947   2.760   6.612
10140SOL     OW31318   6.640   5.545   5.396
10140SOL    HW131319   6.724   5.501   5.428
10140SOL    HW231320   6.574   5.549   5.470
10141SOL     OW31321   1.805   2.245   4.686
10141SOL    HW131322   1.775   2.336   4.714
10141SOL    HW231323   1.726   2.191   4.657
10142SOL     OW31324   4.890   5.672   2.052
10142SOL    HW131325   4.868   5.629   2.140
10142SOL    HW231326   4.856   5.766   2.052
10143SOL     OW31327   5.811   3.267   6.015
10143SOL    HW131328   5.846   3.282   6.108
10143SOL    HW231329   5.886   3.237   5.956
10144SOL     OW31330   3.645   0.527   0.522
10144SOL    HW131331   3.739   0.495   0.515
10144SOL    HW231332   3.644   0.626   0.529
10145SOL     OW31333   6.628   6.672   5.505
10145SOL    HW131334   6.577   6.704   5.425
10145SOL    HW231335   6.724   6.697   5.495
10146SOL     OW31336   1.581   2.783   5.721
10146SOL    HW131337   1.548   2.696   5.757
10146SOL    HW231338   1.679   2.791   5.737
10147SOL     OW31339   3.925   5.490   6.870
10147SOL    HW131340   3.875   5.404   6.876
10147SOL    HW231341   3.929   5.521   6.775
10148SOL     OW31342   0.657   5.212   6.591
10148SOL    HW131343   0.703   5.123   6.584
10148SOL    HW231344   0.724   5.285   6.579
10149SOL     OW31345   3.975   3.204   2.364
10149SOL    HW131346   3.963   3.272   2.436
10149SOL    HW231347   4.060   3.221   2.315
10150SOL     OW31348   4.947   3.993   1.700
10150SOL    HW131349   4.890   4.036   1.769
10150SOL    HW231350   4.892   3.970   1.619
10151SOL     OW31351   6.859   1.041   6.120
10151SOL    HW131352   6.947   1.021   6.163
10151SOL    HW231353   6.787   1.041   6.189
10152SOL     OW31354   3.777   6.974   3.492
10152SOL    HW131355   3.735   0.008   3.419
10152SOL    HW231356   3.808   0.015   3.565
10153SOL     OW31357   4.846   3.639   1.914
10153SOL    HW131358   4.828   3.668   2.008
10153SOL    HW231359   4.798   3.699   1.851
10154SOL     OW31360   4.259   5.321   5.240
10154SOL    HW131361   4.346   5.286   5.204
10154SOL    HW231362   4.220   5.253   5.302
10155SOL     OW31363   4.637   2.071   4.312
10155SOL    HW131364   4.651   2.083   4.410
10155SOL    HW231365   4.553   2.020   4.295
10156SOL     OW31366   3.986   2.119   6.411
10156SOL    HW131367   3.959   2.032   6.453
10156SOL    HW231368   3.990   2.190   6.482
10157SOL     OW31369   0.449   4.700   0.977
10157SOL    HW131370   0.389   4.622   0.959
10157SOL    HW231371   0.498   4.684   1.063
10158SOL     OW31372   5.544   5.180   0.559
10158SOL    HW131373   5.522   5.277   0.547
10158SOL    HW231374   5.641   5.165   0.541
10159SOL     OW31375   3.444   2.861   2.172
10159SOL    HW131376   3.465   2.832   2.079
10159SOL    HW231377   3.413   2.955   2.171
10160SOL     OW31378   0.138   4.242   2.316
10160SOL    HW131379   0.142   4.175   2.391
10160SOL    HW231380   0.230   4.275   2.297
10161SOL     OW31381   6.056   3.227   5.868
10161SOL    HW131382   6.146   3.239   5.910
10161SOL    HW231383   6.051   3.280   5.783
10162SOL     OW31384   1.784   2.394   2.380
10162SOL    HW131385   1.794   2.493   2.374
10162SOL    HW231386   1.772   2.367   2.475
10163SOL     OW31387   3.500   5.154   4.707
10163SOL    HW131388   3.404   5.157   4.677
10163SOL    HW231389   3.504   5.125   4.802
10164SOL     OW31390   0.430   1.307   4.057
10164SOL    HW131391   0.393   1.377   3.996
10164SOL    HW231392   0.427   1.339   4.151
10165SOL     OW31393   1.681   3.160   4.088
10165SOL    HW131394   1.763   3.194   4.134
10165SOL    HW231395   1.690   3.062   4.070
10166SOL     OW31396   3.129   5.783   2.911
10166SOL    HW131397   3.049   5.795   2.970
10166SOL    HW231398   3.201   5.847   2.939
10167SOL     OW31399   3.046   2.211   6.517
10167SOL    HW131400   3.052   2.189   6.615
10167SOL    HW231401   3.060   2.128   6.463
10168SOL     OW31402   0.269   0.803   6.228
10168SOL    HW131403   0.228   0.731   6.284
10168SOL    HW231404   0.207   0.881   6.223
10169SOL     OW31405   4.595   5.787   3.141
10169SOL    HW131406   4.589   5.734   3.226
10169SOL    HW231407   4.512   5.842   3.131
10170SOL     OW31408   4.922   6.768   0.461
10170SOL    HW131409   4.982   6.691   0.482
10170SOL    HW231410   4.966   6.853   0.489
10171SOL     OW31411   2.313   4.200   4.213
10171SOL    HW131412   2.272   4.128   4.268
10171SOL    HW231413   2.355   4.161   4.131
10172SOL     OW31414   0.368   0.690   2.539
10172SOL    HW131415   0.295   0.675   2.473
10172SOL    HW231416   0.330   0.734   2.621
10173SOL     OW31417   3.843   3.739   4.962
10173SOL    HW131418   3.875   3.726   5.056
10173SOL    HW231419   3.920   3.728   4.899
10174SOL     OW31420   5.123   4.470   1.114
10174SOL    HW131421   5.074   4.459   1.200
10174SOL    HW231422   5.062   4.510   1.046
10175SOL     OW31423   6.538   6.936   4.327
10175SOL    HW131424   6.603   7.008   4.303
10175SOL    HW231425   6.580   6.847   4.311
10176SOL     OW31426   6.975   0.837   4.761
10176SOL    HW131427   6.940   0.926   4.792
10176SOL    HW231428   6.962   0.830   4.662
10177SOL     OW31429   2.870   1.535   4.116
10177SOL    HW131430   2.853   1.494   4.026
10177SOL    HW231431   2.880   1.634   4.106
10178SOL     OW31432   0.460   1.515   1.747
10178SOL    HW131433   0.396   1.438   1.750
10178SOL    HW231434   0.440   1.577   1.823
10179SOL     OW31435   0.022   6.212   1.222
10179SOL    HW131436   0.092   6.189   1.154
10179SOL    HW231437   6.992   6.129   1.247
10180SOL     OW31438   3.134   6.580   6.371
10180SOL    HW131439   3.178   6.569   6.460
10180SOL    HW231440   3.197   6.550   6.299
10181SOL     OW31441   0.773   3.261   2.964
10181SOL    HW131442   0.762   3.213   3.051
10181SOL    HW231443   0.683   3.284   2.927
10182SOL     OW31444   3.770   0.189   0.328
10182SOL    HW131445   3.766   0.289   0.321
10182SOL    HW231446   3.737   0.161   0.418
10183SOL     OW31447   4.147   6.158   5.686
10183SOL    HW131448   4.063   6.144   5.634
10183SOL    HW231449   4.170   6.255   5.686
10184SOL     OW31450   5.505   2.751   5.129
10184SOL    HW131451   5.577   2.713   5.071
10184SOL    HW231452   5.532   2.745   5.225
10185SOL     OW31453   2.877   4.762   2.438
10185SOL    HW131454   2.829   4.727   2.519
10185SOL    HW231455   2.967   4.796   2.465
10186SOL     OW31456   3.475   3.034   0.335
10186SOL    HW131457   3.533   3.100   0.383
10186SOL    HW231458   3.524   2.948   0.325
10187SOL     OW31459   2.262   3.729   5.504
10187SOL    HW131460   2.286   3.787   5.581
10187SOL    HW231461   2.233   3.786   5.427
10188SOL     OW31462   1.931   6.684   6.875
10188SOL    HW131463   1.936   6.623   6.954
10188SOL    HW231464   1.878   6.766   6.900
10189SOL     OW31465   1.949   1.772   5.056
10189SOL    HW131466   1.985   1.865   5.067
10189SOL    HW231467   1.969   1.720   5.139
10190SOL     OW31468   4.106   4.200   1.182
10190SOL    HW131469   4.035   4.161   1.123
10190SOL    HW231470   4.169   4.128   1.211
10191SOL     OW31471   5.362   0.824   0.205
10191SOL    HW131472   5.423   0.889   0.160
10191SOL    HW231473   5.382   0.821   0.303
10192SOL     OW31474   1.805   1.041   4.127
10192SOL    HW131475   1.767   1.134   4.136
10192SOL    HW231476   1.876   1.028   4.196
10193SOL     OW31477   3.665   3.664   4.162
10193SOL    HW131478   3.706   3.594   4.104
10193SOL    HW231479   3.686   3.644   4.258
10194SOL     OW31480   3.004   6.169   2.789
10194SOL    HW131481   3.050   6.258   2.784
10194SOL    HW231482   3.049   6.104   2.728
10195SOL     OW31483   5.193   0.658   3.206
10195SOL    HW131484   5.235   0.609   3.283
10195SOL    HW231485   5.263   0.705   3.154
10196SOL     OW31486   5.149   4.384   4.269
10196SOL    HW131487   5.071   4.444   4.287
10196SOL    HW231488   5.140   4.300   4.323
10197SOL     OW31489   5.145   1.520   3.051
10197SOL    HW131490   5.122   1.493   3.145
10197SOL    HW231491   5.111   1.613   3.035
10198SOL     OW31492   3.243   1.056   1.742
10198SOL    HW131493   3.218   1.109   1.660
10198SOL    HW231494   3.161   1.041   1.798
10199SOL     OW31495   1.089   1.918   0.253
10199SOL    HW131496   0.990   1.932   0.248
10199SOL    HW231497   1.134   1.967   0.179
10200SOL     OW31498   5.701   6.245   4.730
10200SOL    HW131499   5.790   6.270   4.693
10200SOL    HW231500   5.678   6.152   4.704
10201SOL     OW31501   1.790   4.667   3.056
10201SOL    HW131502   1.801   4.569   3.070
10201SOL    HW231503   1.746   4.684   2.968
10202SOL     OW31504   0.512   2.003   3.557
10202SOL    HW131505   0.564   2.012   3.642
10202SOL    HW231506   0.574   1.989   3.481
10203SOL     OW31507   0.253   2.505   1.141
10203SOL    HW131508   0.305   2.514   1.226
10203SOL    HW231509   0.315   2.482   1.066
10204SOL     OW31510   2.683   5.799   4.453
10204SOL    HW131511   2.768   5.832   4.493
10204SOL    HW231512   2.635   5.741   4.519
10205SOL     OW31513   3.919   0.489   1.023
10205SOL    HW131514   3.989   0.421   1.047
10205SOL    HW231515   3.831   0.458   1.058
10206SOL     OW31516   5.073   0.070   6.613
10206SOL    HW131517   5.119   0.054   6.700
10206SOL    HW231518   4.974   0.067   6.626
10207SOL     OW31519   3.936   1.333   2.622
10207SOL    HW131520   3.914   1.235   2.624
10207SOL    HW231521   3.890   1.376   2.544
10208SOL     OW31522   6.736   3.700   5.705
10208SOL    HW131523   6.817   3.755   5.719
10208SOL    HW231524   6.737   3.621   5.767
10209SOL     OW31525   4.186   6.284   6.588
10209SOL    HW131526   4.263   6.244   6.637
10209SOL    HW231527   4.208   6.292   6.491
10210SOL     OW31528   5.679   5.645   0.454
10210SOL    HW131529   5.723   5.644   0.364
10210SOL    HW231530   5.738   5.600   0.521
10211SOL     OW31531   3.927   5.554   5.382
10211SOL    HW131532   3.950   5.471   5.330
10211SOL    HW231533   3.934   5.534   5.480
10212SOL     OW31534   6.123   6.294   6.093
10212SOL    HW131535   6.190   6.268   6.024
10212SOL    HW231536   6.155   6.266   6.183
10213SOL     OW31537   4.543   1.065   4.578
10213SOL    HW131538   4.481   1.025   4.646
10213SOL    HW231539   4.529   1.164   4.574
10214SOL     OW31540   0.647   0.817   0.183
10214SOL    HW131541   0.597   0.734   0.157
10214SOL    HW231542   0.619   0.845   0.275
10215SOL     OW31543   4.325   2.651   6.862
10215SOL    HW131544   4.388   2.628   6.936
10215SOL    HW231545   4.245   2.592   6.867
10216SOL     OW31546   5.338   0.123   2.864
10216SOL    HW131547   5.297   0.132   2.773
10216SOL    HW231548   5.375   0.212   2.893
10217SOL     OW31549   3.232   2.454   5.637
10217SOL    HW131550   3.198   2.531   5.691
10217SOL    HW231551   3.178   2.446   5.553
10218SOL     OW31552   3.130   2.106   6.779
10218SOL    HW131553   3.115   2.137   6.873
10218SOL    HW231554   3.199   2.033   6.779
10219SOL     OW31555   0.787   5.302   6.982
10219SOL    HW131556   0.850   5.258   0.026
10219SOL    HW231557   0.793   5.401   6.992
10220SOL     OW31558   4.251   2.258   0.199
10220SOL    HW131559   4.227   2.218   0.110
10220SOL    HW231560   4.191   2.220   0.270
10221SOL     OW31561   2.590   1.048   4.416
10221SOL    HW131562   2.590   1.135   4.465
10221SOL    HW231563   2.545   0.978   4.471
10222SOL     OW31564   1.994   4.927   5.840
10222SOL    HW131565   1.911   4.973   5.872
10222SOL    HW231566   1.971   4.837   5.803
10223SOL     OW31567   0.516   4.558   7.000
10223SOL    HW131568   0.483   4.552   0.075
10223SOL    HW231569   0.439   4.577   6.940
10224SOL     OW31570   2.699   6.989   4.593
10224SOL    HW131571   2.611   7.018   4.630
10224SOL    HW231572   2.684   6.936   4.510
10225SOL     OW31573   4.925   6.061   4.564
10225SOL    HW131574   4.902   6.093   4.473
10225SOL    HW231575   4.962   6.136   4.618
10226SOL     OW31576   6.696   3.043   6.430
10226SOL    HW131577   6.665   2.988   6.352
10226SOL    HW231578   6.738   2.984   6.498
10227SOL     OW31579   4.867   4.877   5.438
10227SOL    HW131580   4.822   4.909   5.354
10227SOL    HW231581   4.959   4.844   5.416
10228SOL     OW31582   0.947   3.062   1.989
10228SOL    HW131583   0.982   3.134   2.049
10228SOL    HW231584   0.955   2.974   2.036
10229SOL     OW31585   2.179   0.682   1.450
10229SOL    HW131586   2.271   0.695   1.413
10229SOL    HW231587   2.174   0.593   1.496
10230SOL     OW31588   6.261   6.562   3.533
10230SOL    HW131589   6.284   6.516   3.619
10230SOL    HW231590   6.344   6.591   3.487
10231SOL     OW31591   4.924   6.814   4.608
10231SOL    HW131592   4.922   6.902   4.559
10231SOL    HW231593   4.899   6.830   4.703
10232SOL     OW31594   3.842   1.721   3.437
10232SOL    HW131595   3.921   1.700   3.494
10232SOL    HW231596   3.873   1.758   3.350
10233SOL     OW31597   4.795   0.467   5.601
10233SOL    HW131598   4.720   0.460   5.535
10233SOL    HW231599   4.763   0.437   5.691
10234SOL     OW31600   4.601   5.702   1.057
10234SOL    HW131601   4.580   5.658   0.969
10234SOL    HW231602   4.648   5.789   1.040
10235SOL     OW31603   4.971   0.913   0.418
10235SOL    HW131604   4.951   0.854   0.496
10235SOL    HW231605   4.926   0.876   0.336
10236SOL     OW31606   1.926   5.745   1.620
10236SOL    HW131607   1.959   5.766   1.528
10236SOL    HW231608   1.988   5.680   1.664
10237SOL     OW31609   5.681   2.382   3.415
10237SOL    HW131610   5.667   2.471   3.370
10237SOL    HW231611   5.592   2.344   3.439
10238SOL     OW31612   4.237   6.042   4.697
10238SOL    HW131613   4.280   5.976   4.636
10238SOL    HW231614   4.305   6.108   4.728
10239SOL     OW31615   6.081   3.646   4.675
10239SOL    HW131616   6.119   3.726   4.723
10239SOL    HW231617   6.143   3.619   4.602
10240SOL     OW31618   4.999   4.003   3.562
10240SOL    HW131619   4.958   4.084   3.519
10240SOL    HW231620   5.036   4.028   3.652
10241SOL     OW31621   2.042   1.837   2.972
10241SOL    HW131622   1.945   1.848   2.954
10241SOL    HW231623   2.076   1.914   3.026
10242SOL     OW31624   1.133   5.445   5.957
10242SOL    HW131625   1.101   5.537   5.978
10242SOL    HW231626   1.225   5.449   5.917
10243SOL     OW31627   1.059   6.665   3.081
10243SOL    HW131628   1.084   6.580   3.128
10243SOL    HW231629   1.081   6.658   2.984
10244SOL     OW31630   1.481   5.486   0.385
10244SOL    HW131631   1.431   5.573   0.379
10244SOL    HW231632   1.532   5.471   0.300
10245SOL     OW31633   2.600   2.535   0.265
10245SOL    HW131634   2.586   2.613   0.325
10245SOL    HW231635   2.628   2.567   0.174
10246SOL     OW31636   3.141   3.229   4.060
10246SOL    HW131637   3.218   3.292   4.060
10246SOL    HW231638   3.082   3.249   4.139
10247SOL     OW31639   0.723   5.741   5.392
10247SOL    HW131640   0.691   5.769   5.301
10247SOL    HW231641   0.738   5.642   5.392
10248SOL     OW31642   5.800   0.904   3.449
10248SOL    HW131643   5.749   0.974   3.400
10248SOL    HW231644   5.898   0.926   3.448
10249SOL     OW31645   4.929   1.501   6.397
10249SOL    HW131646   4.962   1.595   6.400
10249SOL    HW231647   4.976   1.446   6.466
10250SOL     OW31648   5.601   6.955   0.507
10250SOL    HW131649   5.596   6.943   0.407
10250SOL    HW231650   5.593   0.033   0.528
10251SOL     OW31651   3.762   4.541   0.889
10251SOL    HW131652   3.825   4.596   0.943
10251SOL    HW231653   3.701   4.601   0.837
10252SOL     OW31654   0.198   4.406   1.379
10252SOL    HW131655   0.143   4.347   1.320
10252SOL    HW231656   0.293   4.407   1.345
10253SOL     OW31657   3.954   4.701   0.323
10253SOL    HW131658   3.988   4.673   0.412
10253SOL    HW231659   3.873   4.759   0.334
10254SOL     OW31660   2.372   1.399   4.568
10254SOL    HW131661   2.347   1.488   4.528
10254SOL    HW231662   2.296   1.335   4.557
10255SOL     OW31663   2.939   5.434   2.863
10255SOL    HW131664   2.873   5.421   2.788
10255SOL    HW231665   3.021   5.479   2.828
10256SOL     OW31666   6.089   6.233   0.043
10256SOL    HW131667   6.127   6.220   0.135
10256SOL    HW231668   6.051   6.325   0.035
10257SOL     OW31669   1.689   5.628   5.518
10257SOL    HW131670   1.785   5.655   5.512
10257SOL    HW231671   1.654   5.609   5.426
10258SOL     OW31672   4.199   0.611   3.693
10258SOL    HW131673   4.109   0.648   3.717
10258SOL    HW231674   4.255   0.683   3.652
10259SOL     OW31675   0.742   3.573   3.973
10259SOL    HW131676   0.674   3.500   3.972
10259SOL    HW231677   0.752   3.606   4.067
10260SOL     OW31678   6.955   5.882   2.460
10260SOL    HW131679   0.002   5.813   2.485
10260SOL    HW231680   6.951   5.892   2.361
10261SOL     OW31681   1.977   0.391   1.895
10261SOL    HW131682   1.963   0.311   1.836
10261SOL    HW231683   1.991   0.472   1.838
10262SOL     OW31684   1.200   6.003   3.752
10262SOL    HW131685   1.285   6.036   3.710
10262SOL    HW231686   1.132   6.076   3.753
10263SOL     OW31687   6.698   2.942   5.526
10263SOL    HW131688   6.699   3.032   5.569
10263SOL    HW231689   6.773   2.935   5.460
10264SOL     OW31690   0.638   6.764   0.111
10264SOL    HW131691   0.567   6.754   0.040
10264SOL    HW231692   0.727   6.774   0.067
10265SOL     OW31693   4.438   2.047   2.627
10265SOL    HW131694   4.529   2.086   2.645
10265SOL    HW231695   4.443   1.947   2.631
10266SOL     OW31696   3.977   3.619   6.688
10266SOL    HW131697   4.014   3.630   6.595
10266SOL    HW231698   4.041   3.567   6.744
10267SOL     OW31699   6.591   1.416   6.293
10267SOL    HW131700   6.512   1.454   6.244
10267SOL    HW231701   6.635   1.489   6.345
10268SOL     OW31702   6.429   4.020   0.868
10268SOL    HW131703   6.477   3.944   0.824
10268SOL    HW231704   6.495   4.091   0.894
10269SOL     OW31705   3.526   2.089   6.111
10269SOL    HW131706   3.593   2.066   6.182
10269SOL    HW231707   3.436   2.059   6.140
10270SOL     OW31708   2.969   6.370   1.776
10270SOL    HW131709   2.956   6.393   1.873
10270SOL    HW231710   3.067   6.366   1.756
10271SOL     OW31711   2.894   5.229   0.840
10271SOL    HW131712   2.929   5.145   0.798
10271SOL    HW231713   2.849   5.206   0.926
10272SOL     OW31714   2.037   2.357   4.343
10272SOL    HW131715   2.032   2.277   4.402
10272SOL    HW231716   1.965   2.352   4.274
10273SOL     OW31717   4.217   0.038   4.268
10273SOL    HW131718   4.193   0.099   4.192
10273SOL    HW231719   4.151   0.050   4.342
10274SOL     OW31720   2.793   4.807   6.460
10274SOL    HW131721   2.892   4.823   6.459
10274SOL    HW231722   2.762   4.800   6.555
10275SOL     OW31723   0.847   6.727   1.618
10275SOL    HW131724   0.851   6.761   1.524
10275SOL    HW231725   0.938   6.727   1.657
10276SOL     OW31726   0.521   5.760   6.782
10276SOL    HW131727   0.593   5.830   6.775
10276SOL    HW231728   0.432   5.803   6.783
10277SOL     OW31729   0.585   5.971   2.083
10277SOL    HW131730   0.519   5.978   2.008
10277SOL    HW231731   0.551   5.908   2.152
10278SOL     OW31732   6.771   6.936   5.780
10278SOL    HW131733   6.865   6.965   5.798
10278SOL    HW231734   6.720   6.934   5.867
10279SOL     OW31735   3.634   6.320   4.893
10279SOL    HW131736   3.711   6.340   4.832
10279SOL    HW231737   3.602   6.404   4.935
10280SOL     OW31738   3.368   2.788   6.878
10280SOL    HW131739   3.393   2.812   6.785
10280SOL    HW231740   3.442   2.735   6.920
10281SOL     OW31741   4.618   0.290   4.467
10281SOL    HW131742   4.581   0.353   4.535
10281SOL    HW231743   4.692   0.335   4.417
10282SOL     OW31744   1.106   2.738   4.481
10282SOL    HW131745   1.169   2.661   4.476
10282SOL    HW231746   1.125   2.791   4.564
10283SOL     OW31747   1.761   4.205   5.968
10283SOL    HW131748   1.673   4.217   6.012
10283SOL    HW231749   1.750   4.150   5.885
10284SOL     OW31750   4.783   2.903   0.117
10284SOL    HW131751   4.722   2.982   0.112
10284SOL    HW231752   4.868   2.923   0.070
10285SOL     OW31753   5.415   1.113   0.885
10285SOL    HW131754   5.330   1.107   0.938
10285SOL    HW231755   5.425   1.205   0.849
10286SOL     OW31756   4.529   1.156   4.064
10286SOL    HW131757   4.571   1.136   4.153
10286SOL    HW231758   4.489   1.072   4.027
10287SOL     OW31759   1.376   4.481   2.080
10287SOL    HW131760   1.435   4.460   2.159
10287SOL    HW231761   1.354   4.579   2.081
10288SOL     OW31762   4.641   6.328   4.518
10288SOL    HW131763   4.679   6.261   4.454
10288SOL    HW231764   4.621   6.413   4.470
10289SOL     OW31765   2.608   1.414   1.477
10289SOL    HW131766   2.621   1.399   1.575
10289SOL    HW231767   2.525   1.470   1.463
10290SOL     OW31768   2.864   3.433   2.400
10290SOL    HW131769   2.936   3.401   2.339
10290SOL    HW231770   2.775   3.420   2.356
10291SOL     OW31771   3.859   0.428   5.408
10291SOL    HW131772   3.930   0.496   5.389
10291SOL    HW231773   3.793   0.466   5.471
10292SOL     OW31774   0.613   2.046   4.993
10292SOL    HW131775   0.515   2.030   5.005
10292SOL    HW231776   0.663   2.009   5.071
10293SOL     OW31777   3.163   5.577   3.214
10293SOL    HW131778   3.227   5.628   3.158
10293SOL    HW231779   3.186   5.479   3.210
10294SOL     OW31780   6.820   1.539   3.154
10294SOL    HW131781   6.730   1.533   3.111
10294SOL    HW231782   6.876   1.462   3.125
10295SOL     OW31783   1.889   4.046   4.359
10295SOL    HW131784   1.880   4.104   4.440
10295SOL    HW231785   1.814   3.980   4.357
10296SOL     OW31786   6.649   3.063   1.852
10296SOL    HW131787   6.678   2.968   1.860
10296SOL    HW231788   6.724   3.123   1.881
10297SOL     OW31789   3.109   5.436   4.473
10297SOL    HW131790   3.188   5.450   4.532
10297SOL    HW231791   3.026   5.458   4.523
10298SOL     OW31792   5.937   3.303   3.347
10298SOL    HW131793   6.032   3.303   3.316
10298SOL    HW231794   5.935   3.298   3.447
10299SOL     OW31795   4.843   3.934   2.124
10299SOL    HW131796   4.834   3.850   2.178
10299SOL    HW231797   4.928   3.930   2.071
10300SOL     OW31798   1.058   5.291   1.656
10300SOL    HW131799   0.989   5.344   1.607
10300SOL    HW231800   1.065   5.199   1.617
10301SOL     OW31801   4.427   1.235   1.519
10301SOL    HW131802   4.416   1.235   1.618
10301SOL    HW231803   4.456   1.326   1.488
10302SOL     OW31804   2.106   4.384   4.321
10302SOL    HW131805   2.179   4.323   4.352
10302SOL    HW231806   2.127   4.478   4.348
10303SOL     OW31807   4.130   2.496   1.293
10303SOL    HW131808   4.052   2.555   1.272
10303SOL    HW231809   4.110   2.441   1.374
10304SOL     OW31810   6.040   6.280   3.741
10304SOL    HW131811   6.119   6.335   3.768
10304SOL    HW231812   6.055   6.185   3.770
10305SOL     OW31813   1.842   5.569   0.958
10305SOL    HW131814   1.909   5.560   0.884
10305SOL    HW231815   1.770   5.500   0.946
10306SOL     OW31816   4.302   4.378   1.141
10306SOL    HW131817   4.237   4.313   1.181
10306SOL    HW231818   4.251   4.456   1.103
10307SOL     OW31819   2.179   1.574   5.526
10307SOL    HW131820   2.238   1.508   5.572
10307SOL    HW231821   2.099   1.593   5.583
10308SOL     OW31822   2.834   5.635   3.613
10308SOL    HW131823   2.789   5.548   3.634
10308SOL    HW231824   2.834   5.649   3.514
10309SOL     OW31825   0.507   5.873   3.517
10309SOL    HW131826   0.544   5.934   3.447
10309SOL    HW231827   0.419   5.836   3.487
10310SOL     OW31828   3.463   2.880   4.659
10310SOL    HW131829   3.484   2.905   4.565
10310SOL    HW231830   3.536   2.821   4.695
10311SOL     OW31831   0.383   6.892   0.755
10311SOL    HW131832   0.286   6.871   0.771
10311SOL    HW231833   0.403   6.983   0.791
10312SOL     OW31834   2.241   4.780   0.817
10312SOL    HW131835   2.159   4.722   0.816
10312SOL    HW231836   2.255   4.817   0.909
10313SOL     OW31837   6.635   5.444   3.831
10313SOL    HW131838   6.657   5.379   3.759
10313SOL    HW231839   6.708   5.445   3.899
10314SOL     OW31840   6.269   5.300   5.165
10314SOL    HW131841   6.172   5.278   5.163
10314SOL    HW231842   6.292   5.359   5.088
10315SOL     OW31843   4.374   6.873   5.514
10315SOL    HW131844   4.364   6.824   5.601
10315SOL    HW231845   4.341   6.967   5.525
10316SOL     OW31846   0.247   3.944   2.830
10316SOL    HW131847   0.292   3.871   2.780
10316SOL    HW231848   0.273   4.033   2.791
10317SOL     OW31849   4.807   4.581   6.976
10317SOL    HW131850   4.750   4.652   6.935
10317SOL    HW231851   4.765   4.548   0.041
10318SOL     OW31852   6.374   5.452   2.822
10318SOL    HW131853   6.276   5.465   2.808
10318SOL    HW231854   6.392   5.432   2.919
10319SOL     OW31855   5.406   6.495   4.793
10319SOL    HW131856   5.390   6.429   4.866
10319SOL    HW231857   5.449   6.449   4.715
10320SOL     OW31858   4.484   5.587   2.067
10320SOL    HW131859   4.436   5.517   2.015
10320SOL    HW231860   4.418   5.643   2.118
10321SOL     OW31861   4.140   0.426   4.203
10321SOL    HW131862   4.200   0.487   4.152
10321SOL    HW231863   4.130   0.339   4.154
10322SOL     OW31864   0.615   2.472   6.839
10322SOL    HW131865   0.692   2.456   6.900
10322SOL    HW231866   0.573   2.385   6.813
10323SOL     OW31867   0.856   2.459   5.784
10323SOL    HW131868   0.872   2.363   5.761
10323SOL    HW231869   0.918   2.487   5.857
10324SOL     OW31870   3.552   2.865   4.388
10324SOL    HW131871   3.613   2.939   4.417
10324SOL    HW231872   3.560   2.852   4.290
10325SOL     OW31873   6.996   4.126   3.125
10325SOL    HW131874   0.057   4.140   3.181
10325SOL    HW231875   6.956   4.214   3.100
10326SOL     OW31876   5.380   2.172   1.277
10326SOL    HW131877   5.314   2.193   1.349
10326SOL    HW231878   5.350   2.092   1.226
10327SOL     OW31879   6.411   1.053   3.349
10327SOL    HW131880   6.373   0.975   3.399
10327SOL    HW231881   6.337   1.113   3.319
10328SOL     OW31882   6.306   4.074   2.688
10328SOL    HW131883   6.207   4.082   2.692
10328SOL    HW231884   6.348   4.131   2.758
10329SOL     OW31885   3.398   5.944   2.683
10329SOL    HW131886   3.419   6.041   2.677
10329SOL    HW231887   3.420   5.900   2.595
10330SOL     OW31888   3.189   3.811   1.004
10330SOL    HW131889   3.214   3.764   0.919
10330SOL    HW231890   3.152   3.745   1.069
10331SOL     OW31891   5.637   0.934   4.498
10331SOL    HW131892   5.577   0.994   4.552
10331SOL    HW231893   5.619   0.947   4.401
10332SOL     OW31894   0.564   1.331   6.457
10332SOL    HW131895   0.648   1.371   6.423
10332SOL    HW231896   0.560   1.340   6.556
10333SOL     OW31897   6.223   4.674   5.408
10333SOL    HW131898   6.269   4.587   5.431
10333SOL    HW231899   6.235   4.693   5.311
10334SOL     OW31900   0.974   5.137   4.771
10334SOL    HW131901   1.066   5.121   4.808
10334SOL    HW231902   0.979   5.207   4.699
10335SOL     OW31903   3.061   5.265   2.202
10335SOL    HW131904   3.035   5.173   2.172
10335SOL    HW231905   3.146   5.293   2.156
10336SOL     OW31906   4.994   0.022   2.767
10336SOL    HW131907   5.043   7.003   2.689
10336SOL    HW231908   4.991   6.975   2.841
10337SOL     OW31909   0.444   4.530   5.514
10337SOL    HW131910   0.497   4.446   5.503
10337SOL    HW231911   0.491   4.605   5.466
10338SOL     OW31912   2.681   4.959   2.803
10338SOL    HW131913   2.644   4.889   2.742
10338SOL    HW231914   2.738   5.022   2.750
10339SOL     OW31915   2.881   5.621   0.636
10339SOL    HW131916   2.980   5.612   0.638
10339SOL    HW231917   2.840   5.555   0.700
10340SOL     OW31918   1.552   6.367   0.401
10340SOL    HW131919   1.647   6.391   0.419
10340SOL    HW231920   1.494   6.448   0.409
10341SOL     OW31921   0.506   2.304   2.051
10341SOL    HW131922   0.445   2.337   1.978
10341SOL    HW231923   0.455   2.246   2.113
10342SOL     OW31924   3.864   6.497   4.113
10342SOL    HW131925   3.863   6.402   4.082
10342SOL    HW231926   3.770   6.532   4.114
10343SOL     OW31927   2.471   2.613   4.062
10343SOL    HW131928   2.435   2.692   4.111
10343SOL    HW231929   2.517   2.552   4.126
10344SOL     OW31930   4.107   3.175   1.798
10344SOL    HW131931   4.139   3.268   1.814
10344SOL    HW231932   4.184   3.118   1.769
10345SOL     OW31933   2.833   2.253   5.814
10345SOL    HW131934   2.846   2.206   5.727
10345SOL    HW231935   2.894   2.333   5.818
10346SOL     OW31936   6.168   5.397   0.759
10346SOL    HW131937   6.148   5.399   0.857
10346SOL    HW231938   6.137   5.482   0.716
10347SOL     OW31939   4.522   0.155   1.460
10347SOL    HW131940   4.572   0.068   1.453
10347SOL    HW231941   4.571   0.216   1.522
10348SOL     OW31942   6.672   4.906   5.865
10348SOL    HW131943   6.621   4.877   5.784
10348SOL    HW231944   6.619   4.883   5.947
10349SOL     OW31945   7.015   2.240   0.323
10349SOL    HW131946   0.015   2.258   0.419
10349SOL    HW231947   0.022   2.319   0.268
10350SOL     OW31948   2.162   4.803   4.708
10350SOL    HW131949   2.155   4.706   4.734
10350SOL    HW231950   2.202   4.855   4.782
10351SOL     OW31951   3.787   4.924   4.798
10351SOL    HW131952   3.805   4.987   4.722
10351SOL    HW231953   3.721   4.855   4.769
10352SOL     OW31954   6.554   0.724   0.180
10352SOL    HW131955   6.472   0.673   0.155
10352SOL    HW231956   6.635   0.668   0.164
10353SOL     OW31957   6.315   2.391   3.970
10353SOL    HW131958   6.244   2.369   3.903
10353SOL    HW231959   6.326   2.314   4.033
10354SOL     OW31960   6.032   2.706   1.262
10354SOL    HW131961   6.120   2.658   1.255
10354SOL    HW231962   6.047   2.804   1.256
10355SOL     OW31963   0.497   1.397   0.816
10355SOL    HW131964   0.595   1.415   0.807
10355SOL    HW231965   0.453   1.402   0.726
10356SOL     OW31966   5.468   2.251   6.882
10356SOL    HW131967   5.370   2.269   6.881
10356SOL    HW231968   5.508   2.283   6.796
10357SOL     OW31969   1.201   0.126   5.904
10357SOL    HW131970   1.204   0.028   5.922
10357SOL    HW231971   1.250   0.175   5.976
10358SOL     OW31972   0.274   2.591   2.947
10358SOL    HW131973   0.280   2.530   3.026
10358SOL    HW231974   0.180   2.625   2.938
10359SOL     OW31975   0.508   1.836   2.275
10359SOL    HW131976   0.480   1.924   2.315
10359SOL    HW231977   0.570   1.789   2.338
10360SOL     OW31978   6.137   3.992   0.867
10360SOL    HW131979   6.233   4.003   0.894
10360SOL    HW231980   6.095   3.919   0.922
10361SOL     OW31981   6.152   2.047   2.333
10361SOL    HW131982   6.232   2.074   2.280
10361SOL    HW231983   6.071   2.049   2.273
10362SOL     OW31984   1.187   5.622   1.811
10362SOL    HW131985   1.140   5.619   1.899
10362SOL    HW231986   1.202   5.529   1.778
10363SOL     OW31987   5.483   5.113   6.779
10363SOL    HW131988   5.501   5.020   6.811
10363SOL    HW231989   5.439   5.110   6.689
10364SOL     OW31990   5.553   5.505   2.727
10364SOL    HW131991   5.535   5.603   2.726
10364SOL    HW231992   5.601   5.481   2.812
10365SOL     OW31993   6.201   5.354   0.293
10365SOL    HW131994   6.226   5.331   0.387
10365SOL    HW231995   6.227   5.449   0.274
10366SOL     OW31996   2.985   6.523   3.942
10366SOL    HW131997   3.006   6.557   3.851
10366SOL    HW231998   3.065   6.533   4.001
10367SOL     OW31999   5.574   6.328   2.033
10367SOL    HW132000   5.477   6.353   2.025
10367SOL    HW232001   5.630   6.410   2.021
10368SOL     OW32002   1.066   5.308   2.127
10368SOL    HW132003   1.010   5.284   2.048
10368SOL    HW232004   1.049   5.403   2.153
10369SOL     OW32005   2.580   0.324   6.043
10369SOL    HW132006   2.607   0.228   6.052
10369SOL    HW232007   2.528   0.352   6.124
10370SOL     OW32008   1.996   1.804   5.907
10370SOL    HW132009   2.050   1.888   5.900
10370SOL    HW232010   2.026   1.752   5.987
10371SOL     OW32011   4.159   5.798   2.936
10371SOL    HW132012   4.162   5.698   2.948
10371SOL    HW232013   4.236   5.839   2.985
10372SOL     OW32014   2.406   6.676   1.014
10372SOL    HW132015   2.422   6.730   1.096
10372SOL    HW232016   2.417   6.579   1.036
10373SOL     OW32017   6.121   0.906   6.644
10373SOL    HW132018   6.202   0.945   6.601
10373SOL    HW232019   6.100   0.957   6.728
10374SOL     OW32020   2.811   5.146   3.274
10374SOL    HW132021   2.798   5.075   3.343
10374SOL    HW232022   2.765   5.120   3.189
10375SOL     OW32023   2.390   5.709   0.517
10375SOL    HW132024   2.411   5.664   0.604
10375SOL    HW232025   2.463   5.774   0.495
10376SOL     OW32026   2.328   4.831   3.554
10376SOL    HW132027   2.362   4.842   3.647
10376SOL    HW232028   2.380   4.890   3.492
10377SOL     OW32029   2.058   1.188   2.052
10377SOL    HW132030   1.988   1.246   2.094
10377SOL    HW232031   2.020   1.097   2.036
10378SOL     OW32032   0.479   5.924   5.165
10378SOL    HW132033   0.418   6.002   5.166
10378SOL    HW232034   0.453   5.862   5.091
10379SOL     OW32035   2.138   0.271   3.624
10379SOL    HW132036   2.161   0.236   3.533
10379SOL    HW232037   2.209   0.242   3.689
10380SOL     OW32038   3.538   1.589   3.947
10380SOL    HW132039   3.543   1.688   3.932
10380SOL    HW232040   3.631   1.552   3.955
10381SOL     OW32041   3.965   6.854   2.713
10381SOL    HW132042   3.876   6.820   2.685
10381SOL    HW232043   3.971   6.952   2.694
10382SOL     OW32044   4.053   5.349   2.060
10382SOL    HW132045   4.137   5.295   2.064
10382SOL    HW232046   3.977   5.290   2.033
10383SOL     OW32047   0.548   4.883   7.006
10383SOL    HW132048   0.537   4.979   6.980
10383SOL    HW232049   0.488   4.826   6.950
10384SOL     OW32050   5.190   5.528   1.344
10384SOL    HW132051   5.175   5.448   1.284
10384SOL    HW232052   5.106   5.547   1.395
10385SOL     OW32053   4.391   4.334   0.505
10385SOL    HW132054   4.301   4.357   0.542
10385SOL    HW232055   4.406   4.236   0.513
10386SOL     OW32056   0.153   0.271   1.387
10386SOL    HW132057   0.212   0.331   1.441
10386SOL    HW232058   0.125   0.193   1.441
10387SOL     OW32059   4.922   3.389   2.266
10387SOL    HW132060   4.904   3.301   2.309
10387SOL    HW232061   4.991   3.439   2.319
10388SOL     OW32062   1.756   6.991   4.978
10388SOL    HW132063   1.709   7.003   4.891
10388SOL    HW232064   1.691   7.008   5.053
10389SOL     OW32065   1.051   3.714   6.838
10389SOL    HW132066   1.057   3.793   6.777
10389SOL    HW232067   0.957   3.681   6.842
10390SOL     OW32068   2.161   2.813   1.834
10390SOL    HW132069   2.211   2.728   1.849
10390SOL    HW232070   2.162   2.868   1.917
10391SOL     OW32071   5.921   6.750   3.821
10391SOL    HW132072   5.822   6.760   3.834
10391SOL    HW232073   5.953   6.671   3.873
10392SOL     OW32074   6.644   3.900   4.280
10392SOL    HW132075   6.584   3.966   4.236
10392SOL    HW232076   6.723   3.882   4.221
10393SOL     OW32077   1.640   2.733   3.074
10393SOL    HW132078   1.551   2.772   3.050
10393SOL    HW232079   1.713   2.782   3.025
10394SOL     OW32080   2.964   0.307   4.007
10394SOL    HW132081   3.025   0.337   3.934
10394SOL    HW232082   2.910   0.384   4.039
10395SOL     OW32083   0.729   7.001   0.591
10395SOL    HW132084   0.746   6.928   0.524
10395SOL    HW232085   0.645   0.029   0.568
10396SOL     OW32086   3.360   2.080   5.030
10396SOL    HW132087   3.282   2.138   5.007
10396SOL    HW232088   3.328   1.989   5.054
10397SOL     OW32089   5.317   2.056   4.113
10397SOL    HW132090   5.291   2.144   4.155
10397SOL    HW232091   5.282   2.054   4.019
10398SOL     OW32092   5.715   2.605   2.480
10398SOL    HW132093   5.710   2.581   2.383
10398SOL    HW232094   5.798   2.657   2.497
10399SOL     OW32095   0.971   3.936   2.179
10399SOL    HW132096   1.034   3.895   2.113
10399SOL    HW232097   0.915   3.864   2.221
10400SOL     OW32098   2.290   6.366   0.847
10400SOL    HW132099   2.331   6.382   0.937
10400SOL    HW232100   2.352   6.399   0.776
10401SOL     OW32101   0.490   0.859   5.716
10401SOL    HW132102   0.505   0.836   5.619
10401SOL    HW232103   0.527   0.786   5.773
10402SOL     OW32104   0.000   3.288   5.222
10402SOL    HW132105   6.943   3.253   5.275
10402SOL    HW232106   6.987   3.341   5.145
10403SOL     OW32107   3.395   7.010   0.638
10403SOL    HW132108   3.436   6.947   0.703
10403SOL    HW232109   3.308   0.023   0.673
10404SOL     OW32110   6.588   6.697   6.201
10404SOL    HW132111   6.541   6.745   6.276
10404SOL    HW232112   6.565   6.741   6.114
10405SOL     OW32113   0.666   2.382   6.581
10405SOL    HW132114   0.693   2.464   6.632
10405SOL    HW232115   0.687   2.301   6.635
10406SOL     OW32116   1.800   5.057   1.484
10406SOL    HW132117   1.812   5.138   1.428
10406SOL    HW232118   1.829   4.976   1.433
10407SOL     OW32119   2.273   6.135   5.817
10407SOL    HW132120   2.309   6.102   5.730
10407SOL    HW232121   2.257   6.057   5.878
10408SOL     OW32122   3.699   1.401   0.366
10408SOL    HW132123   3.650   1.319   0.337
10408SOL    HW232124   3.762   1.430   0.294
10409SOL     OW32125   5.702   4.908   1.080
10409SOL    HW132126   5.659   4.930   1.168
10409SOL    HW232127   5.680   4.979   1.014
10410SOL     OW32128   4.937   0.301   0.686
10410SOL    HW132129   4.905   0.394   0.707
10410SOL    HW232130   5.013   0.306   0.622
10411SOL     OW32131   2.664   5.024   3.914
10411SOL    HW132132   2.643   5.086   3.990
10411SOL    HW232133   2.711   5.075   3.842
10412SOL     OW32134   5.794   0.198   0.664
10412SOL    HW132135   5.726   0.268   0.641
10412SOL    HW232136   5.873   0.241   0.708
10413SOL     OW32137   6.999   2.683   2.108
10413SOL    HW132138   0.061   2.626   2.099
10413SOL    HW232139   6.957   2.667   2.197
10414SOL     OW32140   5.005   2.769   4.315
10414SOL    HW132141   5.034   2.707   4.387
10414SOL    HW232142   4.933   2.726   4.260
10415SOL     OW32143   0.099   0.600   6.353
10415SOL    HW132144   0.097   0.541   6.273
10415SOL    HW232145   0.006   0.625   6.380
10416SOL     OW32146   5.406   3.288   4.454
10416SOL    HW132147   5.487   3.295   4.395
10416SOL    HW232148   5.360   3.201   4.437
10417SOL     OW32149   2.739   4.673   3.181
10417SOL    HW132150   2.682   4.622   3.117
10417SOL    HW232151   2.714   4.649   3.275
10418SOL     OW32152   1.680   5.324   5.988
10418SOL    HW132153   1.703   5.418   6.011
10418SOL    HW232154   1.581   5.313   5.988
10419SOL     OW32155   1.257   1.422   1.067
10419SOL    HW132156   1.256   1.444   1.165
10419SOL    HW232157   1.236   1.505   1.015
10420SOL     OW32158   0.437   3.445   3.433
10420SOL    HW132159   0.370   3.386   3.389
10420SOL    HW232160   0.397   3.534   3.451
10421SOL     OW32161   0.427   1.395   3.376
10421SOL    HW132162   0.522   1.386   3.406
10421SOL    HW232163   0.408   1.327   3.304
10422SOL     OW32164   5.809   3.542   5.915
10422SOL    HW132165   5.906   3.563   5.932
10422SOL    HW232166   5.796   3.443   5.916
10423SOL     OW32167   5.257   4.429   2.627
10423SOL    HW132168   5.233   4.398   2.535
10423SOL    HW232169   5.174   4.452   2.677
10424SOL     OW32170   4.592   2.068   6.405
10424SOL    HW132171   4.533   2.026   6.475
10424SOL    HW232172   4.617   1.999   6.338
10425SOL     OW32173   2.121   6.652   1.585
10425SOL    HW132174   2.203   6.663   1.528
10425SOL    HW232175   2.138   6.581   1.653
10426SOL     OW32176   6.374   3.602   0.077
10426SOL    HW132177   6.468   3.568   0.076
10426SOL    HW232178   6.370   3.692   0.034
10427SOL     OW32179   4.564   1.483   1.121
10427SOL    HW132180   4.483   1.476   1.063
10427SOL    HW232181   4.537   1.479   1.217
10428SOL     OW32182   4.759   1.340   4.547
10428SOL    HW132183   4.663   1.367   4.544
10428SOL    HW232184   4.774   1.276   4.623
10429SOL     OW32185   5.904   6.365   2.332
10429SOL    HW132186   5.956   6.346   2.249
10429SOL    HW232187   5.930   6.455   2.368
10430SOL     OW32188   3.940   6.722   3.114
10430SOL    HW132189   3.967   6.626   3.107
10430SOL    HW232190   3.901   6.739   3.204
10431SOL     OW32191   2.173   1.282   5.331
10431SOL    HW132192   2.222   1.290   5.417
10431SOL    HW232193   2.075   1.275   5.348
10432SOL     OW32194   5.424   1.090   5.138
10432SOL    HW132195   5.387   1.030   5.068
10432SOL    HW232196   5.446   1.037   5.220
10433SOL     OW32197   2.903   6.561   1.053
10433SOL    HW132198   2.882   6.470   1.018
10433SOL    HW232199   2.885   6.629   0.982
10434SOL     OW32200   2.691   2.043   4.182
10434SOL    HW132201   2.612   2.076   4.130
10434SOL    HW232202   2.756   1.999   4.120
10435SOL     OW32203   5.134   6.384   0.072
10435SOL    HW132204   5.036   6.389   0.052
10435SOL    HW232205   5.167   6.474   0.099
10436SOL     OW32206   1.205   0.070   2.206
10436SOL    HW132207   1.125   0.081   2.265
10436SOL    HW232208   1.246   7.001   2.222
10437SOL     OW32209   6.388   5.055   6.016
10437SOL    HW132210   6.462   5.104   5.972
10437SOL    HW232211   6.320   5.120   6.051
10438SOL     OW32212   3.553   6.420   6.208
10438SOL    HW132213   3.595   6.329   6.207
10438SOL    HW232214   3.590   6.475   6.133
10439SOL     OW32215   3.914   0.213   5.677
10439SOL    HW132216   3.958   0.206   5.587
10439SOL    HW232217   3.938   0.301   5.719
10440SOL     OW32218   2.505   5.956   0.178
10440SOL    HW132219   2.545   5.978   0.268
10440SOL    HW232220   2.435   6.023   0.156
10441SOL     OW32221   3.725   0.668   6.533
10441SOL    HW132222   3.643   0.679   6.477
10441SOL    HW232223   3.704   0.690   6.628
10442SOL     OW32224   4.427   5.846   5.663
10442SOL    HW132225   4.437   5.748   5.680
10442SOL    HW232226   4.331   5.866   5.640
10443SOL     OW32227   6.136   2.832   5.091
10443SOL    HW132228   6.060   2.870   5.038
10443SOL    HW232229   6.183   2.906   5.139
10444SOL     OW32230   3.740   5.053   3.895
10444SOL    HW132231   3.741   5.138   3.947
10444SOL    HW232232   3.663   4.997   3.925
10445SOL     OW32233   6.024   5.888   3.972
10445SOL    HW132234   5.952   5.917   3.909
10445SOL    HW232235   6.052   5.795   3.950
10446SOL     OW32236   1.019   6.173   6.597
10446SOL    HW132237   1.085   6.157   6.670
10446SOL    HW232238   1.009   6.090   6.542
10447SOL     OW32239   6.272   2.091   1.260
10447SOL    HW132240   6.294   2.084   1.357
10447SOL    HW232241   6.174   2.109   1.249
10448SOL     OW32242   3.493   4.009   2.206
10448SOL    HW132243   3.403   4.049   2.225
10448SOL    HW232244   3.485   3.945   2.130
10449SOL     OW32245   1.334   5.147   4.710
10449SOL    HW132246   1.421   5.139   4.760
10449SOL    HW232247   1.270   5.202   4.764
10450SOL     OW32248   6.954   3.067   0.991
10450SOL    HW132249   6.977   3.015   0.909
10450SOL    HW232250   0.010   3.062   1.056
10451SOL     OW32251   2.356   4.313   2.730
10451SOL    HW132252   2.321   4.406   2.721
10451SOL    HW232253   2.395   4.283   2.642
10452SOL     OW32254   1.120   3.917   5.149
10452SOL    HW132255   1.180   3.875   5.081
10452SOL    HW232256   1.090   4.007   5.117
10453SOL     OW32257   5.617   0.162   1.769
10453SOL    HW132258   5.621   0.228   1.844
10453SOL    HW232259   5.686   0.186   1.700
10454SOL     OW32260   4.951   3.477   2.640
10454SOL    HW132261   4.887   3.421   2.692
10454SOL    HW232262   5.044   3.445   2.655
10455SOL     OW32263   6.504   4.353   3.066
10455SOL    HW132264   6.432   4.336   3.133
10455SOL    HW232265   6.533   4.266   3.026
10456SOL     OW32266   4.032   6.391   0.880
10456SOL    HW132267   4.100   6.323   0.854
10456SOL    HW232268   3.959   6.347   0.932
10457SOL     OW32269   3.731   3.295   4.414
10457SOL    HW132270   3.728   3.300   4.314
10457SOL    HW232271   3.642   3.318   4.451
10458SOL     OW32272   6.752   6.559   1.812
10458SOL    HW132273   6.772   6.598   1.722
10458SOL    HW232274   6.770   6.628   1.883
10459SOL     OW32275   6.245   4.828   2.611
10459SOL    HW132276   6.305   4.904   2.585
10459SOL    HW232277   6.159   4.864   2.648
10460SOL     OW32278   2.221   5.327   1.749
10460SOL    HW132279   2.305   5.303   1.798
10460SOL    HW232280   2.205   5.260   1.676
10461SOL     OW32281   2.188   1.696   6.484
10461SOL    HW132282   2.119   1.719   6.552
10461SOL    HW232283   2.176   1.754   6.403
10462SOL     OW32284   5.489   6.794   1.166
10462SOL    HW132285   5.546   6.866   1.205
10462SOL    HW232286   5.424   6.763   1.236
10463SOL     OW32287   2.799   4.167   1.672
10463SOL    HW132288   2.872   4.142   1.608
10463SOL    HW232289   2.808   4.113   1.755
10464SOL     OW32290   5.254   0.178   1.702
10464SOL    HW132291   5.321   0.247   1.674
10464SOL    HW232292   5.254   0.102   1.637
10465SOL     OW32293   6.649   5.189   4.639
10465SOL    HW132294   6.749   5.190   4.644
10465SOL    HW232295   6.611   5.186   4.732
10466SOL     OW32296   5.198   6.203   6.250
10466SOL    HW132297   5.290   6.227   6.280
10466SOL    HW232298   5.160   6.134   6.312
10467SOL     OW32299   4.398   0.927   3.978
10467SOL    HW132300   4.321   0.926   3.914
10467SOL    HW232301   4.446   0.839   3.973
10468SOL     OW32302   3.315   5.949   3.014
10468SOL    HW132303   3.346   6.043   3.002
10468SOL    HW232304   3.385   5.897   3.062
10469SOL     OW32305   1.887   4.754   0.033
10469SOL    HW132306   1.805   4.720   0.078
10469SOL    HW232307   1.879   4.742   6.954
10470SOL     OW32308   2.600   1.691   4.159
10470SOL    HW132309   2.665   1.625   4.198
10470SOL    HW232310   2.609   1.690   4.059
10471SOL     OW32311   4.698   3.930   0.480
10471SOL    HW132312   4.778   3.891   0.526
10471SOL    HW232313   4.647   3.857   0.435
10472SOL     OW32314   4.802   1.527   3.314
10472SOL    HW132315   4.823   1.623   3.298
10472SOL    HW232316   4.858   1.492   3.389
10473SOL     OW32317   4.864   5.569   0.404
10473SOL    HW132318   4.815   5.536   0.485
10473SOL    HW232319   4.916   5.493   0.363
10474SOL     OW32320   4.902   0.642   4.176
10474SOL    HW132321   4.985   0.646   4.120
10474SOL    HW232322   4.823   0.666   4.120
10475SOL     OW32323   4.679   6.529   1.951
10475SOL    HW132324   4.760   6.540   1.892
10475SOL    HW232325   4.611   6.598   1.927
10476SOL     OW32326   6.999   4.636   0.330
10476SOL    HW132327   0.029   4.584   0.260
10476SOL    HW232328   6.985   4.730   0.298
10477SOL     OW32329   4.776   4.765   5.083
10477SOL    HW132330   4.768   4.855   5.125
10477SOL    HW232331   4.725   4.764   4.997
10478SOL     OW32332   0.530   6.135   2.284
10478SOL    HW132333   0.474   6.217   2.272
10478SOL    HW232334   0.577   6.115   2.198
10479SOL     OW32335   1.517   4.665   2.849
10479SOL    HW132336   1.520   4.576   2.894
10479SOL    HW232337   1.425   4.705   2.860
10480SOL     OW32338   5.919   0.233   2.561
10480SOL    HW132339   6.009   0.196   2.535
10480SOL    HW232340   5.850   0.201   2.496
10481SOL     OW32341   2.472   0.862   4.892
10481SOL    HW132342   2.390   0.905   4.856
10481SOL    HW232343   2.447   0.785   4.950
10482SOL     OW32344   1.262   5.185   5.507
10482SOL    HW132345   1.263   5.279   5.473
10482SOL    HW232346   1.347   5.166   5.556
10483SOL     OW32347   6.917   5.270   1.087
10483SOL    HW132348   6.834   5.325   1.082
10483SOL    HW232349   6.906   5.189   1.030
10484SOL     OW32350   6.105   1.853   1.444
10484SOL    HW132351   6.136   1.877   1.352
10484SOL    HW232352   6.154   1.772   1.476
10485SOL     OW32353   3.247   3.917   3.829
10485SOL    HW132354   3.184   3.839   3.827
10485SOL    HW232355   3.284   3.927   3.921
10486SOL     OW32356   5.532   5.423   5.061
10486SOL    HW132357   5.525   5.323   5.054
10486SOL    HW232358   5.602   5.447   5.128
10487SOL     OW32359   5.148   2.952   3.155
10487SOL    HW132360   5.132   2.877   3.219
10487SOL    HW232361   5.076   2.953   3.086
10488SOL     OW32362   0.032   2.333   5.491
10488SOL    HW132363   0.066   2.284   5.571
10488SOL    HW232364   7.015   2.268   5.425
10489SOL     OW32365   5.891   4.087   4.654
10489SOL    HW132366   5.795   4.087   4.680
10489SOL    HW232367   5.920   4.179   4.630
10490SOL     OW32368   5.596   6.800   6.774
10490SOL    HW132369   5.655   6.866   6.820
10490SOL    HW232370   5.610   6.709   6.814
10491SOL     OW32371   1.923   3.280   5.909
10491SOL    HW132372   1.917   3.244   5.816
10491SOL    HW232373   2.018   3.301   5.931
10492SOL     OW32374   3.598   5.778   0.222
10492SOL    HW132375   3.558   5.868   0.242
10492SOL    HW232376   3.615   5.730   0.308
10493SOL     OW32377   3.877   5.135   1.736
10493SOL    HW132378   3.788   5.144   1.691
10493SOL    HW232379   3.878   5.189   1.820
10494SOL     OW32380   0.745   4.217   3.947
10494SOL    HW132381   0.669   4.201   4.010
10494SOL    HW232382   0.748   4.143   3.879
10495SOL     OW32383   0.204   6.631   0.600
10495SOL    HW132384   0.189   6.598   0.506
10495SOL    HW232385   0.299   6.613   0.626
10496SOL     OW32386   0.169   4.661   6.263
10496SOL    HW132387   0.264   4.641   6.238
10496SOL    HW232388   0.111   4.583   6.240
10497SOL     OW32389   2.954   0.489   1.817
10497SOL    HW132390   2.954   0.582   1.855
10497SOL    HW232391   2.863   0.468   1.781
10498SOL     OW32392   4.415   3.822   6.291
10498SOL    HW132393   4.332   3.789   6.245
10498SOL    HW232394   4.393   3.851   6.384
10499SOL     OW32395   5.359   3.709   2.518
10499SOL    HW132396   5.381   3.698   2.615
10499SOL    HW232397   5.261   3.697   2.504
10500SOL     OW32398   1.084   3.494   4.961
10500SOL    HW132399   1.019   3.490   5.037
10500SOL    HW232400   1.047   3.444   4.883
10501SOL     OW32401   3.419   4.917   2.960
10501SOL    HW132402   3.323   4.919   2.932
10501SOL    HW232403   3.476   4.884   2.884
10502SOL     OW32404   3.192   3.441   2.362
10502SOL    HW132405   3.289   3.456   2.379
10502SOL    HW232406   3.175   3.344   2.345
10503SOL     OW32407   6.844   1.335   6.124
10503SOL    HW132408   6.902   1.258   6.151
10503SOL    HW232409   6.752   1.322   6.161
10504SOL     OW32410   0.574   3.992   5.880
10504SOL    HW132411   0.631   4.065   5.918
10504SOL    HW232412   0.490   3.984   5.934
10505SOL     OW32413   6.313   6.999   0.786
10505SOL    HW132414   6.214   7.004   0.802
10505SOL    HW232415   6.361   6.989   0.873
10506SOL     OW32416   1.090   4.413   5.951
10506SOL    HW132417   1.020   4.365   5.899
10506SOL    HW232418   1.179   4.403   5.906
10507SOL     OW32419   1.147   5.873   5.659
10507SOL    HW132420   1.076   5.831   5.715
10507SOL    HW232421   1.115   5.881   5.565
10508SOL     OW32422   1.800   5.648   6.394
10508SOL    HW132423   1.738   5.695   6.331
10508SOL    HW232424   1.802   5.550   6.372
10509SOL     OW32425   4.754   2.342   3.173
10509SOL    HW132426   4.694   2.339   3.252
10509SOL    HW232427   4.749   2.255   3.124
10510SOL     OW32428   5.603   5.723   3.746
10510SOL    HW132429   5.631   5.703   3.652
10510SOL    HW232430   5.503   5.729   3.749
10511SOL     OW32431   4.026   1.601   0.860
10511SOL    HW132432   3.957   1.642   0.800
10511SOL    HW232433   4.057   1.515   0.821
10512SOL     OW32434   4.043   1.869   5.481
10512SOL    HW132435   3.996   1.840   5.564
10512SOL    HW232436   4.078   1.962   5.493
10513SOL     OW32437   3.888   3.146   0.293
10513SOL    HW132438   3.852   3.077   0.229
10513SOL    HW232439   3.981   3.122   0.319
10514SOL     OW32440   1.557   4.583   1.825
10514SOL    HW132441   1.511   4.659   1.779
10514SOL    HW232442   1.494   4.505   1.831
10515SOL     OW32443   2.203   3.033   4.823
10515SOL    HW132444   2.127   2.975   4.850
10515SOL    HW232445   2.274   3.031   4.894
10516SOL     OW32446   4.939   2.066   1.845
10516SOL    HW132447   4.934   2.165   1.861
10516SOL    HW232448   5.017   2.028   1.895
10517SOL     OW32449   0.737   3.000   2.606
10517SOL    HW132450   0.832   2.968   2.605
10517SOL    HW232451   0.683   2.946   2.541
10518SOL     OW32452   0.985   5.542   2.214
10518SOL    HW132453   1.005   5.639   2.233
10518SOL    HW232454   0.921   5.507   2.283
10519SOL     OW32455   3.573   6.894   1.311
10519SOL    HW132456   3.543   6.864   1.401
10519SOL    HW232457   3.661   6.939   1.319
10520SOL     OW32458   1.356   2.835   6.352
10520SOL    HW132459   1.307   2.852   6.438
10520SOL    HW232460   1.439   2.891   6.349
10521SOL     OW32461   6.606   2.764   3.253
10521SOL    HW132462   6.620   2.687   3.315
10521SOL    HW232463   6.511   2.764   3.219
10522SOL     OW32464   5.808   1.365   3.976
10522SOL    HW132465   5.767   1.360   3.884
10522SOL    HW232466   5.737   1.392   4.042
10523SOL     OW32467   1.181   4.381   2.493
10523SOL    HW132468   1.141   4.289   2.491
10523SOL    HW232469   1.115   4.446   2.531
10524SOL     OW32470   7.018   5.867   4.646
10524SOL    HW132471   0.090   5.829   4.652
10524SOL    HW232472   7.018   5.959   4.685
10525SOL     OW32473   5.149   1.589   4.009
10525SOL    HW132474   5.228   1.528   4.016
10525SOL    HW232475   5.156   1.660   4.080
10526SOL     OW32476   1.512   5.439   6.591
10526SOL    HW132477   1.418   5.436   6.625
10526SOL    HW232478   1.519   5.505   6.516
10527SOL     OW32479   0.248   6.546   5.457
10527SOL    HW132480   0.319   6.584   5.517
10527SOL    HW232481   0.183   6.494   5.512
10528SOL     OW32482   2.023   4.799   5.367
10528SOL    HW132483   1.930   4.777   5.335
10528SOL    HW232484   2.017   4.848   5.454
10529SOL     OW32485   0.103   5.371   0.850
10529SOL    HW132486   0.190   5.419   0.860
10529SOL    HW232487   0.070   5.342   0.940
10530SOL     OW32488   0.128   6.349   1.728
10530SOL    HW132489   0.082   6.334   1.641
10530SOL    HW232490   0.061   6.346   1.802
10531SOL     OW32491   3.481   2.476   5.505
10531SOL    HW132492   3.401   2.463   5.563
10531SOL    HW232493   3.480   2.407   5.432
10532SOL     OW32494   4.803   6.037   5.859
10532SOL    HW132495   4.723   5.996   5.905
10532SOL    HW232496   4.792   6.028   5.760
10533SOL     OW32497   3.700   0.380   3.129
10533SOL    HW132498   3.656   0.459   3.172
10533SOL    HW232499   3.639   0.301   3.135
10534SOL     OW32500   1.543   5.864   3.507
10534SOL    HW132501   1.496   5.875   3.420
10534SOL    HW232502   1.543   5.767   3.532
10535SOL     OW32503   3.572   2.135   2.355
10535SOL    HW132504   3.609   2.200   2.289
10535SOL    HW232505   3.473   2.138   2.352
10536SOL     OW32506   5.663   3.293   5.248
10536SOL    HW132507   5.609   3.211   5.264
10536SOL    HW232508   5.609   3.359   5.195
10537SOL     OW32509   4.212   1.267   3.983
10537SOL    HW132510   4.305   1.256   3.949
10537SOL    HW232511   4.185   1.186   4.034
10538SOL     OW32512   0.135   2.834   3.595
10538SOL    HW132513   0.172   2.742   3.605
10538SOL    HW232514   0.037   2.833   3.614
10539SOL     OW32515   6.843   6.654   3.204
10539SOL    HW132516   6.779   6.587   3.243
10539SOL    HW232517   6.853   6.731   3.267
10540SOL     OW32518   1.894   4.157   7.013
10540SOL    HW132519   1.818   4.201   0.041
10540SOL    HW232520   1.980   4.192   0.028
10541SOL     OW32521   2.956   2.937   5.326
10541SOL    HW132522   2.881   3.000   5.345
10541SOL    HW232523   2.995   2.957   5.236
10542SOL     OW32524   4.986   6.364   2.844
10542SOL    HW132525   4.973   6.460   2.820
10542SOL    HW232526   4.900   6.326   2.877
10543SOL     OW32527   2.119   2.853   4.135
10543SOL    HW132528   2.072   2.778   4.181
10543SOL    HW232529   2.126   2.834   4.037
10544SOL     OW32530   3.304   1.354   2.624
10544SOL    HW132531   3.307   1.406   2.538
10544SOL    HW232532   3.394   1.354   2.666
10545SOL     OW32533   2.171   2.947   2.120
10545SOL    HW132534   2.163   2.977   2.215
10545SOL    HW232535   2.162   3.026   2.060
10546SOL     OW32536   2.304   6.973   6.964
10546SOL    HW132537   2.385   6.972   6.905
10546SOL    HW232538   2.244   0.029   6.938
10547SOL     OW32539   3.923   6.159   5.540
10547SOL    HW132540   3.837   6.134   5.584
10547SOL    HW232541   3.952   6.085   5.479
10548SOL     OW32542   0.767   6.110   3.093
10548SOL    HW132543   0.850   6.131   3.144
10548SOL    HW232544   0.744   6.188   3.034
10549SOL     OW32545   6.599   0.553   2.575
10549SOL    HW132546   6.534   0.492   2.531
10549SOL    HW232547   6.689   0.541   2.533
10550SOL     OW32548   4.964   5.539   2.902
10550SOL    HW132549   4.988   5.495   2.989
10550SOL    HW232550   4.882   5.595   2.915
10551SOL     OW32551   3.502   0.657   5.389
10551SOL    HW132552   3.435   0.625   5.322
10551SOL    HW232553   3.461   0.729   5.445
10552SOL     OW32554   3.097   0.058   3.649
10552SOL    HW132555   3.160   0.006   3.707
10552SOL    HW232556   3.011   0.073   3.697
10553SOL     OW32557   5.998   5.774   0.969
10553SOL    HW132558   6.066   5.784   1.042
10553SOL    HW232559   5.926   5.841   0.981
10554SOL     OW32560   6.216   6.366   2.531
10554SOL    HW132561   6.127   6.324   2.543
10554SOL    HW232562   6.229   6.392   2.435
10555SOL     OW32563   3.391   3.357   0.936
10555SOL    HW132564   3.369   3.266   0.972
10555SOL    HW232565   3.382   3.356   0.837
10556SOL     OW32566   2.886   1.819   2.005
10556SOL    HW132567   2.965   1.770   1.968
10556SOL    HW232568   2.809   1.810   1.942
10557SOL     OW32569   2.061   4.546   2.962
10557SOL    HW132570   2.100   4.637   2.977
10557SOL    HW232571   1.971   4.554   2.919
10558SOL     OW32572   3.975   5.117   4.634
10558SOL    HW132573   4.041   5.186   4.604
10558SOL    HW232574   3.885   5.136   4.593
10559SOL     OW32575   4.118   6.447   1.519
10559SOL    HW132576   4.037   6.474   1.466
10559SOL    HW232577   4.134   6.349   1.508
10560SOL     OW32578   5.345   6.658   3.271
10560SOL    HW132579   5.358   6.561   3.289
10560SOL    HW232580   5.265   6.690   3.322
10561SOL     OW32581   6.921   4.691   6.410
10561SOL    HW132582   6.924   4.740   6.323
10561SOL    HW232583   6.925   4.756   6.485
10562SOL     OW32584   4.171   5.944   2.409
10562SOL    HW132585   4.128   5.943   2.499
10562SOL    HW232586   4.218   6.031   2.394
10563SOL     OW32587   0.844   6.897   2.759
10563SOL    HW132588   0.848   6.897   2.659
10563SOL    HW232589   0.926   6.852   2.795
10564SOL     OW32590   5.171   4.718   3.303
10564SOL    HW132591   5.236   4.706   3.227
10564SOL    HW232592   5.079   4.697   3.272
10565SOL     OW32593   0.426   1.214   5.472
10565SOL    HW132594   0.489   1.187   5.545
10565SOL    HW232595   0.351   1.147   5.467
10566SOL     OW32596   3.291   1.761   0.502
10566SOL    HW132597   3.225   1.768   0.428
10566SOL    HW232598   3.365   1.699   0.475
10567SOL     OW32599   2.008   2.384   6.454
10567SOL    HW132600   1.956   2.398   6.538
10567SOL    HW232601   2.002   2.467   6.397
10568SOL     OW32602   4.965   2.281   5.895
10568SOL    HW132603   4.998   2.186   5.901
10568SOL    HW232604   4.885   2.292   5.954
10569SOL     OW32605   5.627   0.981   0.399
10569SOL    HW132606   5.725   0.986   0.418
10569SOL    HW232607   5.586   1.071   0.411
10570SOL     OW32608   1.793   3.514   3.131
10570SOL    HW132609   1.802   3.460   3.215
10570SOL    HW232610   1.702   3.499   3.092
10571SOL     OW32611   7.012   4.219   5.123
10571SOL    HW132612   6.915   4.195   5.130
10571SOL    HW232613   0.013   4.247   5.029
10572SOL     OW32614   6.145   4.256   0.934
10572SOL    HW132615   6.098   4.171   0.911
10572SOL    HW232616   6.090   4.334   0.903
10573SOL     OW32617   6.996   2.497   3.263
10573SOL    HW132618   6.981   2.481   3.361
10573SOL    HW232619   0.043   2.571   3.252
10574SOL     OW32620   5.968   2.386   2.931
10574SOL    HW132621   5.922   2.320   2.871
10574SOL    HW232622   6.066   2.369   2.932
10575SOL     OW32623   5.716   6.973   2.846
10575SOL    HW132624   5.709   0.031   2.783
10575SOL    HW232625   5.734   6.890   2.794
10576SOL     OW32626   1.284   3.971   4.404
10576SOL    HW132627   1.277   3.885   4.454
10576SOL    HW232628   1.379   3.987   4.378
10577SOL     OW32629   4.345   4.200   0.941
10577SOL    HW132630   4.336   4.271   1.011
10577SOL    HW232631   4.254   4.165   0.918
10578SOL     OW32632   0.722   3.541   2.722
10578SOL    HW132633   0.771   3.456   2.703
10578SOL    HW232634   0.784   3.608   2.761
10579SOL     OW32635   0.630   3.317   0.364
10579SOL    HW132636   0.685   3.284   0.288
10579SOL    HW232637   0.549   3.259   0.375
10580SOL     OW32638   5.221   0.027   6.833
10580SOL    HW132639   5.278   0.107   6.812
10580SOL    HW232640   5.280   6.970   6.859
10581SOL     OW32641   4.549   0.813   3.585
10581SOL    HW132642   4.572   0.845   3.494
10581SOL    HW232643   4.628   0.823   3.646
10582SOL     OW32644   6.448   3.335   6.250
10582SOL    HW132645   6.520   3.403   6.237
10582SOL    HW232646   6.456   3.294   6.341
10583SOL     OW32647   3.462   2.072   5.506
10583SOL    HW132648   3.554   2.053   5.473
10583SOL    HW232649   3.456   2.050   5.603
10584SOL     OW32650   0.979   0.174   3.375
10584SOL    HW132651   1.020   0.203   3.288
10584SOL    HW232652   0.920   0.095   3.359
10585SOL     OW32653   1.888   0.957   5.666
10585SOL    HW132654   1.960   0.975   5.599
10585SOL    HW232655   1.809   0.916   5.619
10586SOL     OW32656   4.463   4.331   5.333
10586SOL    HW132657   4.385   4.271   5.321
10586SOL    HW232658   4.479   4.383   5.248
10587SOL     OW32659   2.494   4.927   5.338
10587SOL    HW132660   2.517   4.837   5.375
10587SOL    HW232661   2.530   4.998   5.399
10588SOL     OW32662   1.547   3.535   3.363
10588SOL    HW132663   1.551   3.540   3.263
10588SOL    HW232664   1.603   3.609   3.402
10589SOL     OW32665   5.815   6.336   3.565
10589SOL    HW132666   5.887   6.316   3.632
10589SOL    HW232667   5.856   6.361   3.478
10590SOL     OW32668   0.980   5.128   2.718
10590SOL    HW132669   0.997   5.066   2.794
10590SOL    HW232670   0.957   5.219   2.754
10591SOL     OW32671   0.318   4.022   2.168
10591SOL    HW132672   0.356   3.939   2.209
10591SOL    HW232673   0.226   4.038   2.204
10592SOL     OW32674   0.472   2.260   4.863
10592SOL    HW132675   0.528   2.198   4.918
10592SOL    HW232676   0.531   2.317   4.806
10593SOL     OW32677   3.044   5.252   3.388
10593SOL    HW132678   2.958   5.232   3.342
10593SOL    HW232679   3.041   5.218   3.482
10594SOL     OW32680   3.243   5.482   3.766
10594SOL    HW132681   3.217   5.465   3.671
10594SOL    HW232682   3.163   5.475   3.825
10595SOL     OW32683   4.920   6.977   0.793
10595SOL    HW132684   4.998   7.006   0.739
10595SOL    HW232685   4.836   7.015   0.754
10596SOL     OW32686   5.178   3.142   0.063
10596SOL    HW132687   5.254   3.201   0.090
10596SOL    HW232688   5.101   3.155   0.126
10597SOL     OW32689   2.173   6.312   4.800
10597SOL    HW132690   2.193   6.408   4.780
10597SOL    HW232691   2.215   6.287   4.887
10598SOL     OW32692   3.314   0.838   0.074
10598SOL    HW132693   3.345   0.766   0.137
10598SOL    HW232694   3.363   0.923   0.094
10599SOL     OW32695   0.772   2.373   0.683
10599SOL    HW132696   0.740   2.363   0.778
10599SOL    HW232697   0.865   2.410   0.683
10600SOL     OW32698   3.900   1.004   1.762
10600SOL    HW132699   3.953   0.935   1.812
10600SOL    HW232700   3.860   1.069   1.826
10601SOL     OW32701   2.018   0.948   4.615
10601SOL    HW132702   1.972   0.982   4.697
10601SOL    HW232703   1.979   0.860   4.589
10602SOL     OW32704   6.488   0.069   1.595
10602SOL    HW132705   6.583   0.052   1.572
10602SOL    HW232706   6.433   7.010   1.568
10603SOL     OW32707   5.740   0.329   3.392
10603SOL    HW132708   5.714   0.393   3.320
10603SOL    HW232709   5.727   0.235   3.359
10604SOL     OW32710   5.149   1.425   5.040
10604SOL    HW132711   5.070   1.486   5.040
10604SOL    HW232712   5.135   1.353   4.972
10605SOL     OW32713   3.229   2.399   0.568
10605SOL    HW132714   3.158   2.376   0.635
10605SOL    HW232715   3.314   2.351   0.591
10606SOL     OW32716   6.468   0.980   6.825
10606SOL    HW132717   6.558   0.937   6.819
10606SOL    HW232718   6.411   0.928   6.889
10607SOL     OW32719   3.391   3.810   0.403
10607SOL    HW132720   3.417   3.850   0.315
10607SOL    HW232721   3.472   3.767   0.444
10608SOL     OW32722   5.427   4.358   3.623
10608SOL    HW132723   5.374   4.391   3.545
10608SOL    HW232724   5.467   4.269   3.600
10609SOL     OW32725   5.745   0.212   0.155
10609SOL    HW132726   5.748   0.194   0.056
10609SOL    HW232727   5.652   0.237   0.181
10610SOL     OW32728   0.776   1.792   3.117
10610SOL    HW132729   0.738   1.702   3.097
10610SOL    HW232730   0.709   1.862   3.092
10611SOL     OW32731   4.069   5.103   4.895
10611SOL    HW132732   4.082   5.196   4.929
10611SOL    HW232733   4.024   5.105   4.806
10612SOL     OW32734   6.411   2.509   3.757
10612SOL    HW132735   6.404   2.456   3.842
10612SOL    HW232736   6.425   2.446   3.680
10613SOL     OW32737   4.286   6.181   4.185
10613SOL    HW132738   4.186   6.179   4.187
10613SOL    HW232739   4.318   6.158   4.094
10614SOL     OW32740   3.866   2.034   5.818
10614SOL    HW132741   3.862   2.067   5.912
10614SOL    HW232742   3.898   2.107   5.757
10615SOL     OW32743   2.503   2.699   5.528
10615SOL    HW132744   2.529   2.793   5.550
10615SOL    HW232745   2.484   2.691   5.430
10616SOL     OW32746   1.579   5.951   0.296
10616SOL    HW132747   1.587   6.035   0.243
10616SOL    HW232748   1.649   5.950   0.368
10617SOL     OW32749   1.595   3.086   1.628
10617SOL    HW132750   1.652   3.162   1.658
10617SOL    HW232751   1.637   3.000   1.655
10618SOL     OW32752   1.235   4.426   3.914
10618SOL    HW132753   1.145   4.386   3.930
10618SOL    HW232754   1.228   4.501   3.848
10619SOL     OW32755   1.109   2.807   1.978
10619SOL    HW132756   1.178   2.864   1.935
10619SOL    HW232757   1.089   2.728   1.920
10620SOL     OW32758   3.090   0.738   5.772
10620SOL    HW132759   3.043   0.719   5.686
10620SOL    HW232760   3.070   0.666   5.838
10621SOL     OW32761   0.324   3.805   3.223
10621SOL    HW132762   0.247   3.841   3.171
10621SOL    HW232763   0.384   3.753   3.161
10622SOL     OW32764   4.503   2.298   0.251
10622SOL    HW132765   4.408   2.275   0.228
10622SOL    HW232766   4.553   2.319   0.167
10623SOL     OW32767   5.206   5.807   5.466
10623SOL    HW132768   5.201   5.789   5.564
10623SOL    HW232769   5.116   5.796   5.424
10624SOL     OW32770   0.239   1.853   0.116
10624SOL    HW132771   0.206   1.929   0.061
10624SOL    HW232772   0.215   1.867   0.212
10625SOL     OW32773   6.516   5.832   0.476
10625SOL    HW132774   6.477   5.841   0.384
10625SOL    HW232775   6.538   5.736   0.494
10626SOL     OW32776   5.547   2.927   1.178
10626SOL    HW132777   5.572   2.988   1.102
10626SOL    HW232778   5.605   2.846   1.176
10627SOL     OW32779   5.699   5.206   5.116
10627SOL    HW132780   5.719   5.160   5.029
10627SOL    HW232781   5.727   5.147   5.192
10628SOL     OW32782   3.038   6.247   0.183
10628SOL    HW132783   3.085   6.277   0.266
10628SOL    HW232784   3.032   6.147   0.183
10629SOL     OW32785   4.503   5.555   4.329
10629SOL    HW132786   4.415   5.584   4.366
10629SOL    HW232787   4.573   5.623   4.351
10630SOL     OW32788   3.784   1.093   1.485
10630SOL    HW132789   3.789   1.035   1.404
10630SOL    HW232790   3.806   1.040   1.567
10631SOL     OW32791   3.677   5.847   1.727
10631SOL    HW132792   3.739   5.769   1.716
10631SOL    HW232793   3.678   5.902   1.643
10632SOL     OW32794   5.506   6.379   4.560
10632SOL    HW132795   5.555   6.408   4.478
10632SOL    HW232796   5.569   6.333   4.622
10633SOL     OW32797   2.049   3.124   0.580
10633SOL    HW132798   2.064   3.189   0.654
10633SOL    HW232799   1.984   3.163   0.515
10634SOL     OW32800   6.835   4.743   6.895
10634SOL    HW132801   6.838   4.643   6.893
10634SOL    HW232802   6.756   4.773   6.950
10635SOL     OW32803   2.981   5.897   6.509
10635SOL    HW132804   3.072   5.920   6.541
10635SOL    HW232805   2.932   5.981   6.484
10636SOL     OW32806   6.344   2.893   0.042
10636SOL    HW132807   6.285   2.964   0.081
10636SOL    HW232808   6.288   2.830   7.008
10637SOL     OW32809   2.370   0.485   6.997
10637SOL    HW132810   2.419   0.460   0.061
10637SOL    HW232811   2.361   0.584   6.993
10638SOL     OW32812   4.946   5.168   0.881
10638SOL    HW132813   4.913   5.104   0.951
10638SOL    HW232814   4.900   5.148   0.794
10639SOL     OW32815   0.129   4.883   1.632
10639SOL    HW132816   0.146   4.793   1.592
10639SOL    HW232817   0.207   4.943   1.614
10640SOL     OW32818   4.242   6.126   3.521
10640SOL    HW132819   4.255   6.206   3.462
10640SOL    HW232820   4.148   6.092   3.512
10641SOL     OW32821   1.129   2.098   2.780
10641SOL    HW132822   1.134   2.117   2.682
10641SOL    HW232823   1.209   2.046   2.808
10642SOL     OW32824   0.026   2.976   6.174
10642SOL    HW132825   0.050   2.897   6.230
10642SOL    HW232826   0.101   3.043   6.178
10643SOL     OW32827   2.445   5.119   5.976
10643SOL    HW132828   2.400   5.040   5.935
10643SOL    HW232829   2.426   5.201   5.921
10644SOL     OW32830   6.677   3.189   2.996
10644SOL    HW132831   6.596   3.159   2.945
10644SOL    HW232832   6.715   3.111   3.045
10645SOL     OW32833   2.128   2.082   3.070
10645SOL    HW132834   2.176   2.097   2.984
10645SOL    HW232835   2.143   2.160   3.130
10646SOL     OW32836   5.433   0.075   3.901
10646SOL    HW132837   5.506   0.141   3.883
10646SOL    HW232838   5.424   0.012   3.824
10647SOL     OW32839   3.534   5.514   5.036
10647SOL    HW132840   3.570   5.450   5.103
10647SOL    HW232841   3.545   5.476   4.944
10648SOL     OW32842   4.742   4.217   5.323
10648SOL    HW132843   4.758   4.153   5.247
10648SOL    HW232844   4.645   4.243   5.325
10649SOL     OW32845   6.147   3.596   3.188
10649SOL    HW132846   6.076   3.666   3.193
10649SOL    HW232847   6.109   3.513   3.145
10650SOL     OW32848   0.707   0.466   2.767
10650SOL    HW132849   0.806   0.458   2.760
10650SOL    HW232850   0.681   0.488   2.862
10651SOL     OW32851   2.872   5.398   5.687
10651SOL    HW132852   2.787   5.363   5.649
10651SOL    HW232853   2.913   5.330   5.747
10652SOL     OW32854   1.598   0.030   7.010
10652SOL    HW132855   1.679   6.994   0.008
10652SOL    HW232856   1.605   0.116   0.040
10653SOL     OW32857   5.175   5.905   4.528
10653SOL    HW132858   5.081   5.937   4.541
10653SOL    HW232859   5.198   5.841   4.602
10654SOL     OW32860   6.642   2.137   4.099
10654SOL    HW132861   6.643   2.130   3.999
10654SOL    HW232862   6.551   2.167   4.129
10655SOL     OW32863   7.009   4.577   1.022
10655SOL    HW132864   6.965   4.556   1.109
10655SOL    HW232865   6.959   4.532   0.948
10656SOL     OW32866   5.648   2.055   4.617
10656SOL    HW132867   5.700   2.124   4.666
10656SOL    HW232868   5.617   1.985   4.681
10657SOL     OW32869   5.203   0.021   5.091
10657SOL    HW132870   5.130   0.086   5.069
10657SOL    HW232871   5.291   0.058   5.063
10658SOL     OW32872   1.295   1.665   5.425
10658SOL    HW132873   1.283   1.637   5.329
10658SOL    HW232874   1.207   1.696   5.462
10659SOL     OW32875   0.692   5.772   0.834
10659SOL    HW132876   0.620   5.824   0.788
10659SOL    HW232877   0.776   5.827   0.836
10660SOL     OW32878   5.392   2.912   5.703
10660SOL    HW132879   5.392   2.900   5.802
10660SOL    HW232880   5.402   3.009   5.680
10661SOL     OW32881   3.564   5.055   5.336
10661SOL    HW132882   3.483   5.016   5.379
10661SOL    HW232883   3.646   5.018   5.379
10662SOL     OW32884   2.592   1.182   1.266
10662SOL    HW132885   2.564   1.252   1.332
10662SOL    HW232886   2.582   1.218   1.173
10663SOL     OW32887   0.840   2.252   3.811
10663SOL    HW132888   0.744   2.266   3.833
10663SOL    HW232889   0.854   2.262   3.713
10664SOL     OW32890   1.200   5.322   4.857
10664SOL    HW132891   1.137   5.349   4.930
10664SOL    HW232892   1.276   5.387   4.853
10665SOL     OW32893   3.239   3.170   7.001
10665SOL    HW132894   3.316   3.112   0.005
10665SOL    HW232895   3.169   3.115   6.954
10666SOL     OW32896   3.738   3.717   1.482
10666SOL    HW132897   3.759   3.738   1.386
10666SOL    HW232898   3.671   3.782   1.516
10667SOL     OW32899   5.487   3.047   4.043
10667SOL    HW132900   5.521   3.055   4.137
10667SOL    HW232901   5.516   2.959   4.005
10668SOL     OW32902   3.457   2.634   5.949
10668SOL    HW132903   3.456   2.548   5.898
10668SOL    HW232904   3.443   2.710   5.885
10669SOL     OW32905   6.066   1.704   1.171
10669SOL    HW132906   6.145   1.690   1.231
10669SOL    HW232907   6.095   1.693   1.076
10670SOL     OW32908   4.846   3.846   4.333
10670SOL    HW132909   4.887   3.913   4.271
10670SOL    HW232910   4.895   3.845   4.419
10671SOL     OW32911   1.238   3.268   5.131
10671SOL    HW132912   1.240   3.284   5.230
10671SOL    HW232913   1.196   3.346   5.085
10672SOL     OW32914   5.898   3.682   2.570
10672SOL    HW132915   5.940   3.759   2.523
10672SOL    HW232916   5.969   3.620   2.603
10673SOL     OW32917   1.855   1.424   1.190
10673SOL    HW132918   1.928   1.365   1.157
10673SOL    HW232919   1.850   1.506   1.134
10674SOL     OW32920   3.255   3.525   3.849
10674SOL    HW132921   3.178   3.589   3.846
10674SOL    HW232922   3.331   3.561   3.795
10675SOL     OW32923   3.692   6.957   5.488
10675SOL    HW132924   3.644   6.871   5.503
10675SOL    HW232925   3.791   6.942   5.496
10676SOL     OW32926   1.399   0.135   5.696
10676SOL    HW132927   1.317   0.133   5.754
10676SOL    HW232928   1.455   0.214   5.720
10677SOL     OW32929   0.246   1.413   0.141
10677SOL    HW132930   0.168   1.475   0.133
10677SOL    HW232931   0.331   1.467   0.146
10678SOL     OW32932   3.983   5.602   2.175
10678SOL    HW132933   4.070   5.569   2.139
10678SOL    HW232934   3.911   5.585   2.108
10679SOL     OW32935   4.257   3.724   6.976
10679SOL    HW132936   4.319   3.766   6.910
10679SOL    HW232937   4.222   3.638   6.939
10680SOL     OW32938   4.063   1.433   5.257
10680SOL    HW132939   3.966   1.436   5.231
10680SOL    HW232940   4.110   1.365   5.201
10681SOL     OW32941   2.140   3.445   5.579
10681SOL    HW132942   2.137   3.545   5.588
10681SOL    HW232943   2.098   3.418   5.492
10682SOL     OW32944   5.184   3.243   6.576
10682SOL    HW132945   5.281   3.250   6.555
10682SOL    HW232946   5.131   3.243   6.491
10683SOL     OW32947   2.466   0.554   3.521
10683SOL    HW132948   2.396   0.592   3.581
10683SOL    HW232949   2.523   0.628   3.485
10684SOL     OW32950   4.630   4.625   2.030
10684SOL    HW132951   4.705   4.597   2.090
10684SOL    HW232952   4.658   4.702   1.974
10685SOL     OW32953   1.202   6.457   1.716
10685SOL    HW132954   1.270   6.433   1.785
10685SOL    HW232955   1.117   6.409   1.734
10686SOL     OW32956   2.559   0.774   7.017
10686SOL    HW132957   2.625   0.703   0.021
10686SOL    HW232958   2.587   0.818   6.932
10687SOL     OW32959   0.836   3.940   4.048
10687SOL    HW132960   0.857   3.997   4.127
10687SOL    HW232961   0.920   3.917   3.999
10688SOL     OW32962   5.032   1.321   2.870
10688SOL    HW132963   5.067   1.406   2.908
10688SOL    HW232964   4.955   1.341   2.809
10689SOL     OW32965   0.797   6.910   2.481
10689SOL    HW132966   0.707   6.950   2.464
10689SOL    HW232967   0.856   6.922   2.401
10690SOL     OW32968   0.545   6.526   4.169
10690SOL    HW132969   0.560   6.532   4.268
10690SOL    HW232970   0.457   6.482   4.151
10691SOL     OW32971   3.669   0.127   2.106
10691SOL    HW132972   3.581   0.088   2.079
10691SOL    HW232973   3.659   0.176   2.193
10692SOL     OW32974   2.077   1.189   4.246
10692SOL    HW132975   2.126   1.190   4.158
10692SOL    HW232976   2.043   1.097   4.264
10693SOL     OW32977   1.626   5.057   6.877
10693SOL    HW132978   1.540   5.088   6.838
10693SOL    HW232979   1.609   5.014   6.966
10694SOL     OW32980   4.328   0.752   5.364
10694SOL    HW132981   4.420   0.790   5.355
10694SOL    HW232982   4.271   0.815   5.417
10695SOL     OW32983   5.435   4.233   2.127
10695SOL    HW132984   5.447   4.134   2.130
10695SOL    HW232985   5.418   4.261   2.033
10696SOL     OW32986   6.435   4.533   3.642
10696SOL    HW132987   6.489   4.533   3.558
10696SOL    HW232988   6.459   4.613   3.697
10697SOL     OW32989   2.545   5.295   5.125
10697SOL    HW132990   2.455   5.263   5.154
10697SOL    HW232991   2.536   5.384   5.080
10698SOL     OW32992   3.678   3.280   7.005
10698SOL    HW132993   3.720   3.334   6.931
10698SOL    HW232994   3.729   3.295   0.070
10699SOL     OW32995   3.445   2.754   0.727
10699SOL    HW132996   3.379   2.750   0.802
10699SOL    HW232997   3.484   2.845   0.721
10700SOL     OW32998   4.914   0.527   1.399
10700SOL    HW132999   4.816   0.529   1.379
10700SOL    HW233000   4.936   0.602   1.462
10701SOL     OW33001   3.111   6.681   6.699
10701SOL    HW133002   3.166   6.710   6.777
10701SOL    HW233003   3.130   6.585   6.678
10702SOL     OW33004   5.561   2.366   1.298
10702SOL    HW133005   5.499   2.436   1.334
10702SOL    HW233006   5.508   2.289   1.263
10703SOL     OW33007   0.667   2.704   6.069
10703SOL    HW133008   0.761   2.713   6.101
10703SOL    HW233009   0.604   2.716   6.145
10704SOL     OW33010   5.305   6.806   1.909
10704SOL    HW133011   5.309   6.763   1.999
10704SOL    HW233012   5.329   6.902   1.917
10705SOL     OW33013   5.754   3.957   0.970
10705SOL    HW133014   5.690   3.964   1.046
10705SOL    HW233015   5.848   3.959   1.005
10706SOL     OW33016   4.151   0.335   0.815
10706SOL    HW133017   4.233   0.373   0.771
10706SOL    HW233018   4.069   0.371   0.770
10707SOL     OW33019   5.629   0.289   3.914
10707SOL    HW133020   5.709   0.242   3.877
10707SOL    HW233021   5.596   0.355   3.847
10708SOL     OW33022   4.068   1.698   2.093
10708SOL    HW133023   4.152   1.678   2.043
10708SOL    HW233024   3.992   1.708   2.029
10709SOL     OW33025   5.904   4.963   3.848
10709SOL    HW133026   5.828   5.022   3.876
10709SOL    HW233027   5.885   4.924   3.758
10710SOL     OW33028   5.505   1.526   3.700
10710SOL    HW133029   5.428   1.585   3.678
10710SOL    HW233030   5.586   1.582   3.716
10711SOL     OW33031   4.170   0.040   2.062
10711SOL    HW133032   4.213   0.084   2.142
10711SOL    HW233033   4.073   0.027   2.080
10712SOL     OW33034   5.404   6.826   2.881
10712SOL    HW133035   5.382   6.923   2.877
10712SOL    HW233036   5.415   6.798   2.976
10713SOL     OW33037   1.136   4.088   1.203
10713SOL    HW133038   1.212   4.044   1.155
10713SOL    HW233039   1.144   4.073   1.301
10714SOL     OW33040   3.024   3.888   4.609
10714SOL    HW133041   3.023   3.892   4.509
10714SOL    HW233042   3.062   3.800   4.639
10715SOL     OW33043   6.355   0.633   1.848
10715SOL    HW133044   6.449   0.660   1.829
10715SOL    HW233045   6.313   0.698   1.911
10716SOL     OW33046   5.726   1.321   3.694
10716SOL    HW133047   5.734   1.285   3.601
10716SOL    HW233048   5.659   1.395   3.696
10717SOL     OW33049   1.742   2.724   0.242
10717SOL    HW133050   1.661   2.691   0.289
10717SOL    HW233051   1.722   2.811   0.197
10718SOL     OW33052   1.914   5.094   5.399
10718SOL    HW133053   1.848   5.036   5.351
10718SOL    HW233054   1.977   5.036   5.452
10719SOL     OW33055   6.252   5.733   4.282
10719SOL    HW133056   6.293   5.783   4.357
10719SOL    HW233057   6.185   5.668   4.317
10720SOL     OW33058   7.018   5.171   3.396
10720SOL    HW133059   0.043   5.094   3.353
10720SOL    HW233060   6.919   5.157   3.395
10721SOL     OW33061   5.409   4.034   5.493
10721SOL    HW133062   5.339   3.992   5.435
10721SOL    HW233063   5.410   3.988   5.582
10722SOL     OW33064   6.745   4.315   5.428
10722SOL    HW133065   6.843   4.335   5.430
10722SOL    HW233066   6.731   4.218   5.407
10723SOL     OW33067   5.991   6.758   0.371
10723SOL    HW133068   5.916   6.731   0.432
10723SOL    HW233069   6.016   6.853   0.389
10724SOL     OW33070   6.710   6.382   0.410
10724SOL    HW133071   6.801   6.340   0.413
10724SOL    HW233072   6.641   6.312   0.427
10725SOL     OW33073   2.550   5.879   5.307
10725SOL    HW133074   2.454   5.855   5.290
10725SOL    HW233075   2.608   5.800   5.289
10726SOL     OW33076   5.476   1.358   4.499
10726SOL    HW133077   5.399   1.421   4.490
10726SOL    HW233078   5.443   1.270   4.534
10727SOL     OW33079   1.824   5.954   5.445
10727SOL    HW133080   1.877   5.872   5.465
10727SOL    HW233081   1.727   5.936   5.462
10728SOL     OW33082   5.796   5.946   0.998
10728SOL    HW133083   5.783   6.036   0.955
10728SOL    HW233084   5.768   5.951   1.094
10729SOL     OW33085   6.355   2.948   1.399
10729SOL    HW133086   6.309   3.036   1.415
10729SOL    HW233087   6.369   2.902   1.486
10730SOL     OW33088   4.901   0.103   2.116
10730SOL    HW133089   4.843   0.173   2.076
10730SOL    HW233090   4.946   0.051   2.044
10731SOL     OW33091   4.297   0.919   1.177
10731SOL    HW133092   4.248   1.006   1.180
10731SOL    HW233093   4.241   0.847   1.219
10732SOL     OW33094   0.884   4.919   5.157
10732SOL    HW133095   0.873   4.820   5.153
10732SOL    HW233096   0.819   4.962   5.095
10733SOL     OW33097   6.192   2.736   6.903
10733SOL    HW133098   6.162   2.700   6.815
10733SOL    HW233099   6.182   2.665   6.973
10734SOL     OW33100   6.662   2.509   1.745
10734SOL    HW133101   6.753   2.506   1.785
10734SOL    HW233102   6.656   2.586   1.681
10735SOL     OW33103   0.171   4.056   2.512
10735SOL    HW133104   0.109   3.986   2.546
10735SOL    HW233105   0.237   4.080   2.583
10736SOL     OW33106   2.896   0.380   3.473
10736SOL    HW133107   2.807   0.363   3.516
10736SOL    HW233108   2.969   0.349   3.534
10737SOL     OW33109   6.700   1.970   1.543
10737SOL    HW133110   6.768   2.044   1.543
10737SOL    HW233111   6.715   1.912   1.623
10738SOL     OW33112   4.340   0.831   3.200
10738SOL    HW133113   4.329   0.753   3.261
10738SOL    HW233114   4.362   0.912   3.254
10739SOL     OW33115   2.147   2.269   1.812
10739SOL    HW133116   2.063   2.323   1.812
10739SOL    HW233117   2.206   2.299   1.737
10740SOL     OW33118   5.215   4.882   3.520
10740SOL    HW133119   5.205   4.824   3.439
10740SOL    HW233120   5.277   4.957   3.498
10741SOL     OW33121   3.721   0.412   2.851
10741SOL    HW133122   3.797   0.478   2.850
10741SOL    HW233123   3.715   0.370   2.942
10742SOL     OW33124   6.569   5.681   0.770
10742SOL    HW133125   6.551   5.653   0.864
10742SOL    HW233126   6.542   5.776   0.758
10743SOL     OW33127   2.251   1.929   4.303
10743SOL    HW133128   2.179   1.922   4.372
10743SOL    HW233129   2.335   1.963   4.346
10744SOL     OW33130   3.950   2.022   1.105
10744SOL    HW133131   3.941   2.114   1.143
10744SOL    HW233132   3.986   1.960   1.175
10745SOL     OW33133   6.675   5.589   6.094
10745SOL    HW133134   6.678   5.651   6.015
10745SOL    HW233135   6.652   5.497   6.063
10746SOL     OW33136   0.288   4.092   5.774
10746SOL    HW133137   0.335   4.085   5.686
10746SOL    HW233138   0.194   4.122   5.759
10747SOL     OW33139   3.084   1.160   4.827
10747SOL    HW133140   3.063   1.215   4.747
10747SOL    HW233141   3.059   1.211   4.910
10748SOL     OW33142   5.489   1.455   2.478
10748SOL    HW133143   5.530   1.402   2.553
10748SOL    HW233144   5.396   1.424   2.462
10749SOL     OW33145   2.166   0.045   6.105
10749SOL    HW133146   2.152   0.143   6.118
10749SOL    HW233147   2.159   0.024   6.007
10750SOL     OW33148   3.506   0.639   6.220
10750SOL    HW133149   3.414   0.649   6.181
10750SOL    HW233150   3.564   0.588   6.157
10751SOL     OW33151   2.382   4.900   4.154
10751SOL    HW133152   2.385   4.806   4.190
10751SOL    HW233153   2.304   4.909   4.092
10752SOL     OW33154   4.777   5.350   4.108
10752SOL    HW133155   4.869   5.320   4.084
10752SOL    HW233156   4.781   5.407   4.191
10753SOL     OW33157   7.014   3.555   4.421
10753SOL    HW133158   0.079   3.562   4.473
10753SOL    HW233159   7.001   3.461   4.390
10754SOL     OW33160   1.749   0.306   2.354
10754SOL    HW133161   1.675   0.359   2.396
10754SOL    HW233162   1.739   0.210   2.379
10755SOL     OW33163   6.289   5.838   1.933
10755SOL    HW133164   6.307   5.769   2.004
10755SOL    HW233165   6.250   5.920   1.975
10756SOL     OW33166   7.005   6.438   5.234
10756SOL    HW133167   0.053   6.505   5.205
10756SOL    HW233168   6.975   6.384   5.154
10757SOL     OW33169   2.677   3.080   1.086
10757SOL    HW133170   2.626   3.161   1.113
10757SOL    HW233171   2.717   3.094   0.995
10758SOL     OW33172   0.566   5.428   4.124
10758SOL    HW133173   0.613   5.512   4.097
10758SOL    HW233174   0.521   5.442   4.212
10759SOL     OW33175   0.087   2.814   0.006
10759SOL    HW133176   0.028   2.796   0.085
10759SOL    HW233177   0.036   2.798   6.942
10760SOL     OW33178   6.298   0.801   3.380
10760SOL    HW133179   6.310   0.778   3.284
10760SOL    HW233180   6.333   0.727   3.437
10761SOL     OW33181   2.799   5.000   5.425
10761SOL    HW133182   2.860   5.000   5.505
10761SOL    HW233183   2.807   4.912   5.378
10762SOL     OW33184   3.434   0.556   4.414
10762SOL    HW133185   3.393   0.583   4.326
10762SOL    HW233186   3.363   0.556   4.485
10763SOL     OW33187   4.233   6.571   3.556
10763SOL    HW133188   4.226   6.666   3.528
10763SOL    HW233189   4.206   6.561   3.652
10764SOL     OW33190   6.050   0.200   4.246
10764SOL    HW133191   6.012   0.292   4.233
10764SOL    HW233192   6.026   0.142   4.168
10765SOL     OW33193   5.880   3.566   1.034
10765SOL    HW133194   5.938   3.598   0.959
10765SOL    HW233195   5.790   3.610   1.026
10766SOL     OW33196   3.881   2.690   1.724
10766SOL    HW133197   3.824   2.730   1.795
10766SOL    HW233198   3.938   2.761   1.682
10767SOL     OW33199   3.197   1.413   1.676
10767SOL    HW133200   3.243   1.364   1.749
10767SOL    HW233201   3.165   1.501   1.709
10768SOL     OW33202   6.868   5.458   0.480
10768SOL    HW133203   6.908   5.368   0.463
10768SOL    HW233204   6.768   5.449   0.485
10769SOL     OW33205   1.765   4.031   5.763
10769SOL    HW133206   1.833   4.020   5.690
10769SOL    HW233207   1.789   3.972   5.840
10770SOL     OW33208   4.509   6.210   2.838
10770SOL    HW133209   4.526   6.307   2.820
10770SOL    HW233210   4.493   6.162   2.752
10771SOL     OW33211   2.655   0.982   3.667
10771SOL    HW133212   2.631   1.079   3.664
10771SOL    HW233213   2.576   0.929   3.701
10772SOL     OW33214   5.386   5.268   3.670
10772SOL    HW133215   5.322   5.211   3.721
10772SOL    HW233216   5.475   5.268   3.715
10773SOL     OW33217   5.011   5.372   3.616
10773SOL    HW133218   4.997   5.413   3.706
10773SOL    HW233219   5.057   5.284   3.627
10774SOL     OW33220   1.325   1.008   3.821
10774SOL    HW133221   1.253   0.997   3.890
10774SOL    HW233222   1.306   1.089   3.766
10775SOL     OW33223   0.682   4.233   2.089
10775SOL    HW133224   0.762   4.217   2.031
10775SOL    HW233225   0.675   4.158   2.156
10776SOL     OW33226   1.555   0.131   6.503
10776SOL    HW133227   1.522   0.042   6.536
10776SOL    HW233228   1.641   0.118   6.453
10777SOL     OW33229   2.999   6.152   1.604
10777SOL    HW133230   2.973   6.229   1.661
10777SOL    HW233231   2.927   6.083   1.606
10778SOL     OW33232   5.874   5.908   3.283
10778SOL    HW133233   5.899   5.811   3.281
10778SOL    HW233234   5.939   5.960   3.229
10779SOL     OW33235   5.407   2.305   3.408
10779SOL    HW133236   5.389   2.401   3.387
10779SOL    HW233237   5.400   2.251   3.324
10780SOL     OW33238   0.654   1.114   3.177
10780SOL    HW133239   0.687   1.088   3.267
10780SOL    HW233240   0.554   1.118   3.178
10781SOL     OW33241   3.814   0.319   4.047
10781SOL    HW133242   3.820   0.221   4.064
10781SOL    HW233243   3.874   0.343   3.970
10782SOL     OW33244   6.831   5.453   4.037
10782SOL    HW133245   6.917   5.444   3.987
10782SOL    HW233246   6.833   5.394   4.118
10783SOL     OW33247   6.625   2.228   2.841
10783SOL    HW133248   6.650   2.257   2.749
10783SOL    HW233249   6.585   2.136   2.837
10784SOL     OW33250   2.591   1.253   4.666
10784SOL    HW133251   2.492   1.261   4.654
10784SOL    HW233252   2.637   1.321   4.609
10785SOL     OW33253   0.678   3.935   6.746
10785SOL    HW133254   0.579   3.951   6.743
10785SOL    HW233255   0.726   4.022   6.742
10786SOL     OW33256   0.742   5.282   3.032
10786SOL    HW133257   0.823   5.298   2.974
10786SOL    HW233258   0.757   5.200   3.087
10787SOL     OW33259   1.888   2.856   5.737
10787SOL    HW133260   1.984   2.878   5.754
10787SOL    HW233261   1.846   2.822   5.820
10788SOL     OW33262   5.946   3.912   6.387
10788SOL    HW133263   5.944   3.977   6.311
10788SOL    HW233264   6.032   3.922   6.437
10789SOL     OW33265   6.546   1.658   6.999
10789SOL    HW133266   6.585   1.671   0.070
10789SOL    HW233267   6.477   1.586   7.002
10790SOL     OW33268   6.790   6.777   2.918
10790SOL    HW133269   6.694   6.798   2.900
10790SOL    HW233270   6.796   6.714   2.995
10791SOL     OW33271   0.349   6.107   2.490
10791SOL    HW133272   0.410   6.110   2.411
10791SOL    HW233273   0.310   6.198   2.505
10792SOL     OW33274   3.600   3.981   5.107
10792SOL    HW133275   3.517   4.035   5.105
10792SOL    HW233276   3.644   3.988   5.196
10793SOL     OW33277   5.630   3.105   4.835
10793SOL    HW133278   5.554   3.064   4.884
10793SOL    HW233279   5.644   3.058   4.748
10794SOL     OW33280   3.608   3.398   3.672
10794SOL    HW133281   3.598   3.358   3.580
10794SOL    HW233282   3.530   3.372   3.728
10795SOL     OW33283   0.902   4.840   3.472
10795SOL    HW133284   0.918   4.754   3.422
10795SOL    HW233285   0.803   4.853   3.484
10796SOL     OW33286   1.816   6.188   4.874
10796SOL    HW133287   1.823   6.093   4.841
10796SOL    HW233288   1.720   6.210   4.891
10797SOL     OW33289   4.020   2.305   0.618
10797SOL    HW133290   4.076   2.375   0.663
10797SOL    HW233291   4.078   2.245   0.565
10798SOL     OW33292   0.181   1.894   0.385
10798SOL    HW133293   0.207   1.990   0.396
10798SOL    HW233294   0.108   1.871   0.450
10799SOL     OW33295   4.362   1.336   2.113
10799SOL    HW133296   4.314   1.418   2.143
10799SOL    HW233297   4.437   1.316   2.176
10800SOL     OW33298   1.490   6.888   1.177
10800SOL    HW133299   1.558   6.961   1.176
10800SOL    HW233300   1.484   6.846   1.086
10801SOL     OW33301   1.422   0.709   0.616
10801SOL    HW133302   1.444   0.754   0.703
10801SOL    HW233303   1.507   0.674   0.575
10802SOL     OW33304   6.491   6.972   3.909
10802SOL    HW133305   6.462   6.998   4.001
10802SOL    HW233306   6.478   0.029   3.847
10803SOL     OW33307   2.239   5.149   6.471
10803SOL    HW133308   2.270   5.143   6.565
10803SOL    HW233309   2.265   5.237   6.432
10804SOL     OW33310   6.804   3.684   4.574
10804SOL    HW133311   6.851   3.639   4.498
10804SOL    HW233312   6.729   3.626   4.606
10805SOL     OW33313   6.400   1.062   5.326
10805SOL    HW133314   6.310   1.105   5.335
10805SOL    HW233315   6.439   1.085   5.237
10806SOL     OW33316   1.894   4.315   6.630
10806SOL    HW133317   1.845   4.390   6.674
10806SOL    HW233318   1.869   4.229   6.674
10807SOL     OW33319   3.363   6.689   4.251
10807SOL    HW133320   3.375   6.776   4.299
10807SOL    HW233321   3.452   6.645   4.240
10808SOL     OW33322   0.586   2.711   6.357
10808SOL    HW133323   0.618   2.684   6.448
10808SOL    HW233324   0.517   2.645   6.325
10809SOL     OW33325   2.382   6.112   4.627
10809SOL    HW133326   2.335   6.182   4.574
10809SOL    HW233327   2.316   6.046   4.663
10810SOL     OW33328   0.257   0.339   4.411
10810SOL    HW133329   0.173   0.320   4.463
10810SOL    HW233330   0.293   0.253   4.374
10811SOL     OW33331   4.860   5.053   4.840
10811SOL    HW133332   4.817   5.020   4.755
10811SOL    HW233333   4.797   5.114   4.888
10812SOL     OW33334   6.192   2.512   0.059
10812SOL    HW133335   6.262   2.455   0.015
10812SOL    HW233336   6.216   2.525   0.156
10813SOL     OW33337   0.738   4.475   6.073
10813SOL    HW133338   0.727   4.570   6.105
10813SOL    HW233339   0.797   4.474   5.993
10814SOL     OW33340   2.787   0.660   1.148
10814SOL    HW133341   2.738   0.574   1.130
10814SOL    HW233342   2.824   0.657   1.240
10815SOL     OW33343   5.325   0.910   4.979
10815SOL    HW133344   5.260   0.839   4.951
10815SOL    HW233345   5.399   0.917   4.912
10816SOL     OW33346   4.030   3.215   3.827
10816SOL    HW133347   3.964   3.211   3.752
10816SOL    HW233348   4.081   3.128   3.830
10817SOL     OW33349   2.527   6.431   3.403
10817SOL    HW133350   2.527   6.416   3.502
10817SOL    HW233351   2.487   6.352   3.357
10818SOL     OW33352   4.248   4.619   6.264
10818SOL    HW133353   4.310   4.561   6.317
10818SOL    HW233354   4.188   4.669   6.326
10819SOL     OW33355   6.865   5.845   5.966
10819SOL    HW133356   6.840   5.798   5.882
10819SOL    HW233357   6.864   5.780   6.042
10820SOL     OW33358   2.500   3.908   6.084
10820SOL    HW133359   2.430   3.979   6.090
10820SOL    HW233360   2.520   3.874   6.176
10821SOL     OW33361   4.813   5.741   2.983
10821SOL    HW133362   4.728   5.750   3.033
10821SOL    HW233363   4.817   5.811   2.911
10822SOL     OW33364   5.194   2.236   2.277
10822SOL    HW133365   5.228   2.261   2.368
10822SOL    HW233366   5.188   2.136   2.270
10823SOL     OW33367   5.972   6.706   2.606
10823SOL    HW133368   5.987   6.692   2.508
10823SOL    HW233369   5.875   6.717   2.623
10824SOL     OW33370   0.668   2.661   4.022
10824SOL    HW133371   0.703   2.744   4.066
10824SOL    HW233372   0.738   2.622   3.963
10825SOL     OW33373   0.569   2.098   0.320
10825SOL    HW133374   0.607   2.007   0.335
10825SOL    HW233375   0.532   2.105   0.228
10826SOL     OW33376   0.565   2.683   3.252
10826SOL    HW133377   0.600   2.773   3.278
10826SOL    HW233378   0.465   2.683   3.257
10827SOL     OW33379   6.982   3.837   4.706
10827SOL    HW133380   6.924   3.789   4.641
10827SOL    HW233381   0.042   3.873   4.659
10828SOL     OW33382   6.413   5.080   5.202
10828SOL    HW133383   6.425   5.020   5.123
10828SOL    HW233384   6.368   5.165   5.174
10829SOL     OW33385   4.226   3.130   5.437
10829SOL    HW133386   4.151   3.150   5.373
10829SOL    HW233387   4.202   3.164   5.528
10830SOL     OW33388   4.032   1.780   3.782
10830SOL    HW133389   4.055   1.688   3.752
10830SOL    HW233390   4.005   1.779   3.878
10831SOL     OW33391   3.862   1.035   3.607
10831SOL    HW133392   3.950   1.052   3.651
10831SOL    HW233393   3.877   1.004   3.514
10832SOL     OW33394   6.815   3.341   0.387
10832SOL    HW133395   6.786   3.386   0.471
10832SOL    HW233396   6.911   3.363   0.368
10833SOL     OW33397   0.478   0.956   6.996
10833SOL    HW133398   0.524   0.881   0.023
10833SOL    HW233399   0.453   1.026   0.042
10834SOL     OW33400   0.006   6.891   1.156
10834SOL    HW133401   6.983   6.828   1.221
10834SOL    HW233402   6.997   6.868   1.063
10835SOL     OW33403   0.402   2.119   6.032
10835SOL    HW133404   0.460   2.186   5.985
10835SOL    HW233405   0.434   2.027   6.011
10836SOL     OW33406   6.947   1.261   4.126
10836SOL    HW133407   6.855   1.300   4.126
10836SOL    HW233408   7.002   1.305   4.196
10837SOL     OW33409   0.415   3.651   2.980
10837SOL    HW133410   0.454   3.701   2.903
10837SOL    HW233411   0.323   3.619   2.956
10838SOL     OW33412   0.233   5.457   2.469
10838SOL    HW133413   0.275   5.378   2.424
10838SOL    HW233414   0.300   5.532   2.474
10839SOL     OW33415   5.075   2.601   1.385
10839SOL    HW133416   5.006   2.533   1.413
10839SOL    HW233417   5.141   2.614   1.459
10840SOL     OW33418   3.296   0.282   1.401
10840SOL    HW133419   3.245   0.332   1.331
10840SOL    HW233420   3.240   0.274   1.484
10841SOL     OW33421   1.871   5.240   4.981
10841SOL    HW133422   1.929   5.160   4.967
10841SOL    HW233423   1.918   5.305   5.040
10842SOL     OW33424   5.161   4.755   0.611
10842SOL    HW133425   5.214   4.704   0.678
10842SOL    HW233426   5.067   4.764   0.644
10843SOL     OW33427   2.473   2.177   1.337
10843SOL    HW133428   2.374   2.194   1.334
10843SOL    HW233429   2.522   2.258   1.306
10844SOL     OW33430   1.631   5.384   4.765
10844SOL    HW133431   1.589   5.380   4.674
10844SOL    HW233432   1.626   5.294   4.808
10845SOL     OW33433   4.527   6.954   4.877
10845SOL    HW133434   4.591   6.881   4.902
10845SOL    HW233435   4.437   6.915   4.858
10846SOL     OW33436   5.186   0.581   0.023
10846SOL    HW133437   5.152   0.487   0.022
10846SOL    HW233438   5.202   0.609   0.118
10847SOL     OW33439   1.805   0.973   6.630
10847SOL    HW133440   1.831   0.884   6.667
10847SOL    HW233441   1.727   1.009   6.682
10848SOL     OW33442   1.500   4.769   2.053
10848SOL    HW133443   1.563   4.747   2.128
10848SOL    HW233444   1.507   4.698   1.983
10849SOL     OW33445   2.043   6.637   4.378
10849SOL    HW133446   2.086   6.579   4.446
10849SOL    HW233447   1.991   6.581   4.314
10850SOL     OW33448   3.458   4.765   0.353
10850SOL    HW133449   3.482   4.817   0.271
10850SOL    HW233450   3.530   4.776   0.421
10851SOL     OW33451   2.189   5.331   0.599
10851SOL    HW133452   2.282   5.331   0.636
10851SOL    HW233453   2.191   5.296   0.505
10852SOL     OW33454   1.995   1.512   1.788
10852SOL    HW133455   1.932   1.446   1.831
10852SOL    HW233456   2.046   1.560   1.859
10853SOL     OW33457   2.667   1.934   6.133
10853SOL    HW133458   2.749   1.892   6.172
10853SOL    HW233459   2.687   1.967   6.041
10854SOL     OW33460   3.137   6.446   5.253
10854SOL    HW133461   3.063   6.386   5.284
10854SOL    HW233462   3.098   6.529   5.213
10855SOL     OW33463   3.361   1.210   6.616
10855SOL    HW133464   3.455   1.234   6.642
10855SOL    HW233465   3.352   1.111   6.612
10856SOL     OW33466   0.205   1.079   0.431
10856SOL    HW133467   0.106   1.064   0.422
10856SOL    HW233468   0.254   0.999   0.396
10857SOL     OW33469   6.466   1.972   2.441
10857SOL    HW133470   6.390   1.939   2.497
10857SOL    HW233471   6.531   2.021   2.499
10858SOL     OW33472   2.542   6.148   1.741
10858SOL    HW133473   2.450   6.151   1.701
10858SOL    HW233474   2.545   6.077   1.812
10859SOL     OW33475   1.939   5.660   3.469
10859SOL    HW133476   1.882   5.648   3.551
10859SOL    HW233477   1.884   5.639   3.388
10860SOL     OW33478   0.204   3.085   3.613
10860SOL    HW133479   0.297   3.087   3.649
10860SOL    HW233480   0.175   2.990   3.602
10861SOL     OW33481   4.157   3.545   5.083
10861SOL    HW133482   4.128   3.612   5.014
10861SOL    HW233483   4.144   3.453   5.047
10862SOL     OW33484   1.348   0.717   4.465
10862SOL    HW133485   1.282   0.791   4.454
10862SOL    HW233486   1.383   0.689   4.376
10863SOL     OW33487   3.248   6.202   4.672
10863SOL    HW133488   3.183   6.167   4.739
10863SOL    HW233489   3.221   6.173   4.580
10864SOL     OW33490   3.748   5.931   2.943
10864SOL    HW133491   3.806   5.867   2.993
10864SOL    HW233492   3.656   5.893   2.936
10865SOL     OW33493   6.411   1.903   5.938
10865SOL    HW133494   6.438   1.819   5.890
10865SOL    HW233495   6.329   1.941   5.895
10866SOL     OW33496   5.452   5.161   0.929
10866SOL    HW133497   5.383   5.105   0.882
10866SOL    HW233498   5.416   5.253   0.944
10867SOL     OW33499   3.471   1.874   0.184
10867SOL    HW133500   3.569   1.864   0.166
10867SOL    HW233501   3.457   1.948   0.250
10868SOL     OW33502   2.528   2.453   2.441
10868SOL    HW133503   2.515   2.399   2.358
10868SOL    HW233504   2.626   2.466   2.457
10869NA      NA33505   6.394   2.251   5.794
10870NA      NA33506   4.329   4.645   5.247
10871NA      NA33507   2.484   3.530   1.485
10872NA      NA33508   4.954   3.529   5.164
10873NA      NA33509   4.187   2.430   5.346
10874NA      NA33510   3.715   4.776   1.702
10875NA      NA33511   6.693   5.853   4.984
10876NA      NA33512   3.734   3.963   4.903
10877NA      NA33513   4.452   6.917   6.990
10878NA      NA33514   3.692   0.099   5.035
10879NA      NA33515   0.041   5.104   2.833
10880NA      NA33516   2.694   0.520   2.904
10881NA      NA33517   3.607   4.133   1.053
10882NA      NA33518   3.419   3.391   2.935
   7.02000   7.02000   7.02000
