Generated by trjconv : CNT in water t= 226.00000
33518
    1C        C    1   2.842   2.764   4.746
    1C        C    2   2.898   2.718   4.866
    1C        C    3   2.841   2.770   4.983
    1C        C    4   2.853   2.772   4.260
    1C        C    5   2.904   2.727   4.384
    1C        C    6   2.844   2.769   4.505
    1C        C    7   3.012   2.636   4.626
    1C        C    8   2.892   2.712   4.625
    1C        C    9   3.079   2.603   4.746
    1C        C   10   3.010   2.632   4.866
    1C        C   11   3.179   2.485   4.976
    1C        C   12   3.063   2.562   4.976
    1C        C   13   2.855   2.773   3.772
    1C        C   14   2.908   2.724   3.893
    1C        C   15   2.856   2.774   4.015
    1C        C   16   3.021   2.643   4.138
    1C        C   17   2.909   2.730   4.138
    1C        C   18   3.081   2.610   4.262
    1C        C   19   3.021   2.648   4.384
    1C        C   20   3.205   2.544   4.503
    1C        C   21   3.076   2.602   4.505
    1C        C   22   3.278   2.530   4.623
    1C        C   23   3.208   2.544   4.745
    1C        C   24   3.410   2.478   4.865
    1C        C   25   3.268   2.495   4.865
    1C        C   26   3.488   2.469   4.981
    1C        C   27   2.851   2.767   3.280
    1C        C   28   2.909   2.727   3.403
    1C        C   29   2.861   2.777   3.526
    1C        C   30   3.021   2.641   3.647
    1C        C   31   2.910   2.729   3.649
    1C        C   32   3.078   2.599   3.769
    1C        C   33   3.018   2.636   3.892
    1C        C   34   3.207   2.544   4.017
    1C        C   35   3.080   2.604   4.015
    1C        C   36   3.273   2.521   4.140
    1C        C   37   3.210   2.553   4.262
    1C        C   38   3.416   2.501   4.381
    1C        C   39   3.277   2.524   4.383
    1C        C   40   3.486   2.495   4.503
    1C        C   41   3.415   2.499   4.625
    1C        C   42   3.629   2.477   4.744
    1C        C   43   3.487   2.475   4.745
    1C        C   44   3.705   2.475   4.863
    1C        C   45   3.627   2.472   4.979
    1C        C   46   2.838   2.754   2.794
    1C        C   47   2.894   2.710   2.916
    1C        C   48   2.846   2.765   3.036
    1C        C   49   3.016   2.636   3.160
    1C        C   50   2.901   2.718   3.157
    1C        C   51   3.082   2.603   3.281
    1C        C   52   3.023   2.644   3.403
    1C        C   53   3.208   2.539   3.524
    1C        C   54   3.083   2.605   3.525
    1C        C   55   3.272   2.513   3.648
    1C        C   56   3.205   2.537   3.770
    1C        C   57   3.412   2.500   3.893
    1C        C   58   3.272   2.523   3.893
    1C        C   59   3.482   2.489   4.015
    1C        C   60   3.412   2.493   4.138
    1C        C   61   3.626   2.491   4.256
    1C        C   62   3.485   2.488   4.258
    1C        C   63   3.699   2.497   4.378
    1C        C   64   3.627   2.498   4.500
    1C        C   65   3.833   2.536   4.617
    1C        C   66   3.697   2.498   4.622
    1C        C   67   3.902   2.558   4.739
    1C        C   68   3.840   2.518   4.860
    1C        C   69   4.051   2.577   4.970
    1C        C   70   3.920   2.528   4.974
    1C        C   71   2.824   2.735   2.308
    1C        C   72   2.887   2.700   2.430
    1C        C   73   2.833   2.748   2.552
    1C        C   74   3.006   2.623   2.673
    1C        C   75   2.889   2.701   2.673
    1C        C   76   3.070   2.589   2.795
    1C        C   77   3.009   2.628   2.916
    1C        C   78   3.206   2.544   3.036
    1C        C   79   3.076   2.600   3.037
    1C        C   80   3.274   2.521   3.157
    1C        C   81   3.210   2.545   3.281
    1C        C   82   3.414   2.483   3.401
    1C        C   83   3.276   2.515   3.403
    1C        C   84   3.480   2.479   3.526
    1C        C   85   3.411   2.490   3.649
    1C        C   86   3.623   2.493   3.767
    1C        C   87   3.482   2.488   3.771
    1C        C   88   3.693   2.500   3.889
    1C        C   89   3.623   2.494   4.011
    1C        C   90   3.830   2.545   4.132
    1C        C   91   3.694   2.505   4.133
    1C        C   92   3.900   2.566   4.253
    1C        C   93   3.834   2.538   4.375
    1C        C   94   4.025   2.631   4.495
    1C        C   95   3.900   2.565   4.496
    1C        C   96   4.085   2.670   4.617
    1C        C   97   4.024   2.630   4.737
    1C        C   98   4.187   2.764   4.857
    1C        C   99   4.095   2.654   4.858
    1C        C  100   4.208   2.841   4.972
    1C        C  101   2.814   2.726   2.071
    1C        C  102   2.987   2.590   2.190
    1C        C  103   2.873   2.677   2.188
    1C        C  104   3.058   2.569   2.311
    1C        C  105   3.002   2.619   2.431
    1C        C  106   3.198   2.531   2.552
    1C        C  107   3.066   2.583   2.552
    1C        C  108   3.270   2.517   2.673
    1C        C  109   3.201   2.537   2.795
    1C        C  110   3.411   2.488   2.916
    1C        C  111   3.272   2.513   2.915
    1C        C  112   3.483   2.482   3.037
    1C        C  113   3.412   2.494   3.159
    1C        C  114   3.626   2.490   3.279
    1C        C  115   3.485   2.480   3.280
    1C        C  116   3.692   2.506   3.403
    1C        C  117   3.621   2.493   3.525
    1C        C  118   3.829   2.546   3.644
    1C        C  119   3.694   2.505   3.645
    1C        C  120   3.896   2.568   3.767
    1C        C  121   3.828   2.543   3.888
    1C        C  122   4.019   2.638   4.010
    1C        C  123   3.895   2.572   4.010
    1C        C  124   4.080   2.677   4.131
    1C        C  125   4.020   2.639   4.253
    1C        C  126   4.196   2.761   4.374
    1C        C  127   4.083   2.676   4.375
    1C        C  128   4.245   2.816   4.495
    1C        C  129   4.189   2.766   4.615
    1C        C  130   4.325   2.932   4.739
    1C        C  131   4.238   2.819   4.736
    1C        C  132   4.356   2.999   4.860
    1C        C  133   4.285   2.957   4.973
    1C        C  134   3.170   2.477   2.077
    1C        C  135   3.034   2.509   2.083
    1C        C  136   3.256   2.481   2.188
    1C        C  137   3.190   2.515   2.308
    1C        C  138   3.399   2.473   2.428
    1C        C  139   3.261   2.503   2.429
    1C        C  140   3.476   2.475   2.547
    1C        C  141   3.409   2.494   2.671
    1C        C  142   3.621   2.490   2.789
    1C        C  143   3.480   2.488   2.792
    1C        C  144   3.691   2.494   2.911
    1C        C  145   3.624   2.484   3.035
    1C        C  146   3.833   2.528   3.154
    1C        C  147   3.697   2.492   3.156
    1C        C  148   3.896   2.560   3.276
    1C        C  149   3.828   2.542   3.398
    1C        C  150   4.021   2.630   3.521
    1C        C  151   3.893   2.569   3.521
    1C        C  152   4.083   2.666   3.642
    1C        C  153   4.021   2.634   3.765
    1C        C  154   4.191   2.763   3.886
    1C        C  155   4.077   2.679   3.887
    1C        C  156   4.241   2.811   4.008
    1C        C  157   4.194   2.761   4.132
    1C        C  158   4.336   2.921   4.251
    1C        C  159   4.246   2.813   4.253
    1C        C  160   4.372   2.985   4.372
    1C        C  161   4.327   2.931   4.494
    1C        C  162   4.435   3.113   4.616
    1C        C  163   4.362   2.991   4.616
    1C        C  164   4.469   3.180   4.735
    1C        C  165   4.434   3.116   4.856
    1C        C  166   4.512   3.317   4.969
    1C        C  167   4.479   3.182   4.972
    1C        C  168   3.470   2.428   2.074
    1C        C  169   3.394   2.454   2.189
    1C        C  170   3.613   2.467   2.305
    1C        C  171   3.471   2.460   2.308
    1C        C  172   3.686   2.489   2.424
    1C        C  173   3.617   2.482   2.546
    1C        C  174   3.827   2.537   2.664
    1C        C  175   3.690   2.502   2.666
    1C        C  176   3.892   2.560   2.787
    1C        C  177   3.827   2.531   2.910
    1C        C  178   4.022   2.621   3.029
    1C        C  179   3.897   2.554   3.030
    1C        C  180   4.081   2.660   3.151
    1C        C  181   4.021   2.627   3.274
    1C        C  182   4.189   2.755   3.396
    1C        C  183   4.077   2.668   3.397
    1C        C  184   4.241   2.805   3.518
    1C        C  185   4.194   2.755   3.641
    1C        C  186   4.331   2.918   3.762
    1C        C  187   4.244   2.806   3.762
    1C        C  188   4.368   2.982   3.883
    1C        C  189   4.325   2.925   4.005
    1C        C  190   4.441   3.102   4.126
    1C        C  191   4.372   2.979   4.127
    1C        C  192   4.467   3.171   4.246
    1C        C  193   4.435   3.112   4.371
    1C        C  194   4.499   3.314   4.491
    1C        C  195   4.459   3.178   4.493
    1C        C  196   4.528   3.384   4.610
    1C        C  197   4.512   3.316   4.732
    1C        C  198   4.550   3.532   4.852
    1C        C  199   4.532   3.390   4.852
    1C        C  200   4.579   3.622   4.960
    1C        C  201   3.610   2.416   2.072
    1C        C  202   3.823   2.507   2.182
    1C        C  203   3.687   2.460   2.183
    1C        C  204   3.896   2.539   2.300
    1C        C  205   3.825   2.517   2.420
    1C        C  206   4.016   2.619   2.537
    1C        C  207   3.892   2.551   2.540
    1C        C  208   4.075   2.657   2.659
    1C        C  209   4.016   2.627   2.783
    1C        C  210   4.191   2.746   2.906
    1C        C  211   4.077   2.662   2.906
    1C        C  212   4.245   2.795   3.028
    1C        C  213   4.191   2.749   3.150
    1C        C  214   4.327   2.912   3.271
    1C        C  215   4.239   2.801   3.272
    1C        C  216   4.364   2.973   3.393
    1C        C  217   4.328   2.916   3.518
    1C        C  218   4.433   3.100   3.636
    1C        C  219   4.373   2.973   3.639
    1C        C  220   4.459   3.168   3.757
    1C        C  221   4.440   3.104   3.881
    1C        C  222   4.501   3.305   4.002
    1C        C  223   4.470   3.167   4.004
    1C        C  224   4.511   3.377   4.123
    1C        C  225   4.496   3.309   4.246
    1C        C  226   4.523   3.521   4.366
    1C        C  227   4.511   3.380   4.367
    1C        C  228   4.528   3.598   4.485
    1C        C  229   4.534   3.526   4.606
    1C        C  230   4.503   3.737   4.726
    1C        C  231   4.536   3.599   4.727
    1C        C  232   4.491   3.816   4.842
    1C        C  233   4.541   3.756   4.959
    1C        C  234   4.010   2.612   2.061
    1C        C  235   3.893   2.538   2.065
    1C        C  236   4.082   2.646   2.177
    1C        C  237   4.024   2.601   2.297
    1C        C  238   4.196   2.736   2.416
    1C        C  239   4.084   2.649   2.416
    1C        C  240   4.247   2.781   2.540
    1C        C  241   4.191   2.738   2.662
    1C        C  242   4.330   2.903   2.783
    1C        C  243   4.241   2.793   2.783
    1C        C  244   4.371   2.963   2.904
    1C        C  245   4.333   2.905   3.027
    1C        C  246   4.437   3.091   3.145
    1C        C  247   4.373   2.965   3.148
    1C        C  248   4.458   3.158   3.268
    1C        C  249   4.427   3.099   3.393
    1C        C  250   4.501   3.301   3.512
    1C        C  251   4.457   3.167   3.513
    1C        C  252   4.514   3.371   3.634
    1C        C  253   4.497   3.304   3.757
    1C        C  254   4.521   3.515   3.877
    1C        C  255   4.514   3.374   3.879
    1C        C  256   4.520   3.587   3.998
    1C        C  257   4.520   3.518   4.121
    1C        C  258   4.493   3.729   4.240
    1C        C  259   4.519   3.590   4.243
    1C        C  260   4.469   3.799   4.360
    1C        C  261   4.496   3.735   4.483
    1C        C  262   4.427   3.936   4.603
    1C        C  263   4.478   3.805   4.605
    1C        C  264   4.398   4.008   4.721
    1C        C  265   4.432   3.944   4.842
    1C        C  266   4.322   4.130   4.959
    1C        C  267   4.393   4.010   4.960
    1C        C  268   4.255   2.777   2.058
    1C        C  269   4.194   2.732   2.175
    1C        C  270   4.344   2.890   2.295
    1C        C  271   4.249   2.784   2.294
    1C        C  272   4.378   2.952   2.418
    1C        C  273   4.337   2.891   2.538
    1C        C  274   4.441   3.079   2.659
    1C        C  275   4.370   2.957   2.658
    1C        C  276   4.470   3.148   2.779
    1C        C  277   4.439   3.086   2.903
    1C        C  278   4.508   3.290   3.024
    1C        C  279   4.471   3.153   3.023
    1C        C  280   4.515   3.361   3.146
    1C        C  281   4.496   3.294   3.268
    1C        C  282   4.514   3.509   3.386
    1C        C  283   4.512   3.368   3.388
    1C        C  284   4.515   3.580   3.508
    1C        C  285   4.520   3.513   3.632
    1C        C  286   4.492   3.724   3.749
    1C        C  287   4.517   3.585   3.754
    1C        C  288   4.472   3.791   3.872
    1C        C  289   4.493   3.726   3.996
    1C        C  290   4.423   3.928   4.116
    1C        C  291   4.474   3.796   4.117
    1C        C  292   4.390   3.995   4.236
    1C        C  293   4.421   3.932   4.359
    1C        C  294   4.327   4.123   4.478
    1C        C  295   4.396   4.000   4.480
    1C        C  296   4.287   4.189   4.597
    1C        C  297   4.330   4.133   4.719
    1C        C  298   4.196   4.306   4.837
    1C        C  299   4.284   4.193   4.840
    1C        C  300   4.166   4.395   4.945
    1C        C  301   4.342   2.886   2.058
    1C        C  302   4.466   3.068   2.176
    1C        C  303   4.396   2.943   2.174
    1C        C  304   4.480   3.139   2.298
    1C        C  305   4.441   3.078   2.420
    1C        C  306   4.508   3.284   2.535
    1C        C  307   4.467   3.149   2.539
    1C        C  308   4.518   3.354   2.657
    1C        C  309   4.504   3.285   2.779
    1C        C  310   4.525   3.497   2.897
    1C        C  311   4.518   3.356   2.900
    1C        C  312   4.521   3.572   3.017
    1C        C  313   4.521   3.503   3.140
    1C        C  314   4.488   3.715   3.258
    1C        C  315   4.512   3.575   3.261
    1C        C  316   4.475   3.785   3.380
    1C        C  317   4.495   3.720   3.503
    1C        C  318   4.426   3.921   3.626
    1C        C  319   4.479   3.790   3.625
    1C        C  320   4.394   3.985   3.747
    1C        C  321   4.429   3.925   3.870
    1C        C  322   4.315   4.106   3.989
    1C        C  323   4.394   3.989   3.992
    1C        C  324   4.276   4.167   4.110
    1C        C  325   4.318   4.117   4.235
    1C        C  326   4.184   4.281   4.352
    1C        C  327   4.281   4.179   4.357
    1C        C  328   4.134   4.334   4.473
    1C        C  329   4.188   4.290   4.596
    1C        C  330   4.023   4.432   4.712
    1C        C  331   4.138   4.348   4.714
    1C        C  332   3.970   4.495   4.827
    1C        C  333   4.050   4.473   4.940
    1C        C  334   4.541   3.269   2.060
    1C        C  335   4.533   3.130   2.065
    1C        C  336   4.527   3.350   2.174
    1C        C  337   4.510   3.277   2.294
    1C        C  338   4.524   3.495   2.408
    1C        C  339   4.521   3.354   2.413
    1C        C  340   4.517   3.565   2.530
    1C        C  341   4.521   3.495   2.653
    1C        C  342   4.499   3.707   2.773
    1C        C  343   4.519   3.567   2.775
    1C        C  344   4.477   3.777   2.893
    1C        C  345   4.498   3.711   3.016
    1C        C  346   4.427   3.916   3.135
    1C        C  347   4.476   3.783   3.135
    1C        C  348   4.391   3.978   3.257
    1C        C  349   4.424   3.917   3.380
    1C        C  350   4.317   4.099   3.501
    1C        C  351   4.397   3.983   3.502
    1C        C  352   4.271   4.159   3.621
    1C        C  353   4.310   4.099   3.742
    1C        C  354   4.176   4.262   3.866
    1C        C  355   4.270   4.156   3.865
    1C        C  356   4.123   4.316   3.986
    1C        C  357   4.177   4.268   4.107
    1C        C  358   4.008   4.397   4.230
    1C        C  359   4.125   4.318   4.229
    1C        C  360   3.951   4.442   4.351
    1C        C  361   4.019   4.417   4.471
    1C        C  362   3.825   4.512   4.590
    1C        C  363   3.954   4.454   4.591
    1C        C  364   3.761   4.549   4.710
    1C        C  365   3.837   4.542   4.829
    1C        C  366   3.628   4.594   4.948
    1C        C  367   3.765   4.572   4.946
    1C        C  368   4.503   3.562   2.049
    1C        C  369   4.519   3.490   2.169
    1C        C  370   4.501   3.707   2.287
    1C        C  371   4.522   3.567   2.287
    1C        C  372   4.478   3.774   2.410
    1C        C  373   4.495   3.704   2.531
    1C        C  374   4.420   3.906   2.649
    1C        C  375   4.475   3.776   2.652
    1C        C  376   4.390   3.972   2.770
    1C        C  377   4.425   3.909   2.892
    1C        C  378   4.316   4.095   3.011
    1C        C  379   4.392   3.976   3.012
    1C        C  380   4.269   4.150   3.133
    1C        C  381   4.309   4.093   3.256
    1C        C  382   4.174   4.254   3.375
    1C        C  383   4.271   4.152   3.379
    1C        C  384   4.118   4.302   3.496
    1C        C  385   4.171   4.259   3.620
    1C        C  386   4.006   4.386   3.742
    1C        C  387   4.123   4.307   3.743
    1C        C  388   3.941   4.424   3.862
    1C        C  389   4.004   4.391   3.984
    1C        C  390   3.818   4.490   4.103
    1C        C  391   3.946   4.431   4.107
    1C        C  392   3.751   4.514   4.225
    1C        C  393   3.823   4.504   4.346
    1C        C  394   3.617   4.555   4.472
    1C        C  395   3.756   4.528   4.468
    1C        C  396   3.546   4.563   4.594
    1C        C  397   3.621   4.567   4.714
    1C        C  398   3.408   4.555   4.838
    1C        C  399   3.547   4.580   4.834
    1C        C  400   3.341   4.517   4.955
    1C        C  401   4.497   3.701   2.051
    1C        C  402   4.457   3.917   2.166
    1C        C  403   4.490   3.780   2.167
    1C        C  404   4.412   3.976   2.286
    1C        C  405   4.431   3.907   2.407
    1C        C  406   4.322   4.093   2.522
    1C        C  407   4.394   3.972   2.527
    1C        C  408   4.274   4.147   2.644
    1C        C  409   4.313   4.090   2.768
    1C        C  410   4.172   4.250   2.887
    1C        C  411   4.272   4.150   2.889
    1C        C  412   4.120   4.299   3.009
    1C        C  413   4.173   4.253   3.131
    1C        C  414   3.999   4.373   3.252
    1C        C  415   4.119   4.300   3.253
    1C        C  416   3.937   4.412   3.374
    1C        C  417   4.001   4.381   3.496
    1C        C  418   3.812   4.472   3.616
    1C        C  419   3.941   4.415   3.619
    1C        C  420   3.748   4.503   3.738
    1C        C  421   3.814   4.486   3.861
    1C        C  422   3.608   4.535   3.982
    1C        C  423   3.747   4.511   3.983
    1C        C  424   3.541   4.540   4.106
    1C        C  425   3.612   4.539   4.228
    1C        C  426   3.404   4.546   4.356
    1C        C  427   3.545   4.555   4.351
    1C        C  428   3.332   4.546   4.478
    1C        C  429   3.405   4.555   4.598
    1C        C  430   3.193   4.522   4.719
    1C        C  431   3.332   4.551   4.719
    1C        C  432   3.124   4.497   4.841
    1C        C  433   3.205   4.493   4.955
    1C        C  434   4.385   4.123   2.049
    1C        C  435   4.444   3.996   2.051
    1C        C  436   4.300   4.158   2.159
    1C        C  437   4.331   4.093   2.282
    1C        C  438   4.184   4.254   2.400
    1C        C  439   4.282   4.152   2.401
    1C        C  440   4.125   4.300   2.520
    1C        C  441   4.179   4.251   2.642
    1C        C  442   4.002   4.371   2.763
    1C        C  443   4.121   4.295   2.763
    1C        C  444   3.940   4.409   2.884
    1C        C  445   4.003   4.378   3.007
    1C        C  446   3.811   4.468   3.127
    1C        C  447   3.941   4.411   3.129
    1C        C  448   3.748   4.496   3.250
    1C        C  449   3.811   4.477   3.375
    1C        C  450   3.606   4.536   3.493
    1C        C  451   3.742   4.499   3.496
    1C        C  452   3.539   4.544   3.618
    1C        C  453   3.610   4.536   3.739
    1C        C  454   3.396   4.542   3.863
    1C        C  455   3.537   4.545   3.860
    1C        C  456   3.331   4.532   3.988
    1C        C  457   3.400   4.535   4.111
    1C        C  458   3.194   4.496   4.236
    1C        C  459   3.332   4.527   4.235
    1C        C  460   3.125   4.484   4.358
    1C        C  461   3.196   4.510   4.478
    1C        C  462   2.997   4.433   4.601
    1C        C  463   3.125   4.492   4.599
    1C        C  464   2.934   4.400   4.723
    1C        C  465   2.989   4.449   4.845
    1C        C  466   2.806   4.332   4.961
    1C        C  467   2.907   4.428   4.960
    1C        C  468   4.120   4.284   2.041
    1C        C  469   4.185   4.244   2.159
    1C        C  470   4.008   4.371   2.276
    1C        C  471   4.130   4.298   2.278
    1C        C  472   3.943   4.404   2.396
    1C        C  473   4.005   4.374   2.519
    1C        C  474   3.812   4.463   2.641
    1C        C  475   3.940   4.404   2.641
    1C        C  476   3.744   4.492   2.762
    1C        C  477   3.812   4.470   2.883
    1C        C  478   3.606   4.518   3.006
    1C        C  479   3.746   4.495   3.005
    1C        C  480   3.537   4.526   3.128
    1C        C  481   3.609   4.517   3.249
    1C        C  482   3.396   4.530   3.373
    1C        C  483   3.537   4.531   3.370
    1C        C  484   3.328   4.525   3.496
    1C        C  485   3.398   4.536   3.618
    1C        C  486   3.191   4.491   3.742
    1C        C  487   3.327   4.530   3.740
    1C        C  488   3.128   4.473   3.867
    1C        C  489   3.193   4.502   3.990
    1C        C  490   3.005   4.406   4.114
    1C        C  491   3.127   4.477   4.113
    1C        C  492   2.943   4.378   4.238
    1C        C  493   2.999   4.420   4.360
    1C        C  494   2.825   4.299   4.480
    1C        C  495   2.936   4.387   4.482
    1C        C  496   2.775   4.253   4.604
    1C        C  497   2.824   4.310   4.724
    1C        C  498   2.667   4.165   4.840
    1C        C  499   2.758   4.273   4.843
    1C        C  500   2.600   4.118   4.954
    1C        C  501   4.005   4.362   2.038
    1C        C  502   3.814   4.464   2.156
    1C        C  503   3.942   4.406   2.155
    1C        C  504   3.742   4.475   2.276
    1C        C  505   3.810   4.453   2.398
    1C        C  506   3.606   4.513   2.518
    1C        C  507   3.745   4.486   2.519
    1C        C  508   3.533   4.520   2.639
    1C        C  509   3.604   4.513   2.761
    1C        C  510   3.394   4.516   2.882
    1C        C  511   3.535   4.520   2.884
    1C        C  512   3.325   4.516   3.006
    1C        C  513   3.395   4.522   3.128
    1C        C  514   3.188   4.483   3.254
    1C        C  515   3.326   4.516   3.251
    1C        C  516   3.122   4.464   3.377
    1C        C  517   3.191   4.490   3.498
    1C        C  518   2.998   4.406   3.623
    1C        C  519   3.122   4.473   3.620
    1C        C  520   2.946   4.365   3.748
    1C        C  521   3.003   4.408   3.870
    1C        C  522   2.835   4.279   3.994
    1C        C  523   2.944   4.368   3.993
    1C        C  524   2.783   4.235   4.118
    1C        C  525   2.833   4.289   4.238
    1C        C  526   2.693   4.130   4.362
    1C        C  527   2.779   4.242   4.360
    1C        C  528   2.652   4.074   4.485
    1C        C  529   2.690   4.140   4.603
    1C        C  530   2.591   3.956   4.730
    1C        C  531   2.639   4.090   4.724
    1C        C  532   2.546   3.900   4.852
    1C        C  533   2.538   3.992   4.962
    1C        C  534   3.618   4.559   2.037
    1C        C  535   3.753   4.524   2.044
    1C        C  536   3.537   4.531   2.152
    1C        C  537   3.602   4.504   2.275
    1C        C  538   3.392   4.511   2.395
    1C        C  539   3.533   4.518   2.397
    1C        C  540   3.320   4.502   2.517
    1C        C  541   3.392   4.512   2.637
    1C        C  542   3.185   4.477   2.764
    1C        C  543   3.324   4.504   2.760
    1C        C  544   3.117   4.460   2.886
    1C        C  545   3.187   4.484   3.006
    1C        C  546   3.000   4.392   3.132
    1C        C  547   3.126   4.457   3.131
    1C        C  548   2.940   4.356   3.255
    1C        C  549   2.997   4.398   3.378
    1C        C  550   2.830   4.275   3.504
    1C        C  551   2.936   4.368   3.502
    1C        C  552   2.783   4.224   3.628
    1C        C  553   2.837   4.276   3.748
    1C        C  554   2.698   4.119   3.874
    1C        C  555   2.784   4.230   3.871
    1C        C  556   2.656   4.063   3.997
    1C        C  557   2.694   4.125   4.118
    1C        C  558   2.596   3.939   4.244
    1C        C  559   2.661   4.064   4.241
    1C        C  560   2.565   3.877   4.368
    1C        C  561   2.588   3.948   4.488
    1C        C  562   2.532   3.746   4.613
    1C        C  563   2.562   3.884   4.611
    1C        C  564   2.519   3.680   4.737
    1C        C  565   2.522   3.759   4.855
    1C        C  566   2.538   3.545   4.977
    1C        C  567   2.529   3.684   4.973
    1C        C  568   3.327   4.475   2.037
    1C        C  569   3.397   4.507   2.154
    1C        C  570   3.181   4.474   2.276
    1C        C  571   3.321   4.502   2.274
    1C        C  572   3.111   4.456   2.398
    1C        C  573   3.181   4.478   2.519
    1C        C  574   2.987   4.399   2.644
    1C        C  575   3.115   4.458   2.642
    1C        C  576   2.931   4.355   2.767
    1C        C  577   2.994   4.390   2.888
    1C        C  578   2.826   4.265   3.014
    1C        C  579   2.937   4.353   3.012
    1C        C  580   2.775   4.219   3.137
    1C        C  581   2.830   4.268   3.258
    1C        C  582   2.693   4.112   3.383
    1C        C  583   2.784   4.220   3.382
    1C        C  584   2.651   4.057   3.506
    1C        C  585   2.693   4.116   3.628
    1C        C  586   2.589   3.935   3.752
    1C        C  587   2.657   4.059   3.752
    1C        C  588   2.563   3.872   3.876
    1C        C  589   2.592   3.937   3.998
    1C        C  590   2.531   3.738   4.126
    1C        C  591   2.570   3.873   4.122
    1C        C  592   2.521   3.669   4.249
    1C        C  593   2.527   3.741   4.369
    1C        C  594   2.514   3.532   4.498
    1C        C  595   2.518   3.673   4.493
    1C        C  596   2.521   3.464   4.621
    1C        C  597   2.519   3.538   4.742
    1C        C  598   2.537   3.324   4.860
    1C        C  599   2.532   3.465   4.862
    1C        C  600   2.531   3.243   4.974
    1C        C  601   3.194   4.437   2.039
    1C        C  602   2.982   4.389   2.156
    1C        C  603   3.116   4.440   2.155
    1C        C  604   2.924   4.353   2.281
    1C        C  605   2.986   4.392   2.402
    1C        C  606   2.818   4.265   2.526
    1C        C  607   2.925   4.357   2.524
    1C        C  608   2.768   4.212   2.647
    1C        C  609   2.824   4.263   2.767
    1C        C  610   2.678   4.114   2.893
    1C        C  611   2.775   4.217   2.891
    1C        C  612   2.647   4.052   3.016
    1C        C  613   2.687   4.109   3.139
    1C        C  614   2.592   3.923   3.262
    1C        C  615   2.649   4.052   3.263
    1C        C  616   2.566   3.861   3.386
    1C        C  617   2.588   3.931   3.507
    1C        C  618   2.521   3.732   3.637
    1C        C  619   2.562   3.867   3.630
    1C        C  620   2.511   3.666   3.761
    1C        C  621   2.527   3.736   3.882
    1C        C  622   2.505   3.526   4.009
    1C        C  623   2.515   3.666   4.005
    1C        C  624   2.510   3.455   4.131
    1C        C  625   2.512   3.528   4.252
    1C        C  626   2.538   3.321   4.376
    1C        C  627   2.514   3.460   4.376
    1C        C  628   2.556   3.252   4.498
    1C        C  629   2.546   3.325   4.618
    1C        C  630   2.604   3.119   4.741
    1C        C  631   2.560   3.254   4.739
    1C        C  632   2.616   3.048   4.863
    1C        C  633   2.560   3.106   4.981
    1C        C  634   2.780   4.298   2.051
    1C        C  635   2.887   4.389   2.050
    1C        C  636   2.747   4.227   2.167
    1C        C  637   2.809   4.270   2.286
    1C        C  638   2.672   4.105   2.408
    1C        C  639   2.758   4.217   2.407
    1C        C  640   2.639   4.043   2.530
    1C        C  641   2.678   4.104   2.652
    1C        C  642   2.579   3.919   2.778
    1C        C  643   2.639   4.047   2.775
    1C        C  644   2.552   3.856   2.901
    1C        C  645   2.583   3.925   3.019
    1C        C  646   2.525   3.719   3.147
    1C        C  647   2.564   3.855   3.141
    1C        C  648   2.511   3.653   3.271
    1C        C  649   2.523   3.727   3.391
    1C        C  650   2.500   3.520   3.521
    1C        C  651   2.509   3.661   3.515
    1C        C  652   2.507   3.452   3.644
    1C        C  653   2.506   3.524   3.765
    1C        C  654   2.531   3.315   3.888
    1C        C  655   2.505   3.454   3.887
    1C        C  656   2.550   3.245   4.010
    1C        C  657   2.535   3.316   4.131
    1C        C  658   2.606   3.118   4.253
    1C        C  659   2.555   3.249   4.255
    1C        C  660   2.637   3.055   4.376
    1C        C  661   2.606   3.120   4.498
    1C        C  662   2.707   2.933   4.623
    1C        C  663   2.632   3.053   4.619
    1C        C  664   2.750   2.873   4.743
    1C        C  665   2.697   2.929   4.862
    1C        C  666   2.747   2.872   4.980
    1C        C  667   2.680   4.019   2.056
    1C        C  668   2.676   4.105   2.167
    1C        C  669   2.584   3.909   2.291
    1C        C  670   2.638   4.041   2.287
    1C        C  671   2.549   3.848   2.413
    1C        C  672   2.573   3.919   2.533
    1C        C  673   2.514   3.717   2.658
    1C        C  674   2.548   3.854   2.656
    1C        C  675   2.502   3.647   2.780
    1C        C  676   2.516   3.719   2.901
    1C        C  677   2.499   3.510   3.030
    1C        C  678   2.507   3.651   3.024
    1C        C  679   2.502   3.442   3.153
    1C        C  680   2.498   3.513   3.275
    1C        C  681   2.530   3.308   3.400
    1C        C  682   2.503   3.446   3.400
    1C        C  683   2.550   3.241   3.523
    1C        C  684   2.532   3.313   3.643
    1C        C  685   2.607   3.116   3.769
    1C        C  686   2.549   3.245   3.766
    1C        C  687   2.641   3.050   3.889
    1C        C  688   2.610   3.117   4.010
    1C        C  689   2.716   2.934   4.137
    1C        C  690   2.640   3.053   4.132
    1C        C  691   2.760   2.879   4.259
    1C        C  692   2.713   2.936   4.380
    1C        C  693   2.757   2.880   4.501
    1C        C  694   2.624   3.891   2.055
    1C        C  695   2.521   3.703   2.176
    1C        C  696   2.569   3.836   2.171
    1C        C  697   2.499   3.636   2.299
    1C        C  698   2.511   3.712   2.417
    1C        C  699   2.490   3.501   2.541
    1C        C  700   2.497   3.642   2.539
    1C        C  701   2.498   3.432   2.664
    1C        C  702   2.495   3.506   2.784
    1C        C  703   2.521   3.298   2.911
    1C        C  704   2.498   3.438   2.908
    1C        C  705   2.544   3.231   3.033
    1C        C  706   2.533   3.304   3.154
    1C        C  707   2.600   3.106   3.279
    1C        C  708   2.550   3.239   3.278
    1C        C  709   2.633   3.044   3.401
    1C        C  710   2.602   3.110   3.523
    1C        C  711   2.716   2.935   3.647
    1C        C  712   2.638   3.053   3.647
    1C        C  713   2.760   2.877   3.768
    1C        C  714   2.721   2.934   3.892
    1C        C  715   2.758   2.876   4.015
    1C        C  716   2.453   3.499   2.064
    1C        C  717   2.496   3.632   2.058
    1C        C  718   2.456   3.420   2.183
    1C        C  719   2.473   3.496   2.301
    1C        C  720   2.508   3.286   2.426
    1C        C  721   2.482   3.425   2.423
    1C        C  722   2.523   3.218   2.549
    1C        C  723   2.515   3.292   2.669
    1C        C  724   2.578   3.090   2.790
    1C        C  725   2.531   3.223   2.792
    1C        C  726   2.622   3.033   2.911
    1C        C  727   2.594   3.099   3.033
    1C        C  728   2.708   2.923   3.159
    1C        C  729   2.630   3.042   3.157
    1C        C  730   2.753   2.869   3.282
    1C        C  731   2.713   2.928   3.404
    1C        C  732   2.762   2.878   3.526
    1C        C  733   2.489   3.197   2.070
    1C        C  734   2.484   3.279   2.184
    1C        C  735   2.577   3.085   2.307
    1C        C  736   2.516   3.213   2.305
    1C        C  737   2.611   3.020   2.428
    1C        C  738   2.573   3.086   2.547
    1C        C  739   2.690   2.909   2.669
    1C        C  740   2.604   3.021   2.669
    1C        C  741   2.737   2.853   2.790
    1C        C  742   2.700   2.915   2.912
    1C        C  743   2.749   2.868   3.036
    1C        C  744   2.540   3.068   2.074
    1C        C  745   2.682   2.897   2.186
    1C        C  746   2.600   3.013   2.188
    1C        C  747   2.729   2.841   2.306
    1C        C  748   2.688   2.902   2.427
    1C        C  749   2.737   2.851   2.549
    1C        C  750   2.724   2.832   2.069
    1C        C  751   3.658   2.321   1.969
    1C        O  752   3.664   2.196   1.986
    1C        O  753   3.626   2.358   1.838
    1C        C  754   4.609   3.062   1.958
    1C        O  755   4.553   3.056   1.846
    1C        O  756   4.748   3.066   1.939
    1C        C  757   4.465   4.225   1.978
    1C        O  758   4.562   4.286   2.031
    1C        O  759   4.423   4.285   1.858
    1C        C  760   3.571   4.649   1.928
    1C        O  761   3.540   4.770   1.943
    1C        O  762   3.627   4.614   1.804
    1C        C  763   2.873   4.504   1.957
    1C        O  764   2.932   4.508   1.846
    1C        O  765   2.785   4.612   1.966
    1C        C  766   2.361   3.468   1.951
    1C        O  767   2.416   3.430   1.845
    1C        O  768   2.229   3.514   1.940
    1C        C  769   4.706   3.599   5.032
    1C        O  770   4.715   3.551   5.149
    1C        O  771   4.822   3.658   4.981
    1C        C  772   4.274   4.472   5.011
    1C        O  773   4.306   4.466   5.133
    1C        O  774   4.399   4.480   4.948
    1C        C  775   4.143   2.518   5.070
    1C        O  776   4.260   2.479   5.043
    1C        O  777   4.112   2.509   5.206
    1C        C  778   2.884   4.536   5.059
    1C        O  779   2.787   4.616   5.056
    1C        O  780   2.962   4.522   5.175
    1C        C  781   2.463   3.033   5.066
    1C        O  782   2.341   3.027   5.035
    1C        O  783   2.497   2.971   5.185
    1C        C  784   2.420   3.984   5.050
    1C        O  785   2.311   4.045   5.029
    1C        O  786   2.424   3.918   5.173
    1C        C  787   2.950   2.404   2.020
    1C        O  788   2.942   2.396   1.895
    1C        O  789   2.929   2.282   2.084
    1C        C  790   3.182   2.373   5.073
    1C        O  791   3.128   2.264   5.038
    1C        O  792   3.185   2.384   5.213
    1C        H  793   4.267   3.025   5.053
    1C        H  794   4.172   2.809   5.068
    1C        H  795   4.508   3.120   5.054
    1C        H  796   4.515   3.364   5.065
    1C        H  797   4.590   3.824   5.026
    1C        H  798   4.431   3.975   5.053
    1C        H  799   4.265   4.155   5.046
    1C        H  800   4.015   4.514   5.032
    1C        H  801   3.808   4.554   5.042
    1C        H  802   3.577   4.624   5.037
    1C        H  803   3.397   4.486   5.041
    1C        H  804   3.161   4.479   5.052
    1C        H  805   3.889   2.483   5.066
    1C        H  806   3.677   2.449   5.071
    1C        H  807   2.997   2.544   5.058
    1C        H  808   3.449   2.407   5.060
    1C        H  809   2.881   2.744   5.079
    1C        H  810   2.759   2.937   5.064
    1C        H  811   2.465   3.278   5.051
    1C        H  812   2.561   3.500   5.072
    1C        H  813   2.533   3.736   5.066
    1C        H  814   2.560   4.194   5.017
    1C        H  815   2.792   4.281   5.054
    1C        H  816   2.706   2.877   1.974
    1C        H  817   2.817   2.663   1.984
    1C        H  818   3.201   2.415   1.996
    1C        H  819   3.422   2.444   1.980
    1C        H  820   3.856   2.508   1.969
    1C        H  821   4.055   2.633   1.966
    1C        H  822   4.264   2.713   1.972
    1C        H  823   4.329   2.953   1.976
    1C        H  824   4.576   3.310   1.967
    1C        H  825   4.471   3.515   1.959
    1C        H  826   4.496   3.748   1.955
    1C        H  827   3.808   4.527   1.952
    1C        H  828   3.958   4.378   1.943
    1C        H  829   4.168   4.265   1.948
    1C        H  830   4.450   3.949   1.955
    1C        H  831   2.665   3.827   1.979
    1C        H  832   2.741   4.051   1.973
    1C        H  833   2.712   4.303   1.968
    1C        H  834   3.369   4.498   1.941
    1C        H  835   3.159   4.392   1.949
    1C        H  836   2.544   3.011   1.983
    1C        H  837   2.419   3.212   1.990
    1C        H  838   2.543   3.662   1.967
    2V3OU   H29  839   2.806   3.550   2.190
    2V3OU   C27  840   2.784   3.499   2.287
    2V3OU   H27  841   2.729   3.560   2.364
    2V3OU   H28  842   2.730   3.405   2.259
    2V3OU   O11  843   2.912   3.469   2.343
    2V3OU   C15  844   2.926   3.394   2.458
    2V3OU   C13  845   3.053   3.373   2.515
    2V3OU   C14  846   3.077   3.269   2.606
    2V3OU   C16  847   2.976   3.186   2.651
    2V3OU    H6  848   2.991   3.099   2.716
    2V3OU   C12  849   3.213   3.229   2.648
    2V3OU    O2  850   3.237   3.124   2.711
    2V3OU   C10  851   3.323   3.309   2.591
    2V3OU    C8  852   3.454   3.269   2.616
    2V3OU   O10  853   3.481   3.155   2.686
    2V3OU   H26  854   3.403   3.108   2.718
    2V3OU    C6  855   3.562   3.347   2.567
    2V3OU    C5  856   3.533   3.464   2.497
    2V3OU    C4  857   3.699   3.289   2.559
    2V3OU    H4  858   3.712   3.220   2.648
    2V3OU    H5  859   3.712   3.227   2.465
    2V3OU    C2  860   3.812   3.393   2.566
    2V3OU    O6  861   3.802   3.476   2.681
    2V3OU   H21  862   3.762   3.560   2.653
    2V3OU    C3  863   3.780   3.492   2.454
    2V3OU    H2  864   3.862   3.568   2.459
    2V3OU    H3  865   3.786   3.436   2.358
    2V3OU   C25  866   3.949   3.327   2.553
    2V3OU    O7  867   3.999   3.293   2.446
    2V3OU   C26  868   4.030   3.292   2.677
    2V3OU   H22  869   4.071   3.381   2.731
    2V3OU   H23  870   4.115   3.224   2.650
    2V3OU    O8  871   3.952   3.209   2.761
    2V3OU   H24  872   3.922   3.255   2.840
    2V3OU    C1  873   3.643   3.559   2.459
    2V3OU    H1  874   3.625   3.612   2.361
    2V3OU    O3  875   3.656   3.651   2.567
    2V3OU   C19  876   3.615   3.787   2.553
    2V3OU    H9  877   3.517   3.799   2.497
    2V3OU    O4  878   3.709   3.843   2.465
    2V3OU   C20  879   3.840   3.867   2.519
    2V3OU   H10  880   3.891   3.771   2.548
    2V3OU   C24  881   3.612   3.854   2.690
    2V3OU   H16  882   3.544   3.788   2.749
    2V3OU   H17  883   3.562   3.952   2.666
    2V3OU   C23  884   3.749   3.870   2.756
    2V3OU   H15  885   3.792   3.766   2.775
    2V3OU    N1  886   3.734   3.954   2.874
    2V3OU   H19  887   3.799   3.923   2.942
    2V3OU   H20  888   3.644   3.929   2.910
    2V3OU   C21  889   3.839   3.943   2.652
    2V3OU   H11  890   3.943   3.924   2.693
    2V3OU    O5  891   3.818   4.083   2.644
    2V3OU   H18  892   3.784   4.100   2.734
    2V3OU   C22  893   3.909   3.949   2.411
    2V3OU   H12  894   3.851   4.044   2.395
    2V3OU   H13  895   3.910   3.891   2.315
    2V3OU   H14  896   4.017   3.964   2.437
    2V3OU   C11  897   3.158   3.473   2.490
    2V3OU    O1  898   3.134   3.591   2.455
    2V3OU    C9  899   3.296   3.422   2.510
    2V3OU    C7  900   3.399   3.505   2.470
    2V3OU    O9  901   3.385   3.619   2.393
    2V3OU   H25  902   3.289   3.627   2.390
    2V3OU   C17  903   2.827   3.312   2.515
    2V3OU    H7  904   2.727   3.352   2.499
    2V3OU   C18  905   2.846   3.209   2.607
    2V3OU    H8  906   2.771   3.168   2.675
    3SOL     OW  907   2.998   5.140   0.801
    3SOL    HW1  908   3.033   5.223   0.758
    3SOL    HW2  909   3.063   5.108   0.870
    4SOL     OW  910   0.270   6.276   2.157
    4SOL    HW1  911   0.296   6.372   2.167
    4SOL    HW2  912   0.330   6.219   2.214
    5SOL     OW  913   4.305   0.966   2.787
    5SOL    HW1  914   4.263   1.054   2.762
    5SOL    HW2  915   4.253   0.926   2.863
    6SOL     OW  916   3.974   1.101   1.224
    6SOL    HW1  917   3.985   1.200   1.215
    6SOL    HW2  918   3.973   1.059   1.133
    7SOL     OW  919   6.828   3.319   2.294
    7SOL    HW1  920   6.799   3.225   2.273
    7SOL    HW2  921   6.832   3.332   2.393
    8SOL     OW  922   3.097   0.420   6.883
    8SOL    HW1  923   3.084   0.424   6.982
    8SOL    HW2  924   3.058   0.336   6.847
    9SOL     OW  925   5.709   0.045   6.346
    9SOL    HW1  926   5.683   0.097   6.265
    9SOL    HW2  927   5.808   0.051   6.360
   10SOL     OW  928   1.407   5.197   6.411
   10SOL    HW1  929   1.488   5.200   6.470
   10SOL    HW2  930   1.381   5.102   6.393
   11SOL     OW  931   2.683   0.094   6.000
   11SOL    HW1  932   2.630   0.070   6.081
   11SOL    HW2  933   2.761   0.032   5.991
   12SOL     OW  934   3.701   6.048   2.989
   12SOL    HW1  935   3.761   6.087   2.920
   12SOL    HW2  936   3.640   5.981   2.947
   13SOL     OW  937   4.348   6.315   3.855
   13SOL    HW1  938   4.267   6.296   3.801
   13SOL    HW2  939   4.388   6.229   3.887
   14SOL     OW  940   3.339   5.862   5.861
   14SOL    HW1  941   3.367   5.954   5.834
   14SOL    HW2  942   3.420   5.809   5.887
   15SOL     OW  943   1.980   6.621   1.737
   15SOL    HW1  944   2.066   6.575   1.714
   15SOL    HW2  945   1.981   6.714   1.699
   16SOL     OW  946   5.034   2.966   5.530
   16SOL    HW1  947   5.038   2.961   5.431
   16SOL    HW2  948   5.036   2.874   5.569
   17SOL     OW  949   5.154   5.675   6.040
   17SOL    HW1  950   5.148   5.582   6.002
   17SOL    HW2  951   5.250   5.702   6.046
   18SOL     OW  952   3.267   1.343   5.902
   18SOL    HW1  953   3.211   1.275   5.855
   18SOL    HW2  954   3.330   1.386   5.836
   19SOL     OW  955   0.606   1.126   3.202
   19SOL    HW1  956   0.524   1.116   3.258
   19SOL    HW2  957   0.600   1.064   3.123
   20SOL     OW  958   5.661   2.530   4.444
   20SOL    HW1  959   5.651   2.450   4.384
   20SOL    HW2  960   5.731   2.510   4.513
   21SOL     OW  961   3.744   2.078   2.501
   21SOL    HW1  962   3.785   2.101   2.412
   21SOL    HW2  963   3.647   2.060   2.489
   22SOL     OW  964   1.841   6.493   0.407
   22SOL    HW1  965   1.928   6.501   0.359
   22SOL    HW2  966   1.852   6.525   0.501
   23SOL     OW  967   5.553   6.252   3.143
   23SOL    HW1  968   5.505   6.169   3.171
   23SOL    HW2  969   5.635   6.265   3.200
   24SOL     OW  970   4.608   0.867   3.499
   24SOL    HW1  971   4.552   0.837   3.576
   24SOL    HW2  972   4.604   0.799   3.426
   25SOL     OW  973   3.179   0.533   4.968
   25SOL    HW1  974   3.171   0.454   4.907
   25SOL    HW2  975   3.239   0.511   5.044
   26SOL     OW  976   6.722   1.039   0.199
   26SOL    HW1  977   6.638   0.989   0.176
   26SOL    HW2  978   6.697   1.126   0.243
   27SOL     OW  979   0.926   2.112   2.309
   27SOL    HW1  980   0.935   2.209   2.329
   27SOL    HW2  981   0.830   2.091   2.290
   28SOL     OW  982   2.851   1.923   5.525
   28SOL    HW1  983   2.834   1.895   5.431
   28SOL    HW2  984   2.825   2.019   5.537
   29SOL     OW  985   5.520   2.061   1.929
   29SOL    HW1  986   5.467   2.076   2.012
   29SOL    HW2  987   5.462   2.075   1.849
   30SOL     OW  988   4.111   1.062   4.443
   30SOL    HW1  989   4.108   0.997   4.518
   30SOL    HW2  990   4.018   1.089   4.418
   31SOL     OW  991   1.252   2.461   6.744
   31SOL    HW1  992   1.250   2.534   6.676
   31SOL    HW2  993   1.326   2.398   6.724
   32SOL     OW  994   0.441   1.447   2.499
   32SOL    HW1  995   0.493   1.376   2.452
   32SOL    HW2  996   0.499   1.490   2.568
   33SOL     OW  997   2.263   4.443   6.095
   33SOL    HW1  998   2.301   4.493   6.017
   33SOL    HW2  999   2.328   4.444   6.170
   34SOL     OW 1000   2.853   0.609   4.332
   34SOL    HW1 1001   2.814   0.562   4.411
   34SOL    HW2 1002   2.837   0.707   4.341
   35SOL     OW 1003   3.467   3.631   6.876
   35SOL    HW1 1004   3.527   3.696   6.922
   35SOL    HW2 1005   3.394   3.680   6.828
   36SOL     OW 1006   6.045   1.042   4.717
   36SOL    HW1 1007   6.107   1.112   4.753
   36SOL    HW2 1008   6.047   1.044   4.617
   37SOL     OW 1009   0.968   1.711   0.640
   37SOL    HW1 1010   0.934   1.800   0.610
   37SOL    HW2 1011   1.067   1.707   0.627
   38SOL     OW 1012   6.672   4.603   2.367
   38SOL    HW1 1013   6.762   4.563   2.352
   38SOL    HW2 1014   6.681   4.701   2.385
   39SOL     OW 1015   6.918   4.698   0.022
   39SOL    HW1 1016   6.998   4.690   6.983
   39SOL    HW2 1017   6.902   4.794   0.045
   40SOL     OW 1018   5.351   1.928   0.590
   40SOL    HW1 1019   5.254   1.953   0.592
   40SOL    HW2 1020   5.394   1.969   0.510
   41SOL     OW 1021   6.973   5.888   3.784
   41SOL    HW1 1022   6.943   5.813   3.843
   41SOL    HW2 1023   6.893   5.939   3.753
   42SOL     OW 1024   2.791   5.120   5.469
   42SOL    HW1 1025   2.769   5.187   5.540
   42SOL    HW2 1026   2.872   5.150   5.419
   43SOL     OW 1027   6.153   6.638   5.381
   43SOL    HW1 1028   6.097   6.644   5.464
   43SOL    HW2 1029   6.250   6.640   5.406
   44SOL     OW 1030   4.660   1.882   6.217
   44SOL    HW1 1031   4.684   1.792   6.254
   44SOL    HW2 1032   4.718   1.902   6.138
   45SOL     OW 1033   4.150   6.102   3.263
   45SOL    HW1 1034   4.126   6.006   3.272
   45SOL    HW2 1035   4.072   6.153   3.228
   46SOL     OW 1036   0.947   2.986   3.064
   46SOL    HW1 1037   0.854   2.951   3.068
   46SOL    HW2 1038   0.966   3.020   2.971
   47SOL     OW 1039   4.619   4.348   0.641
   47SOL    HW1 1040   4.713   4.338   0.607
   47SOL    HW2 1041   4.618   4.412   0.718
   48SOL     OW 1042   0.137   3.407   5.915
   48SOL    HW1 1043   0.166   3.357   5.833
   48SOL    HW2 1044   0.167   3.357   5.996
   49SOL     OW 1045   5.248   4.017   1.497
   49SOL    HW1 1046   5.264   3.929   1.452
   49SOL    HW2 1047   5.327   4.077   1.480
   50SOL     OW 1048   5.502   0.734   4.680
   50SOL    HW1 1049   5.422   0.718   4.621
   50SOL    HW2 1050   5.474   0.782   4.763
   51SOL     OW 1051   2.413   6.773   3.151
   51SOL    HW1 1052   2.468   6.700   3.190
   51SOL    HW2 1053   2.316   6.749   3.159
   52SOL     OW 1054   6.147   2.543   2.777
   52SOL    HW1 1055   6.155   2.529   2.876
   52SOL    HW2 1056   6.153   2.641   2.757
   53SOL     OW 1057   3.621   6.657   4.192
   53SOL    HW1 1058   3.628   6.754   4.171
   53SOL    HW2 1059   3.706   6.625   4.233
   54SOL     OW 1060   3.407   5.034   0.958
   54SOL    HW1 1061   3.466   5.061   1.035
   54SOL    HW2 1062   3.414   4.935   0.945
   55SOL     OW 1063   2.432   2.197   6.712
   55SOL    HW1 1064   2.489   2.129   6.666
   55SOL    HW2 1065   2.378   2.247   6.644
   56SOL     OW 1066   0.205   6.865   0.943
   56SOL    HW1 1067   0.201   6.791   0.877
   56SOL    HW2 1068   0.140   6.848   1.017
   57SOL     OW 1069   5.274   1.197   1.142
   57SOL    HW1 1070   5.265   1.135   1.065
   57SOL    HW2 1071   5.253   1.149   1.227
   58SOL     OW 1072   6.828   6.558   5.848
   58SOL    HW1 1073   6.763   6.544   5.923
   58SOL    HW2 1074   6.779   6.559   5.761
   59SOL     OW 1075   0.850   1.573   5.112
   59SOL    HW1 1076   0.782   1.553   5.183
   59SOL    HW2 1077   0.936   1.528   5.135
   60SOL     OW 1078   5.378   2.518   5.207
   60SOL    HW1 1079   5.428   2.469   5.278
   60SOL    HW2 1080   5.354   2.454   5.133
   61SOL     OW 1081   5.741   2.249   4.641
   61SOL    HW1 1082   5.801   2.329   4.635
   61SOL    HW2 1083   5.776   2.187   4.711
   62SOL     OW 1084   0.994   1.223   1.831
   62SOL    HW1 1085   0.930   1.221   1.755
   62SOL    HW2 1086   1.040   1.312   1.833
   63SOL     OW 1087   5.189   1.304   3.351
   63SOL    HW1 1088   5.227   1.263   3.268
   63SOL    HW2 1089   5.227   1.257   3.431
   64SOL     OW 1090   6.884   3.468   5.927
   64SOL    HW1 1091   6.983   3.458   5.921
   64SOL    HW2 1092   6.840   3.382   5.898
   65SOL     OW 1093   0.350   5.124   6.586
   65SOL    HW1 1094   0.290   5.059   6.633
   65SOL    HW2 1095   0.421   5.075   6.536
   66SOL     OW 1096   3.981   1.306   5.707
   66SOL    HW1 1097   4.020   1.280   5.619
   66SOL    HW2 1098   3.995   1.404   5.723
   67SOL     OW 1099   5.190   4.330   5.695
   67SOL    HW1 1100   5.268   4.324   5.632
   67SOL    HW2 1101   5.108   4.355   5.644
   68SOL     OW 1102   6.008   1.142   6.847
   68SOL    HW1 1103   5.948   1.129   6.768
   68SOL    HW2 1104   6.048   1.055   6.873
   69SOL     OW 1105   0.889   3.596   5.792
   69SOL    HW1 1106   0.827   3.606   5.871
   69SOL    HW2 1107   0.839   3.617   5.708
   70SOL     OW 1108   5.512   3.704   4.928
   70SOL    HW1 1109   5.465   3.640   4.867
   70SOL    HW2 1110   5.610   3.703   4.906
   71SOL     OW 1111   4.482   1.560   3.440
   71SOL    HW1 1112   4.420   1.484   3.462
   71SOL    HW2 1113   4.460   1.639   3.497
   72SOL     OW 1114   1.843   6.478   4.203
   72SOL    HW1 1115   1.922   6.518   4.250
   72SOL    HW2 1116   1.871   6.445   4.112
   73SOL     OW 1117   3.894   0.727   1.195
   73SOL    HW1 1118   3.912   0.733   1.293
   73SOL    HW2 1119   3.961   0.665   1.153
   74SOL     OW 1120   4.685   7.009   0.048
   74SOL    HW1 1121   4.599   6.976   0.009
   74SOL    HW2 1122   4.754   7.017   6.995
   75SOL     OW 1123   4.635   0.569   0.917
   75SOL    HW1 1124   4.732   0.562   0.894
   75SOL    HW2 1125   4.599   0.477   0.936
   76SOL     OW 1126   3.125   3.107   1.114
   76SOL    HW1 1127   3.069   3.177   1.158
   76SOL    HW2 1128   3.169   3.050   1.184
   77SOL     OW 1129   0.387   6.860   3.157
   77SOL    HW1 1130   0.328   6.926   3.206
   77SOL    HW2 1131   0.443   6.810   3.223
   78SOL     OW 1132   6.233   1.875   6.953
   78SOL    HW1 1133   6.282   1.945   6.901
   78SOL    HW2 1134   6.216   1.908   0.026
   79SOL     OW 1135   3.282   6.076   0.940
   79SOL    HW1 1136   3.368   6.053   0.986
   79SOL    HW2 1137   3.271   6.175   0.938
   80SOL     OW 1138   5.131   1.173   4.573
   80SOL    HW1 1139   5.219   1.137   4.542
   80SOL    HW2 1140   5.107   1.254   4.519
   81SOL     OW 1141   1.975   6.939   2.682
   81SOL    HW1 1142   1.964   0.013   2.649
   81SOL    HW2 1143   2.064   6.929   2.726
   82SOL     OW 1144   6.151   4.781   1.276
   82SOL    HW1 1145   6.070   4.724   1.293
   82SOL    HW2 1146   6.210   4.780   1.357
   83SOL     OW 1147   0.557   0.780   0.130
   83SOL    HW1 1148   0.565   0.683   0.109
   83SOL    HW2 1149   0.467   0.813   0.103
   84SOL     OW 1150   6.067   2.960   3.284
   84SOL    HW1 1151   6.021   2.876   3.255
   84SOL    HW2 1152   6.123   2.995   3.209
   85SOL     OW 1153   1.584   1.124   4.167
   85SOL    HW1 1154   1.490   1.103   4.192
   85SOL    HW2 1155   1.593   1.222   4.148
   86SOL     OW 1156   6.779   1.276   5.061
   86SOL    HW1 1157   6.777   1.374   5.043
   86SOL    HW2 1158   6.704   1.251   5.122
   87SOL     OW 1159   4.720   3.750   1.041
   87SOL    HW1 1160   4.806   3.702   1.056
   87SOL    HW2 1161   4.643   3.688   1.058
   88SOL     OW 1162   3.468   1.695   5.266
   88SOL    HW1 1163   3.452   1.609   5.314
   88SOL    HW2 1164   3.493   1.766   5.332
   89SOL     OW 1165   1.454   2.851   5.737
   89SOL    HW1 1166   1.524   2.847   5.809
   89SOL    HW2 1167   1.363   2.840   5.778
   90SOL     OW 1168   3.346   5.154   2.767
   90SOL    HW1 1169   3.330   5.191   2.675
   90SOL    HW2 1170   3.406   5.074   2.761
   91SOL     OW 1171   5.560   4.336   5.384
   91SOL    HW1 1172   5.577   4.402   5.311
   91SOL    HW2 1173   5.593   4.246   5.356
   92SOL     OW 1174   4.291   4.763   0.680
   92SOL    HW1 1175   4.275   4.700   0.757
   92SOL    HW2 1176   4.322   4.710   0.600
   93SOL     OW 1177   3.216   4.211   0.304
   93SOL    HW1 1178   3.123   4.177   0.289
   93SOL    HW2 1179   3.214   4.283   0.373
   94SOL     OW 1180   2.231   5.757   6.520
   94SOL    HW1 1181   2.178   5.674   6.503
   94SOL    HW2 1182   2.212   5.792   6.612
   95SOL     OW 1183   0.963   0.626   3.872
   95SOL    HW1 1184   1.009   0.561   3.933
   95SOL    HW2 1185   0.927   0.578   3.792
   96SOL     OW 1186   3.562   0.765   4.998
   96SOL    HW1 1187   3.481   0.790   5.052
   96SOL    HW2 1188   3.537   0.694   4.933
   97SOL     OW 1189   2.205   3.171   5.865
   97SOL    HW1 1190   2.236   3.107   5.936
   97SOL    HW2 1191   2.162   3.251   5.908
   98SOL     OW 1192   0.382   3.421   0.844
   98SOL    HW1 1193   0.469   3.375   0.858
   98SOL    HW2 1194   0.356   3.416   0.748
   99SOL     OW 1195   3.697   3.043   1.359
   99SOL    HW1 1196   3.791   3.061   1.330
   99SOL    HW2 1197   3.695   3.024   1.457
  100SOL     OW 1198   6.949   6.973   5.034
  100SOL    HW1 1199   0.019   7.017   5.045
  100SOL    HW2 1200   6.904   6.968   5.123
  101SOL     OW 1201   1.653   5.166   2.045
  101SOL    HW1 1202   1.688   5.259   2.037
  101SOL    HW2 1203   1.657   5.138   2.141
  102SOL     OW 1204   4.419   5.776   2.005
  102SOL    HW1 1205   4.353   5.840   1.967
  102SOL    HW2 1206   4.506   5.783   1.956
  103SOL     OW 1207   2.123   2.050   1.759
  103SOL    HW1 1208   2.164   2.138   1.734
  103SOL    HW2 1209   2.024   2.061   1.766
  104SOL     OW 1210   1.160   5.452   2.571
  104SOL    HW1 1211   1.134   5.523   2.506
  104SOL    HW2 1212   1.223   5.388   2.526
  105SOL     OW 1213   6.695   2.232   6.738
  105SOL    HW1 1214   6.663   2.138   6.752
  105SOL    HW2 1215   6.775   2.249   6.797
  106SOL     OW 1216   3.536   6.223   4.832
  106SOL    HW1 1217   3.574   6.315   4.826
  106SOL    HW2 1218   3.457   6.214   4.772
  107SOL     OW 1219   1.228   1.414   1.578
  107SOL    HW1 1220   1.262   1.491   1.631
  107SOL    HW2 1221   1.303   1.352   1.556
  108SOL     OW 1222   2.285   6.498   5.661
  108SOL    HW1 1223   2.355   6.428   5.645
  108SOL    HW2 1224   2.235   6.476   5.744
  109SOL     OW 1225   0.435   0.192   1.533
  109SOL    HW1 1226   0.505   0.134   1.492
  109SOL    HW2 1227   0.414   0.159   1.625
  110SOL     OW 1228   3.066   5.937   4.705
  110SOL    HW1 1229   3.036   5.923   4.610
  110SOL    HW2 1230   3.009   5.880   4.765
  111SOL     OW 1231   1.983   0.792   4.585
  111SOL    HW1 1232   2.059   0.774   4.523
  111SOL    HW2 1233   2.015   0.788   4.680
  112SOL     OW 1234   3.476   6.368   6.476
  112SOL    HW1 1235   3.389   6.373   6.427
  112SOL    HW2 1236   3.546   6.329   6.416
  113SOL     OW 1237   0.234   5.353   3.258
  113SOL    HW1 1238   0.307   5.355   3.326
  113SOL    HW2 1239   0.176   5.273   3.274
  114SOL     OW 1240   1.054   0.069   2.371
  114SOL    HW1 1241   1.136   0.069   2.429
  114SOL    HW2 1242   1.066   0.003   2.297
  115SOL     OW 1243   4.504   1.572   3.083
  115SOL    HW1 1244   4.462   1.490   3.123
  115SOL    HW2 1245   4.580   1.545   3.024
  116SOL     OW 1246   6.118   5.525   2.235
  116SOL    HW1 1247   6.070   5.482   2.159
  116SOL    HW2 1248   6.137   5.456   2.305
  117SOL     OW 1249   1.836   2.480   0.342
  117SOL    HW1 1250   1.906   2.412   0.363
  117SOL    HW2 1251   1.745   2.443   0.363
  118SOL     OW 1252   1.619   0.835   2.511
  118SOL    HW1 1253   1.563   0.874   2.584
  118SOL    HW2 1254   1.701   0.793   2.551
  119SOL     OW 1255   0.442   0.315   0.285
  119SOL    HW1 1256   0.427   0.356   0.375
  119SOL    HW2 1257   0.539   0.315   0.264
  120SOL     OW 1258   5.531   0.003   6.556
  120SOL    HW1 1259   5.588   6.990   6.631
  120SOL    HW2 1260   5.589   0.027   6.478
  121SOL     OW 1261   1.168   3.561   5.900
  121SOL    HW1 1262   1.082   3.570   5.848
  121SOL    HW2 1263   1.203   3.468   5.889
  122SOL     OW 1264   1.946   3.713   5.949
  122SOL    HW1 1265   1.848   3.723   5.968
  122SOL    HW2 1266   1.963   3.624   5.906
  123SOL     OW 1267   0.520   0.869   2.721
  123SOL    HW1 1268   0.441   0.861   2.661
  123SOL    HW2 1269   0.527   0.963   2.754
  124SOL     OW 1270   3.663   2.932   0.371
  124SOL    HW1 1271   3.633   2.840   0.346
  124SOL    HW2 1272   3.586   2.983   0.408
  125SOL     OW 1273   3.426   1.838   0.438
  125SOL    HW1 1274   3.446   1.921   0.387
  125SOL    HW2 1275   3.408   1.860   0.534
  126SOL     OW 1276   2.241   4.296   0.725
  126SOL    HW1 1277   2.209   4.212   0.768
  126SOL    HW2 1278   2.207   4.300   0.631
  127SOL     OW 1279   0.529   5.154   6.823
  127SOL    HW1 1280   0.622   5.132   6.855
  127SOL    HW2 1281   0.535   5.213   6.742
  128SOL     OW 1282   5.325   2.475   1.432
  128SOL    HW1 1283   5.326   2.571   1.460
  128SOL    HW2 1284   5.405   2.457   1.375
  129SOL     OW 1285   2.408   3.457   6.096
  129SOL    HW1 1286   2.454   3.435   6.181
  129SOL    HW2 1287   2.466   3.517   6.041
  130SOL     OW 1288   1.515   1.794   4.588
  130SOL    HW1 1289   1.610   1.823   4.605
  130SOL    HW2 1290   1.474   1.764   4.674
  131SOL     OW 1291   4.851   0.908   3.158
  131SOL    HW1 1292   4.828   1.004   3.173
  131SOL    HW2 1293   4.779   0.850   3.194
  132SOL     OW 1294   3.074   2.953   1.696
  132SOL    HW1 1295   3.109   2.934   1.787
  132SOL    HW2 1296   2.975   2.964   1.700
  133SOL     OW 1297   5.288   0.258   4.468
  133SOL    HW1 1298   5.234   0.317   4.408
  133SOL    HW2 1299   5.378   0.241   4.426
  134SOL     OW 1300   6.738   0.337   2.343
  134SOL    HW1 1301   6.730   0.358   2.441
  134SOL    HW2 1302   6.676   0.264   2.319
  135SOL     OW 1303   5.490   3.544   3.643
  135SOL    HW1 1304   5.390   3.552   3.645
  135SOL    HW2 1305   5.518   3.505   3.556
  136SOL     OW 1306   2.074   4.718   6.133
  136SOL    HW1 1307   1.986   4.670   6.139
  136SOL    HW2 1308   2.145   4.663   6.178
  137SOL     OW 1309   5.868   2.456   3.287
  137SOL    HW1 1310   5.817   2.389   3.342
  137SOL    HW2 1311   5.966   2.444   3.302
  138SOL     OW 1312   1.296   4.736   2.518
  138SOL    HW1 1313   1.351   4.770   2.442
  138SOL    HW2 1314   1.342   4.657   2.559
  139SOL     OW 1315   1.363   0.153   5.134
  139SOL    HW1 1316   1.340   0.213   5.211
  139SOL    HW2 1317   1.370   0.207   5.051
  140SOL     OW 1318   1.233   6.299   3.751
  140SOL    HW1 1319   1.316   6.341   3.713
  140SOL    HW2 1320   1.155   6.359   3.732
  141SOL     OW 1321   0.433   2.442   5.249
  141SOL    HW1 1322   0.482   2.357   5.270
  141SOL    HW2 1323   0.491   2.500   5.192
  142SOL     OW 1324   1.476   3.750   1.157
  142SOL    HW1 1325   1.440   3.811   1.228
  142SOL    HW2 1326   1.415   3.753   1.078
  143SOL     OW 1327   6.067   4.332   0.255
  143SOL    HW1 1328   6.094   4.239   0.229
  143SOL    HW2 1329   5.995   4.364   0.194
  144SOL     OW 1330   1.543   4.760   6.077
  144SOL    HW1 1331   1.567   4.769   5.980
  144SOL    HW2 1332   1.450   4.724   6.085
  145SOL     OW 1333   0.475   5.512   0.738
  145SOL    HW1 1334   0.538   5.554   0.804
  145SOL    HW2 1335   0.501   5.539   0.646
  146SOL     OW 1336   4.843   0.471   6.164
  146SOL    HW1 1337   4.866   0.503   6.072
  146SOL    HW2 1338   4.745   0.450   6.168
  147SOL     OW 1339   5.761   3.173   7.018
  147SOL    HW1 1340   5.823   3.107   6.975
  147SOL    HW2 1341   5.667   3.152   6.990
  148SOL     OW 1342   6.732   5.544   0.755
  148SOL    HW1 1343   6.722   5.608   0.679
  148SOL    HW2 1344   6.642   5.525   0.794
  149SOL     OW 1345   3.847   2.192   3.976
  149SOL    HW1 1346   3.763   2.199   4.031
  149SOL    HW2 1347   3.925   2.215   4.033
  150SOL     OW 1348   5.867   0.051   1.053
  150SOL    HW1 1349   5.893   6.982   1.090
  150SOL    HW2 1350   5.950   0.104   1.033
  151SOL     OW 1351   3.171   2.646   1.146
  151SOL    HW1 1352   3.269   2.657   1.161
  151SOL    HW2 1353   3.155   2.620   1.051
  152SOL     OW 1354   0.480   0.635   1.677
  152SOL    HW1 1355   0.442   0.717   1.635
  152SOL    HW2 1356   0.463   0.556   1.618
  153SOL     OW 1357   2.862   1.065   2.983
  153SOL    HW1 1358   2.834   1.131   2.914
  153SOL    HW2 1359   2.936   1.008   2.946
  154SOL     OW 1360   0.626   2.981   2.020
  154SOL    HW1 1361   0.578   2.945   1.940
  154SOL    HW2 1362   0.604   3.078   2.030
  155SOL     OW 1363   0.516   1.668   3.828
  155SOL    HW1 1364   0.563   1.721   3.899
  155SOL    HW2 1365   0.437   1.720   3.796
  156SOL     OW 1366   6.847   1.362   0.519
  156SOL    HW1 1367   6.804   1.447   0.488
  156SOL    HW2 1368   6.893   1.377   0.606
  157SOL     OW 1369   5.300   3.461   1.976
  157SOL    HW1 1370   5.321   3.384   2.036
  157SOL    HW2 1371   5.290   3.430   1.882
  158SOL     OW 1372   1.939   4.472   2.464
  158SOL    HW1 1373   1.982   4.386   2.436
  158SOL    HW2 1374   1.890   4.512   2.386
  159SOL     OW 1375   4.938   4.101   2.588
  159SOL    HW1 1376   4.859   4.138   2.537
  159SOL    HW2 1377   4.958   4.162   2.665
  160SOL     OW 1378   5.275   5.865   0.989
  160SOL    HW1 1379   5.258   5.773   1.023
  160SOL    HW2 1380   5.291   5.927   1.066
  161SOL     OW 1381   1.632   6.194   3.822
  161SOL    HW1 1382   1.711   6.253   3.806
  161SOL    HW2 1383   1.568   6.202   3.745
  162SOL     OW 1384   3.518   6.252   0.573
  162SOL    HW1 1385   3.559   6.339   0.602
  162SOL    HW2 1386   3.579   6.177   0.597
  163SOL     OW 1387   5.876   5.637   1.290
  163SOL    HW1 1388   5.951   5.572   1.286
  163SOL    HW2 1389   5.893   5.712   1.226
  164SOL     OW 1390   0.112   4.084   1.986
  164SOL    HW1 1391   0.179   4.107   2.056
  164SOL    HW2 1392   0.122   4.146   1.908
  165SOL     OW 1393   5.229   3.543   1.508
  165SOL    HW1 1394   5.250   3.641   1.511
  165SOL    HW2 1395   5.206   3.517   1.415
  166SOL     OW 1396   0.969   3.700   2.638
  166SOL    HW1 1397   0.929   3.671   2.551
  166SOL    HW2 1398   0.913   3.666   2.714
  167SOL     OW 1399   5.085   2.807   6.772
  167SOL    HW1 1400   5.166   2.861   6.792
  167SOL    HW2 1401   5.066   2.746   6.849
  168SOL     OW 1402   3.157   3.374   1.330
  168SOL    HW1 1403   3.200   3.294   1.373
  168SOL    HW2 1404   3.090   3.344   1.263
  169SOL     OW 1405   5.312   2.052   1.758
  169SOL    HW1 1406   5.233   2.033   1.816
  169SOL    HW2 1407   5.300   2.142   1.715
  170SOL     OW 1408   0.827   0.580   2.950
  170SOL    HW1 1409   0.786   0.653   3.005
  170SOL    HW2 1410   0.878   0.621   2.874
  171SOL     OW 1411   3.042   4.832   6.744
  171SOL    HW1 1412   3.135   4.829   6.708
  171SOL    HW2 1413   3.021   4.745   6.790
  172SOL     OW 1414   6.425   1.356   2.860
  172SOL    HW1 1415   6.455   1.333   2.952
  172SOL    HW2 1416   6.337   1.402   2.864
  173SOL     OW 1417   5.662   1.370   4.143
  173SOL    HW1 1418   5.619   1.313   4.073
  173SOL    HW2 1419   5.683   1.459   4.104
  174SOL     OW 1420   4.041   5.356   3.639
  174SOL    HW1 1421   4.087   5.411   3.709
  174SOL    HW2 1422   4.066   5.260   3.651
  175SOL     OW 1423   3.375   0.363   1.827
  175SOL    HW1 1424   3.306   0.304   1.868
  175SOL    HW2 1425   3.359   0.370   1.729
  176SOL     OW 1426   0.201   4.510   0.882
  176SOL    HW1 1427   0.160   4.582   0.938
  176SOL    HW2 1428   0.301   4.521   0.880
  177SOL     OW 1429   5.151   2.697   2.805
  177SOL    HW1 1430   5.177   2.754   2.883
  177SOL    HW2 1431   5.166   2.748   2.720
  178SOL     OW 1432   2.212   3.380   6.428
  178SOL    HW1 1433   2.151   3.455   6.454
  178SOL    HW2 1434   2.255   3.401   6.341
  179SOL     OW 1435   4.037   1.648   5.340
  179SOL    HW1 1436   4.011   1.672   5.434
  179SOL    HW2 1437   3.966   1.590   5.300
  180SOL     OW 1438   2.170   6.811   6.968
  180SOL    HW1 1439   2.101   6.753   6.924
  180SOL    HW2 1440   2.125   6.874   0.011
  181SOL     OW 1441   3.278   3.289   6.237
  181SOL    HW1 1442   3.291   3.333   6.148
  181SOL    HW2 1443   3.364   3.288   6.287
  182SOL     OW 1444   3.629   1.919   5.338
  182SOL    HW1 1445   3.629   1.918   5.438
  182SOL    HW2 1446   3.544   1.959   5.305
  183SOL     OW 1447   3.764   2.014   3.251
  183SOL    HW1 1448   3.859   2.039   3.271
  183SOL    HW2 1449   3.715   2.094   3.218
  184SOL     OW 1450   0.974   6.447   4.740
  184SOL    HW1 1451   0.901   6.432   4.807
  184SOL    HW2 1452   1.042   6.510   4.777
  185SOL     OW 1453   1.065   1.030   6.089
  185SOL    HW1 1454   0.967   1.050   6.094
  185SOL    HW2 1455   1.082   0.962   6.018
  186SOL     OW 1456   5.552   0.215   4.374
  186SOL    HW1 1457   5.622   0.182   4.438
  186SOL    HW2 1458   5.590   0.217   4.282
  187SOL     OW 1459   4.720   0.271   2.319
  187SOL    HW1 1460   4.679   0.189   2.280
  187SOL    HW2 1461   4.816   0.277   2.292
  188SOL     OW 1462   0.814   2.581   3.431
  188SOL    HW1 1463   0.909   2.551   3.441
  188SOL    HW2 1464   0.757   2.502   3.407
  189SOL     OW 1465   2.561   5.267   1.610
  189SOL    HW1 1466   2.617   5.286   1.691
  189SOL    HW2 1467   2.519   5.177   1.619
  190SOL     OW 1468   5.196   2.776   5.044
  190SOL    HW1 1469   5.198   2.770   4.944
  190SOL    HW2 1470   5.107   2.745   5.077
  191SOL     OW 1471   5.643   0.564   0.137
  191SOL    HW1 1472   5.588   0.493   0.181
  191SOL    HW2 1473   5.737   0.558   0.171
  192SOL     OW 1474   1.172   5.674   1.644
  192SOL    HW1 1475   1.162   5.764   1.601
  192SOL    HW2 1476   1.083   5.643   1.677
  193SOL     OW 1477   4.548   3.695   5.316
  193SOL    HW1 1478   4.468   3.642   5.290
  193SOL    HW2 1479   4.629   3.657   5.272
  194SOL     OW 1480   4.287   1.182   3.138
  194SOL    HW1 1481   4.370   1.139   3.103
  194SOL    HW2 1482   4.207   1.142   3.092
  195SOL     OW 1483   1.811   0.054   5.070
  195SOL    HW1 1484   1.738   0.044   5.003
  195SOL    HW2 1485   1.797   0.139   5.122
  196SOL     OW 1486   2.464   0.805   0.878
  196SOL    HW1 1487   2.416   0.729   0.834
  196SOL    HW2 1488   2.484   0.780   0.973
  197SOL     OW 1489   2.615   0.147   1.226
  197SOL    HW1 1490   2.517   0.127   1.218
  197SOL    HW2 1491   2.653   0.100   1.305
  198SOL     OW 1492   5.176   0.412   1.514
  198SOL    HW1 1493   5.224   0.494   1.483
  198SOL    HW2 1494   5.241   0.344   1.546
  199SOL     OW 1495   0.236   1.462   3.690
  199SOL    HW1 1496   0.236   1.538   3.624
  199SOL    HW2 1497   0.328   1.422   3.694
  200SOL     OW 1498   0.884   4.146   1.757
  200SOL    HW1 1499   0.952   4.178   1.823
  200SOL    HW2 1500   0.929   4.120   1.672
  201SOL     OW 1501   6.531   6.856   5.825
  201SOL    HW1 1502   6.439   6.821   5.806
  201SOL    HW2 1503   6.599   6.788   5.800
  202SOL     OW 1504   4.544   1.130   6.962
  202SOL    HW1 1505   4.617   1.093   0.000
  202SOL    HW2 1506   4.569   1.222   6.932
  203SOL     OW 1507   5.204   2.306   5.140
  203SOL    HW1 1508   5.157   2.266   5.218
  203SOL    HW2 1509   5.144   2.304   5.060
  204SOL     OW 1510   0.634   0.691   5.652
  204SOL    HW1 1511   0.572   0.769   5.658
  204SOL    HW2 1512   0.700   0.694   5.728
  205SOL     OW 1513   0.690   1.211   2.742
  205SOL    HW1 1514   0.726   1.127   2.783
  205SOL    HW2 1515   0.624   1.253   2.805
  206SOL     OW 1516   0.184   4.236   0.905
  206SOL    HW1 1517   0.181   4.336   0.892
  206SOL    HW2 1518   0.092   4.198   0.892
  207SOL     OW 1519   5.941   1.774   3.362
  207SOL    HW1 1520   5.874   1.700   3.369
  207SOL    HW2 1521   5.919   1.845   3.429
  208SOL     OW 1522   6.147   2.997   4.935
  208SOL    HW1 1523   6.165   3.066   4.865
  208SOL    HW2 1524   6.054   3.008   4.970
  209SOL     OW 1525   0.426   4.691   3.805
  209SOL    HW1 1526   0.501   4.706   3.740
  209SOL    HW2 1527   0.430   4.597   3.840
  210SOL     OW 1528   4.087   2.489   0.972
  210SOL    HW1 1529   4.144   2.571   0.969
  210SOL    HW2 1530   4.108   2.437   1.055
  211SOL     OW 1531   2.131   6.114   2.896
  211SOL    HW1 1532   2.198   6.077   2.960
  211SOL    HW2 1533   2.045   6.131   2.944
  212SOL     OW 1534   1.496   4.141   1.707
  212SOL    HW1 1535   1.438   4.196   1.768
  212SOL    HW2 1536   1.507   4.050   1.746
  213SOL     OW 1537   3.304   0.700   0.380
  213SOL    HW1 1538   3.356   0.720   0.297
  213SOL    HW2 1539   3.209   0.680   0.356
  214SOL     OW 1540   4.664   4.845   1.701
  214SOL    HW1 1541   4.597   4.771   1.705
  214SOL    HW2 1542   4.697   4.855   1.607
  215SOL     OW 1543   2.513   3.944   0.518
  215SOL    HW1 1544   2.447   3.869   0.519
  215SOL    HW2 1545   2.479   4.018   0.460
  216SOL     OW 1546   2.034   5.934   3.889
  216SOL    HW1 1547   1.983   5.992   3.952
  216SOL    HW2 1548   2.130   5.963   3.887
  217SOL     OW 1549   1.019   2.323   3.634
  217SOL    HW1 1550   0.963   2.384   3.689
  217SOL    HW2 1551   0.963   2.282   3.562
  218SOL     OW 1552   0.316   3.902   4.583
  218SOL    HW1 1553   0.286   3.992   4.553
  218SOL    HW2 1554   0.353   3.851   4.506
  219SOL     OW 1555   4.547   0.069   6.466
  219SOL    HW1 1556   4.607   0.027   6.534
  219SOL    HW2 1557   4.489   0.136   6.510
  220SOL     OW 1558   2.791   0.030   1.057
  220SOL    HW1 1559   2.881   0.073   1.056
  220SOL    HW2 1560   2.732   0.076   1.123
  221SOL     OW 1561   0.223   3.045   0.941
  221SOL    HW1 1562   0.238   3.023   1.037
  221SOL    HW2 1563   0.285   3.118   0.913
  222SOL     OW 1564   1.772   5.328   5.786
  222SOL    HW1 1565   1.854   5.385   5.784
  222SOL    HW2 1566   1.692   5.382   5.763
  223SOL     OW 1567   6.006   2.995   6.661
  223SOL    HW1 1568   6.091   3.044   6.681
  223SOL    HW2 1569   5.995   2.987   6.562
  224SOL     OW 1570   1.927   1.370   4.792
  224SOL    HW1 1571   1.909   1.331   4.701
  224SOL    HW2 1572   1.978   1.304   4.847
  225SOL     OW 1573   4.264   3.303   6.297
  225SOL    HW1 1574   4.334   3.368   6.267
  225SOL    HW2 1575   4.179   3.321   6.248
  226SOL     OW 1576   2.343   1.064   5.961
  226SOL    HW1 1577   2.326   0.994   6.030
  226SOL    HW2 1578   2.258   1.111   5.938
  227SOL     OW 1579   1.590   3.783   2.159
  227SOL    HW1 1580   1.591   3.703   2.099
  227SOL    HW2 1581   1.658   3.772   2.231
  228SOL     OW 1582   2.930   6.348   3.886
  228SOL    HW1 1583   2.998   6.327   3.816
  228SOL    HW2 1584   2.840   6.316   3.855
  229SOL     OW 1585   5.749   5.793   6.939
  229SOL    HW1 1586   5.680   5.746   6.994
  229SOL    HW2 1587   5.785   5.871   6.990
  230SOL     OW 1588   3.175   5.223   4.028
  230SOL    HW1 1589   3.242   5.289   3.995
  230SOL    HW2 1590   3.084   5.250   3.999
  231SOL     OW 1591   6.240   2.033   5.763
  231SOL    HW1 1592   6.142   2.026   5.782
  231SOL    HW2 1593   6.287   2.070   5.844
  232SOL     OW 1594   0.824   2.987   6.560
  232SOL    HW1 1595   0.817   2.887   6.558
  232SOL    HW2 1596   0.802   3.019   6.652
  233SOL     OW 1597   2.909   1.557   3.164
  233SOL    HW1 1598   2.972   1.478   3.162
  233SOL    HW2 1599   2.817   1.526   3.140
  234SOL     OW 1600   5.181   0.493   5.369
  234SOL    HW1 1601   5.249   0.548   5.322
  234SOL    HW2 1602   5.102   0.549   5.392
  235SOL     OW 1603   3.790   2.554   1.333
  235SOL    HW1 1604   3.859   2.581   1.401
  235SOL    HW2 1605   3.821   2.471   1.285
  236SOL     OW 1606   4.951   3.163   6.629
  236SOL    HW1 1607   4.903   3.190   6.546
  236SOL    HW2 1608   5.039   3.123   6.606
  237SOL     OW 1609   6.080   4.427   1.814
  237SOL    HW1 1610   6.077   4.344   1.870
  237SOL    HW2 1611   6.109   4.402   1.721
  238SOL     OW 1612   4.732   2.293   0.549
  238SOL    HW1 1613   4.752   2.387   0.574
  238SOL    HW2 1614   4.647   2.264   0.593
  239SOL     OW 1615   0.767   5.407   6.834
  239SOL    HW1 1616   0.678   5.379   6.796
  239SOL    HW2 1617   0.765   5.506   6.851
  240SOL     OW 1618   0.267   2.646   3.215
  240SOL    HW1 1619   0.213   2.633   3.132
  240SOL    HW2 1620   0.263   2.563   3.270
  241SOL     OW 1621   2.207   0.969   5.207
  241SOL    HW1 1622   2.284   1.028   5.185
  241SOL    HW2 1623   2.231   0.874   5.189
  242SOL     OW 1624   3.404   3.153   4.859
  242SOL    HW1 1625   3.402   3.180   4.956
  242SOL    HW2 1626   3.402   3.054   4.852
  243SOL     OW 1627   3.905   0.708   5.645
  243SOL    HW1 1628   3.917   0.680   5.740
  243SOL    HW2 1629   3.918   0.629   5.585
  244SOL     OW 1630   6.277   2.963   4.622
  244SOL    HW1 1631   6.293   3.025   4.699
  244SOL    HW2 1632   6.183   2.928   4.625
  245SOL     OW 1633   5.789   4.137   3.726
  245SOL    HW1 1634   5.768   4.122   3.823
  245SOL    HW2 1635   5.785   4.050   3.677
  246SOL     OW 1636   4.520   2.567   3.717
  246SOL    HW1 1637   4.453   2.507   3.760
  246SOL    HW2 1638   4.503   2.662   3.745
  247SOL     OW 1639   3.008   1.637   1.498
  247SOL    HW1 1640   3.015   1.539   1.480
  247SOL    HW2 1641   3.000   1.687   1.412
  248SOL     OW 1642   3.622   1.497   2.735
  248SOL    HW1 1643   3.676   1.520   2.654
  248SOL    HW2 1644   3.617   1.397   2.744
  249SOL     OW 1645   4.615   0.810   5.080
  249SOL    HW1 1646   4.545   0.878   5.101
  249SOL    HW2 1647   4.586   0.720   5.114
  250SOL     OW 1648   5.080   2.479   0.940
  250SOL    HW1 1649   4.985   2.450   0.927
  250SOL    HW2 1650   5.136   2.401   0.966
  251SOL     OW 1651   4.359   4.299   5.961
  251SOL    HW1 1652   4.416   4.251   5.895
  251SOL    HW2 1653   4.276   4.333   5.916
  252SOL     OW 1654   6.527   6.073   0.281
  252SOL    HW1 1655   6.465   5.997   0.262
  252SOL    HW2 1656   6.474   6.154   0.307
  253SOL     OW 1657   2.653   5.537   6.592
  253SOL    HW1 1658   2.734   5.589   6.564
  253SOL    HW2 1659   2.603   5.588   6.662
  254SOL     OW 1660   5.204   2.841   3.744
  254SOL    HW1 1661   5.282   2.853   3.806
  254SOL    HW2 1662   5.212   2.753   3.698
  255SOL     OW 1663   1.805   3.380   4.751
  255SOL    HW1 1664   1.791   3.405   4.655
  255SOL    HW2 1665   1.806   3.463   4.806
  256SOL     OW 1666   6.457   3.940   6.109
  256SOL    HW1 1667   6.532   3.893   6.062
  256SOL    HW2 1668   6.465   3.927   6.207
  257SOL     OW 1669   4.981   6.722   3.374
  257SOL    HW1 1670   4.939   6.813   3.364
  257SOL    HW2 1671   4.933   6.656   3.317
  258SOL     OW 1672   2.055   5.113   5.045
  258SOL    HW1 1673   2.075   5.029   4.995
  258SOL    HW2 1674   2.129   5.133   5.109
  259SOL     OW 1675   0.790   1.882   2.017
  259SOL    HW1 1676   0.863   1.861   2.082
  259SOL    HW2 1677   0.786   1.981   2.002
  260SOL     OW 1678   4.523   1.121   0.901
  260SOL    HW1 1679   4.459   1.197   0.906
  260SOL    HW2 1680   4.510   1.061   0.980
  261SOL     OW 1681   6.648   3.337   0.758
  261SOL    HW1 1682   6.593   3.402   0.810
  261SOL    HW2 1683   6.627   3.345   0.661
  262SOL     OW 1684   6.794   4.001   0.481
  262SOL    HW1 1685   6.830   3.932   0.543
  262SOL    HW2 1686   6.868   4.033   0.421
  263SOL     OW 1687   1.344   1.052   3.501
  263SOL    HW1 1688   1.409   1.079   3.430
  263SOL    HW2 1689   1.393   1.040   3.588
  264SOL     OW 1690   5.489   3.272   6.671
  264SOL    HW1 1691   5.514   3.176   6.668
  264SOL    HW2 1692   5.398   3.281   6.712
  265SOL     OW 1693   5.088   5.599   2.648
  265SOL    HW1 1694   4.996   5.638   2.645
  265SOL    HW2 1695   5.088   5.510   2.602
  266SOL     OW 1696   2.978   2.933   5.594
  266SOL    HW1 1697   3.064   2.915   5.546
  266SOL    HW2 1698   2.969   3.031   5.611
  267SOL     OW 1699   0.630   1.583   6.321
  267SOL    HW1 1700   0.537   1.583   6.358
  267SOL    HW2 1701   0.652   1.491   6.287
  268SOL     OW 1702   3.652   0.701   5.770
  268SOL    HW1 1703   3.750   0.715   5.756
  268SOL    HW2 1704   3.631   0.705   5.868
  269SOL     OW 1705   1.026   3.856   2.000
  269SOL    HW1 1706   0.938   3.860   1.952
  269SOL    HW2 1707   1.101   3.854   1.933
  270SOL     OW 1708   0.188   0.248   0.155
  270SOL    HW1 1709   0.182   0.213   0.062
  270SOL    HW2 1710   0.284   0.258   0.181
  271SOL     OW 1711   1.052   1.664   6.898
  271SOL    HW1 1712   1.120   1.674   6.970
  271SOL    HW2 1713   0.975   1.725   6.915
  272SOL     OW 1714   3.303   5.400   4.305
  272SOL    HW1 1715   3.223   5.409   4.245
  272SOL    HW2 1716   3.293   5.461   4.384
  273SOL     OW 1717   2.186   4.128   4.603
  273SOL    HW1 1718   2.214   4.172   4.689
  273SOL    HW2 1719   2.146   4.038   4.623
  274SOL     OW 1720   4.304   1.891   2.861
  274SOL    HW1 1721   4.300   1.815   2.926
  274SOL    HW2 1722   4.218   1.896   2.811
  275SOL     OW 1723   6.046   4.965   5.414
  275SOL    HW1 1724   6.095   5.000   5.494
  275SOL    HW2 1725   6.030   5.039   5.349
  276SOL     OW 1726   0.209   6.037   2.368
  276SOL    HW1 1727   0.158   6.044   2.454
  276SOL    HW2 1728   0.206   5.943   2.335
  277SOL     OW 1729   1.238   3.964   0.754
  277SOL    HW1 1730   1.302   4.040   0.742
  277SOL    HW2 1731   1.144   3.999   0.756
  278SOL     OW 1732   6.043   5.124   2.048
  278SOL    HW1 1733   6.057   5.120   1.949
  278SOL    HW2 1734   6.132   5.119   2.094
  279SOL     OW 1735   6.294   2.644   4.395
  279SOL    HW1 1736   6.389   2.611   4.392
  279SOL    HW2 1737   6.293   2.742   4.375
  280SOL     OW 1738   3.186   0.081   3.234
  280SOL    HW1 1739   3.120   0.057   3.305
  280SOL    HW2 1740   3.140   0.133   3.162
  281SOL     OW 1741   2.883   4.778   2.472
  281SOL    HW1 1742   2.850   4.871   2.454
  281SOL    HW2 1743   2.859   4.719   2.394
  282SOL     OW 1744   3.326   1.526   5.437
  282SOL    HW1 1745   3.251   1.548   5.499
  282SOL    HW2 1746   3.291   1.471   5.361
  283SOL     OW 1747   6.431   1.744   5.872
  283SOL    HW1 1748   6.404   1.648   5.882
  283SOL    HW2 1749   6.383   1.799   5.941
  284SOL     OW 1750   1.118   4.024   4.236
  284SOL    HW1 1751   1.218   4.024   4.238
  284SOL    HW2 1752   1.083   4.055   4.324
  285SOL     OW 1753   6.260   4.697   5.698
  285SOL    HW1 1754   6.311   4.783   5.702
  285SOL    HW2 1755   6.175   4.711   5.648
  286SOL     OW 1756   3.653   5.788   5.295
  286SOL    HW1 1757   3.661   5.750   5.202
  286SOL    HW2 1758   3.708   5.871   5.301
  287SOL     OW 1759   0.112   4.637   6.897
  287SOL    HW1 1760   0.140   4.546   6.929
  287SOL    HW2 1761   0.148   4.654   6.806
  288SOL     OW 1762   3.416   1.949   5.870
  288SOL    HW1 1763   3.465   2.036   5.864
  288SOL    HW2 1764   3.481   1.876   5.892
  289SOL     OW 1765   0.186   4.701   4.911
  289SOL    HW1 1766   0.263   4.637   4.908
  289SOL    HW2 1767   0.211   4.779   4.969
  290SOL     OW 1768   5.587   2.323   4.267
  290SOL    HW1 1769   5.676   2.278   4.259
  290SOL    HW2 1770   5.514   2.257   4.249
  291SOL     OW 1771   1.737   2.103   4.731
  291SOL    HW1 1772   1.673   2.086   4.806
  291SOL    HW2 1773   1.729   2.029   4.664
  292SOL     OW 1774   1.282   1.771   2.956
  292SOL    HW1 1775   1.262   1.866   2.982
  292SOL    HW2 1776   1.238   1.709   3.020
  293SOL     OW 1777   4.246   5.159   1.730
  293SOL    HW1 1778   4.237   5.060   1.743
  293SOL    HW2 1779   4.157   5.202   1.746
  294SOL     OW 1780   6.571   5.467   6.814
  294SOL    HW1 1781   6.578   5.369   6.834
  294SOL    HW2 1782   6.505   5.482   6.741
  295SOL     OW 1783   2.890   2.030   4.328
  295SOL    HW1 1784   2.910   1.934   4.348
  295SOL    HW2 1785   2.966   2.087   4.357
  296SOL     OW 1786   4.918   1.769   3.046
  296SOL    HW1 1787   4.923   1.869   3.044
  296SOL    HW2 1788   5.004   1.732   3.081
  297SOL     OW 1789   2.280   4.496   2.693
  297SOL    HW1 1790   2.352   4.482   2.625
  297SOL    HW2 1791   2.299   4.579   2.746
  298SOL     OW 1792   3.649   6.484   0.718
  298SOL    HW1 1793   3.585   6.556   0.744
  298SOL    HW2 1794   3.723   6.523   0.663
  299SOL     OW 1795   4.111   3.916   6.754
  299SOL    HW1 1796   4.059   4.001   6.762
  299SOL    HW2 1797   4.205   3.933   6.783
  300SOL     OW 1798   5.895   0.884   1.460
  300SOL    HW1 1799   5.915   0.830   1.542
  300SOL    HW2 1800   5.897   0.981   1.484
  301SOL     OW 1801   5.223   3.192   1.135
  301SOL    HW1 1802   5.248   3.120   1.199
  301SOL    HW2 1803   5.216   3.279   1.183
  302SOL     OW 1804   0.449   0.472   3.600
  302SOL    HW1 1805   0.508   0.548   3.574
  302SOL    HW2 1806   0.502   0.387   3.598
  303SOL     OW 1807   6.024   0.179   1.279
  303SOL    HW1 1808   6.076   0.138   1.205
  303SOL    HW2 1809   6.087   0.220   1.346
  304SOL     OW 1810   2.570   0.467   4.170
  304SOL    HW1 1811   2.641   0.438   4.234
  304SOL    HW2 1812   2.560   0.567   4.174
  305SOL     OW 1813   0.957   3.150   0.423
  305SOL    HW1 1814   1.011   3.114   0.347
  305SOL    HW2 1815   0.874   3.095   0.434
  306SOL     OW 1816   2.192   0.473   3.953
  306SOL    HW1 1817   2.222   0.464   4.048
  306SOL    HW2 1818   2.093   0.468   3.948
  307SOL     OW 1819   5.130   6.768   0.481
  307SOL    HW1 1820   5.157   6.862   0.504
  307SOL    HW2 1821   5.054   6.740   0.538
  308SOL     OW 1822   5.767   3.433   5.161
  308SOL    HW1 1823   5.821   3.393   5.086
  308SOL    HW2 1824   5.727   3.519   5.131
  309SOL     OW 1825   3.551   5.321   6.934
  309SOL    HW1 1826   3.520   5.236   6.891
  309SOL    HW2 1827   3.474   5.365   6.982
  310SOL     OW 1828   6.348   0.003   5.109
  310SOL    HW1 1829   6.330   0.054   5.194
  310SOL    HW2 1830   6.438   6.980   5.115
  311SOL     OW 1831   5.408   4.465   2.783
  311SOL    HW1 1832   5.488   4.477   2.725
  311SOL    HW2 1833   5.327   4.451   2.725
  312SOL     OW 1834   4.218   1.324   5.834
  312SOL    HW1 1835   4.127   1.300   5.801
  312SOL    HW2 1836   4.267   1.240   5.860
  313SOL     OW 1837   3.273   3.828   2.055
  313SOL    HW1 1838   3.339   3.794   2.121
  313SOL    HW2 1839   3.227   3.909   2.092
  314SOL     OW 1840   3.692   4.993   6.813
  314SOL    HW1 1841   3.740   4.916   6.857
  314SOL    HW2 1842   3.752   5.034   6.745
  315SOL     OW 1843   1.442   2.688   3.684
  315SOL    HW1 1844   1.470   2.632   3.606
  315SOL    HW2 1845   1.394   2.769   3.652
  316SOL     OW 1846   2.906   1.342   3.465
  316SOL    HW1 1847   2.877   1.437   3.460
  316SOL    HW2 1848   2.859   1.289   3.393
  317SOL     OW 1849   0.397   0.632   1.013
  317SOL    HW1 1850   0.445   0.636   0.926
  317SOL    HW2 1851   0.312   0.686   1.007
  318SOL     OW 1852   1.098   6.101   6.872
  318SOL    HW1 1853   1.041   6.169   6.826
  318SOL    HW2 1854   1.146   6.045   6.804
  319SOL     OW 1855   6.804   0.353   3.954
  319SOL    HW1 1856   6.826   0.413   4.031
  319SOL    HW2 1857   6.738   0.284   3.984
  320SOL     OW 1858   6.106   2.401   0.537
  320SOL    HW1 1859   6.176   2.455   0.490
  320SOL    HW2 1860   6.147   2.319   0.576
  321SOL     OW 1861   3.975   1.432   0.514
  321SOL    HW1 1862   4.024   1.491   0.577
  321SOL    HW2 1863   4.010   1.338   0.523
  322SOL     OW 1864   4.157   3.587   4.464
  322SOL    HW1 1865   4.197   3.560   4.552
  322SOL    HW2 1866   4.095   3.664   4.478
  323SOL     OW 1867   1.093   2.925   6.479
  323SOL    HW1 1868   1.108   2.950   6.575
  323SOL    HW2 1869   1.012   2.971   6.444
  324SOL     OW 1870   2.465   1.676   4.443
  324SOL    HW1 1871   2.432   1.602   4.385
  324SOL    HW2 1872   2.564   1.674   4.447
  325SOL     OW 1873   0.841   2.837   1.759
  325SOL    HW1 1874   0.839   2.885   1.847
  325SOL    HW2 1875   0.870   2.900   1.687
  326SOL     OW 1876   0.789   5.127   6.910
  326SOL    HW1 1877   0.877   5.158   6.874
  326SOL    HW2 1878   0.777   5.161   7.003
  327SOL     OW 1879   1.524   4.957   3.587
  327SOL    HW1 1880   1.456   4.921   3.650
  327SOL    HW2 1881   1.535   5.056   3.601
  328SOL     OW 1882   1.425   5.654   1.537
  328SOL    HW1 1883   1.467   5.672   1.626
  328SOL    HW2 1884   1.325   5.658   1.546
  329SOL     OW 1885   3.840   4.099   4.429
  329SOL    HW1 1886   3.873   4.017   4.381
  329SOL    HW2 1887   3.803   4.164   4.362
  330SOL     OW 1888   3.042   0.137   1.018
  330SOL    HW1 1889   3.127   0.159   1.067
  330SOL    HW2 1890   3.037   0.191   0.934
  331SOL     OW 1891   4.009   5.920   0.562
  331SOL    HW1 1892   3.949   5.842   0.578
  331SOL    HW2 1893   4.078   5.896   0.493
  332SOL     OW 1894   3.173   1.838   4.136
  332SOL    HW1 1895   3.148   1.935   4.134
  332SOL    HW2 1896   3.139   1.796   4.220
  333SOL     OW 1897   3.695   6.421   5.958
  333SOL    HW1 1898   3.597   6.433   5.973
  333SOL    HW2 1899   3.712   6.405   5.860
  334SOL     OW 1900   2.603   0.732   1.338
  334SOL    HW1 1901   2.654   0.761   1.257
  334SOL    HW2 1902   2.662   0.676   1.396
  335SOL     OW 1903   3.405   6.961   4.603
  335SOL    HW1 1904   3.499   6.950   4.635
  335SOL    HW2 1905   3.351   6.882   4.632
  336SOL     OW 1906   2.160   0.817   3.841
  336SOL    HW1 1907   2.168   0.740   3.779
  336SOL    HW2 1908   2.069   0.857   3.834
  337SOL     OW 1909   7.009   3.078   0.080
  337SOL    HW1 1910   0.045   3.047   0.157
  337SOL    HW2 1911   6.948   3.151   0.109
  338SOL     OW 1912   3.163   2.767   1.509
  338SOL    HW1 1913   3.209   2.719   1.584
  338SOL    HW2 1914   3.085   2.818   1.546
  339SOL     OW 1915   2.880   6.871   4.293
  339SOL    HW1 1916   2.937   6.882   4.211
  339SOL    HW2 1917   2.939   6.849   4.371
  340SOL     OW 1918   4.851   4.641   5.734
  340SOL    HW1 1919   4.840   4.561   5.676
  340SOL    HW2 1920   4.763   4.667   5.773
  341SOL     OW 1921   6.548   1.491   4.498
  341SOL    HW1 1922   6.626   1.449   4.544
  341SOL    HW2 1923   6.580   1.540   4.417
  342SOL     OW 1924   6.084   3.754   6.982
  342SOL    HW1 1925   6.140   3.691   6.928
  342SOL    HW2 1926   6.111   3.848   6.962
  343SOL     OW 1927   1.539   5.061   0.585
  343SOL    HW1 1928   1.561   5.025   0.675
  343SOL    HW2 1929   1.440   5.056   0.570
  344SOL     OW 1930   1.105   4.818   1.864
  344SOL    HW1 1931   1.161   4.860   1.935
  344SOL    HW2 1932   1.025   4.775   1.906
  345SOL     OW 1933   5.903   1.370   3.935
  345SOL    HW1 1934   5.991   1.332   3.963
  345SOL    HW2 1935   5.829   1.311   3.967
  346SOL     OW 1936   1.811   0.664   2.592
  346SOL    HW1 1937   1.810   0.612   2.677
  346SOL    HW2 1938   1.900   0.707   2.580
  347SOL     OW 1939   3.241   5.550   6.062
  347SOL    HW1 1940   3.183   5.475   6.093
  347SOL    HW2 1941   3.276   5.529   5.971
  348SOL     OW 1942   5.437   4.552   1.612
  348SOL    HW1 1943   5.345   4.584   1.633
  348SOL    HW2 1944   5.491   4.548   1.695
  349SOL     OW 1945   0.125   4.258   0.510
  349SOL    HW1 1946   0.095   4.289   0.600
  349SOL    HW2 1947   0.225   4.265   0.504
  350SOL     OW 1948   3.645   2.914   0.887
  350SOL    HW1 1949   3.558   2.912   0.936
  350SOL    HW2 1950   3.687   2.823   0.888
  351SOL     OW 1951   2.090   2.430   0.013
  351SOL    HW1 1952   2.172   2.474   0.050
  351SOL    HW2 1953   2.009   2.483   0.040
  352SOL     OW 1954   3.606   0.917   4.782
  352SOL    HW1 1955   3.597   0.872   4.871
  352SOL    HW2 1956   3.578   1.012   4.790
  353SOL     OW 1957   2.410   6.499   0.574
  353SOL    HW1 1958   2.337   6.472   0.637
  353SOL    HW2 1959   2.437   6.594   0.593
  354SOL     OW 1960   3.407   2.686   0.100
  354SOL    HW1 1961   3.359   2.607   0.062
  354SOL    HW2 1962   3.391   2.766   0.043
  355SOL     OW 1963   0.318   3.145   3.319
  355SOL    HW1 1964   0.320   3.122   3.221
  355SOL    HW2 1965   0.257   3.081   3.366
  356SOL     OW 1966   3.466   6.250   5.089
  356SOL    HW1 1967   3.489   6.224   4.995
  356SOL    HW2 1968   3.538   6.218   5.150
  357SOL     OW 1969   6.426   6.629   5.422
  357SOL    HW1 1970   6.428   6.530   5.439
  357SOL    HW2 1971   6.481   6.649   5.341
  358SOL     OW 1972   5.249   0.024   1.581
  358SOL    HW1 1973   5.191   7.005   1.652
  358SOL    HW2 1974   5.272   6.974   1.514
  359SOL     OW 1975   1.131   2.057   2.153
  359SOL    HW1 1976   1.051   2.051   2.212
  359SOL    HW2 1977   1.203   2.109   2.199
  360SOL     OW 1978   1.181   6.018   6.430
  360SOL    HW1 1979   1.106   5.975   6.381
  360SOL    HW2 1980   1.260   6.026   6.369
  361SOL     OW 1981   5.731   5.952   3.248
  361SOL    HW1 1982   5.773   5.979   3.334
  361SOL    HW2 1983   5.772   6.004   3.173
  362SOL     OW 1984   3.703   4.048   1.372
  362SOL    HW1 1985   3.604   4.042   1.385
  362SOL    HW2 1986   3.732   3.980   1.304
  363SOL     OW 1987   4.984   4.724   3.755
  363SOL    HW1 1988   4.946   4.783   3.826
  363SOL    HW2 1989   4.911   4.668   3.715
  364SOL     OW 1990   6.192   5.982   6.336
  364SOL    HW1 1991   6.279   5.942   6.362
  364SOL    HW2 1992   6.208   6.066   6.284
  365SOL     OW 1993   5.770   5.256   2.244
  365SOL    HW1 1994   5.672   5.241   2.241
  365SOL    HW2 1995   5.817   5.178   2.201
  366SOL     OW 1996   6.406   0.618   0.023
  366SOL    HW1 1997   6.402   0.567   0.109
  366SOL    HW2 1998   6.326   0.678   0.016
  367SOL     OW 1999   4.918   3.144   1.541
  367SOL    HW1 2000   4.899   3.222   1.481
  367SOL    HW2 2001   4.848   3.074   1.528
  368SOL     OW 2002   6.867   3.302   4.816
  368SOL    HW1 2003   6.835   3.289   4.910
  368SOL    HW2 2004   6.840   3.393   4.784
  369SOL     OW 2005   6.604   5.556   1.851
  369SOL    HW1 2006   6.567   5.473   1.893
  369SOL    HW2 2007   6.539   5.589   1.782
  370SOL     OW 2008   2.611   1.852   5.755
  370SOL    HW1 2009   2.634   1.762   5.718
  370SOL    HW2 2010   2.695   1.902   5.775
  371SOL     OW 2011   2.527   3.474   6.767
  371SOL    HW1 2012   2.564   3.503   6.855
  371SOL    HW2 2013   2.560   3.535   6.695
  372SOL     OW 2014   0.571   0.008   5.730
  372SOL    HW1 2015   0.500   0.046   5.671
  372SOL    HW2 2016   0.573   0.059   5.816
  373SOL     OW 2017   6.135   6.175   5.055
  373SOL    HW1 2018   6.062   6.194   5.120
  373SOL    HW2 2019   6.102   6.191   4.962
  374SOL     OW 2020   2.647   1.687   2.592
  374SOL    HW1 2021   2.606   1.774   2.563
  374SOL    HW2 2022   2.607   1.659   2.679
  375SOL     OW 2023   0.764   4.300   3.989
  375SOL    HW1 2024   0.787   4.276   4.084
  375SOL    HW2 2025   0.680   4.252   3.963
  376SOL     OW 2026   2.218   1.908   4.838
  376SOL    HW1 2027   2.123   1.875   4.842
  376SOL    HW2 2028   2.276   1.837   4.799
  377SOL     OW 2029   0.177   2.762   2.084
  377SOL    HW1 2030   0.213   2.832   2.022
  377SOL    HW2 2031   0.126   2.695   2.031
  378SOL     OW 2032   3.196   2.866   5.464
  378SOL    HW1 2033   3.181   2.794   5.397
  378SOL    HW2 2034   3.294   2.881   5.477
  379SOL     OW 2035   5.969   4.094   1.507
  379SOL    HW1 2036   5.944   4.157   1.580
  379SOL    HW2 2037   5.906   4.017   1.505
  380SOL     OW 2038   3.004   1.172   1.641
  380SOL    HW1 2039   3.021   1.231   1.562
  380SOL    HW2 2040   2.959   1.089   1.610
  381SOL     OW 2041   1.533   4.394   2.602
  381SOL    HW1 2042   1.523   4.369   2.699
  381SOL    HW2 2043   1.468   4.342   2.547
  382SOL     OW 2044   5.061   6.398   5.904
  382SOL    HW1 2045   5.097   6.349   5.983
  382SOL    HW2 2046   5.068   6.497   5.920
  383SOL     OW 2047   5.535   3.360   6.237
  383SOL    HW1 2048   5.490   3.388   6.152
  383SOL    HW2 2049   5.548   3.261   6.237
  384SOL     OW 2050   6.077   4.933   4.505
  384SOL    HW1 2051   6.093   4.929   4.406
  384SOL    HW2 2052   6.163   4.918   4.553
  385SOL     OW 2053   4.575   5.747   5.575
  385SOL    HW1 2054   4.514   5.668   5.573
  385SOL    HW2 2055   4.670   5.716   5.580
  386SOL     OW 2056   3.080   6.108   5.179
  386SOL    HW1 2057   3.156   6.057   5.139
  386SOL    HW2 2058   3.115   6.184   5.234
  387SOL     OW 2059   0.753   6.639   2.882
  387SOL    HW1 2060   0.752   6.656   2.980
  387SOL    HW2 2061   0.743   6.725   2.832
  388SOL     OW 2062   2.059   2.336   4.038
  388SOL    HW1 2063   2.010   2.417   4.069
  388SOL    HW2 2064   2.031   2.256   4.092
  389SOL     OW 2065   4.142   3.958   1.809
  389SOL    HW1 2066   4.104   3.972   1.901
  389SOL    HW2 2067   4.194   4.039   1.782
  390SOL     OW 2068   3.854   1.078   6.857
  390SOL    HW1 2069   3.904   1.156   6.817
  390SOL    HW2 2070   3.786   1.112   6.921
  391SOL     OW 2071   2.213   4.215   5.194
  391SOL    HW1 2072   2.227   4.165   5.279
  391SOL    HW2 2073   2.248   4.161   5.117
  392SOL     OW 2074   1.928   3.516   1.520
  392SOL    HW1 2075   1.927   3.568   1.605
  392SOL    HW2 2076   2.018   3.473   1.508
  393SOL     OW 2077   1.087   4.841   7.017
  393SOL    HW1 2078   1.086   4.850   6.917
  393SOL    HW2 2079   1.049   4.923   0.039
  394SOL     OW 2080   0.286   2.816   0.194
  394SOL    HW1 2081   0.290   2.840   0.291
  394SOL    HW2 2082   0.339   2.881   0.141
  395SOL     OW 2083   4.895   4.833   3.180
  395SOL    HW1 2084   4.990   4.823   3.151
  395SOL    HW2 2085   4.834   4.812   3.103
  396SOL     OW 2086   2.785   2.955   1.696
  396SOL    HW1 2087   2.706   2.904   1.663
  396SOL    HW2 2088   2.757   3.047   1.722
  397SOL     OW 2089   5.443   2.106   6.117
  397SOL    HW1 2090   5.484   2.080   6.205
  397SOL    HW2 2091   5.347   2.078   6.115
  398SOL     OW 2092   1.679   6.694   3.577
  398SOL    HW1 2093   1.604   6.694   3.643
  398SOL    HW2 2094   1.669   6.617   3.514
  399SOL     OW 2095   5.865   6.526   4.681
  399SOL    HW1 2096   5.822   6.444   4.720
  399SOL    HW2 2097   5.794   6.594   4.663
  400SOL     OW 2098   5.741   6.343   6.016
  400SOL    HW1 2099   5.715   6.396   6.097
  400SOL    HW2 2100   5.823   6.290   6.036
  401SOL     OW 2101   5.266   7.013   6.134
  401SOL    HW1 2102   5.227   6.923   6.153
  401SOL    HW2 2103   5.319   7.009   6.049
  402SOL     OW 2104   6.632   0.654   3.255
  402SOL    HW1 2105   6.679   0.674   3.169
  402SOL    HW2 2106   6.536   0.635   3.235
  403SOL     OW 2107   3.705   0.630   5.351
  403SOL    HW1 2108   3.648   0.667   5.424
  403SOL    HW2 2109   3.652   0.563   5.298
  404SOL     OW 2110   1.829   5.110   5.198
  404SOL    HW1 2111   1.756   5.123   5.131
  404SOL    HW2 2112   1.917   5.105   5.150
  405SOL     OW 2113   2.105   3.390   2.896
  405SOL    HW1 2114   2.136   3.340   2.977
  405SOL    HW2 2115   2.152   3.478   2.892
  406SOL     OW 2116   0.372   4.550   4.764
  406SOL    HW1 2117   0.354   4.479   4.832
  406SOL    HW2 2118   0.462   4.590   4.781
  407SOL     OW 2119   1.899   2.140   5.023
  407SOL    HW1 2120   1.929   2.097   4.938
  407SOL    HW2 2121   1.917   2.079   5.100
  408SOL     OW 2122   3.194   2.174   3.023
  408SOL    HW1 2123   3.139   2.220   3.093
  408SOL    HW2 2124   3.134   2.129   2.957
  409SOL     OW 2125   6.513   3.041   1.565
  409SOL    HW1 2126   6.424   3.016   1.603
  409SOL    HW2 2127   6.553   3.113   1.622
  410SOL     OW 2128   1.292   1.890   1.235
  410SOL    HW1 2129   1.252   1.916   1.147
  410SOL    HW2 2130   1.281   1.792   1.249
  411SOL     OW 2131   5.969   0.682   1.661
  411SOL    HW1 2132   5.929   0.703   1.751
  411SOL    HW2 2133   5.916   0.609   1.618
  412SOL     OW 2134   3.252   4.887   3.291
  412SOL    HW1 2135   3.296   4.887   3.381
  412SOL    HW2 2136   3.291   4.814   3.235
  413SOL     OW 2137   4.667   4.449   1.719
  413SOL    HW1 2138   4.593   4.384   1.704
  413SOL    HW2 2139   4.703   4.437   1.812
  414SOL     OW 2140   3.045   6.592   3.947
  414SOL    HW1 2141   2.964   6.613   4.001
  414SOL    HW2 2142   3.043   6.496   3.920
  415SOL     OW 2143   0.373   0.420   7.008
  415SOL    HW1 2144   0.465   0.460   7.010
  415SOL    HW2 2145   0.317   0.461   0.060
  416SOL     OW 2146   5.107   5.156   4.901
  416SOL    HW1 2147   5.123   5.091   4.976
  416SOL    HW2 2148   5.011   5.154   4.875
  417SOL     OW 2149   1.933   0.820   6.468
  417SOL    HW1 2150   2.030   0.842   6.461
  417SOL    HW2 2151   1.914   0.780   6.558
  418SOL     OW 2152   2.541   6.815   5.839
  418SOL    HW1 2153   2.549   6.879   5.762
  418SOL    HW2 2154   2.561   6.863   5.925
  419SOL     OW 2155   0.560   0.316   2.826
  419SOL    HW1 2156   0.638   0.270   2.868
  419SOL    HW2 2157   0.589   0.405   2.790
  420SOL     OW 2158   5.749   1.364   6.067
  420SOL    HW1 2159   5.717   1.287   6.012
  420SOL    HW2 2160   5.781   1.438   6.008
  421SOL     OW 2161   6.018   3.710   5.063
  421SOL    HW1 2162   5.987   3.752   5.149
  421SOL    HW2 2163   6.085   3.639   5.083
  422SOL     OW 2164   5.044   3.081   0.979
  422SOL    HW1 2165   4.971   3.045   1.038
  422SOL    HW2 2166   5.115   3.122   1.036
  423SOL     OW 2167   2.455   1.404   0.087
  423SOL    HW1 2168   2.459   1.498   0.121
  423SOL    HW2 2169   2.456   1.341   0.165
  424SOL     OW 2170   1.769   4.907   2.826
  424SOL    HW1 2171   1.744   4.834   2.890
  424SOL    HW2 2172   1.750   4.996   2.867
  425SOL     OW 2173   5.025   1.652   4.505
  425SOL    HW1 2174   5.039   1.564   4.459
  425SOL    HW2 2175   4.973   1.713   4.446
  426SOL     OW 2176   2.447   2.701   4.961
  426SOL    HW1 2177   2.506   2.774   4.994
  426SOL    HW2 2178   2.493   2.613   4.973
  427SOL     OW 2179   5.985   0.141   3.546
  427SOL    HW1 2180   6.081   0.122   3.568
  427SOL    HW2 2181   5.981   0.205   3.469
  428SOL     OW 2182   3.676   0.449   2.701
  428SOL    HW1 2183   3.603   0.452   2.769
  428SOL    HW2 2184   3.672   0.532   2.644
  429SOL     OW 2185   1.013   5.322   3.907
  429SOL    HW1 2186   0.924   5.358   3.878
  429SOL    HW2 2187   1.072   5.398   3.936
  430SOL     OW 2188   1.162   6.984   3.975
  430SOL    HW1 2189   1.221   6.972   4.054
  430SOL    HW2 2190   1.075   0.004   4.004
  431SOL     OW 2191   2.806   2.013   0.796
  431SOL    HW1 2192   2.829   1.928   0.843
  431SOL    HW2 2193   2.726   1.998   0.737
  432SOL     OW 2194   6.019   2.433   0.797
  432SOL    HW1 2195   6.064   2.429   0.707
  432SOL    HW2 2196   5.952   2.507   0.797
  433SOL     OW 2197   2.637   6.143   6.074
  433SOL    HW1 2198   2.587   6.096   6.146
  433SOL    HW2 2199   2.573   6.185   6.010
  434SOL     OW 2200   4.156   5.712   3.750
  434SOL    HW1 2201   4.072   5.749   3.789
  434SOL    HW2 2202   4.204   5.785   3.701
  435SOL     OW 2203   3.915   1.991   5.511
  435SOL    HW1 2204   3.984   2.060   5.487
  435SOL    HW2 2205   3.832   2.005   5.457
  436SOL     OW 2206   3.640   5.954   2.421
  436SOL    HW1 2207   3.732   5.969   2.458
  436SOL    HW2 2208   3.577   5.935   2.496
  437SOL     OW 2209   0.268   1.263   5.367
  437SOL    HW1 2210   0.228   1.277   5.276
  437SOL    HW2 2211   0.214   1.196   5.418
  438SOL     OW 2212   1.601   3.534   3.854
  438SOL    HW1 2213   1.584   3.491   3.943
  438SOL    HW2 2214   1.690   3.579   3.856
  439SOL     OW 2215   5.868   6.481   2.361
  439SOL    HW1 2216   5.895   6.571   2.396
  439SOL    HW2 2217   5.949   6.426   2.343
  440SOL     OW 2218   3.620   1.718   6.219
  440SOL    HW1 2219   3.700   1.768   6.186
  440SOL    HW2 2220   3.542   1.780   6.227
  441SOL     OW 2221   5.713   4.367   3.298
  441SOL    HW1 2222   5.801   4.382   3.342
  441SOL    HW2 2223   5.641   4.408   3.355
  442SOL     OW 2224   4.801   5.151   5.433
  442SOL    HW1 2225   4.708   5.155   5.397
  442SOL    HW2 2226   4.805   5.084   5.507
  443SOL     OW 2227   6.001   4.003   4.457
  443SOL    HW1 2228   6.069   3.939   4.492
  443SOL    HW2 2229   6.046   4.088   4.430
  444SOL     OW 2230   4.435   1.384   6.772
  444SOL    HW1 2231   4.463   1.325   6.697
  444SOL    HW2 2232   4.350   1.349   6.813
  445SOL     OW 2233   1.996   5.972   3.590
  445SOL    HW1 2234   2.014   5.988   3.687
  445SOL    HW2 2235   2.076   6.000   3.536
  446SOL     OW 2236   4.009   5.736   2.930
  446SOL    HW1 2237   4.022   5.641   2.904
  446SOL    HW2 2238   4.096   5.775   2.962
  447SOL     OW 2239   6.495   3.077   4.912
  447SOL    HW1 2240   6.420   3.068   4.977
  447SOL    HW2 2241   6.524   3.173   4.907
  448SOL     OW 2242   1.939   0.991   2.789
  448SOL    HW1 2243   2.007   0.932   2.832
  448SOL    HW2 2244   1.986   1.063   2.737
  449SOL     OW 2245   2.351   2.132   3.273
  449SOL    HW1 2246   2.379   2.072   3.348
  449SOL    HW2 2247   2.254   2.155   3.283
  450SOL     OW 2248   1.828   4.568   3.421
  450SOL    HW1 2249   1.796   4.535   3.510
  450SOL    HW2 2250   1.848   4.666   3.426
  451SOL     OW 2251   1.692   2.118   4.333
  451SOL    HW1 2252   1.733   2.195   4.382
  451SOL    HW2 2253   1.602   2.098   4.371
  452SOL     OW 2254   4.014   0.588   1.418
  452SOL    HW1 2255   4.101   0.553   1.381
  452SOL    HW2 2256   3.938   0.536   1.380
  453SOL     OW 2257   3.451   6.650   6.307
  453SOL    HW1 2258   3.377   6.610   6.254
  453SOL    HW2 2259   3.471   6.592   6.386
  454SOL     OW 2260   6.847   3.928   6.683
  454SOL    HW1 2261   6.820   3.898   6.592
  454SOL    HW2 2262   6.944   3.949   6.684
  455SOL     OW 2263   6.483   3.179   5.373
  455SOL    HW1 2264   6.435   3.246   5.317
  455SOL    HW2 2265   6.574   3.212   5.395
  456SOL     OW 2266   1.841   0.470   4.507
  456SOL    HW1 2267   1.814   0.387   4.459
  456SOL    HW2 2268   1.787   0.547   4.472
  457SOL     OW 2269   1.175   4.621   4.450
  457SOL    HW1 2270   1.256   4.565   4.469
  457SOL    HW2 2271   1.120   4.576   4.380
  458SOL     OW 2272   3.727   0.599   3.065
  458SOL    HW1 2273   3.804   0.554   3.020
  458SOL    HW2 2274   3.694   0.674   3.007
  459SOL     OW 2275   2.001   0.360   5.530
  459SOL    HW1 2276   1.997   0.399   5.438
  459SOL    HW2 2277   1.908   0.347   5.565
  460SOL     OW 2278   1.349   1.073   5.159
  460SOL    HW1 2279   1.427   1.062   5.096
  460SOL    HW2 2280   1.269   1.102   5.107
  461SOL     OW 2281   6.467   5.100   5.728
  461SOL    HW1 2282   6.440   5.171   5.793
  461SOL    HW2 2283   6.547   5.051   5.764
  462SOL     OW 2284   3.992   3.893   5.135
  462SOL    HW1 2285   3.935   3.933   5.063
  462SOL    HW2 2286   4.070   3.953   5.152
  463SOL     OW 2287   6.763   0.310   3.105
  463SOL    HW1 2288   6.842   0.317   3.045
  463SOL    HW2 2289   6.682   0.286   3.052
  464SOL     OW 2290   2.997   0.595   5.881
  464SOL    HW1 2291   3.076   0.620   5.938
  464SOL    HW2 2292   2.923   0.562   5.940
  465SOL     OW 2293   0.830   2.561   6.999
  465SOL    HW1 2294   0.734   2.553   6.974
  465SOL    HW2 2295   0.876   2.628   6.940
  466SOL     OW 2296   2.569   6.533   3.979
  466SOL    HW1 2297   2.576   6.531   3.879
  466SOL    HW2 2298   2.639   6.594   4.016
  467SOL     OW 2299   0.932   1.938   2.540
  467SOL    HW1 2300   0.932   2.014   2.475
  467SOL    HW2 2301   0.875   1.864   2.505
  468SOL     OW 2302   4.286   6.078   6.049
  468SOL    HW1 2303   4.310   6.166   6.092
  468SOL    HW2 2304   4.367   6.041   6.004
  469SOL     OW 2305   2.932   4.539   5.734
  469SOL    HW1 2306   2.873   4.551   5.654
  469SOL    HW2 2307   3.012   4.484   5.709
  470SOL     OW 2308   4.109   5.763   2.631
  470SOL    HW1 2309   4.150   5.697   2.569
  470SOL    HW2 2310   4.018   5.789   2.598
  471SOL     OW 2311   2.942   2.238   4.062
  471SOL    HW1 2312   2.926   2.298   4.141
  471SOL    HW2 2313   3.021   2.180   4.080
  472SOL     OW 2314   5.913   4.899   6.862
  472SOL    HW1 2315   5.883   4.836   6.790
  472SOL    HW2 2316   5.958   4.847   6.934
  473SOL     OW 2317   6.942   2.184   2.586
  473SOL    HW1 2318   6.845   2.160   2.594
  473SOL    HW2 2319   6.954   2.280   2.611
  474SOL     OW 2320   6.134   5.354   5.722
  474SOL    HW1 2321   6.144   5.346   5.821
  474SOL    HW2 2322   6.052   5.408   5.701
  475SOL     OW 2323   6.334   3.465   0.034
  475SOL    HW1 2324   6.236   3.444   0.034
  475SOL    HW2 2325   6.384   3.390   7.012
  476SOL     OW 2326   0.352   3.973   1.698
  476SOL    HW1 2327   0.378   3.900   1.635
  476SOL    HW2 2328   0.253   3.972   1.712
  477SOL     OW 2329   2.115   5.668   3.787
  477SOL    HW1 2330   2.082   5.749   3.837
  477SOL    HW2 2331   2.049   5.594   3.797
  478SOL     OW 2332   4.235   6.458   3.500
  478SOL    HW1 2333   4.232   6.360   3.520
  478SOL    HW2 2334   4.206   6.509   3.580
  479SOL     OW 2335   3.177   3.366   4.965
  479SOL    HW1 2336   3.208   3.305   4.892
  479SOL    HW2 2337   3.090   3.407   4.938
  480SOL     OW 2338   1.928   0.482   2.174
  480SOL    HW1 2339   1.995   0.550   2.201
  480SOL    HW2 2340   1.971   0.412   2.117
  481SOL     OW 2341   0.771   6.949   1.460
  481SOL    HW1 2342   0.747   7.011   1.385
  481SOL    HW2 2343   0.731   6.983   1.545
  482SOL     OW 2344   4.762   4.905   2.844
  482SOL    HW1 2345   4.700   4.878   2.918
  482SOL    HW2 2346   4.745   5.000   2.818
  483SOL     OW 2347   6.661   2.160   2.600
  483SOL    HW1 2348   6.593   2.123   2.663
  483SOL    HW2 2349   6.641   2.256   2.581
  484SOL     OW 2350   1.501   4.520   4.990
  484SOL    HW1 2351   1.454   4.582   5.053
  484SOL    HW2 2352   1.562   4.460   5.042
  485SOL     OW 2353   5.367   3.555   2.524
  485SOL    HW1 2354   5.447   3.521   2.473
  485SOL    HW2 2355   5.383   3.542   2.622
  486SOL     OW 2356   5.792   1.341   6.550
  486SOL    HW1 2357   5.746   1.346   6.462
  486SOL    HW2 2358   5.858   1.265   6.548
  487SOL     OW 2359   0.809   0.314   2.961
  487SOL    HW1 2360   0.885   0.287   3.019
  487SOL    HW2 2361   0.808   0.414   2.951
  488SOL     OW 2362   1.656   6.840   3.324
  488SOL    HW1 2363   1.623   6.794   3.242
  488SOL    HW2 2364   1.675   6.772   3.395
  489SOL     OW 2365   5.883   5.559   5.029
  489SOL    HW1 2366   5.805   5.562   4.966
  489SOL    HW2 2367   5.928   5.648   5.029
  490SOL     OW 2368   1.617   5.958   4.555
  490SOL    HW1 2369   1.567   5.914   4.629
  490SOL    HW2 2370   1.588   6.054   4.547
  491SOL     OW 2371   0.960   3.222   6.952
  491SOL    HW1 2372   0.888   3.256   7.012
  491SOL    HW2 2373   1.049   3.249   6.989
  492SOL     OW 2374   1.833   1.172   5.836
  492SOL    HW1 2375   1.760   1.178   5.767
  492SOL    HW2 2376   1.797   1.200   5.925
  493SOL     OW 2377   2.558   6.951   5.588
  493SOL    HW1 2378   2.627   0.002   5.571
  493SOL    HW2 2379   2.480   6.966   5.528
  494SOL     OW 2380   2.295   1.368   6.430
  494SOL    HW1 2381   2.226   1.295   6.427
  494SOL    HW2 2382   2.364   1.351   6.359
  495SOL     OW 2383   3.854   6.332   5.215
  495SOL    HW1 2384   3.890   6.384   5.137
  495SOL    HW2 2385   3.881   6.377   5.300
  496SOL     OW 2386   6.280   1.529   2.410
  496SOL    HW1 2387   6.183   1.502   2.409
  496SOL    HW2 2388   6.325   1.494   2.328
  497SOL     OW 2389   3.849   1.142   4.357
  497SOL    HW1 2390   3.807   1.053   4.375
  497SOL    HW2 2391   3.820   1.176   4.268
  498SOL     OW 2392   0.628   4.816   2.023
  498SOL    HW1 2393   0.586   4.841   1.936
  498SOL    HW2 2394   0.653   4.900   2.073
  499SOL     OW 2395   2.159   5.756   5.444
  499SOL    HW1 2396   2.159   5.808   5.358
  499SOL    HW2 2397   2.174   5.819   5.521
  500SOL     OW 2398   5.334   3.133   5.644
  500SOL    HW1 2399   5.247   3.178   5.622
  500SOL    HW2 2400   5.324   3.035   5.633
  501SOL     OW 2401   3.150   0.217   1.882
  501SOL    HW1 2402   3.099   0.228   1.968
  501SOL    HW2 2403   3.087   0.190   1.809
  502SOL     OW 2404   1.045   4.691   6.736
  502SOL    HW1 2405   0.952   4.673   6.769
  502SOL    HW2 2406   1.081   4.608   6.694
  503SOL     OW 2407   1.942   5.267   6.449
  503SOL    HW1 2408   1.954   5.243   6.353
  503SOL    HW2 2409   1.956   5.185   6.506
  504SOL     OW 2410   0.688   5.729   2.084
  504SOL    HW1 2411   0.664   5.663   2.155
  504SOL    HW2 2412   0.659   5.820   2.112
  505SOL     OW 2413   3.964   0.380   4.977
  505SOL    HW1 2414   3.954   0.297   5.033
  505SOL    HW2 2415   4.005   0.355   4.889
  506SOL     OW 2416   2.994   5.888   2.797
  506SOL    HW1 2417   3.042   5.971   2.769
  506SOL    HW2 2418   3.059   5.826   2.841
  507SOL     OW 2419   4.047   0.817   2.414
  507SOL    HW1 2420   4.000   0.905   2.410
  507SOL    HW2 2421   3.992   0.748   2.368
  508SOL     OW 2422   6.565   2.282   3.366
  508SOL    HW1 2423   6.615   2.204   3.328
  508SOL    HW2 2424   6.620   2.364   3.357
  509SOL     OW 2425   4.628   0.666   0.166
  509SOL    HW1 2426   4.695   0.730   0.203
  509SOL    HW2 2427   4.591   0.702   0.080
  510SOL     OW 2428   6.763   4.799   6.117
  510SOL    HW1 2429   6.792   4.749   6.200
  510SOL    HW2 2430   6.697   4.744   6.067
  511SOL     OW 2431   1.163   1.727   6.654
  511SOL    HW1 2432   1.221   1.805   6.678
  511SOL    HW2 2433   1.117   1.693   6.736
  512SOL     OW 2434   5.925   2.760   6.817
  512SOL    HW1 2435   5.948   2.829   6.749
  512SOL    HW2 2436   6.008   2.715   6.848
  513SOL     OW 2437   5.117   6.641   2.442
  513SOL    HW1 2438   5.160   6.579   2.377
  513SOL    HW2 2439   5.072   6.588   2.514
  514SOL     OW 2440   0.140   0.303   4.497
  514SOL    HW1 2441   0.233   0.342   4.497
  514SOL    HW2 2442   0.110   0.290   4.403
  515SOL     OW 2443   2.212   0.241   6.543
  515SOL    HW1 2444   2.255   0.202   6.625
  515SOL    HW2 2445   2.239   0.187   6.463
  516SOL     OW 2446   2.327   4.459   2.011
  516SOL    HW1 2447   2.265   4.429   2.084
  516SOL    HW2 2448   2.415   4.486   2.051
  517SOL     OW 2449   3.401   4.882   2.489
  517SOL    HW1 2450   3.302   4.882   2.500
  517SOL    HW2 2451   3.424   4.903   2.394
  518SOL     OW 2452   2.652   1.991   3.725
  518SOL    HW1 2453   2.700   2.043   3.795
  518SOL    HW2 2454   2.718   1.948   3.664
  519SOL     OW 2455   0.520   6.636   3.324
  519SOL    HW1 2456   0.541   6.580   3.244
  519SOL    HW2 2457   0.455   6.588   3.383
  520SOL     OW 2458   0.995   4.116   6.578
  520SOL    HW1 2459   1.076   4.072   6.541
  520SOL    HW2 2460   0.972   4.196   6.522
  521SOL     OW 2461   4.510   5.726   4.609
  521SOL    HW1 2462   4.544   5.637   4.637
  521SOL    HW2 2463   4.430   5.715   4.551
  522SOL     OW 2464   4.112   3.532   2.026
  522SOL    HW1 2465   4.086   3.452   2.080
  522SOL    HW2 2466   4.199   3.515   1.980
  523SOL     OW 2467   0.067   5.995   1.675
  523SOL    HW1 2468   0.053   6.069   1.741
  523SOL    HW2 2469   7.005   5.938   1.672
  524SOL     OW 2470   0.875   2.977   2.480
  524SOL    HW1 2471   0.835   3.061   2.516
  524SOL    HW2 2472   0.967   2.965   2.518
  525SOL     OW 2473   2.143   4.227   6.610
  525SOL    HW1 2474   2.135   4.250   6.513
  525SOL    HW2 2475   2.068   4.166   6.636
  526SOL     OW 2476   2.807   6.859   3.671
  526SOL    HW1 2477   2.806   6.912   3.756
  526SOL    HW2 2478   2.878   6.789   3.676
  527SOL     OW 2479   0.574   2.697   0.065
  527SOL    HW1 2480   0.493   2.645   0.091
  527SOL    HW2 2481   0.643   2.689   0.136
  528SOL     OW 2482   1.393   2.763   4.127
  528SOL    HW1 2483   1.390   2.691   4.058
  528SOL    HW2 2484   1.341   2.842   4.095
  529SOL     OW 2485   1.865   6.951   5.301
  529SOL    HW1 2486   1.919   0.002   5.346
  529SOL    HW2 2487   1.805   6.993   5.232
  530SOL     OW 2488   3.645   2.847   2.515
  530SOL    HW1 2489   3.552   2.812   2.522
  530SOL    HW2 2490   3.685   2.853   2.606
  531SOL     OW 2491   1.321   0.701   2.891
  531SOL    HW1 2492   1.268   0.663   2.816
  531SOL    HW2 2493   1.320   0.638   2.969
  532SOL     OW 2494   1.486   3.748   0.453
  532SOL    HW1 2495   1.552   3.735   0.527
  532SOL    HW2 2496   1.498   3.677   0.384
  533SOL     OW 2497   4.814   6.765   4.112
  533SOL    HW1 2498   4.765   6.783   4.026
  533SOL    HW2 2499   4.859   6.849   4.142
  534SOL     OW 2500   6.823   6.239   2.399
  534SOL    HW1 2501   6.752   6.181   2.437
  534SOL    HW2 2502   6.782   6.321   2.360
  535SOL     OW 2503   0.112   4.229   3.171
  535SOL    HW1 2504   0.188   4.165   3.171
  535SOL    HW2 2505   0.058   4.216   3.087
  536SOL     OW 2506   6.440   5.217   2.951
  536SOL    HW1 2507   6.443   5.316   2.965
  536SOL    HW2 2508   6.367   5.195   2.886
  537SOL     OW 2509   3.530   0.019   4.356
  537SOL    HW1 2510   3.482   7.009   4.439
  537SOL    HW2 2511   3.596   0.090   4.379
  538SOL     OW 2512   1.089   4.364   4.718
  538SOL    HW1 2513   1.148   4.443   4.736
  538SOL    HW2 2514   1.144   4.281   4.719
  539SOL     OW 2515   2.012   5.520   1.818
  539SOL    HW1 2516   1.927   5.469   1.806
  539SOL    HW2 2517   2.034   5.568   1.733
  540SOL     OW 2518   1.790   0.638   3.894
  540SOL    HW1 2519   1.828   0.730   3.902
  540SOL    HW2 2520   1.705   0.642   3.841
  541SOL     OW 2521   4.688   5.923   4.003
  541SOL    HW1 2522   4.739   5.934   4.088
  541SOL    HW2 2523   4.684   5.826   3.979
  542SOL     OW 2524   3.744   5.968   6.348
  542SOL    HW1 2525   3.717   6.047   6.403
  542SOL    HW2 2526   3.727   5.884   6.399
  543SOL     OW 2527   5.816   3.384   3.434
  543SOL    HW1 2528   5.860   3.311   3.381
  543SOL    HW2 2529   5.763   3.442   3.372
  544SOL     OW 2530   0.519   5.211   0.521
  544SOL    HW1 2531   0.433   5.257   0.496
  544SOL    HW2 2532   0.529   5.213   0.621
  545SOL     OW 2533   4.304   1.404   0.567
  545SOL    HW1 2534   4.304   1.312   0.528
  545SOL    HW2 2535   4.397   1.428   0.595
  546SOL     OW 2536   1.417   3.830   1.928
  546SOL    HW1 2537   1.505   3.836   1.975
  546SOL    HW2 2538   1.412   3.743   1.879
  547SOL     OW 2539   3.122   2.928   0.811
  547SOL    HW1 2540   3.185   2.918   0.888
  547SOL    HW2 2541   3.139   2.856   0.744
  548SOL     OW 2542   3.718   3.816   1.214
  548SOL    HW1 2543   3.768   3.803   1.299
  548SOL    HW2 2544   3.774   3.785   1.137
  549SOL     OW 2545   5.169   2.514   1.790
  549SOL    HW1 2546   5.232   2.592   1.789
  549SOL    HW2 2547   5.135   2.500   1.883
  550SOL     OW 2548   1.028   5.144   3.351
  550SOL    HW1 2549   1.013   5.242   3.353
  550SOL    HW2 2550   1.016   5.110   3.257
  551SOL     OW 2551   6.880   0.182   1.584
  551SOL    HW1 2552   6.950   0.230   1.636
  551SOL    HW2 2553   6.920   0.148   1.498
  552SOL     OW 2554   5.637   4.070   5.370
  552SOL    HW1 2555   5.569   4.037   5.435
  552SOL    HW2 2556   5.644   4.005   5.294
  553SOL     OW 2557   2.894   6.789   3.313
  553SOL    HW1 2558   2.861   6.861   3.253
  553SOL    HW2 2559   2.820   6.757   3.372
  554SOL     OW 2560   5.662   6.478   0.091
  554SOL    HW1 2561   5.588   6.544   0.078
  554SOL    HW2 2562   5.666   6.452   0.188
  555SOL     OW 2563   2.623   5.082   4.889
  555SOL    HW1 2564   2.646   4.991   4.922
  555SOL    HW2 2565   2.707   5.130   4.862
  556SOL     OW 2566   4.805   1.402   4.217
  556SOL    HW1 2567   4.784   1.346   4.137
  556SOL    HW2 2568   4.723   1.449   4.247
  557SOL     OW 2569   6.997   5.113   6.412
  557SOL    HW1 2570   6.936   5.049   6.366
  557SOL    HW2 2571   0.059   5.064   6.443
  558SOL     OW 2572   2.936   3.226   4.311
  558SOL    HW1 2573   2.837   3.235   4.325
  558SOL    HW2 2574   2.953   3.152   4.246
  559SOL     OW 2575   6.712   5.453   5.589
  559SOL    HW1 2576   6.685   5.360   5.563
  559SOL    HW2 2577   6.811   5.456   5.604
  560SOL     OW 2578   6.641   4.183   3.062
  560SOL    HW1 2579   6.677   4.212   3.151
  560SOL    HW2 2580   6.567   4.244   3.035
  561SOL     OW 2581   0.402   2.340   0.622
  561SOL    HW1 2582   0.381   2.432   0.589
  561SOL    HW2 2583   0.493   2.340   0.663
  562SOL     OW 2584   4.019   1.135   6.035
  562SOL    HW1 2585   4.090   1.193   6.074
  562SOL    HW2 2586   4.055   1.088   5.954
  563SOL     OW 2587   1.807   1.414   3.209
  563SOL    HW1 2588   1.844   1.388   3.119
  563SOL    HW2 2589   1.853   1.496   3.242
  564SOL     OW 2590   1.465   2.715   0.286
  564SOL    HW1 2591   1.365   2.706   0.280
  564SOL    HW2 2592   1.493   2.703   0.381
  565SOL     OW 2593   3.145   3.514   3.497
  565SOL    HW1 2594   3.181   3.590   3.442
  565SOL    HW2 2595   3.100   3.448   3.437
  566SOL     OW 2596   1.788   3.304   4.031
  566SOL    HW1 2597   1.827   3.226   4.081
  566SOL    HW2 2598   1.691   3.312   4.052
  567SOL     OW 2599   3.363   2.606   1.380
  567SOL    HW1 2600   3.444   2.645   1.424
  567SOL    HW2 2601   3.282   2.658   1.408
  568SOL     OW 2602   5.018   6.803   0.161
  568SOL    HW1 2603   5.015   6.736   0.236
  568SOL    HW2 2604   5.002   6.894   0.198
  569SOL     OW 2605   0.911   2.788   0.737
  569SOL    HW1 2606   0.883   2.737   0.819
  569SOL    HW2 2607   0.832   2.838   0.701
  570SOL     OW 2608   3.059   0.190   6.465
  570SOL    HW1 2609   2.993   0.262   6.488
  570SOL    HW2 2610   3.147   0.210   6.507
  571SOL     OW 2611   2.900   5.291   4.064
  571SOL    HW1 2612   2.844   5.209   4.061
  571SOL    HW2 2613   2.842   5.371   4.080
  572SOL     OW 2614   2.015   5.098   5.462
  572SOL    HW1 2615   1.941   5.159   5.435
  572SOL    HW2 2616   2.077   5.086   5.385
  573SOL     OW 2617   5.982   1.212   6.107
  573SOL    HW1 2618   5.897   1.259   6.131
  573SOL    HW2 2619   6.060   1.272   6.128
  574SOL     OW 2620   3.690   0.314   5.018
  574SOL    HW1 2621   3.780   0.358   5.017
  574SOL    HW2 2622   3.697   0.226   4.970
  575SOL     OW 2623   4.147   2.876   1.737
  575SOL    HW1 2624   4.073   2.879   1.804
  575SOL    HW2 2625   4.176   2.782   1.723
  576SOL     OW 2626   0.986   3.338   2.988
  576SOL    HW1 2627   1.006   3.349   3.085
  576SOL    HW2 2628   1.058   3.383   2.934
  577SOL     OW 2629   1.505   0.908   2.265
  577SOL    HW1 2630   1.434   0.852   2.222
  577SOL    HW2 2631   1.547   0.856   2.339
  578SOL     OW 2632   0.541   5.072   5.057
  578SOL    HW1 2633   0.449   5.035   5.065
  578SOL    HW2 2634   0.548   5.125   4.973
  579SOL     OW 2635   1.659   4.202   3.100
  579SOL    HW1 2636   1.721   4.151   3.040
  579SOL    HW2 2637   1.711   4.272   3.150
  580SOL     OW 2638   4.044   5.218   5.643
  580SOL    HW1 2639   3.986   5.157   5.588
  580SOL    HW2 2640   4.005   5.310   5.642
  581SOL     OW 2641   2.096   3.338   2.155
  581SOL    HW1 2642   2.182   3.373   2.119
  581SOL    HW2 2643   2.022   3.401   2.133
  582SOL     OW 2644   4.336   5.382   2.557
  582SOL    HW1 2645   4.309   5.298   2.603
  582SOL    HW2 2646   4.348   5.455   2.625
  583SOL     OW 2647   2.693   6.349   5.394
  583SOL    HW1 2648   2.639   6.427   5.425
  583SOL    HW2 2649   2.632   6.276   5.361
  584SOL     OW 2650   3.056   6.659   6.280
  584SOL    HW1 2651   3.068   6.758   6.274
  584SOL    HW2 2652   2.975   6.639   6.335
  585SOL     OW 2653   4.262   0.728   0.026
  585SOL    HW1 2654   4.193   0.777   0.079
  585SOL    HW2 2655   4.319   0.793   6.996
  586SOL     OW 2656   3.430   0.979   0.450
  586SOL    HW1 2657   3.387   0.891   0.473
  586SOL    HW2 2658   3.491   1.006   0.524
  587SOL     OW 2659   4.498   2.263   3.029
  587SOL    HW1 2660   4.571   2.195   3.024
  587SOL    HW2 2661   4.414   2.220   3.061
  588SOL     OW 2662   2.255   4.924   1.344
  588SOL    HW1 2663   2.202   4.891   1.265
  588SOL    HW2 2664   2.193   4.973   1.407
  589SOL     OW 2665   3.491   5.634   2.161
  589SOL    HW1 2666   3.518   5.559   2.101
  589SOL    HW2 2667   3.490   5.720   2.109
  590SOL     OW 2668   5.450   1.660   1.016
  590SOL    HW1 2669   5.429   1.752   1.048
  590SOL    HW2 2670   5.530   1.625   1.065
  591SOL     OW 2671   3.475   6.340   3.466
  591SOL    HW1 2672   3.404   6.372   3.404
  591SOL    HW2 2673   3.540   6.414   3.484
  592SOL     OW 2674   4.297   0.703   1.990
  592SOL    HW1 2675   4.282   0.693   2.088
  592SOL    HW2 2676   4.389   0.737   1.973
  593SOL     OW 2677   4.558   2.147   3.812
  593SOL    HW1 2678   4.634   2.193   3.857
  593SOL    HW2 2679   4.592   2.092   3.736
  594SOL     OW 2680   6.069   0.392   0.817
  594SOL    HW1 2681   6.083   0.481   0.859
  594SOL    HW2 2682   5.977   0.387   0.779
  595SOL     OW 2683   5.310   6.629   3.350
  595SOL    HW1 2684   5.266   6.642   3.439
  595SOL    HW2 2685   5.257   6.678   3.280
  596SOL     OW 2686   0.273   5.150   3.028
  596SOL    HW1 2687   0.206   5.093   3.076
  596SOL    HW2 2688   0.363   5.136   3.068
  597SOL     OW 2689   2.923   6.574   6.674
  597SOL    HW1 2690   2.994   6.599   6.740
  597SOL    HW2 2691   2.945   6.486   6.633
  598SOL     OW 2692   3.769   4.151   4.707
  598SOL    HW1 2693   3.793   4.163   4.610
  598SOL    HW2 2694   3.680   4.105   4.713
  599SOL     OW 2695   2.167   5.859   2.762
  599SOL    HW1 2696   2.072   5.880   2.785
  599SOL    HW2 2697   2.227   5.927   2.804
  600SOL     OW 2698   6.242   2.279   6.226
  600SOL    HW1 2699   6.295   2.235   6.298
  600SOL    HW2 2700   6.297   2.348   6.180
  601SOL     OW 2701   1.407   0.764   4.076
  601SOL    HW1 2702   1.497   0.770   4.119
  601SOL    HW2 2703   1.340   0.733   4.144
  602SOL     OW 2704   2.122   0.599   6.306
  602SOL    HW1 2705   2.030   0.576   6.338
  602SOL    HW2 2706   2.129   0.581   6.208
  603SOL     OW 2707   2.886   2.436   5.309
  603SOL    HW1 2708   2.984   2.439   5.288
  603SOL    HW2 2709   2.859   2.520   5.355
  604SOL     OW 2710   0.875   1.373   1.360
  604SOL    HW1 2711   0.862   1.440   1.434
  604SOL    HW2 2712   0.809   1.390   1.288
  605SOL     OW 2713   6.390   4.669   1.116
  605SOL    HW1 2714   6.418   4.584   1.160
  605SOL    HW2 2715   6.324   4.650   1.044
  606SOL     OW 2716   4.874   6.488   5.639
  606SOL    HW1 2717   4.883   6.388   5.641
  606SOL    HW2 2718   4.965   6.529   5.636
  607SOL     OW 2719   6.531   4.902   5.201
  607SOL    HW1 2720   6.629   4.899   5.220
  607SOL    HW2 2721   6.481   4.884   5.285
  608SOL     OW 2722   4.009   6.013   0.026
  608SOL    HW1 2723   3.964   5.956   0.095
  608SOL    HW2 2724   4.059   5.954   6.983
  609SOL     OW 2725   3.305   2.954   2.338
  609SOL    HW1 2726   3.254   3.036   2.312
  609SOL    HW2 2727   3.338   2.906   2.256
  610SOL     OW 2728   5.417   3.177   0.208
  610SOL    HW1 2729   5.347   3.142   0.147
  610SOL    HW2 2730   5.487   3.225   0.154
  611SOL     OW 2731   4.607   0.442   1.592
  611SOL    HW1 2732   4.512   0.464   1.572
  611SOL    HW2 2733   4.667   0.515   1.558
  612SOL     OW 2734   3.473   5.816   4.361
  612SOL    HW1 2735   3.412   5.737   4.362
  612SOL    HW2 2736   3.509   5.831   4.453
  613SOL     OW 2737   4.392   4.886   5.524
  613SOL    HW1 2738   4.339   4.909   5.442
  613SOL    HW2 2739   4.344   4.919   5.605
  614SOL     OW 2740   4.830   5.117   5.902
  614SOL    HW1 2741   4.914   5.098   5.952
  614SOL    HW2 2742   4.758   5.053   5.932
  615SOL     OW 2743   6.719   2.156   1.211
  615SOL    HW1 2744   6.768   2.105   1.282
  615SOL    HW2 2745   6.755   2.249   1.207
  616SOL     OW 2746   0.013   1.926   2.079
  616SOL    HW1 2747   7.016   1.876   1.994
  616SOL    HW2 2748   0.111   1.935   2.093
  617SOL     OW 2749   0.243   4.552   5.639
  617SOL    HW1 2750   0.338   4.564   5.609
  617SOL    HW2 2751   0.207   4.465   5.604
  618SOL     OW 2752   1.003   2.242   0.732
  618SOL    HW1 2753   0.990   2.248   0.831
  618SOL    HW2 2754   1.007   2.334   0.693
  619SOL     OW 2755   3.230   1.455   1.048
  619SOL    HW1 2756   3.322   1.443   1.086
  619SOL    HW2 2757   3.168   1.388   1.088
  620SOL     OW 2758   4.501   1.958   0.809
  620SOL    HW1 2759   4.541   1.871   0.780
  620SOL    HW2 2760   4.402   1.953   0.804
  621SOL     OW 2761   3.456   5.902   6.931
  621SOL    HW1 2762   3.474   5.804   6.939
  621SOL    HW2 2763   3.358   5.917   6.920
  622SOL     OW 2764   1.051   0.711   6.160
  622SOL    HW1 2765   1.087   0.775   6.091
  622SOL    HW2 2766   1.049   0.619   6.121
  623SOL     OW 2767   1.202   5.740   5.807
  623SOL    HW1 2768   1.163   5.650   5.825
  623SOL    HW2 2769   1.242   5.742   5.715
  624SOL     OW 2770   0.122   2.245   1.357
  624SOL    HW1 2771   0.108   2.191   1.274
  624SOL    HW2 2772   0.206   2.298   1.348
  625SOL     OW 2773   2.550   2.094   1.771
  625SOL    HW1 2774   2.641   2.107   1.810
  625SOL    HW2 2775   2.481   2.111   1.840
  626SOL     OW 2776   2.628   5.454   4.063
  626SOL    HW1 2777   2.613   5.434   4.160
  626SOL    HW2 2778   2.570   5.393   4.008
  627SOL     OW 2779   5.196   0.006   0.594
  627SOL    HW1 2780   5.114   0.063   0.591
  627SOL    HW2 2781   5.277   0.061   0.574
  628SOL     OW 2782   5.743   5.495   5.796
  628SOL    HW1 2783   5.702   5.583   5.817
  628SOL    HW2 2784   5.690   5.450   5.724
  629SOL     OW 2785   6.895   6.703   0.759
  629SOL    HW1 2786   6.889   6.776   0.827
  629SOL    HW2 2787   6.913   6.743   0.669
  630SOL     OW 2788   6.610   1.150   2.546
  630SOL    HW1 2789   6.530   1.133   2.604
  630SOL    HW2 2790   6.677   1.077   2.558
  631SOL     OW 2791   3.127   6.838   4.976
  631SOL    HW1 2792   3.046   6.779   4.978
  631SOL    HW2 2793   3.171   6.831   4.887
  632SOL     OW 2794   2.719   1.697   0.473
  632SOL    HW1 2795   2.724   1.738   0.383
  632SOL    HW2 2796   2.798   1.639   0.489
  633SOL     OW 2797   4.756   4.606   0.508
  633SOL    HW1 2798   4.776   4.514   0.540
  633SOL    HW2 2799   4.840   4.660   0.504
  634SOL     OW 2800   4.690   4.519   2.029
  634SOL    HW1 2801   4.693   4.559   2.121
  634SOL    HW2 2802   4.645   4.430   2.033
  635SOL     OW 2803   4.875   5.188   1.770
  635SOL    HW1 2804   4.794   5.200   1.828
  635SOL    HW2 2805   4.878   5.259   1.700
  636SOL     OW 2806   5.017   5.884   6.985
  636SOL    HW1 2807   4.929   5.922   7.012
  636SOL    HW2 2808   5.033   5.798   0.014
  637SOL     OW 2809   6.457   3.571   1.928
  637SOL    HW1 2810   6.416   3.515   2.000
  637SOL    HW2 2811   6.410   3.553   1.841
  638SOL     OW 2812   5.008   2.169   2.186
  638SOL    HW1 2813   5.023   2.168   2.285
  638SOL    HW2 2814   5.087   2.211   2.141
  639SOL     OW 2815   5.549   4.147   2.721
  639SOL    HW1 2816   5.600   4.074   2.676
  639SOL    HW2 2817   5.466   4.167   2.669
  640SOL     OW 2818   0.741   4.918   5.109
  640SOL    HW1 2819   0.717   4.823   5.092
  640SOL    HW2 2820   0.665   4.977   5.080
  641SOL     OW 2821   0.105   5.614   4.694
  641SOL    HW1 2822   0.155   5.616   4.607
  641SOL    HW2 2823   0.107   5.706   4.735
  642SOL     OW 2824   6.728   4.114   4.174
  642SOL    HW1 2825   6.653   4.100   4.109
  642SOL    HW2 2826   6.705   4.070   4.261
  643SOL     OW 2827   5.549   4.768   5.228
  643SOL    HW1 2828   5.564   4.850   5.283
  643SOL    HW2 2829   5.632   4.712   5.229
  644SOL     OW 2830   1.081   6.160   3.995
  644SOL    HW1 2831   1.133   6.194   3.917
  644SOL    HW2 2832   1.015   6.230   4.023
  645SOL     OW 2833   5.406   2.380   4.509
  645SOL    HW1 2834   5.381   2.287   4.482
  645SOL    HW2 2835   5.474   2.417   4.445
  646SOL     OW 2836   2.274   1.481   3.366
  646SOL    HW1 2837   2.222   1.539   3.428
  646SOL    HW2 2838   2.372   1.504   3.372
  647SOL     OW 2839   5.647   2.446   5.825
  647SOL    HW1 2840   5.569   2.391   5.854
  647SOL    HW2 2841   5.649   2.531   5.878
  648SOL     OW 2842   6.962   4.100   3.385
  648SOL    HW1 2843   6.913   4.041   3.321
  648SOL    HW2 2844   7.019   4.165   3.333
  649SOL     OW 2845   4.038   4.051   0.816
  649SOL    HW1 2846   3.984   4.067   0.898
  649SOL    HW2 2847   4.070   3.956   0.816
  650SOL     OW 2848   5.179   4.019   0.755
  650SOL    HW1 2849   5.271   4.019   0.714
  650SOL    HW2 2850   5.165   3.934   0.805
  651SOL     OW 2851   6.901   6.512   6.771
  651SOL    HW1 2852   6.872   6.435   6.714
  651SOL    HW2 2853   6.940   6.478   6.856
  652SOL     OW 2854   5.771   6.017   3.521
  652SOL    HW1 2855   5.770   5.918   3.532
  652SOL    HW2 2856   5.858   6.053   3.554
  653SOL     OW 2857   3.588   5.983   4.961
  653SOL    HW1 2858   3.558   6.039   4.884
  653SOL    HW2 2859   3.508   5.944   5.007
  654SOL     OW 2860   0.221   3.967   5.916
  654SOL    HW1 2861   0.144   3.999   5.861
  654SOL    HW2 2862   0.241   3.871   5.894
  655SOL     OW 2863   0.733   6.728   2.280
  655SOL    HW1 2864   0.765   6.647   2.330
  655SOL    HW2 2865   0.803   6.799   2.282
  656SOL     OW 2866   1.768   5.516   1.422
  656SOL    HW1 2867   1.862   5.517   1.457
  656SOL    HW2 2868   1.738   5.610   1.404
  657SOL     OW 2869   1.865   2.112   1.729
  657SOL    HW1 2870   1.913   2.158   1.804
  657SOL    HW2 2871   1.774   2.085   1.760
  658SOL     OW 2872   2.852   3.940   6.305
  658SOL    HW1 2873   2.911   3.926   6.384
  658SOL    HW2 2874   2.902   3.989   6.233
  659SOL     OW 2875   2.433   6.330   6.293
  659SOL    HW1 2876   2.453   6.235   6.274
  659SOL    HW2 2877   2.349   6.357   6.245
  660SOL     OW 2878   5.243   3.957   1.779
  660SOL    HW1 2879   5.325   3.907   1.806
  660SOL    HW2 2880   5.244   3.972   1.680
  661SOL     OW 2881   4.345   6.668   3.928
  661SOL    HW1 2882   4.407   6.674   3.849
  661SOL    HW2 2883   4.386   6.611   3.999
  662SOL     OW 2884   4.389   1.321   5.360
  662SOL    HW1 2885   4.486   1.333   5.380
  662SOL    HW2 2886   4.349   1.410   5.334
  663SOL     OW 2887   2.634   3.936   6.137
  663SOL    HW1 2888   2.657   3.869   6.067
  663SOL    HW2 2889   2.706   3.937   6.207
  664SOL     OW 2890   0.004   6.165   6.514
  664SOL    HW1 2891   0.052   6.221   6.446
  664SOL    HW2 2892   6.992   6.081   6.470
  665SOL     OW 2893   4.283   5.445   1.685
  665SOL    HW1 2894   4.273   5.346   1.682
  665SOL    HW2 2895   4.298   5.474   1.779
  666SOL     OW 2896   5.168   1.434   1.919
  666SOL    HW1 2897   5.231   1.483   1.858
  666SOL    HW2 2898   5.209   1.427   2.010
  667SOL     OW 2899   1.064   4.845   2.603
  667SOL    HW1 2900   0.977   4.829   2.557
  667SOL    HW2 2901   1.135   4.791   2.560
  668SOL     OW 2902   4.575   6.124   6.136
  668SOL    HW1 2903   4.594   6.188   6.061
  668SOL    HW2 2904   4.600   6.167   6.223
  669SOL     OW 2905   5.221   6.958   3.113
  669SOL    HW1 2906   5.308   6.910   3.103
  669SOL    HW2 2907   5.212   6.991   3.207
  670SOL     OW 2908   3.030   2.499   1.683
  670SOL    HW1 2909   3.089   2.575   1.711
  670SOL    HW2 2910   2.989   2.457   1.765
  671SOL     OW 2911   3.286   6.352   0.926
  671SOL    HW1 2912   3.375   6.397   0.918
  671SOL    HW2 2913   3.219   6.401   0.870
  672SOL     OW 2914   6.872   5.824   1.736
  672SOL    HW1 2915   6.811   5.903   1.727
  672SOL    HW2 2916   6.843   5.769   1.814
  673SOL     OW 2917   6.461   0.237   1.534
  673SOL    HW1 2918   6.506   0.202   1.616
  673SOL    HW2 2919   6.520   0.304   1.489
  674SOL     OW 2920   0.173   1.296   5.119
  674SOL    HW1 2921   0.238   1.227   5.089
  674SOL    HW2 2922   0.179   1.376   5.059
  675SOL     OW 2923   0.064   2.138   1.705
  675SOL    HW1 2924   0.154   2.151   1.747
  675SOL    HW2 2925   0.013   2.224   1.709
  676SOL     OW 2926   3.103   5.424   3.748
  676SOL    HW1 2927   3.167   5.461   3.816
  676SOL    HW2 2928   3.136   5.335   3.716
  677SOL     OW 2929   5.516   1.520   0.255
  677SOL    HW1 2930   5.582   1.452   0.224
  677SOL    HW2 2931   5.560   1.610   0.256
  678SOL     OW 2932   2.454   6.544   5.130
  678SOL    HW1 2933   2.373   6.491   5.107
  678SOL    HW2 2934   2.512   6.552   5.049
  679SOL     OW 2935   4.805   2.189   3.921
  679SOL    HW1 2936   4.804   2.211   4.019
  679SOL    HW2 2937   4.840   2.097   3.907
  680SOL     OW 2938   5.105   5.688   5.075
  680SOL    HW1 2939   5.075   5.600   5.111
  680SOL    HW2 2940   5.153   5.739   5.146
  681SOL     OW 2941   4.446   5.135   1.522
  681SOL    HW1 2942   4.509   5.204   1.560
  681SOL    HW2 2943   4.360   5.136   1.573
  682SOL     OW 2944   6.333   0.734   1.424
  682SOL    HW1 2945   6.244   0.746   1.379
  682SOL    HW2 2946   6.322   0.676   1.505
  683SOL     OW 2947   5.068   2.653   0.722
  683SOL    HW1 2948   5.105   2.737   0.763
  683SOL    HW2 2949   5.094   2.575   0.779
  684SOL     OW 2950   6.054   1.228   0.736
  684SOL    HW1 2951   6.055   1.191   0.829
  684SOL    HW2 2952   6.038   1.155   0.671
  685SOL     OW 2953   3.442   1.771   4.070
  685SOL    HW1 2954   3.467   1.770   4.166
  685SOL    HW2 2955   3.343   1.784   4.061
  686SOL     OW 2956   4.729   2.669   3.976
  686SOL    HW1 2957   4.730   2.727   4.058
  686SOL    HW2 2958   4.676   2.587   3.994
  687SOL     OW 2959   1.019   2.086   4.328
  687SOL    HW1 2960   0.986   2.077   4.234
  687SOL    HW2 2961   1.014   1.997   4.374
  688SOL     OW 2962   0.688   2.106   6.453
  688SOL    HW1 2963   0.634   2.185   6.483
  688SOL    HW2 2964   0.784   2.122   6.472
  689SOL     OW 2965   1.085   4.668   6.431
  689SOL    HW1 2966   1.103   4.606   6.508
  689SOL    HW2 2967   1.002   4.721   6.450
  690SOL     OW 2968   6.996   3.016   3.453
  690SOL    HW1 2969   6.995   3.110   3.487
  690SOL    HW2 2970   0.069   2.991   3.427
  691SOL     OW 2971   3.099   1.154   0.113
  691SOL    HW1 2972   3.172   1.165   0.181
  691SOL    HW2 2973   3.112   1.067   0.064
  692SOL     OW 2974   3.878   1.627   3.758
  692SOL    HW1 2975   3.866   1.680   3.842
  692SOL    HW2 2976   3.915   1.686   3.687
  693SOL     OW 2977   5.213   0.148   4.069
  693SOL    HW1 2978   5.229   0.118   3.975
  693SOL    HW2 2979   5.237   0.075   4.133
  694SOL     OW 2980   4.435   7.006   4.495
  694SOL    HW1 2981   4.522   0.033   4.479
  694SOL    HW2 2982   4.452   6.908   4.506
  695SOL     OW 2983   4.449   6.938   3.853
  695SOL    HW1 2984   4.471   6.942   3.951
  695SOL    HW2 2985   4.423   0.009   3.822
  696SOL     OW 2986   4.532   4.825   3.713
  696SOL    HW1 2987   4.545   4.731   3.745
  696SOL    HW2 2988   4.442   4.832   3.668
  697SOL     OW 2989   1.538   4.018   2.649
  697SOL    HW1 2990   1.593   3.957   2.707
  697SOL    HW2 2991   1.599   4.080   2.600
  698SOL     OW 2992   5.083   6.600   1.130
  698SOL    HW1 2993   5.141   6.674   1.095
  698SOL    HW2 2994   5.068   6.613   1.228
  699SOL     OW 2995   1.754   3.388   6.652
  699SOL    HW1 2996   1.811   3.469   6.656
  699SOL    HW2 2997   1.803   3.314   6.607
  700SOL     OW 2998   3.682   1.436   2.417
  700SOL    HW1 2999   3.779   1.458   2.400
  700SOL    HW2 3000   3.637   1.517   2.456
  701SOL     OW 3001   6.641   3.444   6.837
  701SOL    HW1 3002   6.558   3.400   6.870
  701SOL    HW2 3003   6.704   3.374   6.803
  702SOL     OW 3004   1.324   6.111   4.910
  702SOL    HW1 3005   1.252   6.168   4.871
  702SOL    HW2 3006   1.411   6.129   4.864
  703SOL     OW 3007   3.600   3.076   5.944
  703SOL    HW1 3008   3.585   3.123   6.030
  703SOL    HW2 3009   3.637   2.984   5.961
  704SOL     OW 3010   1.784   2.848   6.370
  704SOL    HW1 3011   1.758   2.911   6.443
  704SOL    HW2 3012   1.763   2.889   6.281
  705SOL     OW 3013   6.363   4.834   2.970
  705SOL    HW1 3014   6.271   4.855   3.004
  705SOL    HW2 3015   6.428   4.898   3.009
  706SOL     OW 3016   4.134   1.791   4.912
  706SOL    HW1 3017   4.088   1.851   4.977
  706SOL    HW2 3018   4.174   1.714   4.961
  707SOL     OW 3019   4.346   4.949   3.336
  707SOL    HW1 3020   4.280   5.022   3.317
  707SOL    HW2 3021   4.439   4.983   3.322
  708SOL     OW 3022   2.894   0.639   2.665
  708SOL    HW1 3023   2.837   0.720   2.671
  708SOL    HW2 3024   2.981   0.662   2.621
  709SOL     OW 3025   0.683   5.784   0.550
  709SOL    HW1 3026   0.679   5.817   0.645
  709SOL    HW2 3027   0.757   5.829   0.502
  710SOL     OW 3028   4.131   2.366   1.209
  710SOL    HW1 3029   4.186   2.422   1.271
  710SOL    HW2 3030   4.167   2.273   1.207
  711SOL     OW 3031   0.224   3.189   6.103
  711SOL    HW1 3032   0.164   3.203   6.182
  711SOL    HW2 3033   0.282   3.110   6.119
  712SOL     OW 3034   4.678   2.344   1.175
  712SOL    HW1 3035   4.718   2.309   1.090
  712SOL    HW2 3036   4.686   2.274   1.246
  713SOL     OW 3037   3.689   3.465   5.987
  713SOL    HW1 3038   3.652   3.444   6.078
  713SOL    HW2 3039   3.739   3.386   5.952
  714SOL     OW 3040   0.182   5.049   3.622
  714SOL    HW1 3041   0.201   5.133   3.673
  714SOL    HW2 3042   0.166   4.974   3.686
  715SOL     OW 3043   5.256   5.917   6.829
  715SOL    HW1 3044   5.253   5.820   6.807
  715SOL    HW2 3045   5.195   5.936   6.906
  716SOL     OW 3046   0.887   1.012   1.928
  716SOL    HW1 3047   0.943   1.086   1.892
  716SOL    HW2 3048   0.881   0.939   1.859
  717SOL     OW 3049   6.874   4.682   3.936
  717SOL    HW1 3050   6.904   4.587   3.938
  717SOL    HW2 3051   6.953   4.743   3.930
  718SOL     OW 3052   4.775   3.505   6.086
  718SOL    HW1 3053   4.798   3.590   6.134
  718SOL    HW2 3054   4.858   3.466   6.046
  719SOL     OW 3055   6.242   0.080   2.490
  719SOL    HW1 3056   6.142   0.076   2.488
  719SOL    HW2 3057   6.274   0.154   2.431
  720SOL     OW 3058   2.349   0.166   6.331
  720SOL    HW1 3059   2.310   0.205   6.247
  720SOL    HW2 3060   2.445   0.141   6.314
  721SOL     OW 3061   2.128   1.913   2.012
  721SOL    HW1 3062   2.216   1.867   2.026
  721SOL    HW2 3063   2.119   1.937   1.916
  722SOL     OW 3064   2.466   0.738   5.535
  722SOL    HW1 3065   2.561   0.712   5.520
  722SOL    HW2 3066   2.459   0.797   5.615
  723SOL     OW 3067   2.053   4.342   3.474
  723SOL    HW1 3068   2.039   4.347   3.573
  723SOL    HW2 3069   2.003   4.416   3.429
  724SOL     OW 3070   0.744   1.358   3.674
  724SOL    HW1 3071   0.760   1.263   3.700
  724SOL    HW2 3072   0.756   1.368   3.575
  725SOL     OW 3073   1.477   5.520   2.734
  725SOL    HW1 3074   1.419   5.563   2.803
  725SOL    HW2 3075   1.448   5.425   2.721
  726SOL     OW 3076   3.142   5.030   1.680
  726SOL    HW1 3077   3.164   5.079   1.764
  726SOL    HW2 3078   3.189   5.073   1.603
  727SOL     OW 3079   6.269   4.447   5.827
  727SOL    HW1 3080   6.306   4.538   5.806
  727SOL    HW2 3081   6.173   4.442   5.801
  728SOL     OW 3082   6.546   3.267   3.887
  728SOL    HW1 3083   6.472   3.205   3.861
  728SOL    HW2 3084   6.626   3.215   3.915
  729SOL     OW 3085   0.368   2.212   1.037
  729SOL    HW1 3086   0.309   2.155   1.094
  729SOL    HW2 3087   0.388   2.165   0.951
  730SOL     OW 3088   6.577   0.088   4.251
  730SOL    HW1 3089   6.578   0.152   4.174
  730SOL    HW2 3090   6.655   0.025   4.242
  731SOL     OW 3091   4.082   5.173   6.470
  731SOL    HW1 3092   4.159   5.158   6.408
  731SOL    HW2 3093   4.077   5.270   6.495
  732SOL     OW 3094   5.970   2.972   1.458
  732SOL    HW1 3095   5.912   2.944   1.381
  732SOL    HW2 3096   6.043   2.904   1.471
  733SOL     OW 3097   5.606   0.052   4.809
  733SOL    HW1 3098   5.703   0.065   4.829
  733SOL    HW2 3099   5.568   0.137   4.772
  734SOL     OW 3100   6.005   4.765   2.598
  734SOL    HW1 3101   5.988   4.859   2.628
  734SOL    HW2 3102   6.007   4.705   2.678
  735SOL     OW 3103   3.954   1.784   0.731
  735SOL    HW1 3104   4.026   1.719   0.707
  735SOL    HW2 3105   3.888   1.739   0.790
  736SOL     OW 3106   1.044   1.136   3.547
  736SOL    HW1 3107   1.046   1.235   3.530
  736SOL    HW2 3108   1.137   1.103   3.562
  737SOL     OW 3109   5.100   1.976   5.652
  737SOL    HW1 3110   5.171   1.998   5.719
  737SOL    HW2 3111   5.066   2.061   5.611
  738SOL     OW 3112   3.009   3.989   1.465
  738SOL    HW1 3113   2.965   4.005   1.376
  738SOL    HW2 3114   2.974   4.055   1.531
  739SOL     OW 3115   5.085   0.742   4.230
  739SOL    HW1 3116   5.000   0.791   4.247
  739SOL    HW2 3117   5.086   0.711   4.135
  740SOL     OW 3118   5.887   0.994   2.787
  740SOL    HW1 3119   5.817   0.930   2.755
  740SOL    HW2 3120   5.865   1.086   2.755
  741SOL     OW 3121   1.465   0.032   3.192
  741SOL    HW1 3122   1.488   6.985   3.122
  741SOL    HW2 3123   1.495   7.019   3.281
  742SOL     OW 3124   2.348   6.544   1.935
  742SOL    HW1 3125   2.434   6.560   1.885
  742SOL    HW2 3126   2.274   6.531   1.869
  743SOL     OW 3127   0.783   5.215   3.093
  743SOL    HW1 3128   0.850   5.146   3.118
  743SOL    HW2 3129   0.691   5.175   3.094
  744SOL     OW 3130   5.594   1.040   1.110
  744SOL    HW1 3131   5.619   0.960   1.165
  744SOL    HW2 3132   5.556   1.111   1.169
  745SOL     OW 3133   1.626   5.434   4.987
  745SOL    HW1 3134   1.633   5.494   5.066
  745SOL    HW2 3135   1.718   5.410   4.955
  746SOL     OW 3136   6.236   3.988   5.953
  746SOL    HW1 3137   6.203   4.075   5.988
  746SOL    HW2 3138   6.311   3.955   6.010
  747SOL     OW 3139   3.857   5.940   4.687
  747SOL    HW1 3140   3.933   5.878   4.669
  747SOL    HW2 3141   3.856   5.965   4.783
  748SOL     OW 3142   4.306   5.066   2.682
  748SOL    HW1 3143   4.347   5.020   2.761
  748SOL    HW2 3144   4.321   5.012   2.600
  749SOL     OW 3145   6.190   3.795   4.570
  749SOL    HW1 3146   6.132   3.722   4.532
  749SOL    HW2 3147   6.286   3.771   4.556
  750SOL     OW 3148   2.978   1.062   1.010
  750SOL    HW1 3149   3.001   0.971   1.046
  750SOL    HW2 3150   2.881   1.081   1.027
  751SOL     OW 3151   4.645   1.805   0.116
  751SOL    HW1 3152   4.600   1.763   0.195
  751SOL    HW2 3153   4.597   1.780   0.032
  752SOL     OW 3154   2.582   2.893   0.775
  752SOL    HW1 3155   2.577   2.795   0.752
  752SOL    HW2 3156   2.673   2.915   0.809
  753SOL     OW 3157   0.642   3.781   5.769
  753SOL    HW1 3158   0.665   3.725   5.689
  753SOL    HW2 3159   0.569   3.845   5.745
  754SOL     OW 3160   4.608   1.271   6.579
  754SOL    HW1 3161   4.700   1.273   6.617
  754SOL    HW2 3162   4.604   1.204   6.504
  755SOL     OW 3163   1.848   4.539   5.059
  755SOL    HW1 3164   1.927   4.489   5.094
  755SOL    HW2 3165   1.838   4.520   4.961
  756SOL     OW 3166   2.384   5.867   0.106
  756SOL    HW1 3167   2.287   5.885   0.125
  756SOL    HW2 3168   2.401   5.768   0.112
  757SOL     OW 3169   0.500   6.323   4.341
  757SOL    HW1 3170   0.520   6.420   4.329
  757SOL    HW2 3171   0.579   6.278   4.383
  758SOL     OW 3172   4.639   0.642   3.327
  758SOL    HW1 3173   4.680   0.645   3.236
  758SOL    HW2 3174   4.670   0.560   3.374
  759SOL     OW 3175   0.400   2.641   2.509
  759SOL    HW1 3176   0.492   2.678   2.499
  759SOL    HW2 3177   0.344   2.669   2.431
  760SOL     OW 3178   5.782   6.969   3.549
  760SOL    HW1 3179   5.855   0.018   3.545
  760SOL    HW2 3180   5.811   6.887   3.499
  761SOL     OW 3181   5.334   4.210   6.534
  761SOL    HW1 3182   5.391   4.128   6.527
  761SOL    HW2 3183   5.326   4.238   6.629
  762SOL     OW 3184   2.961   0.418   5.391
  762SOL    HW1 3185   3.052   0.397   5.353
  762SOL    HW2 3186   2.967   0.421   5.490
  763SOL     OW 3187   3.985   5.832   6.069
  763SOL    HW1 3188   3.918   5.906   6.062
  763SOL    HW2 3189   4.028   5.834   6.159
  764SOL     OW 3190   5.567   0.873   5.813
  764SOL    HW1 3191   5.652   0.826   5.834
  764SOL    HW2 3192   5.566   0.899   5.716
  765SOL     OW 3193   1.650   5.794   0.712
  765SOL    HW1 3194   1.611   5.886   0.710
  765SOL    HW2 3195   1.626   5.748   0.797
  766SOL     OW 3196   2.594   2.104   5.439
  766SOL    HW1 3197   2.561   2.171   5.506
  766SOL    HW2 3198   2.562   2.130   5.348
  767SOL     OW 3199   6.448   6.337   3.843
  767SOL    HW1 3200   6.415   6.246   3.816
  767SOL    HW2 3201   6.475   6.389   3.762
  768SOL     OW 3202   1.766   5.025   3.210
  768SOL    HW1 3203   1.693   4.982   3.262
  768SOL    HW2 3204   1.825   4.954   3.170
  769SOL     OW 3205   2.869   1.111   5.585
  769SOL    HW1 3206   2.815   1.153   5.658
  769SOL    HW2 3207   2.854   1.012   5.585
  770SOL     OW 3208   1.509   5.348   4.053
  770SOL    HW1 3209   1.561   5.310   4.130
  770SOL    HW2 3210   1.459   5.274   4.007
  771SOL     OW 3211   1.101   4.657   2.817
  771SOL    HW1 3212   1.120   4.742   2.766
  771SOL    HW2 3213   1.003   4.639   2.815
  772SOL     OW 3214   6.184   4.479   7.001
  772SOL    HW1 3215   6.259   4.536   6.968
  772SOL    HW2 3216   6.219   4.394   0.018
  773SOL     OW 3217   0.499   4.396   3.318
  773SOL    HW1 3218   0.523   4.408   3.222
  773SOL    HW2 3219   0.562   4.448   3.375
  774SOL     OW 3220   1.838   1.777   1.775
  774SOL    HW1 3221   1.845   1.752   1.872
  774SOL    HW2 3222   1.759   1.837   1.762
  775SOL     OW 3223   2.073   1.663   3.847
  775SOL    HW1 3224   2.100   1.734   3.781
  775SOL    HW2 3225   2.099   1.573   3.811
  776SOL     OW 3226   6.941   0.529   6.237
  776SOL    HW1 3227   6.918   0.453   6.176
  776SOL    HW2 3228   6.964   0.609   6.182
  777SOL     OW 3229   1.850   4.189   1.435
  777SOL    HW1 3230   1.801   4.187   1.348
  777SOL    HW2 3231   1.819   4.268   1.488
  778SOL     OW 3232   2.327   0.215   1.260
  778SOL    HW1 3233   2.262   0.194   1.333
  778SOL    HW2 3234   2.305   0.304   1.220
  779SOL     OW 3235   6.859   2.136   2.164
  779SOL    HW1 3236   6.924   2.060   2.162
  779SOL    HW2 3237   6.823   2.151   2.072
  780SOL     OW 3238   0.645   2.571   4.314
  780SOL    HW1 3239   0.733   2.531   4.342
  780SOL    HW2 3240   0.571   2.524   4.362
  781SOL     OW 3241   5.597   6.195   1.110
  781SOL    HW1 3242   5.520   6.145   1.149
  781SOL    HW2 3243   5.591   6.291   1.136
  782SOL     OW 3244   1.503   3.318   5.588
  782SOL    HW1 3245   1.540   3.373   5.513
  782SOL    HW2 3246   1.577   3.295   5.652
  783SOL     OW 3247   4.948   4.663   2.039
  783SOL    HW1 3248   4.872   4.615   1.995
  783SOL    HW2 3249   4.998   4.601   2.099
  784SOL     OW 3250   3.886   5.023   1.643
  784SOL    HW1 3251   3.900   5.017   1.742
  784SOL    HW2 3252   3.820   4.954   1.615
  785SOL     OW 3253   0.673   1.420   3.410
  785SOL    HW1 3254   0.657   1.388   3.316
  785SOL    HW2 3255   0.599   1.483   3.436
  786SOL     OW 3256   7.018   0.226   2.623
  786SOL    HW1 3257   0.014   0.309   2.677
  786SOL    HW2 3258   0.019   0.243   2.527
  787SOL     OW 3259   1.674   0.593   0.165
  787SOL    HW1 3260   1.586   0.546   0.159
  787SOL    HW2 3261   1.689   0.648   0.083
  788SOL     OW 3262   4.396   2.086   1.126
  788SOL    HW1 3263   4.389   1.989   1.103
  788SOL    HW2 3264   4.487   2.105   1.164
  789SOL     OW 3265   4.213   4.862   1.814
  789SOL    HW1 3266   4.268   4.801   1.872
  789SOL    HW2 3267   4.148   4.913   1.870
  790SOL     OW 3268   2.543   1.678   2.849
  790SOL    HW1 3269   2.494   1.591   2.855
  790SOL    HW2 3270   2.629   1.672   2.899
  791SOL     OW 3271   2.436   6.248   4.971
  791SOL    HW1 3272   2.434   6.169   4.910
  791SOL    HW2 3273   2.472   6.220   5.061
  792SOL     OW 3274   1.066   0.733   1.969
  792SOL    HW1 3275   0.987   0.684   2.006
  792SOL    HW2 3276   1.035   0.794   1.896
  793SOL     OW 3277   5.022   5.539   4.760
  793SOL    HW1 3278   5.082   5.501   4.688
  793SOL    HW2 3279   5.065   5.525   4.849
  794SOL     OW 3280   2.873   4.170   5.730
  794SOL    HW1 3281   2.832   4.174   5.638
  794SOL    HW2 3282   2.801   4.174   5.799
  795SOL     OW 3283   4.188   0.441   5.370
  795SOL    HW1 3284   4.232   0.530   5.356
  795SOL    HW2 3285   4.099   0.455   5.413
  796SOL     OW 3286   0.983   2.936   0.019
  796SOL    HW1 3287   1.066   2.884   7.017
  796SOL    HW2 3288   0.996   3.032   7.013
  797SOL     OW 3289   4.925   0.389   0.834
  797SOL    HW1 3290   4.981   0.399   0.917
  797SOL    HW2 3291   4.839   0.343   0.857
  798SOL     OW 3292   3.557   6.941   2.418
  798SOL    HW1 3293   3.574   6.868   2.352
  798SOL    HW2 3294   3.463   6.973   2.410
  799SOL     OW 3295   0.359   0.728   6.479
  799SOL    HW1 3296   0.265   0.724   6.513
  799SOL    HW2 3297   0.421   0.745   6.555
  800SOL     OW 3298   6.442   0.944   2.151
  800SOL    HW1 3299   6.450   1.025   2.209
  800SOL    HW2 3300   6.470   0.966   2.058
  801SOL     OW 3301   2.173   4.632   5.010
  801SOL    HW1 3302   2.126   4.560   5.060
  801SOL    HW2 3303   2.252   4.594   4.961
  802SOL     OW 3304   3.189   2.497   6.996
  802SOL    HW1 3305   3.192   2.453   6.906
  802SOL    HW2 3306   3.117   2.566   6.996
  803SOL     OW 3307   1.386   0.451   5.748
  803SOL    HW1 3308   1.306   0.509   5.761
  803SOL    HW2 3309   1.387   0.379   5.818
  804SOL     OW 3310   6.251   6.280   1.324
  804SOL    HW1 3311   6.208   6.297   1.236
  804SOL    HW2 3312   6.325   6.213   1.313
  805SOL     OW 3313   2.252   1.259   4.318
  805SOL    HW1 3314   2.331   1.216   4.361
  805SOL    HW2 3315   2.202   1.313   4.386
  806SOL     OW 3316   5.670   0.437   5.710
  806SOL    HW1 3317   5.577   0.471   5.701
  806SOL    HW2 3318   5.733   0.501   5.667
  807SOL     OW 3319   0.450   0.135   4.722
  807SOL    HW1 3320   0.496   0.187   4.794
  807SOL    HW2 3321   0.487   0.162   4.633
  808SOL     OW 3322   4.629   3.250   0.037
  808SOL    HW1 3323   4.707   3.192   0.059
  808SOL    HW2 3324   4.622   3.323   0.105
  809SOL     OW 3325   0.872   4.763   0.867
  809SOL    HW1 3326   0.821   4.702   0.808
  809SOL    HW2 3327   0.901   4.713   0.949
  810SOL     OW 3328   3.380   4.522   0.326
  810SOL    HW1 3329   3.473   4.558   0.315
  810SOL    HW2 3330   3.325   4.545   0.246
  811SOL     OW 3331   5.226   5.532   4.109
  811SOL    HW1 3332   5.257   5.555   4.017
  811SOL    HW2 3333   5.285   5.576   4.176
  812SOL     OW 3334   0.069   1.417   2.404
  812SOL    HW1 3335   0.146   1.375   2.357
  812SOL    HW2 3336   0.004   1.454   2.338
  813SOL     OW 3337   3.554   0.332   4.215
  813SOL    HW1 3338   3.627   0.274   4.251
  813SOL    HW2 3339   3.487   0.351   4.288
  814SOL     OW 3340   6.505   5.256   2.596
  814SOL    HW1 3341   6.593   5.228   2.632
  814SOL    HW2 3342   6.491   5.354   2.611
  815SOL     OW 3343   6.195   3.184   3.623
  815SOL    HW1 3344   6.107   3.137   3.629
  815SOL    HW2 3345   6.184   3.269   3.572
  816SOL     OW 3346   5.649   5.251   0.678
  816SOL    HW1 3347   5.600   5.334   0.707
  816SOL    HW2 3348   5.642   5.242   0.579
  817SOL     OW 3349   1.100   5.437   1.335
  817SOL    HW1 3350   1.164   5.382   1.281
  817SOL    HW2 3351   1.103   5.407   1.430
  818SOL     OW 3352   6.473   3.470   3.483
  818SOL    HW1 3353   6.531   3.473   3.402
  818SOL    HW2 3354   6.442   3.376   3.499
  819SOL     OW 3355   6.275   3.205   1.446
  819SOL    HW1 3356   6.374   3.197   1.450
  819SOL    HW2 3357   6.240   3.147   1.372
  820SOL     OW 3358   2.785   2.181   4.800
  820SOL    HW1 3359   2.771   2.199   4.898
  820SOL    HW2 3360   2.759   2.087   4.779
  821SOL     OW 3361   6.419   4.875   6.447
  821SOL    HW1 3362   6.371   4.793   6.478
  821SOL    HW2 3363   6.363   4.956   6.467
  822SOL     OW 3364   6.910   3.531   3.216
  822SOL    HW1 3365   6.895   3.433   3.229
  822SOL    HW2 3366   6.859   3.582   3.285
  823SOL     OW 3367   6.370   4.479   6.096
  823SOL    HW1 3368   6.293   4.534   6.127
  823SOL    HW2 3369   6.341   4.420   6.021
  824SOL     OW 3370   4.589   1.081   6.361
  824SOL    HW1 3371   4.518   1.054   6.295
  824SOL    HW2 3372   4.656   1.007   6.369
  825SOL     OW 3373   6.324   5.463   1.222
  825SOL    HW1 3374   6.388   5.463   1.299
  825SOL    HW2 3375   6.356   5.527   1.152
  826SOL     OW 3376   3.867   2.511   5.546
  826SOL    HW1 3377   3.918   2.562   5.476
  826SOL    HW2 3378   3.930   2.482   5.618
  827SOL     OW 3379   2.483   4.278   5.288
  827SOL    HW1 3380   2.531   4.197   5.321
  827SOL    HW2 3381   2.420   4.252   5.215
  828SOL     OW 3382   5.645   6.532   6.562
  828SOL    HW1 3383   5.674   6.625   6.584
  828SOL    HW2 3384   5.721   6.469   6.578
  829SOL     OW 3385   3.744   3.319   2.093
  829SOL    HW1 3386   3.658   3.338   2.141
  829SOL    HW2 3387   3.732   3.335   1.995
  830SOL     OW 3388   5.567   4.854   6.674
  830SOL    HW1 3389   5.516   4.844   6.760
  830SOL    HW2 3390   5.651   4.801   6.679
  831SOL     OW 3391   5.697   0.137   0.829
  831SOL    HW1 3392   5.605   0.100   0.845
  831SOL    HW2 3393   5.750   0.131   0.913
  832SOL     OW 3394   4.169   2.230   3.913
  832SOL    HW1 3395   4.208   2.138   3.910
  832SOL    HW2 3396   4.072   2.226   3.888
  833SOL     OW 3397   2.014   3.572   6.509
  833SOL    HW1 3398   2.042   3.668   6.504
  833SOL    HW2 3399   1.931   3.559   6.455
  834SOL     OW 3400   5.267   3.517   1.020
  834SOL    HW1 3401   5.233   3.591   0.962
  834SOL    HW2 3402   5.304   3.444   0.963
  835SOL     OW 3403   2.702   0.009   5.044
  835SOL    HW1 3404   2.713   0.077   5.117
  835SOL    HW2 3405   2.628   0.038   4.984
  836SOL     OW 3406   4.247   0.189   5.212
  836SOL    HW1 3407   4.308   0.138   5.273
  836SOL    HW2 3408   4.209   0.268   5.261
  837SOL     OW 3409   0.094   0.739   0.984
  837SOL    HW1 3410   0.007   0.700   1.014
  837SOL    HW2 3411   0.103   0.832   1.019
  838SOL     OW 3412   2.575   6.677   4.398
  838SOL    HW1 3413   2.498   6.679   4.334
  838SOL    HW2 3414   2.615   6.768   4.404
  839SOL     OW 3415   2.494   1.255   2.129
  839SOL    HW1 3416   2.480   1.206   2.043
  839SOL    HW2 3417   2.588   1.241   2.160
  840SOL     OW 3418   6.346   5.862   0.234
  840SOL    HW1 3419   6.310   5.859   0.327
  840SOL    HW2 3420   6.390   5.775   0.213
  841SOL     OW 3421   3.323   5.558   5.793
  841SOL    HW1 3422   3.420   5.546   5.769
  841SOL    HW2 3423   3.294   5.650   5.766
  842SOL     OW 3424   3.924   0.304   6.017
  842SOL    HW1 3425   3.891   0.397   6.004
  842SOL    HW2 3426   3.855   0.239   5.984
  843SOL     OW 3427   0.999   1.784   1.336
  843SOL    HW1 3428   1.049   1.714   1.285
  843SOL    HW2 3429   0.915   1.807   1.288
  844SOL     OW 3430   6.897   6.965   0.851
  844SOL    HW1 3431   6.967   0.016   0.860
  844SOL    HW2 3432   6.808   7.008   0.834
  845SOL     OW 3433   5.233   4.087   3.410
  845SOL    HW1 3434   5.142   4.075   3.370
  845SOL    HW2 3435   5.226   4.131   3.499
  846SOL     OW 3436   2.175   0.534   6.041
  846SOL    HW1 3437   2.235   0.594   5.986
  846SOL    HW2 3438   2.215   0.443   6.046
  847SOL     OW 3439   1.233   3.410   1.491
  847SOL    HW1 3440   1.180   3.367   1.564
  847SOL    HW2 3441   1.196   3.383   1.402
  848SOL     OW 3442   6.727   6.915   6.028
  848SOL    HW1 3443   6.640   6.938   5.985
  848SOL    HW2 3444   6.802   6.957   5.977
  849SOL     OW 3445   6.236   4.424   6.400
  849SOL    HW1 3446   6.223   4.509   6.350
  849SOL    HW2 3447   6.218   4.347   6.339
  850SOL     OW 3448   6.174   0.115   4.635
  850SOL    HW1 3449   6.221   0.099   4.722
  850SOL    HW2 3450   6.167   0.029   4.585
  851SOL     OW 3451   6.854   2.759   0.611
  851SOL    HW1 3452   6.945   2.721   0.627
  851SOL    HW2 3453   6.816   2.720   0.527
  852SOL     OW 3454   1.032   4.314   0.164
  852SOL    HW1 3455   1.107   4.318   0.231
  852SOL    HW2 3456   1.029   4.222   0.124
  853SOL     OW 3457   0.798   4.668   0.189
  853SOL    HW1 3458   0.743   4.736   0.141
  853SOL    HW2 3459   0.740   4.591   0.215
  854SOL     OW 3460   4.771   5.732   0.305
  854SOL    HW1 3461   4.750   5.810   0.246
  854SOL    HW2 3462   4.690   5.707   0.358
  855SOL     OW 3463   6.400   0.038   0.976
  855SOL    HW1 3464   6.487   0.085   0.967
  855SOL    HW2 3465   6.384   0.018   1.073
  856SOL     OW 3466   1.345   1.356   6.905
  856SOL    HW1 3467   1.391   1.441   6.879
  856SOL    HW2 3468   1.389   1.317   6.986
  857SOL     OW 3469   5.844   4.962   2.179
  857SOL    HW1 3470   5.912   4.987   2.111
  857SOL    HW2 3471   5.814   4.868   2.164
  858SOL     OW 3472   3.377   4.209   1.376
  858SOL    HW1 3473   3.382   4.110   1.359
  858SOL    HW2 3474   3.306   4.228   1.443
  859SOL     OW 3475   5.843   6.366   5.272
  859SOL    HW1 3476   5.863   6.277   5.230
  859SOL    HW2 3477   5.889   6.438   5.220
  860SOL     OW 3478   6.546   2.708   6.844
  860SOL    HW1 3479   6.594   2.718   6.757
  860SOL    HW2 3480   6.611   2.720   6.919
  861SOL     OW 3481   1.914   4.759   3.781
  861SOL    HW1 3482   1.820   4.787   3.803
  861SOL    HW2 3483   1.922   4.660   3.793
  862SOL     OW 3484   1.848   4.077   2.960
  862SOL    HW1 3485   1.865   4.150   2.893
  862SOL    HW2 3486   1.830   3.992   2.912
  863SOL     OW 3487   6.041   0.923   6.064
  863SOL    HW1 3488   5.998   1.013   6.070
  863SOL    HW2 3489   6.093   0.917   5.978
  864SOL     OW 3490   3.904   5.984   3.982
  864SOL    HW1 3491   3.833   6.048   4.013
  864SOL    HW2 3492   3.978   5.983   4.049
  865SOL     OW 3493   1.521   6.654   5.780
  865SOL    HW1 3494   1.552   6.743   5.749
  865SOL    HW2 3495   1.517   6.653   5.880
  866SOL     OW 3496   3.183   0.728   0.667
  866SOL    HW1 3497   3.234   0.652   0.628
  866SOL    HW2 3498   3.159   0.793   0.595
  867SOL     OW 3499   5.032   3.493   0.641
  867SOL    HW1 3500   5.063   3.459   0.552
  867SOL    HW2 3501   5.103   3.552   0.680
  868SOL     OW 3502   6.701   0.967   1.440
  868SOL    HW1 3503   6.607   0.997   1.428
  868SOL    HW2 3504   6.735   0.997   1.529
  869SOL     OW 3505   0.259   4.055   2.819
  869SOL    HW1 3506   0.226   3.962   2.835
  869SOL    HW2 3507   0.275   4.069   2.722
  870SOL     OW 3508   4.164   3.706   0.582
  870SOL    HW1 3509   4.189   3.614   0.612
  870SOL    HW2 3510   4.246   3.755   0.551
  871SOL     OW 3511   4.915   2.174   3.581
  871SOL    HW1 3512   4.979   2.228   3.527
  871SOL    HW2 3513   4.886   2.227   3.661
  872SOL     OW 3514   5.593   2.927   3.685
  872SOL    HW1 3515   5.627   3.022   3.691
  872SOL    HW2 3516   5.575   2.905   3.589
  873SOL     OW 3517   5.183   5.392   5.031
  873SOL    HW1 3518   5.170   5.304   4.985
  873SOL    HW2 3519   5.135   5.391   5.119
  874SOL     OW 3520   6.152   3.690   6.358
  874SOL    HW1 3521   6.171   3.592   6.352
  874SOL    HW2 3522   6.226   3.735   6.408
  875SOL     OW 3523   4.856   5.414   1.253
  875SOL    HW1 3524   4.851   5.409   1.353
  875SOL    HW2 3525   4.944   5.377   1.222
  876SOL     OW 3526   0.412   5.093   2.158
  876SOL    HW1 3527   0.415   5.153   2.078
  876SOL    HW2 3528   0.499   5.045   2.168
  877SOL     OW 3529   3.566   4.727   5.997
  877SOL    HW1 3530   3.645   4.745   5.940
  877SOL    HW2 3531   3.591   4.664   6.071
  878SOL     OW 3532   4.746   6.690   4.419
  878SOL    HW1 3533   4.704   6.686   4.329
  878SOL    HW2 3534   4.806   6.770   4.425
  879SOL     OW 3535   4.243   1.079   1.592
  879SOL    HW1 3536   4.160   1.134   1.593
  879SOL    HW2 3537   4.323   1.140   1.598
  880SOL     OW 3538   3.258   3.729   3.947
  880SOL    HW1 3539   3.308   3.686   4.022
  880SOL    HW2 3540   3.320   3.786   3.893
  881SOL     OW 3541   4.973   3.930   5.799
  881SOL    HW1 3542   5.003   4.009   5.853
  881SOL    HW2 3543   5.034   3.853   5.816
  882SOL     OW 3544   1.299   2.235   3.711
  882SOL    HW1 3545   1.209   2.262   3.675
  882SOL    HW2 3546   1.306   2.263   3.806
  883SOL     OW 3547   3.312   0.322   0.831
  883SOL    HW1 3548   3.215   0.331   0.809
  883SOL    HW2 3549   3.338   0.395   0.894
  884SOL     OW 3550   6.791   4.140   6.871
  884SOL    HW1 3551   6.874   4.195   6.868
  884SOL    HW2 3552   6.792   4.072   6.798
  885SOL     OW 3553   4.389   0.673   4.754
  885SOL    HW1 3554   4.312   0.737   4.758
  885SOL    HW2 3555   4.375   0.600   4.821
  886SOL     OW 3556   3.511   0.130   0.465
  886SOL    HW1 3557   3.541   0.104   0.373
  886SOL    HW2 3558   3.422   0.176   0.458
  887SOL     OW 3559   3.687   6.532   3.508
  887SOL    HW1 3560   3.780   6.530   3.472
  887SOL    HW2 3561   3.672   6.616   3.559
  888SOL     OW 3562   0.647   6.065   3.273
  888SOL    HW1 3563   0.703   6.145   3.294
  888SOL    HW2 3564   0.581   6.050   3.346
  889SOL     OW 3565   0.300   1.523   6.664
  889SOL    HW1 3566   0.329   1.474   6.746
  889SOL    HW2 3567   0.269   1.615   6.688
  890SOL     OW 3568   2.216   4.880   2.957
  890SOL    HW1 3569   2.132   4.926   2.987
  890SOL    HW2 3570   2.232   4.799   3.013
  891SOL     OW 3571   6.852   3.811   0.927
  891SOL    HW1 3572   6.844   3.730   0.985
  891SOL    HW2 3573   6.775   3.873   0.943
  892SOL     OW 3574   3.192   3.699   4.834
  892SOL    HW1 3575   3.164   3.676   4.741
  892SOL    HW2 3576   3.134   3.651   4.900
  893SOL     OW 3577   1.927   6.849   4.162
  893SOL    HW1 3578   1.835   6.818   4.141
  893SOL    HW2 3579   1.946   6.834   4.259
  894SOL     OW 3580   1.124   2.932   2.567
  894SOL    HW1 3581   1.184   2.886   2.502
  894SOL    HW2 3582   1.152   2.908   2.660
  895SOL     OW 3583   1.071   5.136   4.118
  895SOL    HW1 3584   0.991   5.110   4.173
  895SOL    HW2 3585   1.044   5.207   4.053
  896SOL     OW 3586   5.448   4.977   1.665
  896SOL    HW1 3587   5.517   4.978   1.738
  896SOL    HW2 3588   5.494   4.978   1.577
  897SOL     OW 3589   3.759   0.963   6.615
  897SOL    HW1 3590   3.764   1.009   6.703
  897SOL    HW2 3591   3.843   0.910   6.600
  898SOL     OW 3592   4.051   6.469   2.962
  898SOL    HW1 3593   3.952   6.459   2.962
  898SOL    HW2 3594   4.075   6.563   2.934
  899SOL     OW 3595   0.487   6.535   0.259
  899SOL    HW1 3596   0.487   6.467   0.186
  899SOL    HW2 3597   0.532   6.497   0.340
  900SOL     OW 3598   5.413   6.949   6.880
  900SOL    HW1 3599   5.510   6.969   6.894
  900SOL    HW2 3600   5.369   0.006   6.833
  901SOL     OW 3601   1.549   0.689   3.802
  901SOL    HW1 3602   1.552   0.723   3.896
  901SOL    HW2 3603   1.468   0.725   3.756
  902SOL     OW 3604   1.093   2.896   1.227
  902SOL    HW1 3605   1.137   2.868   1.141
  902SOL    HW2 3606   1.158   2.951   1.281
  903SOL     OW 3607   1.009   3.267   6.695
  903SOL    HW1 3608   0.992   3.250   6.792
  903SOL    HW2 3609   0.962   3.350   6.667
  904SOL     OW 3610   1.608   2.173   2.480
  904SOL    HW1 3611   1.637   2.250   2.535
  904SOL    HW2 3612   1.677   2.101   2.484
  905SOL     OW 3613   5.233   3.839   6.558
  905SOL    HW1 3614   5.252   3.790   6.472
  905SOL    HW2 3615   5.252   3.779   6.635
  906SOL     OW 3616   0.479   1.860   6.337
  906SOL    HW1 3617   0.452   1.804   6.259
  906SOL    HW2 3618   0.545   1.929   6.308
  907SOL     OW 3619   5.204   2.900   0.805
  907SOL    HW1 3620   5.179   2.967   0.875
  907SOL    HW2 3621   5.147   2.914   0.724
  908SOL     OW 3622   2.396   4.314   3.232
  908SOL    HW1 3623   2.348   4.256   3.166
  908SOL    HW2 3624   2.413   4.404   3.191
  909SOL     OW 3625   3.879   6.811   1.816
  909SOL    HW1 3626   3.881   6.732   1.756
  909SOL    HW2 3627   3.971   6.851   1.822
  910SOL     OW 3628   3.327   1.930   1.339
  910SOL    HW1 3629   3.300   1.836   1.316
  910SOL    HW2 3630   3.288   1.955   1.427
  911SOL     OW 3631   1.265   6.426   6.979
  911SOL    HW1 3632   1.311   6.513   6.996
  911SOL    HW2 3633   1.168   6.434   7.002
  912SOL     OW 3634   6.103   1.109   3.014
  912SOL    HW1 3635   6.084   1.077   2.921
  912SOL    HW2 3636   6.039   1.181   3.038
  913SOL     OW 3637   3.240   0.678   4.113
  913SOL    HW1 3638   3.153   0.706   4.072
  913SOL    HW2 3639   3.223   0.613   4.187
  914SOL     OW 3640   1.837   6.766   5.703
  914SOL    HW1 3641   1.899   6.768   5.625
  914SOL    HW2 3642   1.869   6.831   5.772
  915SOL     OW 3643   6.842   3.258   0.202
  915SOL    HW1 3644   6.783   3.328   0.161
  915SOL    HW2 3645   6.829   3.257   0.301
  916SOL     OW 3646   1.798   3.046   2.651
  916SOL    HW1 3647   1.863   3.109   2.692
  916SOL    HW2 3648   1.836   3.010   2.565
  917SOL     OW 3649   0.874   0.015   2.105
  917SOL    HW1 3650   0.953   0.076   2.102
  917SOL    HW2 3651   0.790   0.069   2.106
  918SOL     OW 3652   3.658   0.071   0.712
  918SOL    HW1 3653   3.605   0.077   0.627
  918SOL    HW2 3654   3.751   0.042   0.691
  919SOL     OW 3655   6.686   6.823   2.726
  919SOL    HW1 3656   6.765   6.816   2.788
  919SOL    HW2 3657   6.632   6.904   2.750
  920SOL     OW 3658   2.466   4.494   2.522
  920SOL    HW1 3659   2.542   4.487   2.586
  920SOL    HW2 3660   2.501   4.514   2.430
  921SOL     OW 3661   4.069   5.674   4.219
  921SOL    HW1 3662   4.002   5.642   4.152
  921SOL    HW2 3663   4.027   5.672   4.310
  922SOL     OW 3664   3.034   3.814   4.021
  922SOL    HW1 3665   3.067   3.864   4.101
  922SOL    HW2 3666   3.109   3.759   3.983
  923SOL     OW 3667   2.352   3.656   6.339
  923SOL    HW1 3668   2.311   3.647   6.249
  923SOL    HW2 3669   2.446   3.621   6.337
  924SOL     OW 3670   6.346   3.414   2.125
  924SOL    HW1 3671   6.409   3.348   2.166
  924SOL    HW2 3672   6.325   3.485   2.191
  925SOL     OW 3673   0.150   2.360   6.785
  925SOL    HW1 3674   0.154   2.456   6.759
  925SOL    HW2 3675   0.133   2.352   6.883
  926SOL     OW 3676   6.594   0.721   1.343
  926SOL    HW1 3677   6.494   0.718   1.354
  926SOL    HW2 3678   6.627   0.811   1.370
  927SOL     OW 3679   5.554   4.261   3.115
  927SOL    HW1 3680   5.524   4.180   3.165
  927SOL    HW2 3681   5.631   4.303   3.163
  928SOL     OW 3682   1.461   6.054   0.305
  928SOL    HW1 3683   1.538   5.995   0.284
  928SOL    HW2 3684   1.437   6.045   0.402
  929SOL     OW 3685   0.505   0.906   6.744
  929SOL    HW1 3686   0.421   0.852   6.746
  929SOL    HW2 3687   0.494   0.986   6.804
  930SOL     OW 3688   5.249   6.368   6.103
  930SOL    HW1 3689   5.278   6.457   6.137
  930SOL    HW2 3690   5.327   6.319   6.065
  931SOL     OW 3691   6.530   1.326   4.848
  931SOL    HW1 3692   6.530   1.274   4.933
  931SOL    HW2 3693   6.544   1.423   4.869
  932SOL     OW 3694   3.340   0.640   3.272
  932SOL    HW1 3695   3.431   0.666   3.305
  932SOL    HW2 3696   3.298   0.576   3.336
  933SOL     OW 3697   1.638   5.885   3.581
  933SOL    HW1 3698   1.572   5.823   3.538
  933SOL    HW2 3699   1.610   5.904   3.675
  934SOL     OW 3700   2.458   6.155   6.849
  934SOL    HW1 3701   2.394   6.194   6.782
  934SOL    HW2 3702   2.474   6.059   6.827
  935SOL     OW 3703   5.061   3.831   4.304
  935SOL    HW1 3704   4.988   3.766   4.323
  935SOL    HW2 3705   5.093   3.873   4.389
  936SOL     OW 3706   6.879   0.538   5.972
  936SOL    HW1 3707   6.781   0.530   5.955
  936SOL    HW2 3708   6.930   0.492   5.899
  937SOL     OW 3709   5.247   1.941   6.028
  937SOL    HW1 3710   5.292   1.988   5.952
  937SOL    HW2 3711   5.298   1.859   6.052
  938SOL     OW 3712   5.909   4.434   6.675
  938SOL    HW1 3713   5.931   4.420   6.579
  938SOL    HW2 3714   5.989   4.415   6.731
  939SOL     OW 3715   0.229   0.116   4.247
  939SOL    HW1 3716   0.322   0.121   4.282
  939SOL    HW2 3717   0.172   0.063   4.310
  940SOL     OW 3718   0.415   4.276   1.626
  940SOL    HW1 3719   0.420   4.187   1.671
  940SOL    HW2 3720   0.443   4.347   1.691
  941SOL     OW 3721   6.078   2.125   6.714
  941SOL    HW1 3722   6.139   2.201   6.736
  941SOL    HW2 3723   6.003   2.123   6.780
  942SOL     OW 3724   6.285   6.698   2.963
  942SOL    HW1 3725   6.198   6.678   3.009
  942SOL    HW2 3726   6.295   6.798   2.955
  943SOL     OW 3727   1.509   3.955   2.966
  943SOL    HW1 3728   1.453   4.010   2.905
  943SOL    HW2 3729   1.557   4.014   3.031
  944SOL     OW 3730   0.174   5.155   6.022
  944SOL    HW1 3731   0.120   5.080   5.982
  944SOL    HW2 3732   0.220   5.123   6.105
  945SOL     OW 3733   0.217   3.921   6.212
  945SOL    HW1 3734   0.195   3.912   6.115
  945SOL    HW2 3735   0.316   3.930   6.223
  946SOL     OW 3736   5.210   4.167   5.159
  946SOL    HW1 3737   5.251   4.159   5.068
  946SOL    HW2 3738   5.266   4.228   5.215
  947SOL     OW 3739   3.823   3.399   3.423
  947SOL    HW1 3740   3.914   3.358   3.421
  947SOL    HW2 3741   3.830   3.498   3.410
  948SOL     OW 3742   5.219   1.093   2.786
  948SOL    HW1 3743   5.176   1.043   2.861
  948SOL    HW2 3744   5.158   1.094   2.707
  949SOL     OW 3745   1.885   5.961   0.930
  949SOL    HW1 3746   1.797   5.986   0.890
  949SOL    HW2 3747   1.958   6.012   0.885
  950SOL     OW 3748   5.498   5.557   2.172
  950SOL    HW1 3749   5.596   5.541   2.183
  950SOL    HW2 3750   5.447   5.495   2.232
  951SOL     OW 3751   1.351   0.323   4.225
  951SOL    HW1 3752   1.384   0.341   4.133
  951SOL    HW2 3753   1.408   0.252   4.268
  952SOL     OW 3754   4.334   2.424   3.548
  952SOL    HW1 3755   4.339   2.402   3.646
  952SOL    HW2 3756   4.421   2.464   3.519
  953SOL     OW 3757   5.687   5.958   4.634
  953SOL    HW1 3758   5.619   5.890   4.609
  953SOL    HW2 3759   5.655   6.049   4.608
  954SOL     OW 3760   3.790   5.966   2.122
  954SOL    HW1 3761   3.795   6.058   2.162
  954SOL    HW2 3762   3.777   5.973   2.023
  955SOL     OW 3763   0.609   3.708   0.962
  955SOL    HW1 3764   0.660   3.626   0.936
  955SOL    HW2 3765   0.634   3.783   0.902
  956SOL     OW 3766   6.218   0.320   1.434
  956SOL    HW1 3767   6.232   0.418   1.451
  956SOL    HW2 3768   6.302   0.271   1.453
  957SOL     OW 3769   5.626   2.968   2.909
  957SOL    HW1 3770   5.565   2.909   2.855
  957SOL    HW2 3771   5.657   2.918   2.990
  958SOL     OW 3772   4.761   1.065   1.302
  958SOL    HW1 3773   4.742   0.980   1.350
  958SOL    HW2 3774   4.736   1.143   1.360
  959SOL     OW 3775   3.297   6.673   4.385
  959SOL    HW1 3776   3.301   6.621   4.300
  959SOL    HW2 3777   3.306   6.771   4.366
  960SOL     OW 3778   0.737   0.436   2.424
  960SOL    HW1 3779   0.776   0.346   2.441
  960SOL    HW2 3780   0.678   0.432   2.343
  961SOL     OW 3781   4.409   6.726   3.275
  961SOL    HW1 3782   4.485   6.790   3.286
  961SOL    HW2 3783   4.412   6.657   3.347
  962SOL     OW 3784   6.782   1.002   4.856
  962SOL    HW1 3785   6.762   1.079   4.916
  962SOL    HW2 3786   6.715   1.001   4.781
  963SOL     OW 3787   5.383   1.336   6.344
  963SOL    HW1 3788   5.406   1.303   6.435
  963SOL    HW2 3789   5.291   1.306   6.320
  964SOL     OW 3790   5.159   4.930   0.228
  964SOL    HW1 3791   5.122   4.848   0.183
  964SOL    HW2 3792   5.175   4.910   0.325
  965SOL     OW 3793   5.631   1.591   2.156
  965SOL    HW1 3794   5.660   1.617   2.248
  965SOL    HW2 3795   5.617   1.674   2.101
  966SOL     OW 3796   5.637   2.877   2.500
  966SOL    HW1 3797   5.643   2.940   2.422
  966SOL    HW2 3798   5.712   2.895   2.563
  967SOL     OW 3799   2.965   4.403   1.392
  967SOL    HW1 3800   3.017   4.401   1.477
  967SOL    HW2 3801   3.000   4.333   1.329
  968SOL     OW 3802   4.462   0.796   1.601
  968SOL    HW1 3803   4.366   0.823   1.603
  968SOL    HW2 3804   4.507   0.827   1.685
  969SOL     OW 3805   2.706   4.543   5.592
  969SOL    HW1 3806   2.621   4.514   5.636
  969SOL    HW2 3807   2.719   4.490   5.508
  970SOL     OW 3808   5.548   1.034   6.514
  970SOL    HW1 3809   5.473   1.007   6.575
  970SOL    HW2 3810   5.592   0.952   6.478
  971SOL     OW 3811   0.139   2.866   2.499
  971SOL    HW1 3812   0.170   2.775   2.471
  971SOL    HW2 3813   0.078   2.857   2.578
  972SOL     OW 3814   6.129   1.824   1.788
  972SOL    HW1 3815   6.088   1.893   1.728
  972SOL    HW2 3816   6.065   1.748   1.800
  973SOL     OW 3817   0.912   5.775   6.557
  973SOL    HW1 3818   0.942   5.830   6.480
  973SOL    HW2 3819   0.896   5.681   6.526
  974SOL     OW 3820   5.971   5.720   2.392
  974SOL    HW1 3821   5.977   5.655   2.316
  974SOL    HW2 3822   5.884   5.769   2.388
  975SOL     OW 3823   2.079   0.308   0.518
  975SOL    HW1 3824   2.106   0.400   0.548
  975SOL    HW2 3825   2.161   0.252   0.505
  976SOL     OW 3826   0.279   3.647   1.498
  976SOL    HW1 3827   0.235   3.613   1.581
  976SOL    HW2 3828   0.211   3.694   1.441
  977SOL     OW 3829   0.224   0.496   2.118
  977SOL    HW1 3830   0.290   0.546   2.062
  977SOL    HW2 3831   0.235   0.397   2.102
  978SOL     OW 3832   5.590   2.369   6.473
  978SOL    HW1 3833   5.606   2.459   6.514
  978SOL    HW2 3834   5.511   2.326   6.517
  979SOL     OW 3835   0.526   2.979   6.969
  979SOL    HW1 3836   0.596   3.014   6.907
  979SOL    HW2 3837   0.522   2.879   6.961
  980SOL     OW 3838   5.148   1.928   4.041
  980SOL    HW1 3839   5.174   2.010   4.091
  980SOL    HW2 3840   5.078   1.950   3.973
  981SOL     OW 3841   6.688   1.691   4.660
  981SOL    HW1 3842   6.746   1.611   4.676
  981SOL    HW2 3843   6.594   1.662   4.642
  982SOL     OW 3844   0.828   1.178   4.935
  982SOL    HW1 3845   0.850   1.270   4.905
  982SOL    HW2 3846   0.768   1.134   4.868
  983SOL     OW 3847   6.614   2.568   3.359
  983SOL    HW1 3848   6.573   2.603   3.444
  983SOL    HW2 3849   6.713   2.566   3.368
  984SOL     OW 3850   2.602   2.485   4.355
  984SOL    HW1 3851   2.522   2.428   4.341
  984SOL    HW2 3852   2.575   2.572   4.396
  985SOL     OW 3853   6.564   3.367   4.995
  985SOL    HW1 3854   6.596   3.460   5.011
  985SOL    HW2 3855   6.627   3.302   5.039
  986SOL     OW 3856   4.552   4.938   1.086
  986SOL    HW1 3857   4.476   4.930   1.151
  986SOL    HW2 3858   4.637   4.952   1.137
  987SOL     OW 3859   4.812   6.581   2.569
  987SOL    HW1 3860   4.717   6.554   2.556
  987SOL    HW2 3861   4.872   6.510   2.531
  988SOL     OW 3862   3.235   4.687   1.183
  988SOL    HW1 3863   3.272   4.594   1.191
  988SOL    HW2 3864   3.136   4.683   1.172
  989SOL     OW 3865   6.742   2.296   6.423
  989SOL    HW1 3866   6.661   2.315   6.366
  989SOL    HW2 3867   6.717   2.305   6.520
  990SOL     OW 3868   3.540   1.136   1.958
  990SOL    HW1 3869   3.551   1.042   1.926
  990SOL    HW2 3870   3.616   1.159   2.019
  991SOL     OW 3871   0.744   3.432   3.957
  991SOL    HW1 3872   0.819   3.493   3.932
  991SOL    HW2 3873   0.716   3.380   3.876
  992SOL     OW 3874   0.550   3.266   2.072
  992SOL    HW1 3875   0.559   3.225   2.163
  992SOL    HW2 3876   0.539   3.365   2.081
  993SOL     OW 3877   7.019   4.404   0.730
  993SOL    HW1 3878   0.058   4.454   0.794
  993SOL    HW2 3879   7.002   4.462   0.650
  994SOL     OW 3880   3.976   5.006   1.914
  994SOL    HW1 3881   3.999   5.087   1.968
  994SOL    HW2 3882   3.906   4.953   1.962
  995SOL     OW 3883   3.896   3.162   5.623
  995SOL    HW1 3884   3.805   3.170   5.583
  995SOL    HW2 3885   3.959   3.224   5.576
  996SOL     OW 3886   3.566   5.153   5.044
  996SOL    HW1 3887   3.470   5.129   5.060
  996SOL    HW2 3888   3.605   5.092   4.975
  997SOL     OW 3889   0.989   6.917   2.850
  997SOL    HW1 3890   0.971   6.931   2.947
  997SOL    HW2 3891   1.015   6.821   2.835
  998SOL     OW 3892   5.656   0.496   6.013
  998SOL    HW1 3893   5.564   0.500   5.973
  998SOL    HW2 3894   5.720   0.460   5.946
  999SOL     OW 3895   5.356   3.943   2.116
  999SOL    HW1 3896   5.257   3.929   2.121
  999SOL    HW2 3897   5.402   3.856   2.096
 1000SOL     OW 3898   4.166   1.917   1.704
 1000SOL    HW1 3899   4.142   1.957   1.792
 1000SOL    HW2 3900   4.098   1.943   1.636
 1001SOL     OW 3901   4.505   5.997   1.537
 1001SOL    HW1 3902   4.467   6.085   1.567
 1001SOL    HW2 3903   4.442   5.953   1.473
 1002SOL     OW 3904   5.943   2.142   0.790
 1002SOL    HW1 3905   6.030   2.108   0.755
 1002SOL    HW2 3906   5.956   2.234   0.827
 1003SOL     OW 3907   1.965   5.544   3.155
 1003SOL    HW1 3908   1.975   5.644   3.151
 1003SOL    HW2 3909   1.879   5.521   3.200
 1004SOL     OW 3910   0.978   1.007   2.198
 1004SOL    HW1 3911   0.898   1.065   2.192
 1004SOL    HW2 3912   0.999   0.968   2.109
 1005SOL     OW 3913   2.141   2.481   4.389
 1005SOL    HW1 3914   2.103   2.389   4.401
 1005SOL    HW2 3915   2.090   2.529   4.318
 1006SOL     OW 3916   1.361   4.206   0.557
 1006SOL    HW1 3917   1.277   4.248   0.523
 1006SOL    HW2 3918   1.368   4.113   0.521
 1007SOL     OW 3919   4.553   1.030   5.398
 1007SOL    HW1 3920   4.536   1.108   5.338
 1007SOL    HW2 3921   4.516   1.049   5.489
 1008SOL     OW 3922   0.517   2.123   5.867
 1008SOL    HW1 3923   0.608   2.143   5.831
 1008SOL    HW2 3924   0.447   2.158   5.804
 1009SOL     OW 3925   0.223   5.523   5.896
 1009SOL    HW1 3926   0.257   5.527   5.802
 1009SOL    HW2 3927   0.229   5.613   5.938
 1010SOL     OW 3928   2.596   2.105   0.967
 1010SOL    HW1 3929   2.689   2.077   0.942
 1010SOL    HW2 3930   2.594   2.131   1.063
 1011SOL     OW 3931   1.240   5.446   3.444
 1011SOL    HW1 3932   1.262   5.380   3.515
 1011SOL    HW2 3933   1.173   5.407   3.381
 1012SOL     OW 3934   0.407   7.018   2.340
 1012SOL    HW1 3935   0.471   0.064   2.300
 1012SOL    HW2 3936   0.458   6.939   2.374
 1013SOL     OW 3937   0.704   0.945   6.334
 1013SOL    HW1 3938   0.785   0.937   6.393
 1013SOL    HW2 3939   0.626   0.977   6.388
 1014SOL     OW 3940   0.593   3.795   5.296
 1014SOL    HW1 3941   0.547   3.836   5.375
 1014SOL    HW2 3942   0.634   3.708   5.324
 1015SOL     OW 3943   2.272   6.910   5.904
 1015SOL    HW1 3944   2.198   6.916   5.837
 1015SOL    HW2 3945   2.348   6.859   5.864
 1016SOL     OW 3946   4.137   3.604   0.317
 1016SOL    HW1 3947   4.156   3.661   0.237
 1016SOL    HW2 3948   4.163   3.653   0.400
 1017SOL     OW 3949   4.151   2.093   1.260
 1017SOL    HW1 3950   4.084   2.051   1.198
 1017SOL    HW2 3951   4.236   2.108   1.210
 1018SOL     OW 3952   0.905   4.243   4.228
 1018SOL    HW1 3953   0.918   4.151   4.267
 1018SOL    HW2 3954   0.918   4.312   4.299
 1019SOL     OW 3955   0.226   5.868   1.170
 1019SOL    HW1 3956   0.290   5.792   1.185
 1019SOL    HW2 3957   0.164   5.876   1.248
 1020SOL     OW 3958   6.217   1.147   1.507
 1020SOL    HW1 3959   6.201   1.144   1.606
 1020SOL    HW2 3960   6.133   1.120   1.460
 1021SOL     OW 3961   5.689   6.838   1.807
 1021SOL    HW1 3962   5.601   6.869   1.842
 1021SOL    HW2 3963   5.681   6.822   1.708
 1022SOL     OW 3964   2.908   4.789   5.252
 1022SOL    HW1 3965   2.902   4.709   5.193
 1022SOL    HW2 3966   2.847   4.778   5.331
 1023SOL     OW 3967   0.294   0.834   2.584
 1023SOL    HW1 3968   0.258   0.835   2.491
 1023SOL    HW2 3969   0.242   0.897   2.641
 1024SOL     OW 3970   0.125   2.043   3.883
 1024SOL    HW1 3971   0.174   2.129   3.896
 1024SOL    HW2 3972   0.187   1.975   3.844
 1025SOL     OW 3973   3.611   3.242   1.145
 1025SOL    HW1 3974   3.647   3.151   1.167
 1025SOL    HW2 3975   3.623   3.302   1.224
 1026SOL     OW 3976   2.704   3.116   1.319
 1026SOL    HW1 3977   2.711   3.215   1.309
 1026SOL    HW2 3978   2.613   3.092   1.350
 1027SOL     OW 3979   3.079   0.246   2.155
 1027SOL    HW1 3980   3.036   0.182   2.217
 1027SOL    HW2 3981   3.086   0.336   2.199
 1028SOL     OW 3982   1.562   6.656   2.730
 1028SOL    HW1 3983   1.635   6.599   2.768
 1028SOL    HW2 3984   1.491   6.671   2.799
 1029SOL     OW 3985   1.425   1.630   6.106
 1029SOL    HW1 3986   1.492   1.563   6.072
 1029SOL    HW2 3987   1.353   1.583   6.156
 1030SOL     OW 3988   3.344   3.112   1.915
 1030SOL    HW1 3989   3.376   3.131   2.008
 1030SOL    HW2 3990   3.305   3.195   1.875
 1031SOL     OW 3991   4.839   3.499   1.693
 1031SOL    HW1 3992   4.811   3.512   1.598
 1031SOL    HW2 3993   4.805   3.411   1.726
 1032SOL     OW 3994   0.479   1.283   4.905
 1032SOL    HW1 3995   0.541   1.212   4.870
 1032SOL    HW2 3996   0.514   1.317   4.993
 1033SOL     OW 3997   1.512   5.710   0.937
 1033SOL    HW1 3998   1.492   5.785   1.001
 1033SOL    HW2 3999   1.580   5.649   0.977
 1034SOL     OW 4000   1.868   5.407   4.440
 1034SOL    HW1 4001   1.902   5.420   4.533
 1034SOL    HW2 4002   1.882   5.491   4.388
 1035SOL     OW 4003   0.019   1.722   6.327
 1035SOL    HW1 4004   0.078   1.799   6.303
 1035SOL    HW2 4005   7.016   1.671   6.244
 1036SOL     OW 4006   3.960   1.132   1.916
 1036SOL    HW1 4007   3.993   1.121   2.010
 1036SOL    HW2 4008   3.959   1.044   1.870
 1037SOL     OW 4009   1.496   1.598   2.557
 1037SOL    HW1 4010   1.486   1.660   2.635
 1037SOL    HW2 4011   1.566   1.529   2.577
 1038SOL     OW 4012   1.902   1.312   5.399
 1038SOL    HW1 4013   1.839   1.240   5.371
 1038SOL    HW2 4014   1.978   1.272   5.450
 1039SOL     OW 4015   3.850   3.575   4.234
 1039SOL    HW1 4016   3.900   3.489   4.245
 1039SOL    HW2 4017   3.756   3.563   4.269
 1040SOL     OW 4018   4.580   0.980   2.166
 1040SOL    HW1 4019   4.586   1.057   2.229
 1040SOL    HW2 4020   4.543   0.901   2.214
 1041SOL     OW 4021   0.084   6.416   2.884
 1041SOL    HW1 4022   0.183   6.404   2.871
 1041SOL    HW2 4023   0.068   6.479   2.959
 1042SOL     OW 4024   4.024   5.081   2.766
 1042SOL    HW1 4025   4.121   5.069   2.744
 1042SOL    HW2 4026   4.010   5.173   2.803
 1043SOL     OW 4027   3.367   1.945   3.040
 1043SOL    HW1 4028   3.351   2.042   3.020
 1043SOL    HW2 4029   3.463   1.924   3.027
 1044SOL     OW 4030   5.923   5.048   2.698
 1044SOL    HW1 4031   5.915   5.100   2.612
 1044SOL    HW2 4032   5.869   5.094   2.769
 1045SOL     OW 4033   4.309   0.752   2.608
 1045SOL    HW1 4034   4.314   0.829   2.671
 1045SOL    HW2 4035   4.216   0.716   2.606
 1046SOL     OW 4036   1.536   1.418   0.332
 1046SOL    HW1 4037   1.624   1.386   0.369
 1046SOL    HW2 4038   1.534   1.518   0.332
 1047SOL     OW 4039   2.417   6.905   4.064
 1047SOL    HW1 4040   2.374   6.896   3.974
 1047SOL    HW2 4041   2.387   6.829   4.121
 1048SOL     OW 4042   3.473   6.357   2.554
 1048SOL    HW1 4043   3.503   6.453   2.556
 1048SOL    HW2 4044   3.437   6.332   2.644
 1049SOL     OW 4045   6.209   6.739   3.910
 1049SOL    HW1 4046   6.213   6.640   3.891
 1049SOL    HW2 4047   6.177   6.753   4.004
 1050SOL     OW 4048   3.550   4.952   2.713
 1050SOL    HW1 4049   3.595   5.036   2.683
 1050SOL    HW2 4050   3.501   4.911   2.637
 1051SOL     OW 4051   0.444   4.919   0.817
 1051SOL    HW1 4052   0.417   4.928   0.913
 1051SOL    HW2 4053   0.543   4.929   0.810
 1052SOL     OW 4054   4.365   1.094   5.584
 1052SOL    HW1 4055   4.290   1.034   5.556
 1052SOL    HW2 4056   4.356   1.182   5.537
 1053SOL     OW 4057   6.418   3.752   2.664
 1053SOL    HW1 4058   6.429   3.671   2.606
 1053SOL    HW2 4059   6.347   3.735   2.732
 1054SOL     OW 4060   2.771   3.462   0.902
 1054SOL    HW1 4061   2.869   3.479   0.889
 1054SOL    HW2 4062   2.758   3.369   0.936
 1055SOL     OW 4063   4.115   6.670   5.232
 1055SOL    HW1 4064   4.079   6.632   5.147
 1055SOL    HW2 4065   4.214   6.653   5.237
 1056SOL     OW 4066   1.758   3.132   0.091
 1056SOL    HW1 4067   1.698   3.144   0.170
 1056SOL    HW2 4068   1.828   3.204   0.091
 1057SOL     OW 4069   3.699   3.417   1.356
 1057SOL    HW1 4070   3.792   3.446   1.334
 1057SOL    HW2 4071   3.635   3.489   1.332
 1058SOL     OW 4072   5.215   2.394   3.778
 1058SOL    HW1 4073   5.172   2.408   3.689
 1058SOL    HW2 4074   5.145   2.380   3.847
 1059SOL     OW 4075   2.026   0.799   2.288
 1059SOL    HW1 4076   2.005   0.812   2.385
 1059SOL    HW2 4077   2.122   0.820   2.272
 1060SOL     OW 4078   0.191   4.827   3.784
 1060SOL    HW1 4079   0.125   4.774   3.729
 1060SOL    HW2 4080   0.274   4.773   3.797
 1061SOL     OW 4081   6.552   3.453   6.338
 1061SOL    HW1 4082   6.577   3.496   6.425
 1061SOL    HW2 4083   6.558   3.521   6.265
 1062SOL     OW 4084   5.314   5.270   5.685
 1062SOL    HW1 4085   5.219   5.283   5.658
 1062SOL    HW2 4086   5.324   5.183   5.733
 1063SOL     OW 4087   0.903   5.704   0.295
 1063SOL    HW1 4088   0.991   5.669   0.261
 1063SOL    HW2 4089   0.920   5.774   0.364
 1064SOL     OW 4090   1.548   4.422   2.905
 1064SOL    HW1 4091   1.589   4.359   2.972
 1064SOL    HW2 4092   1.475   4.473   2.949
 1065SOL     OW 4093   4.577   0.977   2.629
 1065SOL    HW1 4094   4.481   0.971   2.658
 1065SOL    HW2 4095   4.635   0.995   2.709
 1066SOL     OW 4096   4.765   6.781   2.765
 1066SOL    HW1 4097   4.769   6.713   2.692
 1066SOL    HW2 4098   4.710   6.745   2.841
 1067SOL     OW 4099   1.219   2.752   0.010
 1067SOL    HW1 4100   1.302   2.808   0.002
 1067SOL    HW2 4101   1.194   2.718   6.939
 1068SOL     OW 4102   6.928   4.611   1.613
 1068SOL    HW1 4103   6.840   4.637   1.651
 1068SOL    HW2 4104   6.996   4.605   1.686
 1069SOL     OW 4105   5.195   6.225   0.682
 1069SOL    HW1 4106   5.140   6.143   0.663
 1069SOL    HW2 4107   5.174   6.295   0.614
 1070SOL     OW 4108   1.062   0.187   1.369
 1070SOL    HW1 4109   1.121   0.157   1.444
 1070SOL    HW2 4110   1.090   0.278   1.339
 1071SOL     OW 4111   1.936   1.218   3.611
 1071SOL    HW1 4112   1.961   1.219   3.708
 1071SOL    HW2 4113   1.912   1.125   3.584
 1072SOL     OW 4114   2.425   1.005   1.242
 1072SOL    HW1 4115   2.460   0.969   1.328
 1072SOL    HW2 4116   2.437   1.104   1.240
 1073SOL     OW 4117   4.855   0.921   3.654
 1073SOL    HW1 4118   4.763   0.903   3.617
 1073SOL    HW2 4119   4.922   0.867   3.604
 1074SOL     OW 4120   2.696   5.288   1.834
 1074SOL    HW1 4121   2.773   5.243   1.878
 1074SOL    HW2 4122   2.658   5.357   1.897
 1075SOL     OW 4123   5.714   6.951   2.935
 1075SOL    HW1 4124   5.706   6.987   2.842
 1075SOL    HW2 4125   5.805   6.912   2.948
 1076SOL     OW 4126   0.833   2.528   5.564
 1076SOL    HW1 4127   0.857   2.440   5.606
 1076SOL    HW2 4128   0.862   2.602   5.625
 1077SOL     OW 4129   6.225   6.854   0.629
 1077SOL    HW1 4130   6.162   6.880   0.557
 1077SOL    HW2 4131   6.270   6.935   0.666
 1078SOL     OW 4132   6.808   0.931   2.298
 1078SOL    HW1 4133   6.800   1.029   2.314
 1078SOL    HW2 4134   6.749   0.904   2.222
 1079SOL     OW 4135   1.690   5.991   2.186
 1079SOL    HW1 4136   1.633   5.940   2.251
 1079SOL    HW2 4137   1.782   6.002   2.224
 1080SOL     OW 4138   2.135   5.423   3.612
 1080SOL    HW1 4139   2.059   5.425   3.676
 1080SOL    HW2 4140   2.122   5.348   3.547
 1081SOL     OW 4141   6.601   5.392   5.271
 1081SOL    HW1 4142   6.591   5.299   5.237
 1081SOL    HW2 4143   6.577   5.396   5.368
 1082SOL     OW 4144   5.373   2.332   5.555
 1082SOL    HW1 4145   5.411   2.288   5.637
 1082SOL    HW2 4146   5.423   2.300   5.475
 1083SOL     OW 4147   4.726   3.967   0.438
 1083SOL    HW1 4148   4.663   4.028   0.390
 1083SOL    HW2 4149   4.768   3.904   0.373
 1084SOL     OW 4150   6.537   6.545   6.262
 1084SOL    HW1 4151   6.473   6.620   6.275
 1084SOL    HW2 4152   6.548   6.495   6.348
 1085SOL     OW 4153   1.398   3.960   4.245
 1085SOL    HW1 4154   1.437   3.886   4.192
 1085SOL    HW2 4155   1.449   3.970   4.331
 1086SOL     OW 4156   6.834   4.220   0.105
 1086SOL    HW1 4157   6.847   4.319   0.106
 1086SOL    HW2 4158   6.789   4.193   0.020
 1087SOL     OW 4159   0.425   2.138   4.759
 1087SOL    HW1 4160   0.383   2.228   4.749
 1087SOL    HW2 4161   0.480   2.136   4.842
 1088SOL     OW 4162   6.859   3.331   2.555
 1088SOL    HW1 4163   6.945   3.284   2.577
 1088SOL    HW2 4164   6.794   3.318   2.630
 1089SOL     OW 4165   6.584   5.835   4.377
 1089SOL    HW1 4166   6.487   5.841   4.399
 1089SOL    HW2 4167   6.628   5.768   4.437
 1090SOL     OW 4168   3.263   1.725   2.924
 1090SOL    HW1 4169   3.289   1.797   2.988
 1090SOL    HW2 4170   3.169   1.739   2.893
 1091SOL     OW 4171   2.456   2.211   4.601
 1091SOL    HW1 4172   2.429   2.251   4.514
 1091SOL    HW2 4173   2.543   2.164   4.591
 1092SOL     OW 4174   1.029   4.560   0.040
 1092SOL    HW1 4175   0.985   4.618   0.108
 1092SOL    HW2 4176   1.055   4.473   0.084
 1093SOL     OW 4177   2.515   6.791   1.417
 1093SOL    HW1 4178   2.488   6.696   1.433
 1093SOL    HW2 4179   2.440   6.851   1.445
 1094SOL     OW 4180   1.015   6.501   3.379
 1094SOL    HW1 4181   1.049   6.594   3.370
 1094SOL    HW2 4182   0.959   6.478   3.300
 1095SOL     OW 4183   0.754   2.731   5.947
 1095SOL    HW1 4184   0.666   2.694   5.977
 1095SOL    HW2 4185   0.791   2.790   6.018
 1096SOL     OW 4186   3.337   4.433   1.194
 1096SOL    HW1 4187   3.412   4.401   1.136
 1096SOL    HW2 4188   3.321   4.368   1.268
 1097SOL     OW 4189   2.629   4.722   3.940
 1097SOL    HW1 4190   2.586   4.639   3.975
 1097SOL    HW2 4191   2.563   4.773   3.884
 1098SOL     OW 4192   4.901   3.435   6.694
 1098SOL    HW1 4193   4.948   3.522   6.679
 1098SOL    HW2 4194   4.830   3.424   6.625
 1099SOL     OW 4195   3.868   0.860   6.007
 1099SOL    HW1 4196   3.871   0.959   5.995
 1099SOL    HW2 4197   3.816   0.837   6.089
 1100SOL     OW 4198   4.151   1.625   4.353
 1100SOL    HW1 4199   4.237   1.574   4.340
 1100SOL    HW2 4200   4.077   1.578   4.306
 1101SOL     OW 4201   5.543   3.689   5.543
 1101SOL    HW1 4202   5.507   3.650   5.458
 1101SOL    HW2 4203   5.609   3.626   5.583
 1102SOL     OW 4204   1.110   0.788   5.045
 1102SOL    HW1 4205   1.152   0.877   5.059
 1102SOL    HW2 4206   1.121   0.761   4.949
 1103SOL     OW 4207   3.806   0.947   0.288
 1103SOL    HW1 4208   3.843   0.907   0.371
 1103SOL    HW2 4209   3.875   0.942   0.215
 1104SOL     OW 4210   1.899   3.081   4.620
 1104SOL    HW1 4211   1.841   3.096   4.700
 1104SOL    HW2 4212   1.980   3.140   4.625
 1105SOL     OW 4213   5.882   3.332   4.930
 1105SOL    HW1 4214   5.905   3.402   4.863
 1105SOL    HW2 4215   5.830   3.259   4.885
 1106SOL     OW 4216   0.646   2.296   0.778
 1106SOL    HW1 4217   0.700   2.264   0.700
 1106SOL    HW2 4218   0.630   2.394   0.769
 1107SOL     OW 4219   1.462   0.425   0.154
 1107SOL    HW1 4220   1.475   0.340   0.205
 1107SOL    HW2 4221   1.369   0.430   0.119
 1108SOL     OW 4222   3.739   6.883   5.583
 1108SOL    HW1 4223   3.735   6.783   5.578
 1108SOL    HW2 4224   3.816   6.916   5.530
 1109SOL     OW 4225   5.688   0.980   4.154
 1109SOL    HW1 4226   5.730   1.017   4.237
 1109SOL    HW2 4227   5.708   0.882   4.147
 1110SOL     OW 4228   4.199   2.237   2.941
 1110SOL    HW1 4229   4.205   2.174   2.863
 1110SOL    HW2 4230   4.223   2.189   3.025
 1111SOL     OW 4231   5.643   5.519   6.622
 1111SOL    HW1 4232   5.592   5.534   6.707
 1111SOL    HW2 4233   5.588   5.550   6.544
 1112SOL     OW 4234   6.018   1.438   2.487
 1112SOL    HW1 4235   5.936   1.410   2.436
 1112SOL    HW2 4236   6.005   1.416   2.584
 1113SOL     OW 4237   5.585   4.732   1.449
 1113SOL    HW1 4238   5.529   4.750   1.367
 1113SOL    HW2 4239   5.541   4.662   1.504
 1114SOL     OW 4240   2.697   1.120   6.206
 1114SOL    HW1 4241   2.762   1.111   6.282
 1114SOL    HW2 4242   2.732   1.186   6.140
 1115SOL     OW 4243   3.640   3.675   5.860
 1115SOL    HW1 4244   3.735   3.703   5.847
 1115SOL    HW2 4245   3.638   3.583   5.899
 1116SOL     OW 4246   4.722   6.704   6.622
 1116SOL    HW1 4247   4.648   6.637   6.616
 1116SOL    HW2 4248   4.776   6.687   6.704
 1117SOL     OW 4249   1.038   2.180   1.941
 1117SOL    HW1 4250   1.092   2.262   1.920
 1117SOL    HW2 4251   1.082   2.129   2.015
 1118SOL     OW 4252   2.227   5.074   0.559
 1118SOL    HW1 4253   2.172   4.991   0.568
 1118SOL    HW2 4254   2.260   5.102   0.649
 1119SOL     OW 4255   4.089   4.452   1.699
 1119SOL    HW1 4256   4.032   4.530   1.725
 1119SOL    HW2 4257   4.183   4.469   1.727
 1120SOL     OW 4258   5.822   5.788   0.788
 1120SOL    HW1 4259   5.878   5.819   0.711
 1120SOL    HW2 4260   5.778   5.867   0.831
 1121SOL     OW 4261   6.894   4.598   4.834
 1121SOL    HW1 4262   6.820   4.663   4.816
 1121SOL    HW2 4263   6.982   4.645   4.826
 1122SOL     OW 4264   5.316   2.730   1.781
 1122SOL    HW1 4265   5.388   2.785   1.823
 1122SOL    HW2 4266   5.246   2.791   1.743
 1123SOL     OW 4267   5.225   2.353   3.262
 1123SOL    HW1 4268   5.174   2.412   3.199
 1123SOL    HW2 4269   5.318   2.388   3.272
 1124SOL     OW 4270   0.058   3.624   5.444
 1124SOL    HW1 4271   7.003   3.627   5.378
 1124SOL    HW2 4272   0.038   3.684   5.521
 1125SOL     OW 4273   2.092   1.619   3.506
 1125SOL    HW1 4274   2.003   1.604   3.463
 1125SOL    HW2 4275   2.094   1.711   3.547
 1126SOL     OW 4276   5.741   5.928   6.113
 1126SOL    HW1 4277   5.699   5.980   6.188
 1126SOL    HW2 4278   5.834   5.903   6.138
 1127SOL     OW 4279   5.355   6.243   4.650
 1127SOL    HW1 4280   5.355   6.335   4.609
 1127SOL    HW2 4281   5.303   6.245   4.735
 1128SOL     OW 4282   5.683   1.631   4.085
 1128SOL    HW1 4283   5.646   1.583   4.006
 1128SOL    HW2 4284   5.612   1.689   4.125
 1129SOL     OW 4285   1.921   6.722   0.873
 1129SOL    HW1 4286   1.973   6.673   0.943
 1129SOL    HW2 4287   1.965   6.810   0.855
 1130SOL     OW 4288   2.018   5.367   0.605
 1130SOL    HW1 4289   2.075   5.328   0.533
 1130SOL    HW2 4290   1.930   5.319   0.608
 1131SOL     OW 4291   1.001   0.057   5.572
 1131SOL    HW1 4292   1.028   6.987   5.607
 1131SOL    HW2 4293   1.028   0.128   5.638
 1132SOL     OW 4294   4.837   0.012   2.693
 1132SOL    HW1 4295   4.873   7.018   2.601
 1132SOL    HW2 4296   4.799   6.947   2.728
 1133SOL     OW 4297   1.188   1.255   0.260
 1133SOL    HW1 4298   1.191   1.156   0.250
 1133SOL    HW2 4299   1.093   1.285   0.270
 1134SOL     OW 4300   5.111   0.108   2.412
 1134SOL    HW1 4301   5.138   0.040   2.479
 1134SOL    HW2 4302   5.017   0.090   2.381
 1135SOL     OW 4303   2.403   6.641   4.194
 1135SOL    HW1 4304   2.330   6.578   4.220
 1135SOL    HW2 4305   2.469   6.594   4.136
 1136SOL     OW 4306   4.364   4.558   3.464
 1136SOL    HW1 4307   4.268   4.535   3.455
 1136SOL    HW2 4308   4.393   4.547   3.559
 1137SOL     OW 4309   1.380   0.156   0.480
 1137SOL    HW1 4310   1.411   0.116   0.567
 1137SOL    HW2 4311   1.294   0.112   0.453
 1138SOL     OW 4312   0.101   1.277   5.947
 1138SOL    HW1 4313   0.038   1.235   5.882
 1138SOL    HW2 4314   0.061   1.275   6.039
 1139SOL     OW 4315   2.764   4.705   3.169
 1139SOL    HW1 4316   2.773   4.719   3.071
 1139SOL    HW2 4317   2.847   4.737   3.215
 1140SOL     OW 4318   2.719   1.196   2.754
 1140SOL    HW1 4319   2.798   1.228   2.702
 1140SOL    HW2 4320   2.637   1.245   2.722
 1141SOL     OW 4321   0.440   6.139   0.357
 1141SOL    HW1 4322   0.382   6.060   0.338
 1141SOL    HW2 4323   0.535   6.111   0.363
 1142SOL     OW 4324   3.139   0.188   3.943
 1142SOL    HW1 4325   3.231   0.178   3.981
 1142SOL    HW2 4326   3.146   0.214   3.847
 1143SOL     OW 4327   2.293   2.556   3.024
 1143SOL    HW1 4328   2.369   2.527   3.082
 1143SOL    HW2 4329   2.240   2.627   3.072
 1144SOL     OW 4330   6.446   4.573   3.645
 1144SOL    HW1 4331   6.425   4.478   3.624
 1144SOL    HW2 4332   6.513   4.577   3.719
 1145SOL     OW 4333   6.970   3.018   1.003
 1145SOL    HW1 4334   0.023   2.956   0.976
 1145SOL    HW2 4335   6.981   3.106   0.956
 1146SOL     OW 4336   0.190   0.824   1.882
 1146SOL    HW1 4337   0.141   0.865   1.805
 1146SOL    HW2 4338   0.135   0.750   1.921
 1147SOL     OW 4339   3.162   5.418   1.805
 1147SOL    HW1 4340   3.163   5.498   1.864
 1147SOL    HW2 4341   3.177   5.335   1.860
 1148SOL     OW 4342   4.894   6.374   0.584
 1148SOL    HW1 4343   4.902   6.312   0.662
 1148SOL    HW2 4344   4.983   6.417   0.567
 1149SOL     OW 4345   5.411   2.703   2.483
 1149SOL    HW1 4346   5.436   2.612   2.516
 1149SOL    HW2 4347   5.492   2.747   2.444
 1150SOL     OW 4348   0.742   4.379   6.711
 1150SOL    HW1 4349   0.734   4.462   6.766
 1150SOL    HW2 4350   0.805   4.315   6.756
 1151SOL     OW 4351   6.044   4.710   5.517
 1151SOL    HW1 4352   5.955   4.681   5.552
 1151SOL    HW2 4353   6.034   4.796   5.467
 1152SOL     OW 4354   4.508   5.794   6.307
 1152SOL    HW1 4355   4.429   5.854   6.291
 1152SOL    HW2 4356   4.549   5.770   6.219
 1153SOL     OW 4357   0.200   6.966   2.167
 1153SOL    HW1 4358   0.277   7.002   2.221
 1153SOL    HW2 4359   0.116   6.976   2.219
 1154SOL     OW 4360   0.464   4.670   1.109
 1154SOL    HW1 4361   0.551   4.661   1.157
 1154SOL    HW2 4362   0.443   4.767   1.095
 1155SOL     OW 4363   2.820   4.733   6.053
 1155SOL    HW1 4364   2.905   4.734   6.000
 1155SOL    HW2 4365   2.799   4.639   6.080
 1156SOL     OW 4366   4.473   1.794   5.291
 1156SOL    HW1 4367   4.478   1.869   5.357
 1156SOL    HW2 4368   4.441   1.829   5.203
 1157SOL     OW 4369   5.323   1.069   6.155
 1157SOL    HW1 4370   5.389   1.091   6.227
 1157SOL    HW2 4371   5.351   0.985   6.109
 1158SOL     OW 4372   6.559   5.152   5.166
 1158SOL    HW1 4373   6.505   5.174   5.085
 1158SOL    HW2 4374   6.554   5.054   5.185
 1159SOL     OW 4375   6.672   6.955   3.894
 1159SOL    HW1 4376   6.755   6.956   3.838
 1159SOL    HW2 4377   6.653   6.862   3.924
 1160SOL     OW 4378   4.675   4.942   1.418
 1160SOL    HW1 4379   4.594   4.993   1.448
 1160SOL    HW2 4380   4.725   4.997   1.351
 1161SOL     OW 4381   6.864   5.685   5.882
 1161SOL    HW1 4382   6.877   5.612   5.949
 1161SOL    HW2 4383   6.766   5.699   5.867
 1162SOL     OW 4384   2.300   1.939   6.389
 1162SOL    HW1 4385   2.263   1.967   6.477
 1162SOL    HW2 4386   2.297   1.839   6.381
 1163SOL     OW 4387   6.513   4.301   2.108
 1163SOL    HW1 4388   6.486   4.357   2.187
 1163SOL    HW2 4389   6.434   4.247   2.079
 1164SOL     OW 4390   4.850   2.444   3.736
 1164SOL    HW1 4391   4.791   2.520   3.763
 1164SOL    HW2 4392   4.847   2.373   3.806
 1165SOL     OW 4393   4.372   5.773   3.937
 1165SOL    HW1 4394   4.459   5.738   3.900
 1165SOL    HW2 4395   4.297   5.746   3.876
 1166SOL     OW 4396   2.846   6.614   0.259
 1166SOL    HW1 4397   2.890   6.526   0.277
 1166SOL    HW2 4398   2.869   6.644   0.167
 1167SOL     OW 4399   4.189   6.593   0.661
 1167SOL    HW1 4400   4.121   6.532   0.702
 1167SOL    HW2 4401   4.280   6.567   0.691
 1168SOL     OW 4402   5.681   2.946   1.433
 1168SOL    HW1 4403   5.708   3.026   1.380
 1168SOL    HW2 4404   5.589   2.960   1.469
 1169SOL     OW 4405   4.407   1.979   6.057
 1169SOL    HW1 4406   4.328   1.919   6.046
 1169SOL    HW2 4407   4.487   1.924   6.082
 1170SOL     OW 4408   5.047   6.824   2.785
 1170SOL    HW1 4409   4.948   6.816   2.785
 1170SOL    HW2 4410   5.085   6.779   2.865
 1171SOL     OW 4411   3.464   6.181   6.939
 1171SOL    HW1 4412   3.390   6.215   6.998
 1171SOL    HW2 4413   3.458   6.082   6.932
 1172SOL     OW 4414   3.705   3.929   0.812
 1172SOL    HW1 4415   3.740   3.859   0.750
 1172SOL    HW2 4416   3.752   4.016   0.795
 1173SOL     OW 4417   3.697   1.241   0.755
 1173SOL    HW1 4418   3.726   1.320   0.810
 1173SOL    HW2 4419   3.732   1.249   0.662
 1174SOL     OW 4420   2.661   4.146   1.414
 1174SOL    HW1 4421   2.691   4.226   1.362
 1174SOL    HW2 4422   2.723   4.130   1.490
 1175SOL     OW 4423   4.233   3.922   6.349
 1175SOL    HW1 4424   4.285   3.981   6.286
 1175SOL    HW2 4425   4.219   3.969   6.436
 1176SOL     OW 4426   5.163   3.740   0.383
 1176SOL    HW1 4427   5.210   3.684   0.451
 1176SOL    HW2 4428   5.117   3.816   0.429
 1177SOL     OW 4429   6.547   3.652   4.654
 1177SOL    HW1 4430   6.512   3.652   4.561
 1177SOL    HW2 4431   6.493   3.715   4.710
 1178SOL     OW 4432   3.248   4.106   1.009
 1178SOL    HW1 4433   3.341   4.101   1.046
 1178SOL    HW2 4434   3.239   4.188   0.953
 1179SOL     OW 4435   2.809   5.756   1.014
 1179SOL    HW1 4436   2.891   5.758   0.957
 1179SOL    HW2 4437   2.796   5.663   1.050
 1180SOL     OW 4438   2.520   6.047   3.907
 1180SOL    HW1 4439   2.445   6.048   3.973
 1180SOL    HW2 4440   2.495   5.989   3.829
 1181SOL     OW 4441   0.216   5.274   4.968
 1181SOL    HW1 4442   0.169   5.195   5.008
 1181SOL    HW2 4443   0.195   5.278   4.870
 1182SOL     OW 4444   5.355   5.571   3.809
 1182SOL    HW1 4445   5.264   5.528   3.810
 1182SOL    HW2 4446   5.418   5.514   3.755
 1183SOL     OW 4447   2.761   4.758   0.530
 1183SOL    HW1 4448   2.680   4.733   0.583
 1183SOL    HW2 4449   2.793   4.848   0.558
 1184SOL     OW 4450   6.903   1.516   4.988
 1184SOL    HW1 4451   6.871   1.610   4.981
 1184SOL    HW2 4452   7.001   1.515   5.007
 1185SOL     OW 4453   0.898   0.873   1.119
 1185SOL    HW1 4454   0.930   0.877   1.024
 1185SOL    HW2 4455   0.853   0.785   1.135
 1186SOL     OW 4456   4.775   5.976   5.378
 1186SOL    HW1 4457   4.860   6.004   5.333
 1186SOL    HW2 4458   4.791   5.966   5.476
 1187SOL     OW 4459   4.684   0.154   5.782
 1187SOL    HW1 4460   4.632   0.210   5.716
 1187SOL    HW2 4461   4.781   0.180   5.778
 1188SOL     OW 4462   3.313   6.080   6.067
 1188SOL    HW1 4463   3.364   6.119   5.990
 1188SOL    HW2 4464   3.216   6.100   6.056
 1189SOL     OW 4465   6.329   1.583   1.774
 1189SOL    HW1 4466   6.261   1.615   1.708
 1189SOL    HW2 4467   6.403   1.651   1.780
 1190SOL     OW 4468   3.593   6.015   3.744
 1190SOL    HW1 4469   3.617   6.073   3.821
 1190SOL    HW2 4470   3.672   6.004   3.684
 1191SOL     OW 4471   4.164   5.355   4.683
 1191SOL    HW1 4472   4.247   5.323   4.637
 1191SOL    HW2 4473   4.106   5.404   4.617
 1192SOL     OW 4474   5.140   4.423   2.663
 1192SOL    HW1 4475   5.160   4.350   2.598
 1192SOL    HW2 4476   5.093   4.386   2.743
 1193SOL     OW 4477   6.998   1.881   4.839
 1193SOL    HW1 4478   7.014   1.859   4.743
 1193SOL    HW2 4479   0.011   1.974   4.858
 1194SOL     OW 4480   5.658   0.105   1.644
 1194SOL    HW1 4481   5.697   0.060   1.564
 1194SOL    HW2 4482   5.616   0.037   1.704
 1195SOL     OW 4483   0.392   4.089   0.822
 1195SOL    HW1 4484   0.316   4.138   0.867
 1195SOL    HW2 4485   0.357   4.040   0.742
 1196SOL     OW 4486   6.695   5.271   3.593
 1196SOL    HW1 4487   6.675   5.178   3.565
 1196SOL    HW2 4488   6.778   5.303   3.547
 1197SOL     OW 4489   4.708   6.927   4.971
 1197SOL    HW1 4490   4.655   6.996   5.020
 1197SOL    HW2 4491   4.777   6.888   5.032
 1198SOL     OW 4492   1.492   3.397   2.895
 1198SOL    HW1 4493   1.518   3.493   2.904
 1198SOL    HW2 4494   1.574   3.339   2.898
 1199SOL     OW 4495   3.522   4.058   1.107
 1199SOL    HW1 4496   3.587   4.133   1.114
 1199SOL    HW2 4497   3.542   3.990   1.177
 1200SOL     OW 4498   3.584   4.100   4.283
 1200SOL    HW1 4499   3.518   4.098   4.208
 1200SOL    HW2 4500   3.537   4.121   4.369
 1201SOL     OW 4501   0.942   1.371   4.508
 1201SOL    HW1 4502   1.016   1.310   4.478
 1201SOL    HW2 4503   0.891   1.327   4.581
 1202SOL     OW 4504   0.452   5.458   5.728
 1202SOL    HW1 4505   0.545   5.482   5.754
 1202SOL    HW2 4506   0.443   5.463   5.628
 1203SOL     OW 4507   0.116   6.023   0.305
 1203SOL    HW1 4508   0.048   6.070   0.248
 1203SOL    HW2 4509   0.159   5.950   0.252
 1204SOL     OW 4510   4.633   1.552   1.328
 1204SOL    HW1 4511   4.648   1.468   1.379
 1204SOL    HW2 4512   4.653   1.537   1.231
 1205SOL     OW 4513   4.023   3.144   0.860
 1205SOL    HW1 4514   3.943   3.121   0.805
 1205SOL    HW2 4515   4.034   3.243   0.865
 1206SOL     OW 4516   2.845   2.698   5.373
 1206SOL    HW1 4517   2.882   2.782   5.335
 1206SOL    HW2 4518   2.751   2.714   5.404
 1207SOL     OW 4519   2.340   6.459   1.174
 1207SOL    HW1 4520   2.325   6.368   1.213
 1207SOL    HW2 4521   2.406   6.453   1.099
 1208SOL     OW 4522   3.545   3.609   1.274
 1208SOL    HW1 4523   3.595   3.672   1.216
 1208SOL    HW2 4524   3.447   3.612   1.251
 1209SOL     OW 4525   4.412   0.541   4.072
 1209SOL    HW1 4526   4.372   0.581   3.989
 1209SOL    HW2 4527   4.343   0.485   4.118
 1210SOL     OW 4528   3.536   6.994   3.010
 1210SOL    HW1 4529   3.594   6.912   3.013
 1210SOL    HW2 4530   3.583   0.050   3.054
 1211SOL     OW 4531   0.350   3.692   2.918
 1211SOL    HW1 4532   0.366   3.650   3.007
 1211SOL    HW2 4533   0.262   3.738   2.917
 1212SOL     OW 4534   6.031   0.709   0.093
 1212SOL    HW1 4535   6.115   0.764   0.093
 1212SOL    HW2 4536   6.035   0.641   0.019
 1213SOL     OW 4537   5.815   2.600   0.797
 1213SOL    HW1 4538   5.717   2.581   0.811
 1213SOL    HW2 4539   5.853   2.638   0.881
 1214SOL     OW 4540   1.319   3.045   6.837
 1214SOL    HW1 4541   1.382   2.975   6.871
 1214SOL    HW2 4542   1.360   3.135   6.851
 1215SOL     OW 4543   1.083   4.647   3.566
 1215SOL    HW1 4544   1.162   4.640   3.627
 1215SOL    HW2 4545   1.064   4.558   3.525
 1216SOL     OW 4546   4.873   0.007   0.963
 1216SOL    HW1 4547   4.937   6.991   0.896
 1216SOL    HW2 4548   4.780   7.014   0.931
 1217SOL     OW 4549   2.467   4.881   1.147
 1217SOL    HW1 4550   2.416   4.934   1.215
 1217SOL    HW2 4551   2.560   4.864   1.180
 1218SOL     OW 4552   1.431   3.724   4.894
 1218SOL    HW1 4553   1.462   3.803   4.946
 1218SOL    HW2 4554   1.361   3.676   4.946
 1219SOL     OW 4555   5.017   5.841   2.285
 1219SOL    HW1 4556   5.028   5.933   2.321
 1219SOL    HW2 4557   5.099   5.787   2.304
 1220SOL     OW 4558   0.723   4.521   3.482
 1220SOL    HW1 4559   0.797   4.479   3.535
 1220SOL    HW2 4560   0.686   4.598   3.534
 1221SOL     OW 4561   4.977   4.248   6.186
 1221SOL    HW1 4562   5.044   4.322   6.188
 1221SOL    HW2 4563   4.996   4.184   6.261
 1222SOL     OW 4564   6.864   0.597   6.997
 1222SOL    HW1 4565   6.837   0.658   0.051
 1222SOL    HW2 4566   6.812   0.619   6.914
 1223SOL     OW 4567   4.170   2.003   0.061
 1223SOL    HW1 4568   4.080   1.960   0.058
 1223SOL    HW2 4569   4.159   2.103   0.057
 1224SOL     OW 4570   3.570   5.558   0.945
 1224SOL    HW1 4571   3.527   5.481   0.991
 1224SOL    HW2 4572   3.521   5.578   0.860
 1225SOL     OW 4573   3.046   3.171   6.337
 1225SOL    HW1 4574   3.126   3.183   6.279
 1225SOL    HW2 4575   2.964   3.164   6.280
 1226SOL     OW 4576   2.723   6.039   2.174
 1226SOL    HW1 4577   2.683   6.131   2.177
 1226SOL    HW2 4578   2.745   6.016   2.080
 1227SOL     OW 4579   6.624   4.543   5.706
 1227SOL    HW1 4580   6.714   4.541   5.748
 1227SOL    HW2 4581   6.619   4.617   5.638
 1228SOL     OW 4582   3.107   1.577   6.303
 1228SOL    HW1 4583   3.059   1.633   6.236
 1228SOL    HW2 4584   3.142   1.637   6.376
 1229SOL     OW 4585   3.648   4.940   5.625
 1229SOL    HW1 4586   3.670   5.038   5.632
 1229SOL    HW2 4587   3.571   4.920   5.686
 1230SOL     OW 4588   4.549   6.489   2.568
 1230SOL    HW1 4589   4.477   6.420   2.562
 1230SOL    HW2 4590   4.508   6.577   2.593
 1231SOL     OW 4591   2.042   2.854   4.759
 1231SOL    HW1 4592   1.986   2.809   4.829
 1231SOL    HW2 4593   2.012   2.825   4.668
 1232SOL     OW 4594   0.562   1.864   5.275
 1232SOL    HW1 4595   0.567   1.860   5.175
 1232SOL    HW2 4596   0.496   1.797   5.308
 1233SOL     OW 4597   0.732   4.413   5.189
 1233SOL    HW1 4598   0.764   4.419   5.094
 1233SOL    HW2 4599   0.770   4.488   5.242
 1234SOL     OW 4600   6.598   3.665   5.275
 1234SOL    HW1 4601   6.511   3.670   5.226
 1234SOL    HW2 4602   6.669   3.632   5.212
 1235SOL     OW 4603   0.227   5.819   2.624
 1235SOL    HW1 4604   0.265   5.827   2.716
 1235SOL    HW2 4605   0.154   5.886   2.612
 1236SOL     OW 4606   4.188   1.601   6.959
 1236SOL    HW1 4607   4.257   1.587   6.888
 1236SOL    HW2 4608   4.214   1.678   7.016
 1237SOL     OW 4609   2.356   5.326   5.464
 1237SOL    HW1 4610   2.421   5.255   5.493
 1237SOL    HW2 4611   2.297   5.350   5.541
 1238SOL     OW 4612   2.546   1.303   0.340
 1238SOL    HW1 4613   2.460   1.255   0.354
 1238SOL    HW2 4614   2.609   1.282   0.415
 1239SOL     OW 4615   6.986   6.971   6.187
 1239SOL    HW1 4616   6.927   6.890   6.186
 1239SOL    HW2 4617   6.975   0.002   6.102
 1240SOL     OW 4618   5.440   6.971   1.909
 1240SOL    HW1 4619   5.354   6.980   1.959
 1240SOL    HW2 4620   5.422   6.942   1.815
 1241SOL     OW 4621   5.309   3.657   4.201
 1241SOL    HW1 4622   5.281   3.735   4.256
 1241SOL    HW2 4623   5.271   3.666   4.109
 1242SOL     OW 4624   0.640   3.744   1.693
 1242SOL    HW1 4625   0.605   3.656   1.723
 1242SOL    HW2 4626   0.582   3.779   1.618
 1243SOL     OW 4627   6.917   0.139   4.845
 1243SOL    HW1 4628   7.011   0.169   4.828
 1243SOL    HW2 4629   6.916   0.071   4.918
 1244SOL     OW 4630   6.293   0.062   4.187
 1244SOL    HW1 4631   6.391   0.070   4.201
 1244SOL    HW2 4632   6.244   0.103   4.264
 1245SOL     OW 4633   4.808   5.104   0.533
 1245SOL    HW1 4634   4.802   5.092   0.632
 1245SOL    HW2 4635   4.719   5.083   0.491
 1246SOL     OW 4636   2.444   6.299   2.005
 1246SOL    HW1 4637   2.396   6.385   1.991
 1246SOL    HW2 4638   2.514   6.311   2.076
 1247SOL     OW 4639   2.101   0.434   6.948
 1247SOL    HW1 4640   2.073   0.481   0.011
 1247SOL    HW2 4641   2.020   0.406   6.896
 1248SOL     OW 4642   2.356   0.372   5.224
 1248SOL    HW1 4643   2.267   0.346   5.262
 1248SOL    HW2 4644   2.416   0.402   5.298
 1249SOL     OW 4645   5.613   2.306   2.867
 1249SOL    HW1 4646   5.699   2.299   2.816
 1249SOL    HW2 4647   5.631   2.339   2.959
 1250SOL     OW 4648   5.872   4.891   4.676
 1250SOL    HW1 4649   5.940   4.906   4.604
 1250SOL    HW2 4650   5.900   4.938   4.760
 1251SOL     OW 4651   3.513   0.771   4.209
 1251SOL    HW1 4652   3.522   0.684   4.258
 1251SOL    HW2 4653   3.421   0.778   4.170
 1252SOL     OW 4654   3.703   3.548   5.089
 1252SOL    HW1 4655   3.661   3.485   5.154
 1252SOL    HW2 4656   3.782   3.593   5.132
 1253SOL     OW 4657   3.222   5.585   2.255
 1253SOL    HW1 4658   3.316   5.615   2.241
 1253SOL    HW2 4659   3.161   5.664   2.256
 1254SOL     OW 4660   1.081   2.306   2.723
 1254SOL    HW1 4661   0.994   2.353   2.739
 1254SOL    HW2 4662   1.111   2.325   2.629
 1255SOL     OW 4663   6.400   2.263   4.920
 1255SOL    HW1 4664   6.407   2.164   4.932
 1255SOL    HW2 4665   6.489   2.305   4.942
 1256SOL     OW 4666   6.731   6.506   3.515
 1256SOL    HW1 4667   6.760   6.593   3.474
 1256SOL    HW2 4668   6.803   6.438   3.502
 1257SOL     OW 4669   6.977   6.672   4.758
 1257SOL    HW1 4670   6.936   6.763   4.763
 1257SOL    HW2 4671   6.953   6.620   4.840
 1258SOL     OW 4672   1.663   5.203   3.663
 1258SOL    HW1 4673   1.708   5.238   3.581
 1258SOL    HW2 4674   1.639   5.280   3.723
 1259SOL     OW 4675   3.749   1.280   4.108
 1259SOL    HW1 4676   3.829   1.340   4.106
 1259SOL    HW2 4677   3.746   1.226   4.024
 1260SOL     OW 4678   1.430   1.908   0.187
 1260SOL    HW1 4679   1.519   1.908   0.142
 1260SOL    HW2 4680   1.410   1.999   0.222
 1261SOL     OW 4681   0.656   5.586   6.518
 1261SOL    HW1 4682   0.703   5.586   6.429
 1261SOL    HW2 4683   0.639   5.681   6.546
 1262SOL     OW 4684   4.910   4.402   1.600
 1262SOL    HW1 4685   4.925   4.333   1.670
 1262SOL    HW2 4686   4.815   4.434   1.603
 1263SOL     OW 4687   0.241   1.633   2.452
 1263SOL    HW1 4688   0.328   1.584   2.459
 1263SOL    HW2 4689   0.166   1.568   2.445
 1264SOL     OW 4690   6.493   4.442   0.229
 1264SOL    HW1 4691   6.533   4.495   0.155
 1264SOL    HW2 4692   6.546   4.454   0.312
 1265SOL     OW 4693   5.755   4.997   4.977
 1265SOL    HW1 4694   5.840   5.045   4.955
 1265SOL    HW2 4695   5.767   4.946   5.062
 1266SOL     OW 4696   0.421   1.198   3.978
 1266SOL    HW1 4697   0.443   1.278   3.921
 1266SOL    HW2 4698   0.444   1.115   3.927
 1267SOL     OW 4699   5.532   1.276   1.222
 1267SOL    HW1 4700   5.444   1.289   1.177
 1267SOL    HW2 4701   5.581   1.363   1.225
 1268SOL     OW 4702   2.822   2.766   6.350
 1268SOL    HW1 4703   2.763   2.794   6.426
 1268SOL    HW2 4704   2.831   2.666   6.350
 1269SOL     OW 4705   5.656   3.254   4.134
 1269SOL    HW1 4706   5.622   3.170   4.175
 1269SOL    HW2 4707   5.616   3.333   4.182
 1270SOL     OW 4708   1.264   4.168   2.492
 1270SOL    HW1 4709   1.185   4.133   2.542
 1270SOL    HW2 4710   1.330   4.095   2.477
 1271SOL     OW 4711   3.922   1.889   2.328
 1271SOL    HW1 4712   4.019   1.869   2.314
 1271SOL    HW2 4713   3.905   1.987   2.317
 1272SOL     OW 4714   5.728   4.582   0.057
 1272SOL    HW1 4715   5.661   4.571   7.003
 1272SOL    HW2 4716   5.794   4.507   0.053
 1273SOL     OW 4717   1.024   3.717   6.198
 1273SOL    HW1 4718   0.949   3.749   6.256
 1273SOL    HW2 4719   1.013   3.619   6.179
 1274SOL     OW 4720   6.960   4.275   1.227
 1274SOL    HW1 4721   0.034   4.308   1.213
 1274SOL    HW2 4722   6.924   4.313   1.312
 1275SOL     OW 4723   3.786   1.631   3.329
 1275SOL    HW1 4724   3.723   1.587   3.266
 1275SOL    HW2 4725   3.752   1.621   3.423
 1276SOL     OW 4726   5.897   5.269   4.994
 1276SOL    HW1 4727   5.870   5.364   5.009
 1276SOL    HW2 4728   5.982   5.266   4.942
 1277SOL     OW 4729   1.946   5.567   6.292
 1277SOL    HW1 4730   1.873   5.546   6.357
 1277SOL    HW2 4731   2.035   5.550   6.335
 1278SOL     OW 4732   0.753   0.450   5.064
 1278SOL    HW1 4733   0.727   0.544   5.089
 1278SOL    HW2 4734   0.706   0.385   5.124
 1279SOL     OW 4735   1.604   5.121   6.666
 1279SOL    HW1 4736   1.658   5.177   6.728
 1279SOL    HW2 4737   1.665   5.064   6.611
 1280SOL     OW 4738   4.420   6.947   4.136
 1280SOL    HW1 4739   4.435   6.858   4.180
 1280SOL    HW2 4740   4.489   7.012   4.167
 1281SOL     OW 4741   2.212   6.107   3.346
 1281SOL    HW1 4742   2.243   6.067   3.432
 1281SOL    HW2 4743   2.245   6.052   3.270
 1282SOL     OW 4744   6.630   2.439   6.200
 1282SOL    HW1 4745   6.645   2.538   6.196
 1282SOL    HW2 4746   6.545   2.415   6.153
 1283SOL     OW 4747   6.836   2.927   5.107
 1283SOL    HW1 4748   6.772   2.877   5.165
 1283SOL    HW2 4749   6.809   2.917   5.011
 1284SOL     OW 4750   4.652   1.876   1.945
 1284SOL    HW1 4751   4.683   1.803   1.884
 1284SOL    HW2 4752   4.566   1.913   1.911
 1285SOL     OW 4753   4.680   1.378   5.845
 1285SOL    HW1 4754   4.725   1.292   5.822
 1285SOL    HW2 4755   4.719   1.451   5.789
 1286SOL     OW 4756   4.287   3.450   1.026
 1286SOL    HW1 4757   4.207   3.495   1.066
 1286SOL    HW2 4758   4.275   3.350   1.030
 1287SOL     OW 4759   5.297   4.324   5.360
 1287SOL    HW1 4760   5.396   4.312   5.366
 1287SOL    HW2 4761   5.274   4.418   5.386
 1288SOL     OW 4762   3.552   3.967   6.628
 1288SOL    HW1 4763   3.592   4.020   6.553
 1288SOL    HW2 4764   3.454   3.959   6.615
 1289SOL     OW 4765   0.601   0.102   1.314
 1289SOL    HW1 4766   0.656   0.170   1.265
 1289SOL    HW2 4767   0.533   0.063   1.252
 1290SOL     OW 4768   1.126   6.841   0.597
 1290SOL    HW1 4769   1.178   6.768   0.552
 1290SOL    HW2 4770   1.189   6.911   0.631
 1291SOL     OW 4771   0.415   4.400   3.837
 1291SOL    HW1 4772   0.511   4.407   3.809
 1291SOL    HW2 4773   0.383   4.306   3.824
 1292SOL     OW 4774   1.024   5.678   2.415
 1292SOL    HW1 4775   1.120   5.678   2.387
 1292SOL    HW2 4776   0.978   5.759   2.377
 1293SOL     OW 4777   2.411   2.244   0.142
 1293SOL    HW1 4778   2.333   2.305   0.134
 1293SOL    HW2 4779   2.448   2.249   0.235
 1294SOL     OW 4780   0.369   2.971   5.823
 1294SOL    HW1 4781   0.293   2.979   5.758
 1294SOL    HW2 4782   0.438   3.040   5.802
 1295SOL     OW 4783   0.322   3.956   1.232
 1295SOL    HW1 4784   0.301   3.969   1.136
 1295SOL    HW2 4785   0.409   3.906   1.241
 1296SOL     OW 4786   4.204   6.273   5.284
 1296SOL    HW1 4787   4.176   6.180   5.305
 1296SOL    HW2 4788   4.138   6.338   5.323
 1297SOL     OW 4789   0.900   0.028   1.224
 1297SOL    HW1 4790   0.854   6.977   1.277
 1297SOL    HW2 4791   0.954   0.086   1.284
 1298SOL     OW 4792   5.024   5.658   3.416
 1298SOL    HW1 4793   5.073   5.640   3.331
 1298SOL    HW2 4794   4.935   5.613   3.414
 1299SOL     OW 4795   2.500   2.276   3.901
 1299SOL    HW1 4796   2.497   2.372   3.929
 1299SOL    HW2 4797   2.480   2.270   3.803
 1300SOL     OW 4798   1.982   2.773   0.729
 1300SOL    HW1 4799   1.939   2.779   0.639
 1300SOL    HW2 4800   2.079   2.753   0.718
 1301SOL     OW 4801   0.603   6.149   1.815
 1301SOL    HW1 4802   0.512   6.151   1.775
 1301SOL    HW2 4803   0.627   6.240   1.849
 1302SOL     OW 4804   4.928   6.833   5.137
 1302SOL    HW1 4805   4.954   6.783   5.220
 1302SOL    HW2 4806   4.963   6.926   5.142
 1303SOL     OW 4807   4.402   1.404   1.287
 1303SOL    HW1 4808   4.318   1.414   1.340
 1303SOL    HW2 4809   4.465   1.478   1.311
 1304SOL     OW 4810   1.888   0.159   0.651
 1304SOL    HW1 4811   1.863   0.071   0.609
 1304SOL    HW2 4812   1.956   0.204   0.593
 1305SOL     OW 4813   5.707   3.701   0.453
 1305SOL    HW1 4814   5.749   3.645   0.382
 1305SOL    HW2 4815   5.670   3.642   0.524
 1306SOL     OW 4816   1.077   5.832   4.472
 1306SOL    HW1 4817   1.059   5.761   4.404
 1306SOL    HW2 4818   1.176   5.841   4.485
 1307SOL     OW 4819   2.293   4.311   4.104
 1307SOL    HW1 4820   2.315   4.268   4.191
 1307SOL    HW2 4821   2.263   4.241   4.039
 1308SOL     OW 4822   6.589   0.109   6.199
 1308SOL    HW1 4823   6.653   0.120   6.275
 1308SOL    HW2 4824   6.616   0.030   6.144
 1309SOL     OW 4825   5.803   4.927   5.812
 1309SOL    HW1 4826   5.807   5.026   5.797
 1309SOL    HW2 4827   5.770   4.882   5.729
 1310SOL     OW 4828   0.001   3.744   3.128
 1310SOL    HW1 4829   6.970   3.664   3.158
 1310SOL    HW2 4830   0.096   3.738   3.160
 1311SOL     OW 4831   6.735   5.903   6.202
 1311SOL    HW1 4832   6.644   5.873   6.172
 1311SOL    HW2 4833   6.767   5.977   6.142
 1312SOL     OW 4834   1.180   0.030   0.333
 1312SOL    HW1 4835   1.166   6.956   0.303
 1312SOL    HW2 4836   1.176   0.091   0.254
 1313SOL     OW 4837   0.222   5.057   2.671
 1313SOL    HW1 4838   0.180   4.986   2.615
 1313SOL    HW2 4839   0.270   5.014   2.748
 1314SOL     OW 4840   4.028   1.476   4.612
 1314SOL    HW1 4841   4.025   1.574   4.592
 1314SOL    HW2 4842   3.936   1.437   4.603
 1315SOL     OW 4843   7.004   1.926   2.661
 1315SOL    HW1 4844   6.966   2.016   2.636
 1315SOL    HW2 4845   0.079   1.921   2.631
 1316SOL     OW 4846   3.637   0.064   5.725
 1316SOL    HW1 4847   3.694   0.072   5.807
 1316SOL    HW2 4848   3.681   0.000   5.661
 1317SOL     OW 4849   2.323   3.954   5.762
 1317SOL    HW1 4850   2.331   4.026   5.693
 1317SOL    HW2 4851   2.229   3.950   5.796
 1318SOL     OW 4852   1.169   2.446   0.927
 1318SOL    HW1 4853   1.244   2.383   0.909
 1318SOL    HW2 4854   1.089   2.394   0.958
 1319SOL     OW 4855   0.241   6.224   0.928
 1319SOL    HW1 4856   0.193   6.256   0.846
 1319SOL    HW2 4857   0.226   6.289   1.002
 1320SOL     OW 4858   3.766   4.476   6.725
 1320SOL    HW1 4859   3.790   4.545   6.793
 1320SOL    HW2 4860   3.688   4.508   6.671
 1321SOL     OW 4861   5.221   2.879   6.341
 1321SOL    HW1 4862   5.282   2.818   6.393
 1321SOL    HW2 4863   5.243   2.873   6.244
 1322SOL     OW 4864   3.717   1.626   4.255
 1322SOL    HW1 4865   3.644   1.693   4.265
 1322SOL    HW2 4866   3.716   1.589   4.163
 1323SOL     OW 4867   3.847   6.313   6.181
 1323SOL    HW1 4868   3.804   6.361   6.105
 1323SOL    HW2 4869   3.946   6.307   6.165
 1324SOL     OW 4870   0.563   3.346   6.694
 1324SOL    HW1 4871   0.519   3.337   6.784
 1324SOL    HW2 4872   0.505   3.305   6.624
 1325SOL     OW 4873   3.669   6.446   4.814
 1325SOL    HW1 4874   3.737   6.390   4.767
 1325SOL    HW2 4875   3.677   6.541   4.783
 1326SOL     OW 4876   4.953   3.518   5.238
 1326SOL    HW1 4877   4.871   3.533   5.182
 1326SOL    HW2 4878   5.033   3.557   5.191
 1327SOL     OW 4879   0.968   6.399   0.980
 1327SOL    HW1 4880   1.008   6.362   1.064
 1327SOL    HW2 4881   1.030   6.381   0.903
 1328SOL     OW 4882   2.527   3.620   7.008
 1328SOL    HW1 4883   2.615   3.594   0.030
 1328SOL    HW2 4884   2.545   3.675   6.926
 1329SOL     OW 4885   0.828   2.319   2.958
 1329SOL    HW1 4886   0.884   2.244   2.922
 1329SOL    HW2 4887   0.731   2.295   2.951
 1330SOL     OW 4888   1.671   1.520   1.524
 1330SOL    HW1 4889   1.593   1.512   1.461
 1330SOL    HW2 4890   1.651   1.469   1.607
 1331SOL     OW 4891   4.762   2.931   3.131
 1331SOL    HW1 4892   4.666   2.902   3.127
 1331SOL    HW2 4893   4.793   2.954   3.039
 1332SOL     OW 4894   2.416   0.205   0.760
 1332SOL    HW1 4895   2.349   0.249   0.819
 1332SOL    HW2 4896   2.490   0.269   0.740
 1333SOL     OW 4897   2.960   3.601   3.259
 1333SOL    HW1 4898   2.940   3.657   3.179
 1333SOL    HW2 4899   2.955   3.657   3.342
 1334SOL     OW 4900   6.328   1.731   3.781
 1334SOL    HW1 4901   6.278   1.646   3.769
 1334SOL    HW2 4902   6.402   1.716   3.847
 1335SOL     OW 4903   2.514   2.008   2.249
 1335SOL    HW1 4904   2.461   1.936   2.203
 1335SOL    HW2 4905   2.610   2.002   2.221
 1336SOL     OW 4906   2.656   1.661   4.856
 1336SOL    HW1 4907   2.664   1.689   4.952
 1336SOL    HW2 4908   2.734   1.603   4.831
 1337SOL     OW 4909   0.993   1.812   2.938
 1337SOL    HW1 4910   1.074   1.769   2.976
 1337SOL    HW2 4911   1.020   1.886   2.876
 1338SOL     OW 4912   6.885   3.035   4.717
 1338SOL    HW1 4913   6.886   3.118   4.773
 1338SOL    HW2 4914   6.792   3.018   4.683
 1339SOL     OW 4915   6.502   2.102   6.925
 1339SOL    HW1 4916   6.535   2.015   6.963
 1339SOL    HW2 4917   6.548   2.178   6.971
 1340SOL     OW 4918   5.440   1.594   2.725
 1340SOL    HW1 4919   5.346   1.591   2.758
 1340SOL    HW2 4920   5.489   1.670   2.769
 1341SOL     OW 4921   4.172   6.557   6.390
 1341SOL    HW1 4922   4.131   6.472   6.357
 1341SOL    HW2 4923   4.121   6.590   6.470
 1342SOL     OW 4924   2.849   5.493   6.170
 1342SOL    HW1 4925   2.834   5.416   6.232
 1342SOL    HW2 4926   2.900   5.565   6.218
 1343SOL     OW 4927   5.358   5.619   2.969
 1343SOL    HW1 4928   5.332   5.711   2.997
 1343SOL    HW2 4929   5.275   5.565   2.952
 1344SOL     OW 4930   6.980   5.990   4.634
 1344SOL    HW1 4931   0.037   5.989   4.698
 1344SOL    HW2 4932   6.911   5.924   4.664
 1345SOL     OW 4933   1.030   5.513   3.093
 1345SOL    HW1 4934   1.043   5.611   3.081
 1345SOL    HW2 4935   1.067   5.464   3.014
 1346SOL     OW 4936   2.005   5.787   4.898
 1346SOL    HW1 4937   1.998   5.754   4.992
 1346SOL    HW2 4938   1.963   5.878   4.892
 1347SOL     OW 4939   6.948   0.046   5.935
 1347SOL    HW1 4940   6.911   0.113   5.871
 1347SOL    HW2 4941   0.012   0.006   5.897
 1348SOL     OW 4942   6.131   6.516   4.419
 1348SOL    HW1 4943   6.216   6.567   4.435
 1348SOL    HW2 4944   6.059   6.578   4.389
 1349SOL     OW 4945   5.425   2.937   5.006
 1349SOL    HW1 4946   5.353   2.891   5.059
 1349SOL    HW2 4947   5.514   2.914   5.046
 1350SOL     OW 4948   5.229   5.070   5.429
 1350SOL    HW1 4949   5.166   5.070   5.351
 1350SOL    HW2 4950   5.184   5.112   5.508
 1351SOL     OW 4951   5.510   2.094   3.070
 1351SOL    HW1 4952   5.565   2.014   3.046
 1351SOL    HW2 4953   5.534   2.170   3.009
 1352SOL     OW 4954   6.487   5.692   4.034
 1352SOL    HW1 4955   6.437   5.606   4.042
 1352SOL    HW2 4956   6.424   5.769   4.044
 1353SOL     OW 4957   0.869   2.458   0.233
 1353SOL    HW1 4958   0.854   2.505   0.146
 1353SOL    HW2 4959   0.938   2.388   0.222
 1354SOL     OW 4960   0.626   4.670   1.583
 1354SOL    HW1 4961   0.658   4.742   1.521
 1354SOL    HW2 4962   0.573   4.603   1.530
 1355SOL     OW 4963   6.021   3.605   4.496
 1355SOL    HW1 4964   6.062   3.555   4.420
 1355SOL    HW2 4965   5.930   3.637   4.470
 1356SOL     OW 4966   2.938   3.280   1.866
 1356SOL    HW1 4967   2.856   3.251   1.817
 1356SOL    HW2 4968   2.933   3.249   1.961
 1357SOL     OW 4969   0.140   4.368   6.366
 1357SOL    HW1 4970   0.105   4.457   6.395
 1357SOL    HW2 4971   0.075   4.325   6.303
 1358SOL     OW 4972   5.209   6.334   6.574
 1358SOL    HW1 4973   5.267   6.414   6.588
 1358SOL    HW2 4974   5.114   6.362   6.568
 1359SOL     OW 4975   6.004   4.855   3.038
 1359SOL    HW1 4976   5.956   4.835   3.124
 1359SOL    HW2 4977   5.988   4.950   3.012
 1360SOL     OW 4978   2.862   3.772   0.237
 1360SOL    HW1 4979   2.787   3.735   0.292
 1360SOL    HW2 4980   2.827   3.796   0.147
 1361SOL     OW 4981   6.333   5.126   5.341
 1361SOL    HW1 4982   6.408   5.150   5.280
 1361SOL    HW2 4983   6.330   5.191   5.418
 1362SOL     OW 4984   3.820   3.996   3.538
 1362SOL    HW1 4985   3.861   3.992   3.447
 1362SOL    HW2 4986   3.724   4.025   3.530
 1363SOL     OW 4987   0.146   5.175   4.448
 1363SOL    HW1 4988   0.195   5.250   4.403
 1363SOL    HW2 4989   0.209   5.098   4.462
 1364SOL     OW 4990   4.974   4.204   0.809
 1364SOL    HW1 4991   5.050   4.151   0.772
 1364SOL    HW2 4992   4.972   4.294   0.767
 1365SOL     OW 4993   0.015   4.150   6.215
 1365SOL    HW1 4994   6.946   4.110   6.237
 1365SOL    HW2 4995   0.087   4.096   6.259
 1366SOL     OW 4996   1.665   5.909   0.138
 1366SOL    HW1 4997   1.638   5.863   0.223
 1366SOL    HW2 4998   1.685   5.839   0.068
 1367SOL     OW 4999   2.185   0.284   3.334
 1367SOL    HW1 5000   2.222   0.210   3.390
 1367SOL    HW2 5001   2.086   0.289   3.347
 1368SOL     OW 5002   5.624   6.787   3.916
 1368SOL    HW1 5003   5.621   6.867   3.857
 1368SOL    HW2 5004   5.716   6.749   3.916
 1369SOL     OW 5005   1.879   6.440   2.653
 1369SOL    HW1 5006   1.878   6.532   2.614
 1369SOL    HW2 5007   1.973   6.409   2.663
 1370SOL     OW 5008   3.421   1.215   1.183
 1370SOL    HW1 5009   3.442   1.255   1.093
 1370SOL    HW2 5010   3.430   1.285   1.254
 1371SOL     OW 5011   5.282   1.648   4.290
 1371SOL    HW1 5012   5.249   1.731   4.335
 1371SOL    HW2 5013   5.240   1.641   4.199
 1372SOL     OW 5014   1.164   2.699   0.784
 1372SOL    HW1 5015   1.068   2.723   0.771
 1372SOL    HW2 5016   1.170   2.607   0.823
 1373SOL     OW 5017   6.151   3.888   6.622
 1373SOL    HW1 5018   6.237   3.841   6.601
 1373SOL    HW2 5019   6.148   3.909   6.719
 1374SOL     OW 5020   4.043   2.192   0.514
 1374SOL    HW1 5021   4.001   2.268   0.464
 1374SOL    HW2 5022   4.000   2.106   0.486
 1375SOL     OW 5023   0.075   4.636   6.379
 1375SOL    HW1 5024   0.060   4.670   6.472
 1375SOL    HW2 5025   0.127   4.704   6.327
 1376SOL     OW 5026   4.937   3.298   3.890
 1376SOL    HW1 5027   4.896   3.253   3.969
 1376SOL    HW2 5028   4.902   3.257   3.806
 1377SOL     OW 5029   6.721   3.944   5.145
 1377SOL    HW1 5030   6.783   3.866   5.158
 1377SOL    HW2 5031   6.774   4.027   5.130
 1378SOL     OW 5032   6.286   1.943   4.725
 1378SOL    HW1 5033   6.284   2.020   4.662
 1378SOL    HW2 5034   6.301   1.858   4.675
 1379SOL     OW 5035   3.358   0.202   2.163
 1379SOL    HW1 5036   3.379   0.108   2.136
 1379SOL    HW2 5037   3.262   0.222   2.145
 1380SOL     OW 5038   0.151   0.251   2.411
 1380SOL    HW1 5039   0.155   0.347   2.381
 1380SOL    HW2 5040   0.232   0.230   2.466
 1381SOL     OW 5041   5.195   2.683   0.012
 1381SOL    HW1 5042   5.251   2.660   0.091
 1381SOL    HW2 5043   5.152   2.772   0.027
 1382SOL     OW 5044   5.250   4.524   0.099
 1382SOL    HW1 5045   5.209   4.435   0.117
 1382SOL    HW2 5046   5.312   4.516   0.021
 1383SOL     OW 5047   0.509   1.168   0.112
 1383SOL    HW1 5048   0.580   1.173   0.182
 1383SOL    HW2 5049   0.462   1.080   0.119
 1384SOL     OW 5050   3.848   1.168   2.635
 1384SOL    HW1 5051   3.866   1.073   2.661
 1384SOL    HW2 5052   3.763   1.198   2.678
 1385SOL     OW 5053   0.511   2.915   2.959
 1385SOL    HW1 5054   0.455   2.855   2.901
 1385SOL    HW2 5055   0.573   2.967   2.901
 1386SOL     OW 5056   2.652   2.033   4.502
 1386SOL    HW1 5057   2.598   1.988   4.431
 1386SOL    HW2 5058   2.739   2.063   4.463
 1387SOL     OW 5059   3.894   0.498   3.461
 1387SOL    HW1 5060   3.872   0.571   3.396
 1387SOL    HW2 5061   3.832   0.503   3.539
 1388SOL     OW 5062   6.891   6.803   4.079
 1388SOL    HW1 5063   6.935   6.732   4.133
 1388SOL    HW2 5064   6.823   6.761   4.018
 1389SOL     OW 5065   0.609   0.689   3.519
 1389SOL    HW1 5066   0.618   0.788   3.521
 1389SOL    HW2 5067   0.638   0.654   3.430
 1390SOL     OW 5068   4.829   1.258   6.699
 1390SOL    HW1 5069   4.853   1.284   6.792
 1390SOL    HW2 5070   4.912   1.248   6.644
 1391SOL     OW 5071   6.113   1.488   5.518
 1391SOL    HW1 5072   6.023   1.509   5.481
 1391SOL    HW2 5073   6.180   1.553   5.481
 1392SOL     OW 5074   5.282   5.415   5.369
 1392SOL    HW1 5075   5.196   5.444   5.411
 1392SOL    HW2 5076   5.329   5.351   5.430
 1393SOL     OW 5077   5.535   3.051   6.973
 1393SOL    HW1 5078   5.468   2.999   6.921
 1393SOL    HW2 5079   5.598   2.989   7.019
 1394SOL     OW 5080   3.779   6.818   3.741
 1394SOL    HW1 5081   3.821   6.775   3.661
 1394SOL    HW2 5082   3.805   6.915   3.744
 1395SOL     OW 5083   0.287   4.067   2.524
 1395SOL    HW1 5084   0.371   4.073   2.470
 1395SOL    HW2 5085   0.209   4.059   2.462
 1396SOL     OW 5086   1.977   0.091   4.370
 1396SOL    HW1 5087   2.068   0.125   4.395
 1396SOL    HW2 5088   1.973   0.077   4.271
 1397SOL     OW 5089   0.260   6.274   5.144
 1397SOL    HW1 5090   0.169   6.300   5.177
 1397SOL    HW2 5091   0.251   6.220   5.061
 1398SOL     OW 5092   1.549   1.228   1.210
 1398SOL    HW1 5093   1.463   1.184   1.232
 1398SOL    HW2 5094   1.624   1.162   1.218
 1399SOL     OW 5095   4.122   0.486   0.607
 1399SOL    HW1 5096   4.147   0.488   0.704
 1399SOL    HW2 5097   4.205   0.484   0.552
 1400SOL     OW 5098   6.116   0.977   4.033
 1400SOL    HW1 5099   6.115   1.062   3.980
 1400SOL    HW2 5100   6.151   0.903   3.976
 1401SOL     OW 5101   5.754   0.083   4.185
 1401SOL    HW1 5102   5.815   0.159   4.207
 1401SOL    HW2 5103   5.749   0.071   4.086
 1402SOL     OW 5104   6.163   4.026   6.891
 1402SOL    HW1 5105   6.231   4.083   6.845
 1402SOL    HW2 5106   6.076   4.075   6.895
 1403SOL     OW 5107   2.421   3.148   0.232
 1403SOL    HW1 5108   2.512   3.134   0.270
 1403SOL    HW2 5109   2.354   3.154   0.306
 1404SOL     OW 5110   4.695   0.289   0.903
 1404SOL    HW1 5111   4.602   0.252   0.897
 1404SOL    HW2 5112   4.715   0.313   0.998
 1405SOL     OW 5113   1.603   3.715   0.725
 1405SOL    HW1 5114   1.676   3.745   0.786
 1405SOL    HW2 5115   1.515   3.724   0.772
 1406SOL     OW 5116   2.116   4.141   1.433
 1406SOL    HW1 5117   2.024   4.177   1.416
 1406SOL    HW2 5118   2.136   4.147   1.531
 1407SOL     OW 5119   1.270   3.185   2.631
 1407SOL    HW1 5120   1.216   3.102   2.621
 1407SOL    HW2 5121   1.356   3.175   2.582
 1408SOL     OW 5122   6.134   6.586   0.056
 1408SOL    HW1 5123   6.060   6.542   0.006
 1408SOL    HW2 5124   6.114   6.586   0.154
 1409SOL     OW 5125   6.979   0.833   5.764
 1409SOL    HW1 5126   7.006   0.929   5.763
 1409SOL    HW2 5127   0.016   0.781   5.700
 1410SOL     OW 5128   2.765   3.284   6.376
 1410SOL    HW1 5129   2.861   3.310   6.383
 1410SOL    HW2 5130   2.758   3.190   6.343
 1411SOL     OW 5131   3.429   6.050   6.546
 1411SOL    HW1 5132   3.491   6.129   6.547
 1411SOL    HW2 5133   3.437   6.004   6.457
 1412SOL     OW 5134   0.632   3.333   0.878
 1412SOL    HW1 5135   0.674   3.415   0.839
 1412SOL    HW2 5136   0.703   3.265   0.896
 1413SOL     OW 5137   1.770   1.855   4.612
 1413SOL    HW1 5138   1.830   1.868   4.534
 1413SOL    HW2 5139   1.814   1.794   4.679
 1414SOL     OW 5140   1.126   3.025   1.765
 1414SOL    HW1 5141   1.117   3.124   1.764
 1414SOL    HW2 5142   1.203   2.998   1.706
 1415SOL     OW 5143   2.721   1.744   4.576
 1415SOL    HW1 5144   2.701   1.691   4.658
 1415SOL    HW2 5145   2.684   1.836   4.585
 1416SOL     OW 5146   4.371   0.863   5.285
 1416SOL    HW1 5147   4.298   0.823   5.341
 1416SOL    HW2 5148   4.451   0.879   5.342
 1417SOL     OW 5149   3.391   3.249   5.811
 1417SOL    HW1 5150   3.481   3.216   5.838
 1417SOL    HW2 5151   3.386   3.258   5.712
 1418SOL     OW 5152   3.185   3.794   0.915
 1418SOL    HW1 5153   3.281   3.769   0.926
 1418SOL    HW2 5154   3.177   3.893   0.907
 1419SOL     OW 5155   1.771   4.979   4.244
 1419SOL    HW1 5156   1.871   4.984   4.238
 1419SOL    HW2 5157   1.742   4.885   4.231
 1420SOL     OW 5158   4.097   4.857   2.909
 1420SOL    HW1 5159   4.097   4.836   3.007
 1420SOL    HW2 5160   4.070   4.953   2.896
 1421SOL     OW 5161   0.855   4.527   4.382
 1421SOL    HW1 5162   0.886   4.470   4.457
 1421SOL    HW2 5163   0.924   4.528   4.309
 1422SOL     OW 5164   2.121   4.779   5.852
 1422SOL    HW1 5165   2.077   4.861   5.815
 1422SOL    HW2 5166   2.102   4.772   5.950
 1423SOL     OW 5167   3.905   1.862   4.380
 1423SOL    HW1 5168   3.876   1.771   4.351
 1423SOL    HW2 5169   3.949   1.856   4.470
 1424SOL     OW 5170   6.403   3.757   6.672
 1424SOL    HW1 5171   6.483   3.716   6.627
 1424SOL    HW2 5172   6.423   3.853   6.694
 1425SOL     OW 5173   2.927   6.334   5.134
 1425SOL    HW1 5174   2.892   6.240   5.125
 1425SOL    HW2 5175   3.023   6.336   5.108
 1426SOL     OW 5176   1.865   1.415   6.528
 1426SOL    HW1 5177   1.893   1.326   6.563
 1426SOL    HW2 5178   1.847   1.409   6.430
 1427SOL     OW 5179   0.955   0.322   3.253
 1427SOL    HW1 5180   0.998   0.364   3.333
 1427SOL    HW2 5181   1.015   0.333   3.173
 1428SOL     OW 5182   0.326   2.424   1.273
 1428SOL    HW1 5183   0.414   2.385   1.300
 1428SOL    HW2 5184   0.329   2.447   1.176
 1429SOL     OW 5185   6.497   1.241   6.712
 1429SOL    HW1 5186   6.496   1.142   6.724
 1429SOL    HW2 5187   6.584   1.278   6.745
 1430SOL     OW 5188   2.532   4.618   4.303
 1430SOL    HW1 5189   2.540   4.712   4.335
 1430SOL    HW2 5190   2.437   4.587   4.315
 1431SOL     OW 5191   2.642   2.459   5.540
 1431SOL    HW1 5192   2.639   2.474   5.441
 1431SOL    HW2 5193   2.585   2.380   5.563
 1432SOL     OW 5194   2.128   1.357   0.426
 1432SOL    HW1 5195   2.084   1.409   0.499
 1432SOL    HW2 5196   2.213   1.318   0.459
 1433SOL     OW 5197   4.146   7.010   3.464
 1433SOL    HW1 5198   4.103   7.006   3.554
 1433SOL    HW2 5199   4.240   0.023   3.474
 1434SOL     OW 5200   0.181   2.157   6.217
 1434SOL    HW1 5201   0.083   2.175   6.212
 1434SOL    HW2 5202   0.206   2.135   6.311
 1435SOL     OW 5203   0.390   0.491   4.074
 1435SOL    HW1 5204   0.388   0.534   3.984
 1435SOL    HW2 5205   0.326   0.414   4.076
 1436SOL     OW 5206   6.140   3.581   0.555
 1436SOL    HW1 5207   6.230   3.545   0.580
 1436SOL    HW2 5208   6.074   3.558   0.626
 1437SOL     OW 5209   3.130   1.618   5.604
 1437SOL    HW1 5210   3.139   1.595   5.701
 1437SOL    HW2 5211   3.035   1.608   5.576
 1438SOL     OW 5212   3.277   1.055   1.555
 1438SOL    HW1 5213   3.340   1.133   1.565
 1438SOL    HW2 5214   3.199   1.068   1.615
 1439SOL     OW 5215   0.792   5.880   0.066
 1439SOL    HW1 5216   0.890   5.901   0.067
 1439SOL    HW2 5217   0.774   5.804   0.129
 1440SOL     OW 5218   3.576   3.350   4.385
 1440SOL    HW1 5219   3.534   3.288   4.452
 1440SOL    HW2 5220   3.541   3.330   4.294
 1441SOL     OW 5221   6.635   3.926   3.229
 1441SOL    HW1 5222   6.607   4.019   3.253
 1441SOL    HW2 5223   6.734   3.923   3.219
 1442SOL     OW 5224   5.357   5.235   1.138
 1442SOL    HW1 5225   5.373   5.325   1.097
 1442SOL    HW2 5226   5.445   5.195   1.165
 1443SOL     OW 5227   0.725   0.414   3.917
 1443SOL    HW1 5228   0.659   0.339   3.911
 1443SOL    HW2 5229   0.694   0.490   3.859
 1444SOL     OW 5230   3.893   5.839   3.137
 1444SOL    HW1 5231   3.925   5.823   3.043
 1444SOL    HW2 5232   3.971   5.844   3.198
 1445SOL     OW 5233   0.251   2.881   1.838
 1445SOL    HW1 5234   0.210   2.966   1.808
 1445SOL    HW2 5235   0.350   2.886   1.828
 1446SOL     OW 5236   5.038   2.918   0.106
 1446SOL    HW1 5237   4.984   2.883   0.182
 1446SOL    HW2 5238   4.977   2.955   0.036
 1447SOL     OW 5239   6.529   0.241   5.295
 1447SOL    HW1 5240   6.515   0.142   5.299
 1447SOL    HW2 5241   6.442   0.286   5.276
 1448SOL     OW 5242   6.034   1.713   0.195
 1448SOL    HW1 5243   6.071   1.674   0.279
 1448SOL    HW2 5244   6.063   1.809   0.187
 1449SOL     OW 5245   6.090   6.571   0.364
 1449SOL    HW1 5246   6.036   6.627   0.428
 1449SOL    HW2 5247   6.187   6.580   0.385
 1450SOL     OW 5248   6.912   2.595   2.187
 1450SOL    HW1 5249   6.951   2.659   2.253
 1450SOL    HW2 5250   6.955   2.505   2.198
 1451SOL     OW 5251   3.018   0.838   2.955
 1451SOL    HW1 5252   2.988   0.743   2.945
 1451SOL    HW2 5253   3.094   0.856   2.893
 1452SOL     OW 5254   4.815   1.347   4.614
 1452SOL    HW1 5255   4.867   1.371   4.532
 1452SOL    HW2 5256   4.866   1.375   4.696
 1453SOL     OW 5257   5.881   3.496   4.691
 1453SOL    HW1 5258   5.829   3.415   4.667
 1453SOL    HW2 5259   5.927   3.533   4.610
 1454SOL     OW 5260   5.464   2.802   2.762
 1454SOL    HW1 5261   5.485   2.715   2.808
 1454SOL    HW2 5262   5.455   2.787   2.664
 1455SOL     OW 5263   1.082   0.427   1.777
 1455SOL    HW1 5264   1.162   0.461   1.827
 1455SOL    HW2 5265   1.018   0.502   1.760
 1456SOL     OW 5266   6.700   6.683   5.325
 1456SOL    HW1 5267   6.675   6.683   5.229
 1456SOL    HW2 5268   6.795   6.652   5.336
 1457SOL     OW 5269   1.225   0.027   2.645
 1457SOL    HW1 5270   1.164   6.988   2.699
 1457SOL    HW2 5271   1.307   0.047   2.699
 1458SOL     OW 5272   5.378   6.936   4.874
 1458SOL    HW1 5273   5.289   6.979   4.891
 1458SOL    HW2 5274   5.447   7.007   4.861
 1459SOL     OW 5275   2.678   4.979   0.045
 1459SOL    HW1 5276   2.695   5.069   0.084
 1459SOL    HW2 5277   2.735   4.911   0.092
 1460SOL     OW 5278   0.171   5.631   6.368
 1460SOL    HW1 5279   0.137   5.597   6.280
 1460SOL    HW2 5280   0.208   5.723   6.355
 1461SOL     OW 5281   6.567   4.810   3.618
 1461SOL    HW1 5282   6.552   4.713   3.599
 1461SOL    HW2 5283   6.603   4.820   3.711
 1462SOL     OW 5284   6.856   1.999   0.194
 1462SOL    HW1 5285   6.866   1.904   0.165
 1462SOL    HW2 5286   6.947   2.038   0.211
 1463SOL     OW 5287   0.343   0.037   6.089
 1463SOL    HW1 5288   0.409   0.100   6.050
 1463SOL    HW2 5289   0.323   6.985   6.023
 1464SOL     OW 5290   0.428   6.764   0.731
 1464SOL    HW1 5291   0.421   6.823   0.650
 1464SOL    HW2 5292   0.338   6.723   0.749
 1465SOL     OW 5293   1.253   1.379   2.933
 1465SOL    HW1 5294   1.271   1.403   2.837
 1465SOL    HW2 5295   1.293   1.449   2.993
 1466SOL     OW 5296   0.168   6.786   2.857
 1466SOL    HW1 5297   0.227   6.715   2.818
 1466SOL    HW2 5298   0.125   6.838   2.783
 1467SOL     OW 5299   1.596   0.374   2.228
 1467SOL    HW1 5300   1.634   0.352   2.138
 1467SOL    HW2 5301   1.663   0.428   2.280
 1468SOL     OW 5302   5.270   5.883   3.031
 1468SOL    HW1 5303   5.306   5.918   3.118
 1468SOL    HW2 5304   5.190   5.936   3.004
 1469SOL     OW 5305   0.628   0.806   2.993
 1469SOL    HW1 5306   0.709   0.864   2.987
 1469SOL    HW2 5307   0.578   0.809   2.906
 1470SOL     OW 5308   1.191   0.960   2.374
 1470SOL    HW1 5309   1.120   1.004   2.318
 1470SOL    HW2 5310   1.231   0.884   2.323
 1471SOL     OW 5311   0.892   0.752   6.503
 1471SOL    HW1 5312   0.978   0.701   6.497
 1471SOL    HW2 5313   0.879   0.784   6.597
 1472SOL     OW 5314   4.581   6.265   4.608
 1472SOL    HW1 5315   4.680   6.281   4.615
 1472SOL    HW2 5316   4.545   6.314   4.529
 1473SOL     OW 5317   6.087   5.656   3.596
 1473SOL    HW1 5318   6.050   5.573   3.554
 1473SOL    HW2 5319   6.142   5.631   3.676
 1474SOL     OW 5320   6.576   5.942   3.578
 1474SOL    HW1 5321   6.579   5.920   3.480
 1474SOL    HW2 5322   6.604   5.862   3.631
 1475SOL     OW 5323   0.451   0.454   1.454
 1475SOL    HW1 5324   0.416   0.475   1.362
 1475SOL    HW2 5325   0.442   0.356   1.471
 1476SOL     OW 5326   1.336   0.739   1.362
 1476SOL    HW1 5327   1.383   0.689   1.289
 1476SOL    HW2 5328   1.295   0.674   1.425
 1477SOL     OW 5329   2.735   0.360   6.289
 1477SOL    HW1 5330   2.827   0.367   6.327
 1477SOL    HW2 5331   2.674   0.423   6.338
 1478SOL     OW 5332   5.545   4.489   0.798
 1478SOL    HW1 5333   5.620   4.491   0.865
 1478SOL    HW2 5334   5.474   4.553   0.828
 1479SOL     OW 5335   1.339   4.502   0.150
 1479SOL    HW1 5336   1.422   4.531   0.197
 1479SOL    HW2 5337   1.364   4.446   0.071
 1480SOL     OW 5338   2.900   0.779   0.124
 1480SOL    HW1 5339   2.931   0.852   0.063
 1480SOL    HW2 5340   2.913   0.807   0.219
 1481SOL     OW 5341   5.494   1.968   5.069
 1481SOL    HW1 5342   5.590   1.990   5.050
 1481SOL    HW2 5343   5.488   1.919   5.155
 1482SOL     OW 5344   5.847   1.744   0.936
 1482SOL    HW1 5345   5.785   1.674   0.902
 1482SOL    HW2 5346   5.909   1.773   0.863
 1483SOL     OW 5347   0.245   3.327   6.621
 1483SOL    HW1 5348   0.269   3.295   6.713
 1483SOL    HW2 5349   0.236   3.427   6.621
 1484SOL     OW 5350   6.379   4.267   3.629
 1484SOL    HW1 5351   6.380   4.244   3.532
 1484SOL    HW2 5352   6.287   4.250   3.666
 1485SOL     OW 5353   4.669   2.564   2.463
 1485SOL    HW1 5354   4.699   2.603   2.377
 1485SOL    HW2 5355   4.671   2.634   2.534
 1486SOL     OW 5356   4.677   2.504   3.514
 1486SOL    HW1 5357   4.620   2.544   3.586
 1486SOL    HW2 5358   4.656   2.407   3.503
 1487SOL     OW 5359   6.855   1.950   6.214
 1487SOL    HW1 5360   6.857   1.850   6.217
 1487SOL    HW2 5361   6.760   1.982   6.210
 1488SOL     OW 5362   5.918   2.504   2.982
 1488SOL    HW1 5363   5.930   2.602   2.967
 1488SOL    HW2 5364   6.000   2.467   3.025
 1489SOL     OW 5365   3.831   4.958   4.466
 1489SOL    HW1 5366   3.900   4.894   4.501
 1489SOL    HW2 5367   3.856   5.051   4.490
 1490SOL     OW 5368   1.411   2.321   0.900
 1490SOL    HW1 5369   1.448   2.246   0.954
 1490SOL    HW2 5370   1.389   2.289   0.808
 1491SOL     OW 5371   6.823   3.690   2.900
 1491SOL    HW1 5372   6.864   3.771   2.941
 1491SOL    HW2 5373   6.896   3.630   2.867
 1492SOL     OW 5374   5.762   2.144   2.000
 1492SOL    HW1 5375   5.673   2.106   1.975
 1492SOL    HW2 5376   5.754   2.242   2.018
 1493SOL     OW 5377   4.849   0.809   4.644
 1493SOL    HW1 5378   4.837   0.832   4.548
 1493SOL    HW2 5379   4.766   0.832   4.695
 1494SOL     OW 5380   4.245   2.757   5.667
 1494SOL    HW1 5381   4.312   2.789   5.733
 1494SOL    HW2 5382   4.229   2.828   5.598
 1495SOL     OW 5383   0.671   3.347   3.712
 1495SOL    HW1 5384   0.572   3.337   3.717
 1495SOL    HW2 5385   0.702   3.332   3.618
 1496SOL     OW 5386   0.714   0.353   1.897
 1496SOL    HW1 5387   0.655   0.344   1.817
 1496SOL    HW2 5388   0.797   0.299   1.884
 1497SOL     OW 5389   0.310   4.059   3.216
 1497SOL    HW1 5390   0.280   4.107   3.299
 1497SOL    HW2 5391   0.288   3.962   3.224
 1498SOL     OW 5392   1.763   4.983   6.512
 1498SOL    HW1 5393   1.857   4.973   6.545
 1498SOL    HW2 5394   1.761   4.971   6.413
 1499SOL     OW 5395   1.190   4.009   5.017
 1499SOL    HW1 5396   1.198   3.948   5.095
 1499SOL    HW2 5397   1.093   4.028   4.999
 1500SOL     OW 5398   6.019   6.897   0.416
 1500SOL    HW1 5399   6.043   6.986   0.454
 1500SOL    HW2 5400   5.923   6.877   0.435
 1501SOL     OW 5401   4.429   0.728   6.105
 1501SOL    HW1 5402   4.475   0.769   6.027
 1501SOL    HW2 5403   4.457   0.775   6.189
 1502SOL     OW 5404   6.326   6.669   0.473
 1502SOL    HW1 5405   6.397   6.613   0.517
 1502SOL    HW2 5406   6.283   6.728   0.541
 1503SOL     OW 5407   2.501   2.507   1.068
 1503SOL    HW1 5408   2.526   2.465   1.155
 1503SOL    HW2 5409   2.570   2.573   1.041
 1504SOL     OW 5410   2.717   0.374   4.950
 1504SOL    HW1 5411   2.760   0.454   4.910
 1504SOL    HW2 5412   2.760   0.291   4.914
 1505SOL     OW 5413   4.986   0.099   6.453
 1505SOL    HW1 5414   5.084   0.110   6.433
 1505SOL    HW2 5415   4.932   0.138   6.379
 1506SOL     OW 5416   1.019   4.858   3.417
 1506SOL    HW1 5417   1.069   4.783   3.460
 1506SOL    HW2 5418   1.062   4.945   3.441
 1507SOL     OW 5419   1.904   1.699   4.759
 1507SOL    HW1 5420   1.918   1.602   4.738
 1507SOL    HW2 5421   1.922   1.715   4.856
 1508SOL     OW 5422   4.376   0.234   1.280
 1508SOL    HW1 5423   4.383   0.157   1.344
 1508SOL    HW2 5424   4.286   0.277   1.290
 1509SOL     OW 5425   4.520   2.921   6.072
 1509SOL    HW1 5426   4.572   2.983   6.131
 1509SOL    HW2 5427   4.516   2.831   6.114
 1510SOL     OW 5428   5.384   2.143   3.889
 1510SOL    HW1 5429   5.393   2.050   3.853
 1510SOL    HW2 5430   5.304   2.187   3.849
 1511SOL     OW 5431   2.315   1.784   6.907
 1511SOL    HW1 5432   2.376   1.734   6.845
 1511SOL    HW2 5433   2.352   1.875   6.925
 1512SOL     OW 5434   6.803   6.534   1.505
 1512SOL    HW1 5435   6.882   6.477   1.483
 1512SOL    HW2 5436   6.754   6.496   1.583
 1513SOL     OW 5437   4.523   1.049   3.917
 1513SOL    HW1 5438   4.487   1.010   4.001
 1513SOL    HW2 5439   4.495   1.145   3.910
 1514SOL     OW 5440   5.469   1.751   4.850
 1514SOL    HW1 5441   5.431   1.813   4.919
 1514SOL    HW2 5442   5.564   1.774   4.833
 1515SOL     OW 5443   0.161   2.428   5.761
 1515SOL    HW1 5444   0.199   2.510   5.802
 1515SOL    HW2 5445   0.100   2.383   5.826
 1516SOL     OW 5446   0.422   0.642   0.738
 1516SOL    HW1 5447   0.331   0.669   0.706
 1516SOL    HW2 5448   0.462   0.576   0.675
 1517SOL     OW 5449   4.749   5.489   4.283
 1517SOL    HW1 5450   4.838   5.448   4.264
 1517SOL    HW2 5451   4.762   5.582   4.317
 1518SOL     OW 5452   0.388   3.178   6.864
 1518SOL    HW1 5453   0.290   3.161   6.873
 1518SOL    HW2 5454   0.439   3.100   6.900
 1519SOL     OW 5455   0.112   4.214   1.733
 1519SOL    HW1 5456   0.150   4.166   1.654
 1519SOL    HW2 5457   0.012   4.203   1.734
 1520SOL     OW 5458   1.811   3.455   2.340
 1520SOL    HW1 5459   1.874   3.494   2.273
 1520SOL    HW2 5460   1.724   3.505   2.338
 1521SOL     OW 5461   2.043   3.284   6.804
 1521SOL    HW1 5462   1.997   3.233   6.731
 1521SOL    HW2 5463   2.122   3.232   6.837
 1522SOL     OW 5464   6.772   1.727   5.623
 1522SOL    HW1 5465   6.852   1.668   5.610
 1522SOL    HW2 5466   6.766   1.791   5.546
 1523SOL     OW 5467   5.129   4.006   6.839
 1523SOL    HW1 5468   5.076   4.079   6.795
 1523SOL    HW2 5469   5.145   3.932   6.773
 1524SOL     OW 5470   0.612   2.212   1.698
 1524SOL    HW1 5471   0.627   2.172   1.789
 1524SOL    HW2 5472   0.699   2.245   1.662
 1525SOL     OW 5473   4.802   2.221   5.646
 1525SOL    HW1 5474   4.754   2.158   5.585
 1525SOL    HW2 5475   4.805   2.182   5.738
 1526SOL     OW 5476   0.576   1.211   1.196
 1526SOL    HW1 5477   0.545   1.185   1.287
 1526SOL    HW2 5478   0.669   1.177   1.180
 1527SOL     OW 5479   4.057   1.193   4.765
 1527SOL    HW1 5480   4.021   1.248   4.690
 1527SOL    HW2 5481   3.986   1.130   4.797
 1528SOL     OW 5482   4.633   5.737   3.153
 1528SOL    HW1 5483   4.676   5.769   3.237
 1528SOL    HW2 5484   4.648   5.804   3.080
 1529SOL     OW 5485   4.431   1.461   5.946
 1529SOL    HW1 5486   4.519   1.446   5.902
 1529SOL    HW2 5487   4.362   1.402   5.904
 1530SOL     OW 5488   3.071   0.545   1.155
 1530SOL    HW1 5489   3.075   0.645   1.146
 1530SOL    HW2 5490   3.030   0.521   1.243
 1531SOL     OW 5491   6.030   1.133   5.272
 1531SOL    HW1 5492   6.022   1.115   5.370
 1531SOL    HW2 5493   6.124   1.113   5.243
 1532SOL     OW 5494   2.570   2.482   4.676
 1532SOL    HW1 5495   2.505   2.407   4.662
 1532SOL    HW2 5496   2.630   2.489   4.597
 1533SOL     OW 5497   0.109   3.592   6.558
 1533SOL    HW1 5498   0.098   3.684   6.521
 1533SOL    HW2 5499   0.120   3.597   6.657
 1534SOL     OW 5500   1.549   5.148   0.212
 1534SOL    HW1 5501   1.614   5.209   0.256
 1534SOL    HW2 5502   1.588   5.113   0.126
 1535SOL     OW 5503   5.894   5.541   4.196
 1535SOL    HW1 5504   5.954   5.572   4.270
 1535SOL    HW2 5505   5.949   5.516   4.117
 1536SOL     OW 5506   3.287   5.369   4.627
 1536SOL    HW1 5507   3.274   5.289   4.569
 1536SOL    HW2 5508   3.284   5.341   4.723
 1537SOL     OW 5509   3.857   5.764   3.565
 1537SOL    HW1 5510   3.888   5.756   3.660
 1537SOL    HW2 5511   3.891   5.686   3.513
 1538SOL     OW 5512   3.445   4.844   5.782
 1538SOL    HW1 5513   3.378   4.909   5.818
 1538SOL    HW2 5514   3.467   4.777   5.852
 1539SOL     OW 5515   4.248   4.184   1.660
 1539SOL    HW1 5516   4.300   4.202   1.576
 1539SOL    HW2 5517   4.301   4.216   1.739
 1540SOL     OW 5518   0.349   6.876   5.117
 1540SOL    HW1 5519   0.405   6.885   5.035
 1540SOL    HW2 5520   0.410   6.867   5.197
 1541SOL     OW 5521   3.819   2.705   0.976
 1541SOL    HW1 5522   3.882   2.748   1.040
 1541SOL    HW2 5523   3.821   2.605   0.990
 1542SOL     OW 5524   0.065   6.332   1.705
 1542SOL    HW1 5525   0.165   6.326   1.715
 1542SOL    HW2 5526   0.043   6.387   1.624
 1543SOL     OW 5527   2.922   3.760   3.459
 1543SOL    HW1 5528   2.827   3.741   3.482
 1543SOL    HW2 5529   2.967   3.806   3.536
 1544SOL     OW 5530   2.954   3.829   2.310
 1544SOL    HW1 5531   3.004   3.768   2.248
 1544SOL    HW2 5532   2.875   3.781   2.348
 1545SOL     OW 5533   5.658   0.787   5.362
 1545SOL    HW1 5534   5.665   0.691   5.389
 1545SOL    HW2 5535   5.669   0.794   5.262
 1546SOL     OW 5536   5.037   0.120   5.999
 1546SOL    HW1 5537   4.984   0.150   6.079
 1546SOL    HW2 5538   5.119   0.071   6.029
 1547SOL     OW 5539   2.050   4.215   2.433
 1547SOL    HW1 5540   1.985   4.140   2.419
 1547SOL    HW2 5541   2.105   4.195   2.514
 1548SOL     OW 5542   4.455   4.245   5.388
 1548SOL    HW1 5543   4.490   4.151   5.389
 1548SOL    HW2 5544   4.360   4.246   5.419
 1549SOL     OW 5545   6.364   1.377   2.169
 1549SOL    HW1 5546   6.415   1.291   2.175
 1549SOL    HW2 5547   6.301   1.373   2.091
 1550SOL     OW 5548   2.874   6.695   5.938
 1550SOL    HW1 5549   2.841   6.686   5.844
 1550SOL    HW2 5550   2.847   6.615   5.991
 1551SOL     OW 5551   1.569   3.504   1.198
 1551SOL    HW1 5552   1.531   3.596   1.190
 1551SOL    HW2 5553   1.669   3.509   1.204
 1552SOL     OW 5554   0.897   6.768   1.624
 1552SOL    HW1 5555   0.835   6.803   1.554
 1552SOL    HW2 5556   0.877   6.812   1.712
 1553SOL     OW 5557   6.591   1.998   6.193
 1553SOL    HW1 5558   6.549   2.030   6.108
 1553SOL    HW2 5559   6.547   1.913   6.222
 1554SOL     OW 5560   3.643   2.103   2.997
 1554SOL    HW1 5561   3.596   2.132   2.914
 1554SOL    HW2 5562   3.739   2.132   2.993
 1555SOL     OW 5563   4.819   2.324   5.247
 1555SOL    HW1 5564   4.761   2.243   5.250
 1555SOL    HW2 5565   4.860   2.333   5.156
 1556SOL     OW 5566   3.596   0.453   0.599
 1556SOL    HW1 5567   3.584   0.361   0.561
 1556SOL    HW2 5568   3.686   0.489   0.572
 1557SOL     OW 5569   2.713   2.654   0.990
 1557SOL    HW1 5570   2.698   2.726   1.058
 1557SOL    HW2 5571   2.800   2.608   1.009
 1558SOL     OW 5572   5.887   2.467   4.568
 1558SOL    HW1 5573   5.923   2.418   4.489
 1558SOL    HW2 5574   5.963   2.505   4.621
 1559SOL     OW 5575   0.467   3.479   1.400
 1559SOL    HW1 5576   0.425   3.404   1.451
 1559SOL    HW2 5577   0.403   3.555   1.392
 1560SOL     OW 5578   3.148   1.246   6.499
 1560SOL    HW1 5579   3.200   1.296   6.430
 1560SOL    HW2 5580   3.118   1.309   6.570
 1561SOL     OW 5581   4.748   5.589   3.419
 1561SOL    HW1 5582   4.699   5.600   3.505
 1561SOL    HW2 5583   4.706   5.514   3.366
 1562SOL     OW 5584   3.425   6.354   2.288
 1562SOL    HW1 5585   3.460   6.376   2.379
 1562SOL    HW2 5586   3.330   6.323   2.295
 1563SOL     OW 5587   2.700   1.922   4.859
 1563SOL    HW1 5588   2.793   1.900   4.888
 1563SOL    HW2 5589   2.652   1.837   4.837
 1564SOL     OW 5590   1.369   1.454   2.097
 1564SOL    HW1 5591   1.362   1.524   2.168
 1564SOL    HW2 5592   1.291   1.392   2.104
 1565SOL     OW 5593   4.168   5.504   4.898
 1565SOL    HW1 5594   4.189   5.425   4.841
 1565SOL    HW2 5595   4.107   5.477   4.972
 1566SOL     OW 5596   6.189   4.936   4.234
 1566SOL    HW1 5597   6.244   4.864   4.190
 1566SOL    HW2 5598   6.248   4.990   4.294
 1567SOL     OW 5599   5.712   5.176   6.807
 1567SOL    HW1 5600   5.707   5.087   6.852
 1567SOL    HW2 5601   5.798   5.220   6.830
 1568SOL     OW 5602   2.932   6.033   3.579
 1568SOL    HW1 5603   2.887   5.958   3.628
 1568SOL    HW2 5604   2.890   6.045   3.489
 1569SOL     OW 5605   3.627   0.395   3.219
 1569SOL    HW1 5606   3.618   0.471   3.155
 1569SOL    HW2 5607   3.537   0.353   3.234
 1570SOL     OW 5608   2.488   6.606   6.342
 1570SOL    HW1 5609   2.413   6.633   6.281
 1570SOL    HW2 5610   2.488   6.506   6.352
 1571SOL     OW 5611   1.165   3.010   3.504
 1571SOL    HW1 5612   1.110   2.931   3.530
 1571SOL    HW2 5613   1.158   3.025   3.406
 1572SOL     OW 5614   1.821   5.403   2.098
 1572SOL    HW1 5615   1.910   5.372   2.131
 1572SOL    HW2 5616   1.827   5.499   2.070
 1573SOL     OW 5617   5.657   4.952   2.395
 1573SOL    HW1 5618   5.576   4.994   2.353
 1573SOL    HW2 5619   5.712   4.908   2.325
 1574SOL     OW 5620   6.183   2.903   2.101
 1574SOL    HW1 5621   6.248   2.846   2.051
 1574SOL    HW2 5622   6.160   2.984   2.046
 1575SOL     OW 5623   2.209   0.605   1.882
 1575SOL    HW1 5624   2.262   0.578   1.802
 1575SOL    HW2 5625   2.112   0.588   1.865
 1576SOL     OW 5626   1.261   6.239   3.013
 1576SOL    HW1 5627   1.290   6.207   2.923
 1576SOL    HW2 5628   1.190   6.308   3.003
 1577SOL     OW 5629   2.400   0.563   6.301
 1577SOL    HW1 5630   2.455   0.533   6.222
 1577SOL    HW2 5631   2.304   0.568   6.274
 1578SOL     OW 5632   4.834   0.956   6.636
 1578SOL    HW1 5633   4.792   0.888   6.696
 1578SOL    HW2 5634   4.785   1.043   6.645
 1579SOL     OW 5635   0.345   2.606   1.474
 1579SOL    HW1 5636   0.299   2.685   1.433
 1579SOL    HW2 5637   0.348   2.532   1.407
 1580SOL     OW 5638   2.990   3.966   2.746
 1580SOL    HW1 5639   3.039   4.026   2.683
 1580SOL    HW2 5640   3.049   3.942   2.824
 1581SOL     OW 5641   6.875   4.395   5.487
 1581SOL    HW1 5642   6.811   4.319   5.477
 1581SOL    HW2 5643   6.882   4.445   5.401
 1582SOL     OW 5644   3.606   5.721   4.781
 1582SOL    HW1 5645   3.570   5.786   4.714
 1582SOL    HW2 5646   3.693   5.756   4.817
 1583SOL     OW 5647   0.676   5.619   4.920
 1583SOL    HW1 5648   0.606   5.589   4.854
 1583SOL    HW2 5649   0.634   5.637   5.008
 1584SOL     OW 5650   2.025   5.116   6.934
 1584SOL    HW1 5651   2.032   5.032   6.988
 1584SOL    HW2 5652   2.110   5.129   6.882
 1585SOL     OW 5653   4.239   1.388   2.939
 1585SOL    HW1 5654   4.201   1.342   2.858
 1585SOL    HW2 5655   4.256   1.321   3.011
 1586SOL     OW 5656   2.969   4.843   3.312
 1586SOL    HW1 5657   3.065   4.858   3.332
 1586SOL    HW2 5658   2.923   4.930   3.298
 1587SOL     OW 5659   1.725   5.203   5.430
 1587SOL    HW1 5660   1.653   5.141   5.459
 1587SOL    HW2 5661   1.752   5.182   5.336
 1588SOL     OW 5662   4.555   0.764   2.340
 1588SOL    HW1 5663   4.530   0.783   2.434
 1588SOL    HW2 5664   4.634   0.702   2.337
 1589SOL     OW 5665   6.721   3.305   2.815
 1589SOL    HW1 5666   6.697   3.227   2.873
 1589SOL    HW2 5667   6.674   3.387   2.849
 1590SOL     OW 5668   5.521   1.120   3.477
 1590SOL    HW1 5669   5.457   1.095   3.405
 1590SOL    HW2 5670   5.471   1.148   3.558
 1591SOL     OW 5671   6.881   5.809   1.378
 1591SOL    HW1 5672   6.815   5.740   1.350
 1591SOL    HW2 5673   6.835   5.898   1.385
 1592SOL     OW 5674   1.634   4.253   0.105
 1592SOL    HW1 5675   1.705   4.183   0.116
 1592SOL    HW2 5676   1.556   4.231   0.163
 1593SOL     OW 5677   0.775   0.234   6.373
 1593SOL    HW1 5678   0.738   0.314   6.326
 1593SOL    HW2 5679   0.715   0.155   6.355
 1594SOL     OW 5680   0.331   6.068   1.620
 1594SOL    HW1 5681   0.374   5.982   1.591
 1594SOL    HW2 5682   0.245   6.048   1.667
 1595SOL     OW 5683   1.019   4.431   0.769
 1595SOL    HW1 5684   1.034   4.492   0.691
 1595SOL    HW2 5685   1.091   4.447   0.837
 1596SOL     OW 5686   6.292   2.843   2.340
 1596SOL    HW1 5687   6.216   2.825   2.402
 1596SOL    HW2 5688   6.256   2.865   2.249
 1597SOL     OW 5689   2.756   5.910   1.314
 1597SOL    HW1 5690   2.681   5.975   1.328
 1597SOL    HW2 5691   2.817   5.945   1.242
 1598SOL     OW 5692   1.307   5.476   6.399
 1598SOL    HW1 5693   1.290   5.456   6.496
 1598SOL    HW2 5694   1.304   5.392   6.346
 1599SOL     OW 5695   4.671   4.928   5.202
 1599SOL    HW1 5696   4.634   5.020   5.191
 1599SOL    HW2 5697   4.685   4.909   5.299
 1600SOL     OW 5698   2.862   1.081   2.335
 1600SOL    HW1 5699   2.941   1.022   2.319
 1600SOL    HW2 5700   2.885   1.149   2.404
 1601SOL     OW 5701   0.237   6.672   4.376
 1601SOL    HW1 5702   0.307   6.607   4.347
 1601SOL    HW2 5703   0.165   6.677   4.306
 1602SOL     OW 5704   4.575   5.465   4.493
 1602SOL    HW1 5705   4.602   5.459   4.397
 1602SOL    HW2 5706   4.655   5.449   4.551
 1603SOL     OW 5707   2.691   5.122   4.080
 1603SOL    HW1 5708   2.723   5.041   4.030
 1603SOL    HW2 5709   2.608   5.156   4.036
 1604SOL     OW 5710   3.792   5.254   1.508
 1604SOL    HW1 5711   3.710   5.253   1.565
 1604SOL    HW2 5712   3.821   5.160   1.490
 1605SOL     OW 5713   6.493   5.465   1.420
 1605SOL    HW1 5714   6.489   5.565   1.429
 1605SOL    HW2 5715   6.455   5.423   1.502
 1606SOL     OW 5716   3.878   5.636   5.429
 1606SOL    HW1 5717   3.797   5.668   5.379
 1606SOL    HW2 5718   3.960   5.654   5.376
 1607SOL     OW 5719   4.436   0.174   0.925
 1607SOL    HW1 5720   4.364   0.185   0.993
 1607SOL    HW2 5721   4.396   0.137   0.841
 1608SOL     OW 5722   6.837   1.255   2.807
 1608SOL    HW1 5723   6.760   1.308   2.773
 1608SOL    HW2 5724   6.884   1.210   2.730
 1609SOL     OW 5725   3.380   0.046   0.793
 1609SOL    HW1 5726   3.361   0.142   0.772
 1609SOL    HW2 5727   3.467   0.018   0.753
 1610SOL     OW 5728   5.271   6.430   0.919
 1610SOL    HW1 5729   5.187   6.449   0.971
 1610SOL    HW2 5730   5.262   6.342   0.872
 1611SOL     OW 5731   1.627   3.448   0.592
 1611SOL    HW1 5732   1.650   3.394   0.673
 1611SOL    HW2 5733   1.629   3.545   0.615
 1612SOL     OW 5734   3.266   6.494   1.424
 1612SOL    HW1 5735   3.261   6.491   1.524
 1612SOL    HW2 5736   3.203   6.564   1.390
 1613SOL     OW 5737   0.685   5.749   2.400
 1613SOL    HW1 5738   0.725   5.834   2.436
 1613SOL    HW2 5739   0.593   5.738   2.437
 1614SOL     OW 5740   5.679   2.072   5.961
 1614SOL    HW1 5741   5.690   2.120   5.874
 1614SOL    HW2 5742   5.585   2.082   5.993
 1615SOL     OW 5743   6.598   5.388   6.462
 1615SOL    HW1 5744   6.512   5.422   6.499
 1615SOL    HW2 5745   6.674   5.440   6.500
 1616SOL     OW 5746   4.433   0.517   3.519
 1616SOL    HW1 5747   4.505   0.578   3.552
 1616SOL    HW2 5748   4.360   0.571   3.476
 1617SOL     OW 5749   4.623   6.065   3.268
 1617SOL    HW1 5750   4.654   6.094   3.178
 1617SOL    HW2 5751   4.682   6.106   3.338
 1618SOL     OW 5752   1.277   5.637   2.329
 1618SOL    HW1 5753   1.302   5.711   2.267
 1618SOL    HW2 5754   1.347   5.565   2.325
 1619SOL     OW 5755   0.405   5.262   0.135
 1619SOL    HW1 5756   0.345   5.224   0.065
 1619SOL    HW2 5757   0.487   5.300   0.092
 1620SOL     OW 5758   3.234   4.722   1.641
 1620SOL    HW1 5759   3.323   4.719   1.594
 1620SOL    HW2 5760   3.202   4.629   1.657
 1621SOL     OW 5761   5.815   0.360   0.719
 1621SOL    HW1 5762   5.750   0.410   0.664
 1621SOL    HW2 5763   5.769   0.283   0.763
 1622SOL     OW 5764   0.749   3.653   5.545
 1622SOL    HW1 5765   0.802   3.674   5.462
 1622SOL    HW2 5766   0.711   3.561   5.538
 1623SOL     OW 5767   0.588   2.154   4.284
 1623SOL    HW1 5768   0.638   2.127   4.366
 1623SOL    HW2 5769   0.500   2.106   4.282
 1624SOL     OW 5770   4.247   1.428   6.403
 1624SOL    HW1 5771   4.196   1.511   6.424
 1624SOL    HW2 5772   4.213   1.353   6.460
 1625SOL     OW 5773   1.379   5.157   6.827
 1625SOL    HW1 5774   1.443   5.115   6.763
 1625SOL    HW2 5775   1.306   5.203   6.775
 1626SOL     OW 5776   3.379   1.529   1.408
 1626SOL    HW1 5777   3.349   1.597   1.341
 1626SOL    HW2 5778   3.420   1.575   1.487
 1627SOL     OW 5779   5.421   2.713   3.377
 1627SOL    HW1 5780   5.359   2.757   3.313
 1627SOL    HW2 5781   5.495   2.776   3.401
 1628SOL     OW 5782   4.758   5.477   6.970
 1628SOL    HW1 5783   4.831   5.509   0.010
 1628SOL    HW2 5784   4.726   5.553   6.912
 1629SOL     OW 5785   2.523   1.184   3.741
 1629SOL    HW1 5786   2.602   1.132   3.774
 1629SOL    HW2 5787   2.440   1.148   3.783
 1630SOL     OW 5788   0.155   4.271   5.267
 1630SOL    HW1 5789   0.093   4.195   5.280
 1630SOL    HW2 5790   0.248   4.236   5.252
 1631SOL     OW 5791   0.547   2.923   0.688
 1631SOL    HW1 5792   0.516   3.018   0.691
 1631SOL    HW2 5793   0.557   2.888   0.782
 1632SOL     OW 5794   4.898   3.600   3.047
 1632SOL    HW1 5795   4.854   3.512   3.026
 1632SOL    HW2 5796   4.918   3.604   3.145
 1633SOL     OW 5797   5.267   4.158   4.892
 1633SOL    HW1 5798   5.322   4.079   4.867
 1633SOL    HW2 5799   5.170   4.134   4.890
 1634SOL     OW 5800   4.512   0.863   4.098
 1634SOL    HW1 5801   4.441   0.795   4.078
 1634SOL    HW2 5802   4.491   0.907   4.186
 1635SOL     OW 5803   1.026   5.079   6.486
 1635SOL    HW1 5804   1.045   5.058   6.390
 1635SOL    HW2 5805   0.966   5.159   6.492
 1636SOL     OW 5806   3.027   5.679   1.357
 1636SOL    HW1 5807   3.035   5.629   1.444
 1636SOL    HW2 5808   2.939   5.726   1.354
 1637SOL     OW 5809   6.674   0.113   3.574
 1637SOL    HW1 5810   6.629   0.025   3.591
 1637SOL    HW2 5811   6.773   0.101   3.585
 1638SOL     OW 5812   0.849   3.304   2.058
 1638SOL    HW1 5813   0.751   3.290   2.072
 1638SOL    HW2 5814   0.899   3.221   2.083
 1639SOL     OW 5815   5.732   4.763   1.950
 1639SOL    HW1 5816   5.735   4.715   2.038
 1639SOL    HW2 5817   5.792   4.716   1.885
 1640SOL     OW 5818   6.593   0.123   0.150
 1640SOL    HW1 5819   6.531   0.106   0.074
 1640SOL    HW2 5820   6.568   0.064   0.227
 1641SOL     OW 5821   6.878   2.743   3.546
 1641SOL    HW1 5822   6.961   2.688   3.544
 1641SOL    HW2 5823   6.898   2.833   3.585
 1642SOL     OW 5824   6.956   2.996   6.408
 1642SOL    HW1 5825   6.942   3.034   6.316
 1642SOL    HW2 5826   6.872   3.008   6.462
 1643SOL     OW 5827   2.568   4.523   3.144
 1643SOL    HW1 5828   2.545   4.538   3.048
 1643SOL    HW2 5829   2.655   4.568   3.165
 1644SOL     OW 5830   5.531   2.988   6.612
 1644SOL    HW1 5831   5.513   2.921   6.684
 1644SOL    HW2 5832   5.601   2.952   6.550
 1645SOL     OW 5833   3.218   6.515   6.144
 1645SOL    HW1 5834   3.214   6.565   6.058
 1645SOL    HW2 5835   3.164   6.563   6.213
 1646SOL     OW 5836   1.619   6.463   0.271
 1646SOL    HW1 5837   1.706   6.465   0.320
 1646SOL    HW2 5838   1.637   6.466   0.172
 1647SOL     OW 5839   5.899   2.450   3.992
 1647SOL    HW1 5840   5.892   2.503   4.076
 1647SOL    HW2 5841   5.817   2.466   3.936
 1648SOL     OW 5842   5.512   6.724   0.495
 1648SOL    HW1 5843   5.458   6.701   0.576
 1648SOL    HW2 5844   5.568   6.646   0.469
 1649SOL     OW 5845   3.801   1.324   4.568
 1649SOL    HW1 5846   3.723   1.370   4.526
 1649SOL    HW2 5847   3.842   1.259   4.503
 1650SOL     OW 5848   1.072   6.054   5.145
 1650SOL    HW1 5849   1.157   6.016   5.110
 1650SOL    HW2 5850   1.092   6.130   5.207
 1651SOL     OW 5851   0.384   1.997   2.920
 1651SOL    HW1 5852   0.454   1.931   2.948
 1651SOL    HW2 5853   0.398   2.023   2.825
 1652SOL     OW 5854   1.341   3.785   2.385
 1652SOL    HW1 5855   1.401   3.786   2.305
 1652SOL    HW2 5856   1.277   3.861   2.379
 1653SOL     OW 5857   0.232   5.643   1.491
 1653SOL    HW1 5858   0.295   5.713   1.526
 1653SOL    HW2 5859   0.279   5.555   1.486
 1654SOL     OW 5860   0.062   3.297   1.172
 1654SOL    HW1 5861   0.070   3.393   1.197
 1654SOL    HW2 5862   0.152   3.260   1.151
 1655SOL     OW 5863   6.554   1.419   3.943
 1655SOL    HW1 5864   6.491   1.342   3.935
 1655SOL    HW2 5865   6.629   1.395   4.004
 1656SOL     OW 5866   2.136   5.316   3.118
 1656SOL    HW1 5867   2.083   5.398   3.137
 1656SOL    HW2 5868   2.216   5.313   3.178
 1657SOL     OW 5869   5.942   0.247   4.264
 1657SOL    HW1 5870   5.902   0.335   4.292
 1657SOL    HW2 5871   6.033   0.238   4.303
 1658SOL     OW 5872   6.374   0.556   0.926
 1658SOL    HW1 5873   6.403   0.521   0.837
 1658SOL    HW2 5874   6.454   0.574   0.983
 1659SOL     OW 5875   3.743   6.835   7.006
 1659SOL    HW1 5876   3.729   6.924   6.965
 1659SOL    HW2 5877   3.663   6.777   6.989
 1660SOL     OW 5878   1.719   6.428   2.862
 1660SOL    HW1 5879   1.671   6.342   2.881
 1660SOL    HW2 5880   1.772   6.417   2.777
 1661SOL     OW 5881   2.834   5.659   1.749
 1661SOL    HW1 5882   2.752   5.715   1.734
 1661SOL    HW2 5883   2.844   5.641   1.847
 1662SOL     OW 5884   6.697   0.386   4.580
 1662SOL    HW1 5885   6.647   0.417   4.499
 1662SOL    HW2 5886   6.681   0.449   4.656
 1663SOL     OW 5887   4.811   5.398   2.724
 1663SOL    HW1 5888   4.794   5.310   2.769
 1663SOL    HW2 5889   4.794   5.389   2.626
 1664SOL     OW 5890   2.210   5.927   5.652
 1664SOL    HW1 5891   2.278   5.863   5.686
 1664SOL    HW2 5892   2.206   6.007   5.713
 1665SOL     OW 5893   0.164   3.504   1.689
 1665SOL    HW1 5894   0.196   3.414   1.659
 1665SOL    HW2 5895   0.066   3.500   1.708
 1666SOL     OW 5896   5.658   0.085   0.263
 1666SOL    HW1 5897   5.695   0.021   0.330
 1666SOL    HW2 5898   5.567   0.115   0.292
 1667SOL     OW 5899   6.754   6.086   1.841
 1667SOL    HW1 5900   6.732   6.034   1.923
 1667SOL    HW2 5901   6.845   6.127   1.851
 1668SOL     OW 5902   4.715   4.960   3.565
 1668SOL    HW1 5903   4.659   4.889   3.608
 1668SOL    HW2 5904   4.799   4.919   3.528
 1669SOL     OW 5905   6.871   4.480   5.799
 1669SOL    HW1 5906   6.946   4.467   5.864
 1669SOL    HW2 5907   6.881   4.415   5.724
 1670SOL     OW 5908   0.384   4.480   5.073
 1670SOL    HW1 5909   0.331   4.511   5.151
 1670SOL    HW2 5910   0.405   4.383   5.083
 1671SOL     OW 5911   5.828   1.024   3.207
 1671SOL    HW1 5912   5.889   1.100   3.184
 1671SOL    HW2 5913   5.839   1.001   3.304
 1672SOL     OW 5914   2.406   4.145   6.459
 1672SOL    HW1 5915   2.394   4.095   6.374
 1672SOL    HW2 5916   2.317   4.168   6.498
 1673SOL     OW 5917   1.340   1.434   4.968
 1673SOL    HW1 5918   1.433   1.399   4.982
 1673SOL    HW2 5919   1.343   1.533   4.957
 1674SOL     OW 5920   0.220   3.416   2.332
 1674SOL    HW1 5921   0.156   3.344   2.305
 1674SOL    HW2 5922   0.196   3.501   2.285
 1675SOL     OW 5923   5.060   0.291   6.920
 1675SOL    HW1 5924   5.094   0.383   6.937
 1675SOL    HW2 5925   4.960   0.291   6.917
 1676SOL     OW 5926   2.461   2.658   1.997
 1676SOL    HW1 5927   2.538   2.689   1.942
 1676SOL    HW2 5928   2.375   2.682   1.952
 1677SOL     OW 5929   3.996   3.690   3.325
 1677SOL    HW1 5930   4.020   3.726   3.415
 1677SOL    HW2 5931   3.970   3.765   3.265
 1678SOL     OW 5932   0.122   5.432   2.014
 1678SOL    HW1 5933   0.061   5.447   2.092
 1678SOL    HW2 5934   0.170   5.517   1.993
 1679SOL     OW 5935   1.768   1.532   4.990
 1679SOL    HW1 5936   1.805   1.622   5.014
 1679SOL    HW2 5937   1.831   1.486   4.927
 1680SOL     OW 5938   6.408   3.972   5.484
 1680SOL    HW1 5939   6.392   4.033   5.562
 1680SOL    HW2 5940   6.492   3.920   5.500
 1681SOL     OW 5941   1.361   6.292   5.509
 1681SOL    HW1 5942   1.410   6.260   5.590
 1681SOL    HW2 5943   1.361   6.392   5.508
 1682SOL     OW 5944   2.094   0.734   5.733
 1682SOL    HW1 5945   2.114   0.651   5.681
 1682SOL    HW2 5946   2.110   0.814   5.675
 1683SOL     OW 5947   6.481   5.480   2.854
 1683SOL    HW1 5948   6.430   5.542   2.914
 1683SOL    HW2 5949   6.447   5.490   2.760
 1684SOL     OW 5950   0.373   5.679   2.228
 1684SOL    HW1 5951   0.275   5.669   2.216
 1684SOL    HW2 5952   0.407   5.751   2.167
 1685SOL     OW 5953   2.210   1.444   6.031
 1685SOL    HW1 5954   2.222   1.528   5.978
 1685SOL    HW2 5955   2.299   1.408   6.056
 1686SOL     OW 5956   3.420   6.094   4.041
 1686SOL    HW1 5957   3.445   6.122   4.133
 1686SOL    HW2 5958   3.374   6.005   4.045
 1687SOL     OW 5959   0.504   2.928   1.779
 1687SOL    HW1 5960   0.554   2.845   1.757
 1687SOL    HW2 5961   0.542   3.005   1.726
 1688SOL     OW 5962   1.596   1.378   4.146
 1688SOL    HW1 5963   1.498   1.389   4.126
 1688SOL    HW2 5964   1.649   1.410   4.068
 1689SOL     OW 5965   6.599   0.737   2.220
 1689SOL    HW1 5966   6.566   0.705   2.309
 1689SOL    HW2 5967   6.540   0.811   2.188
 1690SOL     OW 5968   0.982   3.271   4.764
 1690SOL    HW1 5969   1.019   3.201   4.825
 1690SOL    HW2 5970   0.882   3.268   4.767
 1691SOL     OW 5971   5.293   3.329   4.022
 1691SOL    HW1 5972   5.349   3.283   3.954
 1691SOL    HW2 5973   5.217   3.270   4.049
 1692SOL     OW 5974   4.837   6.294   1.743
 1692SOL    HW1 5975   4.793   6.377   1.775
 1692SOL    HW2 5976   4.934   6.313   1.726
 1693SOL     OW 5977   0.036   2.259   3.489
 1693SOL    HW1 5978   0.034   2.199   3.409
 1693SOL    HW2 5979   6.972   2.249   3.541
 1694SOL     OW 5980   6.159   1.513   3.784
 1694SOL    HW1 5981   6.079   1.538   3.728
 1694SOL    HW2 5982   6.138   1.527   3.880
 1695SOL     OW 5983   3.372   0.313   6.432
 1695SOL    HW1 5984   3.345   0.276   6.343
 1695SOL    HW2 5985   3.329   0.402   6.445
 1696SOL     OW 5986   3.757   5.949   0.992
 1696SOL    HW1 5987   3.835   6.007   0.972
 1696SOL    HW2 5988   3.700   5.939   0.910
 1697SOL     OW 5989   6.365   1.723   1.371
 1697SOL    HW1 5990   6.462   1.701   1.386
 1697SOL    HW2 5991   6.353   1.756   1.277
 1698SOL     OW 5992   4.256   0.985   1.147
 1698SOL    HW1 5993   4.199   1.051   1.196
 1698SOL    HW2 5994   4.210   0.958   1.062
 1699SOL     OW 5995   1.970   1.826   5.919
 1699SOL    HW1 5996   1.995   1.854   6.012
 1699SOL    HW2 5997   1.989   1.901   5.855
 1700SOL     OW 5998   6.383   4.057   3.224
 1700SOL    HW1 5999   6.353   4.042   3.129
 1700SOL    HW2 6000   6.383   3.970   3.273
 1701SOL     OW 6001   6.080   5.835   5.315
 1701SOL    HW1 6002   6.016   5.790   5.377
 1701SOL    HW2 6003   6.106   5.924   5.352
 1702SOL     OW 6004   0.218   0.986   1.093
 1702SOL    HW1 6005   0.228   1.001   0.994
 1702SOL    HW2 6006   0.306   0.958   1.131
 1703SOL     OW 6007   3.476   1.254   6.575
 1703SOL    HW1 6008   3.455   1.172   6.520
 1703SOL    HW2 6009   3.529   1.318   6.519
 1704SOL     OW 6010   1.538   2.401   0.323
 1704SOL    HW1 6011   1.469   2.417   0.392
 1704SOL    HW2 6012   1.515   2.452   0.240
 1705SOL     OW 6013   3.421   2.446   1.680
 1705SOL    HW1 6014   3.355   2.372   1.670
 1705SOL    HW2 6015   3.496   2.416   1.740
 1706SOL     OW 6016   4.310   2.223   1.492
 1706SOL    HW1 6017   4.258   2.262   1.568
 1706SOL    HW2 6018   4.246   2.181   1.427
 1707SOL     OW 6019   4.700   2.740   2.674
 1707SOL    HW1 6020   4.788   2.736   2.722
 1707SOL    HW2 6021   4.626   2.721   2.739
 1708SOL     OW 6022   4.065   5.497   1.482
 1708SOL    HW1 6023   4.141   5.479   1.544
 1708SOL    HW2 6024   3.979   5.499   1.535
 1709SOL     OW 6025   3.401   6.668   1.209
 1709SOL    HW1 6026   3.459   6.619   1.144
 1709SOL    HW2 6027   3.397   6.618   1.295
 1710SOL     OW 6028   3.693   5.363   3.666
 1710SOL    HW1 6029   3.677   5.451   3.620
 1710SOL    HW2 6030   3.765   5.374   3.734
 1711SOL     OW 6031   2.486   4.788   4.826
 1711SOL    HW1 6032   2.458   4.727   4.900
 1711SOL    HW2 6033   2.405   4.822   4.778
 1712SOL     OW 6034   6.722   1.831   4.878
 1712SOL    HW1 6035   6.713   1.776   4.795
 1712SOL    HW2 6036   6.814   1.869   4.884
 1713SOL     OW 6037   4.173   1.511   2.608
 1713SOL    HW1 6038   4.089   1.486   2.656
 1713SOL    HW2 6039   4.238   1.553   2.671
 1714SOL     OW 6040   4.161   1.822   6.097
 1714SOL    HW1 6041   4.209   1.737   6.120
 1714SOL    HW2 6042   4.168   1.886   6.174
 1715SOL     OW 6043   2.303   5.381   3.341
 1715SOL    HW1 6044   2.261   5.433   3.415
 1715SOL    HW2 6045   2.390   5.421   3.316
 1716SOL     OW 6046   4.351   0.148   3.743
 1716SOL    HW1 6047   4.383   0.240   3.766
 1716SOL    HW2 6048   4.372   0.128   3.647
 1717SOL     OW 6049   3.355   5.627   4.587
 1717SOL    HW1 6050   3.362   5.529   4.607
 1717SOL    HW2 6051   3.278   5.643   4.525
 1718SOL     OW 6052   2.488   1.503   2.407
 1718SOL    HW1 6053   2.488   1.579   2.471
 1718SOL    HW2 6054   2.513   1.536   2.316
 1719SOL     OW 6055   2.191   3.441   0.953
 1719SOL    HW1 6056   2.171   3.533   0.985
 1719SOL    HW2 6057   2.105   3.395   0.928
 1720SOL     OW 6058   0.080   2.776   6.085
 1720SOL    HW1 6059   0.138   2.710   6.132
 1720SOL    HW2 6060   0.052   2.739   5.996
 1721SOL     OW 6061   1.629   6.846   1.134
 1721SOL    HW1 6062   1.567   6.808   1.202
 1721SOL    HW2 6063   1.702   6.781   1.114
 1722SOL     OW 6064   4.315   1.308   3.436
 1722SOL    HW1 6065   4.375   1.243   3.482
 1722SOL    HW2 6066   4.314   1.288   3.338
 1723SOL     OW 6067   4.535   2.622   0.098
 1723SOL    HW1 6068   4.531   2.618   0.197
 1723SOL    HW2 6069   4.585   2.543   0.063
 1724SOL     OW 6070   6.616   2.452   1.956
 1724SOL    HW1 6071   6.594   2.464   2.052
 1724SOL    HW2 6072   6.532   2.435   1.904
 1725SOL     OW 6073   1.797   5.234   6.822
 1725SOL    HW1 6074   1.812   5.333   6.826
 1725SOL    HW2 6075   1.885   5.186   6.829
 1726SOL     OW 6076   5.139   3.572   4.685
 1726SOL    HW1 6077   5.082   3.643   4.725
 1726SOL    HW2 6078   5.179   3.517   4.758
 1727SOL     OW 6079   3.732   3.722   3.460
 1727SOL    HW1 6080   3.700   3.805   3.505
 1727SOL    HW2 6081   3.825   3.735   3.427
 1728SOL     OW 6082   4.896   4.526   5.246
 1728SOL    HW1 6083   4.946   4.573   5.173
 1728SOL    HW2 6084   4.870   4.435   5.214
 1729SOL     OW 6085   1.405   3.674   2.966
 1729SOL    HW1 6086   1.349   3.686   2.884
 1729SOL    HW2 6087   1.456   3.758   2.985
 1730SOL     OW 6088   2.799   0.190   5.241
 1730SOL    HW1 6089   2.866   0.123   5.273
 1730SOL    HW2 6090   2.820   0.280   5.280
 1731SOL     OW 6091   6.252   4.663   3.444
 1731SOL    HW1 6092   6.302   4.615   3.516
 1731SOL    HW2 6093   6.279   4.626   3.354
 1732SOL     OW 6094   2.158   4.244   6.330
 1732SOL    HW1 6095   2.161   4.161   6.275
 1732SOL    HW2 6096   2.188   4.322   6.274
 1733SOL     OW 6097   2.329   3.871   1.700
 1733SOL    HW1 6098   2.357   3.925   1.620
 1733SOL    HW2 6099   2.333   3.928   1.782
 1734SOL     OW 6100   5.667   2.640   1.735
 1734SOL    HW1 6101   5.607   2.642   1.655
 1734SOL    HW2 6102   5.614   2.614   1.815
 1735SOL     OW 6103   4.302   5.526   6.131
 1735SOL    HW1 6104   4.362   5.486   6.062
 1735SOL    HW2 6105   4.333   5.497   6.222
 1736SOL     OW 6106   3.515   3.627   0.504
 1736SOL    HW1 6107   3.586   3.581   0.451
 1736SOL    HW2 6108   3.545   3.637   0.598
 1737SOL     OW 6109   4.895   6.904   4.460
 1737SOL    HW1 6110   4.872   6.897   4.557
 1737SOL    HW2 6111   4.990   6.934   4.450
 1738SOL     OW 6112   1.874   3.531   4.183
 1738SOL    HW1 6113   1.973   3.530   4.196
 1738SOL    HW2 6114   1.845   3.443   4.146
 1739SOL     OW 6115   6.061   0.790   4.252
 1739SOL    HW1 6116   6.007   0.831   4.179
 1739SOL    HW2 6117   6.155   0.775   4.221
 1740SOL     OW 6118   6.329   1.851   5.095
 1740SOL    HW1 6119   6.384   1.859   5.178
 1740SOL    HW2 6120   6.363   1.914   5.026
 1741SOL     OW 6121   2.963   1.060   4.213
 1741SOL    HW1 6122   2.922   1.142   4.253
 1741SOL    HW2 6123   3.030   1.086   4.144
 1742SOL     OW 6124   5.787   0.753   5.929
 1742SOL    HW1 6125   5.746   0.671   5.969
 1742SOL    HW2 6126   5.860   0.786   5.989
 1743SOL     OW 6127   0.971   0.912   2.549
 1743SOL    HW1 6128   1.054   0.884   2.501
 1743SOL    HW2 6129   0.961   1.011   2.543
 1744SOL     OW 6130   5.987   2.782   2.915
 1744SOL    HW1 6131   5.899   2.769   2.869
 1744SOL    HW2 6132   6.029   2.866   2.882
 1745SOL     OW 6133   6.035   6.283   2.299
 1745SOL    HW1 6134   6.102   6.234   2.355
 1745SOL    HW2 6135   5.979   6.217   2.248
 1746SOL     OW 6136   1.742   4.079   4.158
 1746SOL    HW1 6137   1.719   4.041   4.068
 1746SOL    HW2 6138   1.766   4.005   4.220
 1747SOL     OW 6139   3.402   1.772   2.235
 1747SOL    HW1 6140   3.478   1.837   2.228
 1747SOL    HW2 6141   3.324   1.805   2.182
 1748SOL     OW 6142   6.136   1.572   4.059
 1748SOL    HW1 6143   6.072   1.527   4.122
 1748SOL    HW2 6144   6.213   1.610   4.111
 1749SOL     OW 6145   2.702   0.141   6.826
 1749SOL    HW1 6146   2.672   0.232   6.796
 1749SOL    HW2 6147   2.637   0.106   6.894
 1750SOL     OW 6148   5.245   0.315   3.751
 1750SOL    HW1 6149   5.289   0.397   3.715
 1750SOL    HW2 6150   5.174   0.341   3.817
 1751SOL     OW 6151   5.759   1.697   5.112
 1751SOL    HW1 6152   5.855   1.696   5.142
 1751SOL    HW2 6153   5.706   1.634   5.168
 1752SOL     OW 6154   5.948   0.230   1.662
 1752SOL    HW1 6155   5.885   0.164   1.623
 1752SOL    HW2 6156   5.941   0.317   1.613
 1753SOL     OW 6157   6.754   1.048   1.890
 1753SOL    HW1 6158   6.776   0.960   1.932
 1753SOL    HW2 6159   6.752   1.119   1.961
 1754SOL     OW 6160   1.613   5.638   6.405
 1754SOL    HW1 6161   1.609   5.551   6.455
 1754SOL    HW2 6162   1.569   5.627   6.316
 1755SOL     OW 6163   0.076   5.609   6.658
 1755SOL    HW1 6164   0.079   5.562   6.569
 1755SOL    HW2 6165   0.031   5.697   6.648
 1756SOL     OW 6166   4.029   5.990   6.371
 1756SOL    HW1 6167   4.032   5.980   6.471
 1756SOL    HW2 6168   3.935   5.979   6.339
 1757SOL     OW 6169   3.660   5.184   5.370
 1757SOL    HW1 6170   3.586   5.117   5.360
 1757SOL    HW2 6171   3.725   5.171   5.295
 1758SOL     OW 6172   1.865   0.469   4.796
 1758SOL    HW1 6173   1.769   0.460   4.821
 1758SOL    HW2 6174   1.873   0.485   4.698
 1759SOL     OW 6175   1.175   6.848   5.243
 1759SOL    HW1 6176   1.252   6.847   5.179
 1759SOL    HW2 6177   1.182   6.771   5.306
 1760SOL     OW 6178   5.784   0.733   4.128
 1760SOL    HW1 6179   5.843   0.673   4.182
 1760SOL    HW2 6180   5.699   0.685   4.106
 1761SOL     OW 6181   6.619   0.418   1.407
 1761SOL    HW1 6182   6.718   0.424   1.424
 1761SOL    HW2 6183   6.587   0.506   1.372
 1762SOL     OW 6184   6.630   1.628   4.273
 1762SOL    HW1 6185   6.706   1.693   4.280
 1762SOL    HW2 6186   6.550   1.673   4.235
 1763SOL     OW 6187   1.206   4.611   4.786
 1763SOL    HW1 6188   1.302   4.605   4.758
 1763SOL    HW2 6189   1.152   4.653   4.713
 1764SOL     OW 6190   0.598   3.206   2.376
 1764SOL    HW1 6191   0.593   3.107   2.381
 1764SOL    HW2 6192   0.688   3.237   2.407
 1765SOL     OW 6193   3.553   1.778   1.118
 1765SOL    HW1 6194   3.492   1.839   1.168
 1765SOL    HW2 6195   3.574   1.818   1.029
 1766SOL     OW 6196   5.212   4.657   3.925
 1766SOL    HW1 6197   5.282   4.626   3.988
 1766SOL    HW2 6198   5.231   4.752   3.897
 1767SOL     OW 6199   1.089   4.488   3.020
 1767SOL    HW1 6200   1.118   4.570   2.971
 1767SOL    HW2 6201   1.163   4.421   3.020
 1768SOL     OW 6202   4.101   0.485   6.546
 1768SOL    HW1 6203   4.136   0.469   6.638
 1768SOL    HW2 6204   4.001   0.473   6.546
 1769SOL     OW 6205   5.651   0.914   0.292
 1769SOL    HW1 6206   5.589   0.867   0.231
 1769SOL    HW2 6207   5.616   0.910   0.386
 1770SOL     OW 6208   0.616   4.052   5.205
 1770SOL    HW1 6209   0.601   3.954   5.221
 1770SOL    HW2 6210   0.712   4.074   5.219
 1771SOL     OW 6211   1.848   4.971   0.195
 1771SOL    HW1 6212   1.925   5.030   0.220
 1771SOL    HW2 6213   1.801   5.009   0.115
 1772SOL     OW 6214   4.073   5.273   4.303
 1772SOL    HW1 6215   4.113   5.199   4.356
 1772SOL    HW2 6216   4.136   5.299   4.229
 1773SOL     OW 6217   0.996   2.005   5.452
 1773SOL    HW1 6218   0.901   2.021   5.428
 1773SOL    HW2 6219   1.052   2.084   5.428
 1774SOL     OW 6220   5.422   6.215   2.114
 1774SOL    HW1 6221   5.498   6.234   2.176
 1774SOL    HW2 6222   5.337   6.215   2.166
 1775SOL     OW 6223   1.898   5.675   6.729
 1775SOL    HW1 6224   1.971   5.660   6.796
 1775SOL    HW2 6225   1.890   5.595   6.670
 1776SOL     OW 6226   5.151   0.773   5.867
 1776SOL    HW1 6227   5.121   0.816   5.782
 1776SOL    HW2 6228   5.103   0.814   5.944
 1777SOL     OW 6229   3.815   6.921   6.345
 1777SOL    HW1 6230   3.815   6.823   6.325
 1777SOL    HW2 6231   3.871   6.968   6.276
 1778SOL     OW 6232   4.623   1.148   4.554
 1778SOL    HW1 6233   4.581   1.137   4.644
 1778SOL    HW2 6234   4.690   1.222   4.557
 1779SOL     OW 6235   4.971   6.912   5.727
 1779SOL    HW1 6236   4.903   6.845   5.757
 1779SOL    HW2 6237   4.944   7.003   5.758
 1780SOL     OW 6238   1.546   3.968   4.530
 1780SOL    HW1 6239   1.610   4.042   4.551
 1780SOL    HW2 6240   1.465   3.977   4.588
 1781SOL     OW 6241   4.911   0.293   4.994
 1781SOL    HW1 6242   4.919   0.393   4.998
 1781SOL    HW2 6243   4.839   0.268   4.928
 1782SOL     OW 6244   1.908   1.502   2.630
 1782SOL    HW1 6245   1.966   1.530   2.706
 1782SOL    HW2 6246   1.964   1.458   2.560
 1783SOL     OW 6247   2.263   3.713   6.074
 1783SOL    HW1 6248   2.326   3.736   6.000
 1783SOL    HW2 6249   2.229   3.619   6.061
 1784SOL     OW 6250   2.738   1.164   2.105
 1784SOL    HW1 6251   2.776   1.144   2.195
 1784SOL    HW2 6252   2.812   1.176   2.039
 1785SOL     OW 6253   7.000   6.613   4.260
 1785SOL    HW1 6254   7.006   6.570   4.350
 1785SOL    HW2 6255   6.996   6.541   4.190
 1786SOL     OW 6256   2.026   5.591   0.415
 1786SOL    HW1 6257   2.036   5.519   0.484
 1786SOL    HW2 6258   1.932   5.594   0.382
 1787SOL     OW 6259   2.142   2.200   6.026
 1787SOL    HW1 6260   2.127   2.122   6.087
 1787SOL    HW2 6261   2.230   2.190   5.979
 1788SOL     OW 6262   4.563   3.393   0.561
 1788SOL    HW1 6263   4.466   3.413   0.572
 1788SOL    HW2 6264   4.615   3.479   0.561
 1789SOL     OW 6265   6.276   2.867   1.734
 1789SOL    HW1 6266   6.342   2.851   1.807
 1789SOL    HW2 6267   6.196   2.915   1.770
 1790SOL     OW 6268   3.161   1.284   4.458
 1790SOL    HW1 6269   3.182   1.308   4.363
 1790SOL    HW2 6270   3.238   1.310   4.517
 1791SOL     OW 6271   6.143   0.987   3.431
 1791SOL    HW1 6272   6.219   0.961   3.491
 1791SOL    HW2 6273   6.112   0.907   3.380
 1792SOL     OW 6274   6.616   1.961   4.414
 1792SOL    HW1 6275   6.661   2.001   4.333
 1792SOL    HW2 6276   6.667   1.986   4.496
 1793SOL     OW 6277   6.080   1.406   4.556
 1793SOL    HW1 6278   6.014   1.366   4.491
 1793SOL    HW2 6279   6.168   1.418   4.510
 1794SOL     OW 6280   5.936   0.227   6.074
 1794SOL    HW1 6281   5.956   0.179   6.160
 1794SOL    HW2 6282   5.893   0.315   6.094
 1795SOL     OW 6283   6.056   5.427   1.211
 1795SOL    HW1 6284   6.152   5.443   1.189
 1795SOL    HW2 6285   6.048   5.347   1.270
 1796SOL     OW 6286   1.922   0.993   5.642
 1796SOL    HW1 6287   1.923   0.998   5.741
 1796SOL    HW2 6288   1.840   1.038   5.607
 1797SOL     OW 6289   1.127   0.399   4.965
 1797SOL    HW1 6290   1.119   0.301   4.986
 1797SOL    HW2 6291   1.135   0.451   5.051
 1798SOL     OW 6292   3.402   3.188   4.569
 1798SOL    HW1 6293   3.403   3.207   4.667
 1798SOL    HW2 6294   3.376   3.093   4.553
 1799SOL     OW 6295   4.555   2.477   6.745
 1799SOL    HW1 6296   4.579   2.449   6.652
 1799SOL    HW2 6297   4.566   2.576   6.754
 1800SOL     OW 6298   5.362   4.549   3.668
 1800SOL    HW1 6299   5.440   4.540   3.729
 1800SOL    HW2 6300   5.394   4.561   3.574
 1801SOL     OW 6301   0.508   1.837   2.086
 1801SOL    HW1 6302   0.425   1.885   2.059
 1801SOL    HW2 6303   0.582   1.859   2.022
 1802SOL     OW 6304   6.298   5.777   3.477
 1802SOL    HW1 6305   6.304   5.876   3.485
 1802SOL    HW2 6306   6.206   5.747   3.503
 1803SOL     OW 6307   6.971   6.737   2.559
 1803SOL    HW1 6308   6.950   6.667   2.627
 1803SOL    HW2 6309   6.998   6.821   2.605
 1804SOL     OW 6310   3.285   3.561   5.659
 1804SOL    HW1 6311   3.350   3.489   5.633
 1804SOL    HW2 6312   3.271   3.560   5.758
 1805SOL     OW 6313   1.119   5.747   6.073
 1805SOL    HW1 6314   1.052   5.818   6.053
 1805SOL    HW2 6315   1.186   5.743   5.999
 1806SOL     OW 6316   7.000   2.347   2.267
 1806SOL    HW1 6317   0.023   2.353   2.357
 1806SOL    HW2 6318   6.954   2.258   2.258
 1807SOL     OW 6319   6.359   3.667   0.219
 1807SOL    HW1 6320   6.364   3.604   0.142
 1807SOL    HW2 6321   6.267   3.706   0.224
 1808SOL     OW 6322   5.596   3.446   4.426
 1808SOL    HW1 6323   5.546   3.457   4.340
 1808SOL    HW2 6324   5.583   3.353   4.460
 1809SOL     OW 6325   2.876   1.578   5.459
 1809SOL    HW1 6326   2.798   1.608   5.514
 1809SOL    HW2 6327   2.856   1.487   5.421
 1810SOL     OW 6328   6.863   0.782   4.653
 1810SOL    HW1 6329   6.867   0.867   4.707
 1810SOL    HW2 6330   6.805   0.797   4.573
 1811SOL     OW 6331   4.905   4.858   1.883
 1811SOL    HW1 6332   4.918   4.767   1.923
 1811SOL    HW2 6333   4.829   4.855   1.818
 1812SOL     OW 6334   4.320   6.706   6.006
 1812SOL    HW1 6335   4.267   6.734   6.086
 1812SOL    HW2 6336   4.288   6.756   5.926
 1813SOL     OW 6337   4.664   4.345   2.282
 1813SOL    HW1 6338   4.608   4.315   2.205
 1813SOL    HW2 6339   4.709   4.431   2.260
 1814SOL     OW 6340   6.469   6.706   0.242
 1814SOL    HW1 6341   6.394   6.714   0.308
 1814SOL    HW2 6342   6.545   6.655   0.284
 1815SOL     OW 6343   5.881   5.757   2.890
 1815SOL    HW1 6344   5.788   5.729   2.864
 1815SOL    HW2 6345   5.948   5.701   2.840
 1816SOL     OW 6346   4.138   5.765   5.855
 1816SOL    HW1 6347   4.107   5.794   5.945
 1816SOL    HW2 6348   4.187   5.840   5.810
 1817SOL     OW 6349   3.286   1.527   2.734
 1817SOL    HW1 6350   3.249   1.591   2.666
 1817SOL    HW2 6351   3.290   1.572   2.823
 1818SOL     OW 6352   1.537   6.646   0.501
 1818SOL    HW1 6353   1.537   6.737   0.459
 1818SOL    HW2 6354   1.584   6.582   0.441
 1819SOL     OW 6355   1.805   5.330   1.788
 1819SOL    HW1 6356   1.826   5.301   1.881
 1819SOL    HW2 6357   1.712   5.301   1.764
 1820SOL     OW 6358   4.054   0.661   3.106
 1820SOL    HW1 6359   3.987   0.602   3.062
 1820SOL    HW2 6360   4.128   0.682   3.042
 1821SOL     OW 6361   3.525   1.361   1.820
 1821SOL    HW1 6362   3.622   1.386   1.824
 1821SOL    HW2 6363   3.511   1.275   1.869
 1822SOL     OW 6364   1.146   3.467   1.935
 1822SOL    HW1 6365   1.229   3.508   1.901
 1822SOL    HW2 6366   1.078   3.538   1.953
 1823SOL     OW 6367   3.418   6.328   2.819
 1823SOL    HW1 6368   3.416   6.425   2.844
 1823SOL    HW2 6369   3.414   6.272   2.901
 1824SOL     OW 6370   3.481   3.822   0.961
 1824SOL    HW1 6371   3.535   3.874   0.895
 1824SOL    HW2 6372   3.449   3.882   1.034
 1825SOL     OW 6373   0.213   3.438   4.937
 1825SOL    HW1 6374   0.194   3.341   4.925
 1825SOL    HW2 6375   0.190   3.465   5.031
 1826SOL     OW 6376   3.755   1.466   0.896
 1826SOL    HW1 6377   3.665   1.508   0.884
 1826SOL    HW2 6378   3.814   1.527   0.949
 1827SOL     OW 6379   4.971   5.583   0.895
 1827SOL    HW1 6380   4.963   5.643   0.975
 1827SOL    HW2 6381   4.973   5.639   0.812
 1828SOL     OW 6382   1.785   3.528   6.340
 1828SOL    HW1 6383   1.729   3.460   6.388
 1828SOL    HW2 6384   1.756   3.534   6.245
 1829SOL     OW 6385   3.786   0.703   3.310
 1829SOL    HW1 6386   3.847   0.777   3.280
 1829SOL    HW2 6387   3.751   0.654   3.229
 1830SOL     OW 6388   5.697   6.616   5.064
 1830SOL    HW1 6389   5.782   6.566   5.081
 1830SOL    HW2 6390   5.619   6.559   5.090
 1831SOL     OW 6391   4.918   5.916   2.833
 1831SOL    HW1 6392   4.921   5.987   2.763
 1831SOL    HW2 6393   4.998   5.924   2.893
 1832SOL     OW 6394   3.165   3.753   0.027
 1832SOL    HW1 6395   3.249   3.796   7.016
 1832SOL    HW2 6396   3.186   3.663   0.066
 1833SOL     OW 6397   4.871   0.030   1.264
 1833SOL    HW1 6398   4.884   0.053   1.167
 1833SOL    HW2 6399   4.892   0.110   1.320
 1834SOL     OW 6400   3.223   2.925   1.285
 1834SOL    HW1 6401   3.192   2.858   1.352
 1834SOL    HW2 6402   3.321   2.913   1.269
 1835SOL     OW 6403   0.740   5.130   1.120
 1835SOL    HW1 6404   0.717   5.189   1.197
 1835SOL    HW2 6405   0.819   5.073   1.143
 1836SOL     OW 6406   5.210   1.693   2.242
 1836SOL    HW1 6407   5.283   1.711   2.176
 1836SOL    HW2 6408   5.153   1.775   2.251
 1837SOL     OW 6409   1.722   0.622   5.364
 1837SOL    HW1 6410   1.782   0.695   5.396
 1837SOL    HW2 6411   1.628   0.653   5.365
 1838SOL     OW 6412   6.538   0.642   6.601
 1838SOL    HW1 6413   6.455   0.694   6.581
 1838SOL    HW2 6414   6.555   0.577   6.527
 1839SOL     OW 6415   6.393   1.797   6.570
 1839SOL    HW1 6416   6.431   1.725   6.626
 1839SOL    HW2 6417   6.376   1.878   6.626
 1840SOL     OW 6418   3.712   0.133   3.121
 1840SOL    HW1 6419   3.704   0.231   3.140
 1840SOL    HW2 6420   3.724   0.083   3.208
 1841SOL     OW 6421   2.506   0.416   2.386
 1841SOL    HW1 6422   2.445   0.403   2.308
 1841SOL    HW2 6423   2.554   0.503   2.376
 1842SOL     OW 6424   1.782   5.275   0.307
 1842SOL    HW1 6425   1.761   5.372   0.294
 1842SOL    HW2 6426   1.802   5.258   0.403
 1843SOL     OW 6427   4.295   1.378   4.594
 1843SOL    HW1 6428   4.322   1.322   4.672
 1843SOL    HW2 6429   4.199   1.404   4.603
 1844SOL     OW 6430   4.644   2.019   5.507
 1844SOL    HW1 6431   4.622   1.926   5.533
 1844SOL    HW2 6432   4.582   2.083   5.553
 1845SOL     OW 6433   3.065   0.797   3.675
 1845SOL    HW1 6434   2.965   0.809   3.669
 1845SOL    HW2 6435   3.086   0.715   3.727
 1846SOL     OW 6436   5.200   0.749   2.855
 1846SOL    HW1 6437   5.172   0.654   2.865
 1846SOL    HW2 6438   5.262   0.757   2.777
 1847SOL     OW 6439   1.406   0.787   5.141
 1847SOL    HW1 6440   1.471   0.797   5.065
 1847SOL    HW2 6441   1.355   0.872   5.152
 1848SOL     OW 6442   2.288   6.252   4.105
 1848SOL    HW1 6443   2.383   6.280   4.121
 1848SOL    HW2 6444   2.267   6.172   4.162
 1849SOL     OW 6445   4.807   2.970   2.197
 1849SOL    HW1 6446   4.773   2.967   2.103
 1849SOL    HW2 6447   4.842   3.061   2.217
 1850SOL     OW 6448   5.338   1.819   2.558
 1850SOL    HW1 6449   5.323   1.734   2.508
 1850SOL    HW2 6450   5.376   1.798   2.649
 1851SOL     OW 6451   0.663   3.368   6.379
 1851SOL    HW1 6452   0.596   3.364   6.304
 1851SOL    HW2 6453   0.614   3.375   6.466
 1852SOL     OW 6454   6.970   4.691   1.352
 1852SOL    HW1 6455   6.897   4.644   1.302
 1852SOL    HW2 6456   6.950   4.689   1.450
 1853SOL     OW 6457   6.799   2.455   3.969
 1853SOL    HW1 6458   6.731   2.382   3.974
 1853SOL    HW2 6459   6.790   2.502   3.881
 1854SOL     OW 6460   1.263   5.347   3.712
 1854SOL    HW1 6461   1.222   5.259   3.692
 1854SOL    HW2 6462   1.251   5.369   3.809
 1855SOL     OW 6463   5.772   3.260   4.627
 1855SOL    HW1 6464   5.795   3.207   4.708
 1855SOL    HW2 6465   5.697   3.216   4.578
 1856SOL     OW 6466   4.323   2.998   6.697
 1856SOL    HW1 6467   4.294   3.082   6.652
 1856SOL    HW2 6468   4.347   3.019   6.792
 1857SOL     OW 6469   5.759   1.391   0.229
 1857SOL    HW1 6470   5.750   1.402   0.130
 1857SOL    HW2 6471   5.738   1.297   0.254
 1858SOL     OW 6472   5.023   2.384   3.964
 1858SOL    HW1 6473   5.007   2.479   3.937
 1858SOL    HW2 6474   4.972   2.363   4.047
 1859SOL     OW 6475   5.346   2.031   4.709
 1859SOL    HW1 6476   5.402   2.038   4.627
 1859SOL    HW2 6477   5.392   1.973   4.776
 1860SOL     OW 6478   0.978   1.851   4.998
 1860SOL    HW1 6479   0.930   1.833   4.912
 1860SOL    HW2 6480   0.963   1.774   5.060
 1861SOL     OW 6481   5.612   0.472   3.007
 1861SOL    HW1 6482   5.667   0.485   2.924
 1861SOL    HW2 6483   5.595   0.375   3.021
 1862SOL     OW 6484   1.681   6.856   6.923
 1862SOL    HW1 6485   1.627   6.816   6.849
 1862SOL    HW2 6486   1.627   6.927   6.969
 1863SOL     OW 6487   0.206   2.890   1.190
 1863SOL    HW1 6488   0.131   2.830   1.220
 1863SOL    HW2 6489   0.273   2.898   1.264
 1864SOL     OW 6490   2.997   5.703   4.104
 1864SOL    HW1 6491   2.919   5.736   4.158
 1864SOL    HW2 6492   2.964   5.649   4.027
 1865SOL     OW 6493   3.994   1.392   1.050
 1865SOL    HW1 6494   4.073   1.412   0.992
 1865SOL    HW2 6495   3.942   1.316   1.010
 1866SOL     OW 6496   6.324   4.313   4.296
 1866SOL    HW1 6497   6.255   4.264   4.350
 1866SOL    HW2 6498   6.289   4.328   4.203
 1867SOL     OW 6499   2.617   2.765   1.416
 1867SOL    HW1 6500   2.652   2.786   1.325
 1867SOL    HW2 6501   2.548   2.832   1.442
 1868SOL     OW 6502   4.720   4.064   5.162
 1868SOL    HW1 6503   4.766   4.055   5.251
 1868SOL    HW2 6504   4.621   4.074   5.177
 1869SOL     OW 6505   5.269   2.667   4.034
 1869SOL    HW1 6506   5.179   2.691   3.998
 1869SOL    HW2 6507   5.339   2.725   3.990
 1870SOL     OW 6508   0.518   3.274   4.516
 1870SOL    HW1 6509   0.589   3.340   4.492
 1870SOL    HW2 6510   0.468   3.307   4.596
 1871SOL     OW 6511   6.740   6.270   0.307
 1871SOL    HW1 6512   6.771   6.268   0.402
 1871SOL    HW2 6513   6.671   6.199   0.293
 1872SOL     OW 6514   3.179   2.706   0.653
 1872SOL    HW1 6515   3.267   2.751   0.640
 1872SOL    HW2 6516   3.137   2.688   0.564
 1873SOL     OW 6517   6.237   0.905   6.815
 1873SOL    HW1 6518   6.272   0.929   6.725
 1873SOL    HW2 6519   6.215   0.808   6.817
 1874SOL     OW 6520   0.798   0.912   6.751
 1874SOL    HW1 6521   0.699   0.929   6.752
 1874SOL    HW2 6522   0.836   0.933   6.841
 1875SOL     OW 6523   6.540   6.126   0.619
 1875SOL    HW1 6524   6.529   6.059   0.545
 1875SOL    HW2 6525   6.534   6.080   0.707
 1876SOL     OW 6526   5.373   6.641   6.082
 1876SOL    HW1 6527   5.415   6.724   6.047
 1876SOL    HW2 6528   5.433   6.599   6.150
 1877SOL     OW 6529   6.800   1.213   2.376
 1877SOL    HW1 6530   6.790   1.235   2.279
 1877SOL    HW2 6531   6.712   1.225   2.423
 1878SOL     OW 6532   6.941   4.523   3.383
 1878SOL    HW1 6533   0.015   4.509   3.352
 1878SOL    HW2 6534   6.899   4.598   3.331
 1879SOL     OW 6535   2.780   4.927   4.337
 1879SOL    HW1 6536   2.685   4.897   4.332
 1879SOL    HW2 6537   2.782   5.024   4.362
 1880SOL     OW 6538   0.218   2.209   3.202
 1880SOL    HW1 6539   0.308   2.231   3.167
 1880SOL    HW2 6540   0.148   2.234   3.134
 1881SOL     OW 6541   0.855   2.511   3.743
 1881SOL    HW1 6542   0.819   2.558   3.824
 1881SOL    HW2 6543   0.821   2.556   3.661
 1882SOL     OW 6544   1.046   5.947   0.058
 1882SOL    HW1 6545   1.094   6.007   7.013
 1882SOL    HW2 6546   1.040   5.993   0.147
 1883SOL     OW 6547   1.451   3.632   2.588
 1883SOL    HW1 6548   1.386   3.579   2.642
 1883SOL    HW2 6549   1.409   3.718   2.558
 1884SOL     OW 6550   4.975   0.566   1.156
 1884SOL    HW1 6551   5.009   0.637   1.218
 1884SOL    HW2 6552   4.876   0.562   1.161
 1885SOL     OW 6553   6.418   2.159   0.824
 1885SOL    HW1 6554   6.361   2.202   0.894
 1885SOL    HW2 6555   6.506   2.133   0.863
 1886SOL     OW 6556   1.770   2.198   0.063
 1886SOL    HW1 6557   1.851   2.235   0.018
 1886SOL    HW2 6558   1.767   2.230   0.158
 1887SOL     OW 6559   0.176   4.249   6.010
 1887SOL    HW1 6560   0.102   4.210   6.066
 1887SOL    HW2 6561   0.205   4.182   5.942
 1888SOL     OW 6562   2.102   1.183   5.895
 1888SOL    HW1 6563   2.008   1.163   5.868
 1888SOL    HW2 6564   2.103   1.264   5.954
 1889SOL     OW 6565   4.435   3.466   0.111
 1889SOL    HW1 6566   4.408   3.478   0.016
 1889SOL    HW2 6567   4.359   3.426   0.163
 1890SOL     OW 6568   1.507   5.627   6.140
 1890SOL    HW1 6569   1.424   5.671   6.174
 1890SOL    HW2 6570   1.542   5.677   6.061
 1891SOL     OW 6571   5.289   2.851   5.292
 1891SOL    HW1 6572   5.286   2.801   5.379
 1891SOL    HW2 6573   5.275   2.787   5.216
 1892SOL     OW 6574   3.847   6.191   1.640
 1892SOL    HW1 6575   3.912   6.230   1.575
 1892SOL    HW2 6576   3.755   6.226   1.621
 1893SOL     OW 6577   3.548   2.022   4.455
 1893SOL    HW1 6578   3.632   2.072   4.435
 1893SOL    HW2 6579   3.518   2.043   4.548
 1894SOL     OW 6580   4.418   3.630   1.708
 1894SOL    HW1 6581   4.504   3.673   1.736
 1894SOL    HW2 6582   4.359   3.698   1.666
 1895SOL     OW 6583   6.200   0.800   2.195
 1895SOL    HW1 6584   6.162   0.773   2.106
 1895SOL    HW2 6585   6.290   0.840   2.181
 1896SOL     OW 6586   6.407   1.266   3.764
 1896SOL    HW1 6587   6.414   1.329   3.687
 1896SOL    HW2 6588   6.376   1.177   3.731
 1897SOL     OW 6589   6.983   5.420   3.736
 1897SOL    HW1 6590   0.058   5.390   3.744
 1897SOL    HW2 6591   6.954   5.412   3.641
 1898SOL     OW 6592   4.013   5.980   1.294
 1898SOL    HW1 6593   4.002   6.077   1.316
 1898SOL    HW2 6594   4.049   5.970   1.201
 1899SOL     OW 6595   0.473   3.777   2.634
 1899SOL    HW1 6596   0.373   3.790   2.632
 1899SOL    HW2 6597   0.511   3.821   2.716
 1900SOL     OW 6598   1.048   0.217   6.369
 1900SOL    HW1 6599   0.952   0.240   6.383
 1900SOL    HW2 6600   1.102   0.301   6.362
 1901SOL     OW 6601   2.054   1.493   0.188
 1901SOL    HW1 6602   2.075   1.458   0.280
 1901SOL    HW2 6603   2.058   1.418   0.122
 1902SOL     OW 6604   1.127   2.857   4.496
 1902SOL    HW1 6605   1.206   2.833   4.440
 1902SOL    HW2 6606   1.142   2.826   4.590
 1903SOL     OW 6607   6.889   3.978   3.136
 1903SOL    HW1 6608   6.866   4.017   3.047
 1903SOL    HW2 6609   6.960   3.908   3.124
 1904SOL     OW 6610   6.710   6.815   4.690
 1904SOL    HW1 6611   6.671   6.904   4.717
 1904SOL    HW2 6612   6.720   6.812   4.591
 1905SOL     OW 6613   0.048   2.543   3.516
 1905SOL    HW1 6614   0.147   2.558   3.510
 1905SOL    HW2 6615   0.030   2.445   3.522
 1906SOL     OW 6616   2.736   0.120   5.555
 1906SOL    HW1 6617   2.721   0.150   5.461
 1906SOL    HW2 6618   2.822   0.070   5.560
 1907SOL     OW 6619   2.790   0.092   3.564
 1907SOL    HW1 6620   2.794   7.015   3.588
 1907SOL    HW2 6621   2.783   0.146   3.648
 1908SOL     OW 6622   4.363   1.108   5.876
 1908SOL    HW1 6623   4.340   1.087   5.781
 1908SOL    HW2 6624   4.426   1.038   5.910
 1909SOL     OW 6625   1.954   4.199   4.364
 1909SOL    HW1 6626   1.896   4.194   4.446
 1909SOL    HW2 6627   2.031   4.137   4.374
 1910SOL     OW 6628   5.541   2.811   6.289
 1910SOL    HW1 6629   5.595   2.820   6.206
 1910SOL    HW2 6630   5.513   2.715   6.300
 1911SOL     OW 6631   6.435   2.004   5.388
 1911SOL    HW1 6632   6.415   1.930   5.452
 1911SOL    HW2 6633   6.363   2.073   5.392
 1912SOL     OW 6634   3.798   6.240   2.207
 1912SOL    HW1 6635   3.705   6.225   2.239
 1912SOL    HW2 6636   3.807   6.333   2.173
 1913SOL     OW 6637   1.760   6.517   5.636
 1913SOL    HW1 6638   1.764   6.609   5.674
 1913SOL    HW2 6639   1.767   6.521   5.537
 1914SOL     OW 6640   2.427   2.201   6.351
 1914SOL    HW1 6641   2.357   2.272   6.351
 1914SOL    HW2 6642   2.390   2.118   6.391
 1915SOL     OW 6643   3.551   1.749   5.573
 1915SOL    HW1 6644   3.474   1.813   5.564
 1915SOL    HW2 6645   3.588   1.755   5.665
 1916SOL     OW 6646   4.233   5.871   0.964
 1916SOL    HW1 6647   4.138   5.840   0.957
 1916SOL    HW2 6648   4.261   5.913   0.877
 1917SOL     OW 6649   3.672   3.212   4.887
 1917SOL    HW1 6650   3.681   3.305   4.850
 1917SOL    HW2 6651   3.585   3.173   4.859
 1918SOL     OW 6652   5.919   6.761   5.899
 1918SOL    HW1 6653   5.913   6.688   5.830
 1918SOL    HW2 6654   5.852   6.744   5.971
 1919SOL     OW 6655   1.577   6.347   1.846
 1919SOL    HW1 6656   1.586   6.400   1.931
 1919SOL    HW2 6657   1.601   6.252   1.863
 1920SOL     OW 6658   0.274   4.555   3.593
 1920SOL    HW1 6659   0.329   4.622   3.642
 1920SOL    HW2 6660   0.187   4.596   3.566
 1921SOL     OW 6661   6.969   5.121   6.848
 1921SOL    HW1 6662   0.024   5.188   6.846
 1921SOL    HW2 6663   6.902   5.143   6.778
 1922SOL     OW 6664   4.113   3.168   1.294
 1922SOL    HW1 6665   4.096   3.122   1.382
 1922SOL    HW2 6666   4.118   3.267   1.309
 1923SOL     OW 6667   3.335   1.201   0.282
 1923SOL    HW1 6668   3.328   1.171   0.377
 1923SOL    HW2 6669   3.396   1.139   0.232
 1924SOL     OW 6670   5.729   4.669   2.215
 1924SOL    HW1 6671   5.634   4.641   2.201
 1924SOL    HW2 6672   5.783   4.590   2.247
 1925SOL     OW 6673   2.994   3.720   1.563
 1925SOL    HW1 6674   2.904   3.681   1.541
 1925SOL    HW2 6675   2.998   3.814   1.528
 1926SOL     OW 6676   1.377   6.992   4.552
 1926SOL    HW1 6677   1.389   6.926   4.477
 1926SOL    HW2 6678   1.428   6.961   4.632
 1927SOL     OW 6679   3.397   4.464   6.150
 1927SOL    HW1 6680   3.413   4.545   6.206
 1927SOL    HW2 6681   3.302   4.463   6.120
 1928SOL     OW 6682   6.355   3.388   5.791
 1928SOL    HW1 6683   6.264   3.403   5.832
 1928SOL    HW2 6684   6.425   3.418   5.856
 1929SOL     OW 6685   0.843   5.371   1.599
 1929SOL    HW1 6686   0.848   5.402   1.694
 1929SOL    HW2 6687   0.827   5.449   1.539
 1930SOL     OW 6688   5.586   4.328   0.141
 1930SOL    HW1 6689   5.651   4.254   0.124
 1930SOL    HW2 6690   5.553   4.363   0.053
 1931SOL     OW 6691   6.995   3.480   2.830
 1931SOL    HW1 6692   6.906   3.435   2.827
 1931SOL    HW2 6693   7.012   3.526   2.743
 1932SOL     OW 6694   5.451   3.788   2.733
 1932SOL    HW1 6695   5.429   3.869   2.788
 1932SOL    HW2 6696   5.366   3.743   2.705
 1933SOL     OW 6697   2.662   4.698   1.498
 1933SOL    HW1 6698   2.687   4.755   1.420
 1933SOL    HW2 6699   2.601   4.750   1.558
 1934SOL     OW 6700   0.744   0.040   5.370
 1934SOL    HW1 6701   0.742   0.100   5.450
 1934SOL    HW2 6702   0.839   0.030   5.339
 1935SOL     OW 6703   3.370   0.204   4.959
 1935SOL    HW1 6704   3.412   0.178   5.046
 1935SOL    HW2 6705   3.433   0.185   4.884
 1936SOL     OW 6706   5.630   5.171   4.448
 1936SOL    HW1 6707   5.627   5.091   4.509
 1936SOL    HW2 6708   5.663   5.143   4.358
 1937SOL     OW 6709   3.897   0.149   1.951
 1937SOL    HW1 6710   3.898   0.247   1.967
 1937SOL    HW2 6711   3.990   0.115   1.942
 1938SOL     OW 6712   4.406   1.511   2.778
 1938SOL    HW1 6713   4.470   1.436   2.759
 1938SOL    HW2 6714   4.358   1.493   2.863
 1939SOL     OW 6715   0.507   6.614   4.097
 1939SOL    HW1 6716   0.514   6.601   4.196
 1939SOL    HW2 6717   0.411   6.619   4.070
 1940SOL     OW 6718   5.058   5.532   6.249
 1940SOL    HW1 6719   5.097   5.587   6.176
 1940SOL    HW2 6720   4.967   5.499   6.222
 1941SOL     OW 6721   6.805   4.039   2.894
 1941SOL    HW1 6722   6.755   4.114   2.935
 1941SOL    HW2 6723   6.744   3.986   2.835
 1942SOL     OW 6724   6.375   6.585   2.361
 1942SOL    HW1 6725   6.282   6.618   2.345
 1942SOL    HW2 6726   6.418   6.639   2.433
 1943SOL     OW 6727   3.140   6.019   2.051
 1943SOL    HW1 6728   3.235   6.047   2.069
 1943SOL    HW2 6729   3.105   6.067   1.971
 1944SOL     OW 6730   5.035   2.126   5.997
 1944SOL    HW1 6731   5.088   2.196   5.949
 1944SOL    HW2 6732   5.097   2.066   6.047
 1945SOL     OW 6733   4.439   5.382   2.878
 1945SOL    HW1 6734   4.502   5.459   2.874
 1945SOL    HW2 6735   4.451   5.333   2.965
 1946SOL     OW 6736   0.339   0.920   0.051
 1946SOL    HW1 6737   0.290   0.914   0.138
 1946SOL    HW2 6738   0.283   0.883   6.997
 1947SOL     OW 6739   5.285   6.447   4.065
 1947SOL    HW1 6740   5.338   6.530   4.047
 1947SOL    HW2 6741   5.251   6.409   3.979
 1948SOL     OW 6742   6.443   5.398   3.505
 1948SOL    HW1 6743   6.446   5.489   3.465
 1948SOL    HW2 6744   6.536   5.360   3.511
 1949SOL     OW 6745   4.215   4.429   5.592
 1949SOL    HW1 6746   4.201   4.498   5.663
 1949SOL    HW2 6747   4.311   4.401   5.592
 1950SOL     OW 6748   3.875   3.821   0.998
 1950SOL    HW1 6749   3.903   3.910   1.034
 1950SOL    HW2 6750   3.808   3.834   0.926
 1951SOL     OW 6751   6.635   2.982   0.511
 1951SOL    HW1 6752   6.632   2.892   0.554
 1951SOL    HW2 6753   6.702   2.981   0.437
 1952SOL     OW 6754   3.617   2.188   6.821
 1952SOL    HW1 6755   3.619   2.169   6.723
 1952SOL    HW2 6756   3.584   2.281   6.836
 1953SOL     OW 6757   6.335   2.461   6.505
 1953SOL    HW1 6758   6.361   2.375   6.462
 1953SOL    HW2 6759   6.263   2.444   6.573
 1954SOL     OW 6760   5.606   1.330   4.392
 1954SOL    HW1 6761   5.539   1.402   4.408
 1954SOL    HW2 6762   5.641   1.337   4.299
 1955SOL     OW 6763   1.436   0.123   2.172
 1955SOL    HW1 6764   1.399   0.184   2.102
 1955SOL    HW2 6765   1.437   0.171   2.260
 1956SOL     OW 6766   5.941   6.466   2.795
 1956SOL    HW1 6767   5.938   6.380   2.745
 1956SOL    HW2 6768   5.895   6.537   2.742
 1957SOL     OW 6769   6.414   4.518   4.957
 1957SOL    HW1 6770   6.453   4.569   4.880
 1957SOL    HW2 6771   6.345   4.455   4.922
 1958SOL     OW 6772   6.244   2.726   3.802
 1958SOL    HW1 6773   6.237   2.749   3.705
 1958SOL    HW2 6774   6.211   2.633   3.817
 1959SOL     OW 6775   0.179   2.106   5.908
 1959SOL    HW1 6776   0.143   2.013   5.901
 1959SOL    HW2 6777   0.174   2.137   6.003
 1960SOL     OW 6778   6.117   5.106   1.258
 1960SOL    HW1 6779   6.103   5.008   1.246
 1960SOL    HW2 6780   6.109   5.153   1.170
 1961SOL     OW 6781   5.369   4.452   4.143
 1961SOL    HW1 6782   5.392   4.390   4.218
 1961SOL    HW2 6783   5.453   4.485   4.100
 1962SOL     OW 6784   2.365   6.281   2.541
 1962SOL    HW1 6785   2.422   6.292   2.622
 1962SOL    HW2 6786   2.367   6.186   2.510
 1963SOL     OW 6787   0.751   0.938   1.558
 1963SOL    HW1 6788   0.795   0.888   1.633
 1963SOL    HW2 6789   0.779   1.035   1.562
 1964SOL     OW 6790   4.719   2.720   1.496
 1964SOL    HW1 6791   4.753   2.756   1.409
 1964SOL    HW2 6792   4.746   2.624   1.506
 1965SOL     OW 6793   0.976   3.117   2.817
 1965SOL    HW1 6794   1.072   3.089   2.812
 1965SOL    HW2 6795   0.967   3.195   2.879
 1966SOL     OW 6796   6.836   5.168   5.080
 1966SOL    HW1 6797   6.825   5.259   5.040
 1966SOL    HW2 6798   6.747   5.135   5.111
 1967SOL     OW 6799   4.474   2.180   5.625
 1967SOL    HW1 6800   4.510   2.200   5.716
 1967SOL    HW2 6801   4.391   2.125   5.632
 1968SOL     OW 6802   2.924   6.065   0.506
 1968SOL    HW1 6803   2.956   6.100   0.594
 1968SOL    HW2 6804   2.827   6.042   0.513
 1969SOL     OW 6805   0.609   1.606   1.426
 1969SOL    HW1 6806   0.620   1.559   1.339
 1969SOL    HW2 6807   0.524   1.659   1.426
 1970SOL     OW 6808   2.439   1.060   6.322
 1970SOL    HW1 6809   2.518   1.053   6.262
 1970SOL    HW2 6810   2.357   1.029   6.275
 1971SOL     OW 6811   6.083   6.642   6.132
 1971SOL    HW1 6812   6.015   6.569   6.121
 1971SOL    HW2 6813   6.158   6.627   6.069
 1972SOL     OW 6814   6.780   2.620   3.033
 1972SOL    HW1 6815   6.790   2.588   3.127
 1972SOL    HW2 6816   6.812   2.550   2.970
 1973SOL     OW 6817   2.564   3.104   1.040
 1973SOL    HW1 6818   2.527   3.015   1.013
 1973SOL    HW2 6819   2.492   3.158   1.084
 1974SOL     OW 6820   6.296   5.880   4.131
 1974SOL    HW1 6821   6.197   5.867   4.133
 1974SOL    HW2 6822   6.333   5.870   4.223
 1975SOL     OW 6823   2.386   0.842   3.118
 1975SOL    HW1 6824   2.332   0.759   3.105
 1975SOL    HW2 6825   2.483   0.818   3.126
 1976SOL     OW 6826   0.769   5.676   6.856
 1976SOL    HW1 6827   0.753   5.729   6.773
 1976SOL    HW2 6828   0.806   5.736   6.927
 1977SOL     OW 6829   1.550   2.531   3.490
 1977SOL    HW1 6830   1.523   2.591   3.415
 1977SOL    HW2 6831   1.633   2.565   3.533
 1978SOL     OW 6832   0.756   0.525   4.176
 1978SOL    HW1 6833   0.793   0.609   4.136
 1978SOL    HW2 6834   0.732   0.461   4.103
 1979SOL     OW 6835   6.623   4.011   4.703
 1979SOL    HW1 6836   6.587   4.100   4.731
 1979SOL    HW2 6837   6.564   3.938   4.738
 1980SOL     OW 6838   3.397   1.011   6.453
 1980SOL    HW1 6839   3.389   0.958   6.368
 1980SOL    HW2 6840   3.319   0.991   6.511
 1981SOL     OW 6841   5.792   2.317   2.498
 1981SOL    HW1 6842   5.868   2.315   2.562
 1981SOL    HW2 6843   5.797   2.237   2.438
 1982SOL     OW 6844   6.562   4.285   5.848
 1982SOL    HW1 6845   6.580   4.306   5.944
 1982SOL    HW2 6846   6.576   4.367   5.792
 1983SOL     OW 6847   1.047   2.031   2.780
 1983SOL    HW1 6848   1.061   2.129   2.774
 1983SOL    HW2 6849   1.004   1.998   2.696
 1984SOL     OW 6850   5.315   0.239   5.122
 1984SOL    HW1 6851   5.403   0.242   5.168
 1984SOL    HW2 6852   5.245   0.281   5.181
 1985SOL     OW 6853   1.271   0.772   2.182
 1985SOL    HW1 6854   1.202   0.768   2.110
 1985SOL    HW2 6855   1.306   0.680   2.200
 1986SOL     OW 6856   1.288   0.617   0.370
 1986SOL    HW1 6857   1.333   0.544   0.422
 1986SOL    HW2 6858   1.350   0.693   0.359
 1987SOL     OW 6859   1.906   3.588   2.105
 1987SOL    HW1 6860   1.851   3.606   2.024
 1987SOL    HW2 6861   1.996   3.631   2.095
 1988SOL     OW 6862   4.282   4.587   0.920
 1988SOL    HW1 6863   4.382   4.581   0.916
 1988SOL    HW2 6864   4.242   4.499   0.896
 1989SOL     OW 6865   2.822   6.782   5.339
 1989SOL    HW1 6866   2.737   6.761   5.386
 1989SOL    HW2 6867   2.872   6.697   5.321
 1990SOL     OW 6868   3.575   6.861   1.102
 1990SOL    HW1 6869   3.617   6.846   1.192
 1990SOL    HW2 6870   3.489   6.911   1.114
 1991SOL     OW 6871   3.811   5.032   6.278
 1991SOL    HW1 6872   3.887   5.042   6.342
 1991SOL    HW2 6873   3.843   4.986   6.195
 1992SOL     OW 6874   1.516   0.173   6.842
 1992SOL    HW1 6875   1.545   0.131   6.928
 1992SOL    HW2 6876   1.428   0.220   6.855
 1993SOL     OW 6877   4.242   3.547   5.289
 1993SOL    HW1 6878   4.179   3.588   5.355
 1993SOL    HW2 6879   4.226   3.586   5.199
 1994SOL     OW 6880   1.669   2.069   1.277
 1994SOL    HW1 6881   1.740   2.007   1.309
 1994SOL    HW2 6882   1.706   2.130   1.207
 1995SOL     OW 6883   5.878   2.526   1.374
 1995SOL    HW1 6884   5.920   2.499   1.461
 1995SOL    HW2 6885   5.903   2.460   1.303
 1996SOL     OW 6886   2.890   3.593   0.551
 1996SOL    HW1 6887   2.910   3.685   0.583
 1996SOL    HW2 6888   2.968   3.533   0.570
 1997SOL     OW 6889   4.970   0.233   5.755
 1997SOL    HW1 6890   4.998   0.210   5.849
 1997SOL    HW2 6891   5.050   0.229   5.695
 1998SOL     OW 6892   3.138   3.785   5.874
 1998SOL    HW1 6893   3.069   3.849   5.906
 1998SOL    HW2 6894   3.125   3.768   5.776
 1999SOL     OW 6895   2.746   0.016   1.732
 1999SOL    HW1 6896   2.727   0.062   1.819
 1999SOL    HW2 6897   2.725   6.939   1.741
 2000SOL     OW 6898   3.632   2.040   5.574
 2000SOL    HW1 6899   3.560   2.063   5.639
 2000SOL    HW2 6900   3.672   2.124   5.537
 2001SOL     OW 6901   3.438   2.139   1.832
 2001SOL    HW1 6902   3.515   2.202   1.828
 2001SOL    HW2 6903   3.353   2.190   1.847
 2002SOL     OW 6904   0.879   5.849   6.022
 2002SOL    HW1 6905   0.876   5.794   5.939
 2002SOL    HW2 6906   0.787   5.858   6.060
 2003SOL     OW 6907   5.457   6.859   3.079
 2003SOL    HW1 6908   5.495   6.823   3.164
 2003SOL    HW2 6909   5.527   6.909   3.029
 2004SOL     OW 6910   5.227   1.097   5.033
 2004SOL    HW1 6911   5.246   1.155   4.954
 2004SOL    HW2 6912   5.178   1.150   5.102
 2005SOL     OW 6913   1.008   5.296   6.849
 2005SOL    HW1 6914   1.052   5.311   6.938
 2005SOL    HW2 6915   0.917   5.337   6.850
 2006SOL     OW 6916   4.932   4.410   3.818
 2006SOL    HW1 6917   4.855   4.347   3.823
 2006SOL    HW2 6918   4.988   4.402   3.901
 2007SOL     OW 6919   4.603   5.898   0.645
 2007SOL    HW1 6920   4.633   5.890   0.550
 2007SOL    HW2 6921   4.503   5.889   0.648
 2008SOL     OW 6922   1.062   5.773   2.978
 2008SOL    HW1 6923   1.058   5.857   3.032
 2008SOL    HW2 6924   1.032   5.792   2.884
 2009SOL     OW 6925   6.758   6.973   1.300
 2009SOL    HW1 6926   6.847   7.012   1.325
 2009SOL    HW2 6927   6.745   6.886   1.348
 2010SOL     OW 6928   1.036   1.017   0.871
 2010SOL    HW1 6929   0.985   1.102   0.877
 2010SOL    HW2 6930   1.077   1.009   0.780
 2011SOL     OW 6931   6.949   1.864   4.560
 2011SOL    HW1 6932   6.857   1.827   4.568
 2011SOL    HW2 6933   6.984   1.848   4.467
 2012SOL     OW 6934   0.919   3.060   1.596
 2012SOL    HW1 6935   0.998   3.044   1.655
 2012SOL    HW2 6936   0.877   3.148   1.619
 2013SOL     OW 6937   5.417   0.542   3.375
 2013SOL    HW1 6938   5.373   0.611   3.432
 2013SOL    HW2 6939   5.471   0.586   3.304
 2014SOL     OW 6940   1.703   5.129   2.968
 2014SOL    HW1 6941   1.700   5.116   3.068
 2014SOL    HW2 6942   1.623   5.182   2.939
 2015SOL     OW 6943   2.600   1.170   6.732
 2015SOL    HW1 6944   2.503   1.153   6.716
 2015SOL    HW2 6945   2.638   1.222   6.656
 2016SOL     OW 6946   0.881   5.328   5.164
 2016SOL    HW1 6947   0.889   5.250   5.226
 2016SOL    HW2 6948   0.785   5.347   5.147
 2017SOL     OW 6949   2.855   6.524   4.589
 2017SOL    HW1 6950   2.880   6.501   4.683
 2017SOL    HW2 6951   2.763   6.563   4.588
 2018SOL     OW 6952   5.967   6.273   6.412
 2018SOL    HW1 6953   5.906   6.291   6.488
 2018SOL    HW2 6954   6.061   6.294   6.438
 2019SOL     OW 6955   4.724   2.645   1.978
 2019SOL    HW1 6956   4.654   2.613   1.915
 2019SOL    HW2 6957   4.758   2.568   2.033
 2020SOL     OW 6958   1.191   5.081   5.145
 2020SOL    HW1 6959   1.260   5.019   5.182
 2020SOL    HW2 6960   1.229   5.130   5.067
 2021SOL     OW 6961   2.100   6.689   3.615
 2021SOL    HW1 6962   2.168   6.710   3.545
 2021SOL    HW2 6963   2.126   6.605   3.662
 2022SOL     OW 6964   2.112   3.613   2.365
 2022SOL    HW1 6965   2.019   3.643   2.387
 2022SOL    HW2 6966   2.177   3.666   2.419
 2023SOL     OW 6967   0.033   1.546   6.959
 2023SOL    HW1 6968   0.063   1.641   6.956
 2023SOL    HW2 6969   6.968   1.536   6.907
 2024SOL     OW 6970   0.046   0.960   2.395
 2024SOL    HW1 6971   0.035   1.013   2.479
 2024SOL    HW2 6972   6.979   0.958   2.345
 2025SOL     OW 6973   1.843   2.775   2.091
 2025SOL    HW1 6974   1.901   2.723   2.028
 2025SOL    HW2 6975   1.883   2.771   2.183
 2026SOL     OW 6976   1.758   2.167   5.736
 2026SOL    HW1 6977   1.816   2.194   5.813
 2026SOL    HW2 6978   1.753   2.241   5.669
 2027SOL     OW 6979   1.183   1.212   1.137
 2027SOL    HW1 6980   1.158   1.124   1.176
 2027SOL    HW2 6981   1.147   1.285   1.195
 2028SOL     OW 6982   3.300   1.384   6.315
 2028SOL    HW1 6983   3.219   1.442   6.309
 2028SOL    HW2 6984   3.377   1.437   6.351
 2029SOL     OW 6985   6.836   0.648   0.390
 2029SOL    HW1 6986   6.840   0.552   0.415
 2029SOL    HW2 6987   6.799   0.702   0.465
 2030SOL     OW 6988   2.642   0.584   3.697
 2030SOL    HW1 6989   2.548   0.616   3.713
 2030SOL    HW2 6990   2.645   0.527   3.616
 2031SOL     OW 6991   5.135   6.048   2.421
 2031SOL    HW1 6992   5.077   6.068   2.500
 2031SOL    HW2 6993   5.225   6.019   2.452
 2032SOL     OW 6994   3.809   6.538   1.672
 2032SOL    HW1 6995   3.716   6.572   1.682
 2032SOL    HW2 6996   3.841   6.552   1.579
 2033SOL     OW 6997   3.456   5.055   6.951
 2033SOL    HW1 6998   3.540   5.023   6.907
 2033SOL    HW2 6999   3.443   5.005   0.017
 2034SOL     OW 7000   3.396   0.343   4.477
 2034SOL    HW1 7001   3.413   0.394   4.561
 2034SOL    HW2 7002   3.307   0.299   4.482
 2035SOL     OW 7003   0.567   0.714   2.343
 2035SOL    HW1 7004   0.546   0.809   2.365
 2035SOL    HW2 7005   0.652   0.687   2.389
 2036SOL     OW 7006   0.838   5.887   3.206
 2036SOL    HW1 7007   0.904   5.951   3.165
 2036SOL    HW2 7008   0.757   5.937   3.236
 2037SOL     OW 7009   0.439   2.234   6.114
 2037SOL    HW1 7010   0.354   2.188   6.142
 2037SOL    HW2 7011   0.466   2.202   6.023
 2038SOL     OW 7012   0.939   1.588   6.558
 2038SOL    HW1 7013   0.930   1.594   6.458
 2038SOL    HW2 7014   1.034   1.609   6.584
 2039SOL     OW 7015   0.162   5.013   2.196
 2039SOL    HW1 7016   0.254   5.021   2.234
 2039SOL    HW2 7017   0.128   4.920   2.210
 2040SOL     OW 7018   3.256   2.890   5.128
 2040SOL    HW1 7019   3.228   2.798   5.155
 2040SOL    HW2 7020   3.176   2.950   5.123
 2041SOL     OW 7021   6.568   6.059   5.780
 2041SOL    HW1 7022   6.528   6.065   5.688
 2041SOL    HW2 7023   6.589   5.964   5.801
 2042SOL     OW 7024   5.383   5.271   6.947
 2042SOL    HW1 7025   5.341   5.190   6.989
 2042SOL    HW2 7026   5.456   5.242   6.885
 2043SOL     OW 7027   6.728   4.189   2.237
 2043SOL    HW1 7028   6.704   4.191   2.334
 2043SOL    HW2 7029   6.649   4.218   2.182
 2044SOL     OW 7030   4.679   0.147   1.934
 2044SOL    HW1 7031   4.635   0.116   1.849
 2044SOL    HW2 7032   4.633   0.229   1.968
 2045SOL     OW 7033   1.786   4.734   5.233
 2045SOL    HW1 7034   1.808   4.664   5.166
 2045SOL    HW2 7035   1.818   4.823   5.201
 2046SOL     OW 7036   6.414   0.976   4.107
 2046SOL    HW1 7037   6.478   0.999   4.034
 2046SOL    HW2 7038   6.398   1.058   4.164
 2047SOL     OW 7039   4.379   2.237   0.339
 2047SOL    HW1 7040   4.432   2.184   0.274
 2047SOL    HW2 7041   4.364   2.183   0.422
 2048SOL     OW 7042   2.014   5.525   0.814
 2048SOL    HW1 7043   2.018   5.471   0.729
 2048SOL    HW2 7044   2.049   5.617   0.796
 2049SOL     OW 7045   4.665   1.618   6.353
 2049SOL    HW1 7046   4.593   1.552   6.333
 2049SOL    HW2 7047   4.752   1.570   6.365
 2050SOL     OW 7048   6.142   2.335   3.310
 2050SOL    HW1 7049   6.165   2.348   3.406
 2050SOL    HW2 7050   6.083   2.255   3.300
 2051SOL     OW 7051   7.004   5.301   0.642
 2051SOL    HW1 7052   0.014   5.379   0.696
 2051SOL    HW2 7053   6.950   5.239   0.699
 2052SOL     OW 7054   0.404   4.253   0.514
 2052SOL    HW1 7055   0.495   4.294   0.521
 2052SOL    HW2 7056   0.411   4.155   0.531
 2053SOL     OW 7057   6.203   0.566   6.495
 2053SOL    HW1 7058   6.268   0.543   6.422
 2053SOL    HW2 7059   6.120   0.513   6.483
 2054SOL     OW 7060   4.701   2.989   1.617
 2054SOL    HW1 7061   4.685   2.893   1.594
 2054SOL    HW2 7062   4.679   3.004   1.714
 2055SOL     OW 7063   6.286   3.065   2.777
 2055SOL    HW1 7064   6.336   3.150   2.795
 2055SOL    HW2 7065   6.198   3.087   2.737
 2056SOL     OW 7066   2.143   0.881   2.953
 2056SOL    HW1 7067   2.219   0.887   3.018
 2056SOL    HW2 7068   2.095   0.794   2.966
 2057SOL     OW 7069   5.463   2.453   3.305
 2057SOL    HW1 7070   5.510   2.396   3.372
 2057SOL    HW2 7071   5.422   2.532   3.351
 2058SOL     OW 7072   1.116   1.597   3.100
 2058SOL    HW1 7073   1.109   1.518   3.039
 2058SOL    HW2 7074   1.037   1.599   3.161
 2059SOL     OW 7075   2.760   6.195   6.663
 2059SOL    HW1 7076   2.842   6.249   6.646
 2059SOL    HW2 7077   2.682   6.238   6.620
 2060SOL     OW 7078   6.506   4.252   0.466
 2060SOL    HW1 7079   6.557   4.197   0.533
 2060SOL    HW2 7080   6.494   4.200   0.382
 2061SOL     OW 7081   0.816   1.617   2.909
 2061SOL    HW1 7082   0.860   1.707   2.903
 2061SOL    HW2 7083   0.863   1.561   2.977
 2062SOL     OW 7084   5.594   0.097   3.444
 2062SOL    HW1 7085   5.633   0.189   3.450
 2062SOL    HW2 7086   5.666   0.029   3.460
 2063SOL     OW 7087   1.816   0.199   6.052
 2063SOL    HW1 7088   1.842   0.162   6.142
 2063SOL    HW2 7089   1.841   0.295   6.048
 2064SOL     OW 7090   0.898   1.685   5.725
 2064SOL    HW1 7091   0.959   1.607   5.713
 2064SOL    HW2 7092   0.951   1.770   5.719
 2065SOL     OW 7093   6.594   3.745   3.041
 2065SOL    HW1 7094   6.673   3.727   2.982
 2065SOL    HW2 7095   6.617   3.816   3.107
 2066SOL     OW 7096   0.504   6.013   3.511
 2066SOL    HW1 7097   0.432   6.046   3.571
 2066SOL    HW2 7098   0.572   5.963   3.564
 2067SOL     OW 7099   6.658   5.846   0.619
 2067SOL    HW1 7100   6.656   5.889   0.709
 2067SOL    HW2 7101   6.753   5.829   0.592
 2068SOL     OW 7102   1.467   1.749   5.095
 2068SOL    HW1 7103   1.501   1.725   5.186
 2068SOL    HW2 7104   1.377   1.791   5.103
 2069SOL     OW 7105   0.847   3.084   3.336
 2069SOL    HW1 7106   0.916   3.071   3.265
 2069SOL    HW2 7107   0.816   2.994   3.369
 2070SOL     OW 7108   1.552   0.395   2.727
 2070SOL    HW1 7109   1.575   0.436   2.816
 2070SOL    HW2 7110   1.553   0.466   2.657
 2071SOL     OW 7111   6.450   5.953   5.525
 2071SOL    HW1 7112   6.370   5.937   5.467
 2071SOL    HW2 7113   6.456   5.880   5.593
 2072SOL     OW 7114   4.403   6.543   2.099
 2072SOL    HW1 7115   4.455   6.511   2.178
 2072SOL    HW2 7116   4.306   6.531   2.116
 2073SOL     OW 7117   3.785   0.162   4.276
 2073SOL    HW1 7118   3.873   0.197   4.308
 2073SOL    HW2 7119   3.791   0.139   4.179
 2074SOL     OW 7120   1.229   3.426   0.644
 2074SOL    HW1 7121   1.186   3.413   0.733
 2074SOL    HW2 7122   1.250   3.523   0.631
 2075SOL     OW 7123   5.113   3.139   1.726
 2075SOL    HW1 7124   5.128   3.040   1.737
 2075SOL    HW2 7125   5.033   3.154   1.668
 2076SOL     OW 7126   4.916   6.953   6.919
 2076SOL    HW1 7127   4.984   6.914   6.980
 2076SOL    HW2 7128   4.951   6.952   6.825
 2077SOL     OW 7129   5.176   2.261   2.852
 2077SOL    HW1 7130   5.149   2.204   2.930
 2077SOL    HW2 7131   5.105   2.331   2.836
 2078SOL     OW 7132   1.460   6.278   6.439
 2078SOL    HW1 7133   1.439   6.204   6.374
 2078SOL    HW2 7134   1.416   6.258   6.527
 2079SOL     OW 7135   5.743   1.583   3.407
 2079SOL    HW1 7136   5.654   1.602   3.449
 2079SOL    HW2 7137   5.758   1.484   3.404
 2080SOL     OW 7138   1.280   0.583   4.637
 2080SOL    HW1 7139   1.212   0.509   4.637
 2080SOL    HW2 7140   1.245   0.660   4.690
 2081SOL     OW 7141   2.218   5.734   4.748
 2081SOL    HW1 7142   2.136   5.750   4.804
 2081SOL    HW2 7143   2.289   5.691   4.804
 2082SOL     OW 7144   6.938   0.042   3.275
 2082SOL    HW1 7145   6.899   0.117   3.329
 2082SOL    HW2 7146   6.869   0.010   3.209
 2083SOL     OW 7147   4.897   4.756   6.582
 2083SOL    HW1 7148   4.894   4.845   6.626
 2083SOL    HW2 7149   4.987   4.743   6.539
 2084SOL     OW 7150   6.854   4.307   4.544
 2084SOL    HW1 7151   6.822   4.391   4.588
 2084SOL    HW2 7152   6.940   4.326   4.496
 2085SOL     OW 7153   4.798   0.730   6.795
 2085SOL    HW1 7154   4.867   0.663   6.767
 2085SOL    HW2 7155   4.834   0.785   6.871
 2086SOL     OW 7156   3.429   6.922   5.518
 2086SOL    HW1 7157   3.385   6.836   5.545
 2086SOL    HW2 7158   3.528   6.910   5.519
 2087SOL     OW 7159   5.120   6.995   1.841
 2087SOL    HW1 7160   5.062   0.056   1.848
 2087SOL    HW2 7161   5.083   6.922   1.899
 2088SOL     OW 7162   2.670   6.306   0.828
 2088SOL    HW1 7163   2.590   6.260   0.791
 2088SOL    HW2 7164   2.667   6.302   0.928
 2089SOL     OW 7165   5.286   2.315   6.508
 2089SOL    HW1 7166   5.244   2.226   6.525
 2089SOL    HW2 7167   5.216   2.386   6.506
 2090SOL     OW 7168   3.598   3.653   5.533
 2090SOL    HW1 7169   3.585   3.657   5.632
 2090SOL    HW2 7170   3.512   3.630   5.489
 2091SOL     OW 7171   6.728   5.272   0.407
 2091SOL    HW1 7172   6.766   5.364   0.422
 2091SOL    HW2 7173   6.711   5.229   0.495
 2092SOL     OW 7174   4.573   4.573   0.192
 2092SOL    HW1 7175   4.578   4.478   0.222
 2092SOL    HW2 7176   4.543   4.631   0.268
 2093SOL     OW 7177   2.661   2.417   1.802
 2093SOL    HW1 7178   2.738   2.376   1.851
 2093SOL    HW2 7179   2.686   2.509   1.773
 2094SOL     OW 7180   5.999   1.744   0.706
 2094SOL    HW1 7181   5.948   1.721   0.623
 2094SOL    HW2 7182   6.084   1.690   0.709
 2095SOL     OW 7183   5.336   0.486   5.018
 2095SOL    HW1 7184   5.375   0.394   5.015
 2095SOL    HW2 7185   5.265   0.494   4.948
 2096SOL     OW 7186   4.665   4.248   2.858
 2096SOL    HW1 7187   4.622   4.336   2.880
 2096SOL    HW2 7188   4.644   4.224   2.763
 2097SOL     OW 7189   1.729   3.034   6.834
 2097SOL    HW1 7190   1.734   3.100   6.909
 2097SOL    HW2 7191   1.822   3.014   6.802
 2098SOL     OW 7192   3.957   5.533   3.480
 2098SOL    HW1 7193   3.978   5.461   3.546
 2098SOL    HW2 7194   3.895   5.497   3.410
 2099SOL     OW 7195   2.736   3.097   5.305
 2099SOL    HW1 7196   2.822   3.046   5.317
 2099SOL    HW2 7197   2.689   3.064   5.223
 2100SOL     OW 7198   4.467   3.325   5.723
 2100SOL    HW1 7199   4.446   3.332   5.626
 2100SOL    HW2 7200   4.403   3.260   5.766
 2101SOL     OW 7201   1.817   5.806   2.968
 2101SOL    HW1 7202   1.832   5.813   3.067
 2101SOL    HW2 7203   1.816   5.710   2.941
 2102SOL     OW 7204   6.254   4.829   1.834
 2102SOL    HW1 7205   6.226   4.769   1.910
 2102SOL    HW2 7206   6.353   4.826   1.824
 2103SOL     OW 7207   3.087   3.714   6.160
 2103SOL    HW1 7208   3.075   3.690   6.063
 2103SOL    HW2 7209   3.085   3.631   6.216
 2104SOL     OW 7210   1.405   3.238   0.581
 2104SOL    HW1 7211   1.323   3.286   0.613
 2104SOL    HW2 7212   1.475   3.306   0.558
 2105SOL     OW 7213   5.024   5.784   4.649
 2105SOL    HW1 7214   4.982   5.720   4.714
 2105SOL    HW2 7215   5.065   5.733   4.574
 2106SOL     OW 7216   4.465   4.127   0.674
 2106SOL    HW1 7217   4.526   4.206   0.679
 2106SOL    HW2 7218   4.460   4.096   0.579
 2107SOL     OW 7219   5.344   2.833   5.581
 2107SOL    HW1 7220   5.437   2.864   5.562
 2107SOL    HW2 7221   5.347   2.742   5.621
 2108SOL     OW 7222   6.720   6.229   5.422
 2108SOL    HW1 7223   6.728   6.274   5.333
 2108SOL    HW2 7224   6.703   6.131   5.408
 2109SOL     OW 7225   4.372   6.312   3.146
 2109SOL    HW1 7226   4.305   6.241   3.168
 2109SOL    HW2 7227   4.342   6.399   3.186
 2110SOL     OW 7228   2.910   2.194   6.582
 2110SOL    HW1 7229   3.008   2.186   6.598
 2110SOL    HW2 7230   2.884   2.139   6.503
 2111SOL     OW 7231   1.556   2.301   6.975
 2111SOL    HW1 7232   1.583   2.393   7.002
 2111SOL    HW2 7233   1.624   2.235   7.007
 2112SOL     OW 7234   5.104   2.492   0.362
 2112SOL    HW1 7235   5.132   2.417   0.422
 2112SOL    HW2 7236   5.119   2.579   0.408
 2113SOL     OW 7237   0.898   0.994   5.221
 2113SOL    HW1 7238   0.867   0.947   5.138
 2113SOL    HW2 7239   0.906   1.092   5.202
 2114SOL     OW 7240   1.828   2.855   0.937
 2114SOL    HW1 7241   1.743   2.907   0.928
 2114SOL    HW2 7242   1.874   2.851   0.848
 2115SOL     OW 7243   2.058   3.297   2.442
 2115SOL    HW1 7244   1.976   3.352   2.460
 2115SOL    HW2 7245   2.116   3.344   2.375
 2116SOL     OW 7246   0.497   5.091   3.175
 2116SOL    HW1 7247   0.540   5.124   3.258
 2116SOL    HW2 7248   0.495   4.991   3.176
 2117SOL     OW 7249   6.660   4.687   1.749
 2117SOL    HW1 7250   6.629   4.598   1.782
 2117SOL    HW2 7251   6.616   4.760   1.802
 2118SOL     OW 7252   6.565   3.230   1.177
 2118SOL    HW1 7253   6.583   3.144   1.129
 2118SOL    HW2 7254   6.652   3.269   1.208
 2119SOL     OW 7255   2.398   5.810   0.964
 2119SOL    HW1 7256   2.311   5.855   0.982
 2119SOL    HW2 7257   2.432   5.767   1.048
 2120SOL     OW 7258   0.253   4.901   4.242
 2120SOL    HW1 7259   0.336   4.952   4.219
 2120SOL    HW2 7260   0.272   4.803   4.237
 2121SOL     OW 7261   1.083   3.940   5.674
 2121SOL    HW1 7262   0.994   3.927   5.717
 2121SOL    HW2 7263   1.128   3.851   5.663
 2122SOL     OW 7264   5.539   4.104   5.855
 2122SOL    HW1 7265   5.484   4.033   5.810
 2122SOL    HW2 7266   5.484   4.149   5.925
 2123SOL     OW 7267   6.835   5.669   1.965
 2123SOL    HW1 7268   6.750   5.632   1.928
 2123SOL    HW2 7269   6.877   5.603   2.027
 2124SOL     OW 7270   3.059   1.635   1.771
 2124SOL    HW1 7271   3.128   1.570   1.803
 2124SOL    HW2 7272   3.069   1.649   1.673
 2125SOL     OW 7273   1.839   0.617   1.501
 2125SOL    HW1 7274   1.792   0.701   1.527
 2125SOL    HW2 7275   1.917   0.639   1.443
 2126SOL     OW 7276   3.904   0.787   6.826
 2126SOL    HW1 7277   3.967   0.807   6.751
 2126SOL    HW2 7278   3.854   0.871   6.851
 2127SOL     OW 7279   6.524   3.301   4.219
 2127SOL    HW1 7280   6.591   3.311   4.145
 2127SOL    HW2 7281   6.530   3.210   4.258
 2128SOL     OW 7282   6.510   3.679   3.627
 2128SOL    HW1 7283   6.440   3.682   3.699
 2128SOL    HW2 7284   6.502   3.592   3.577
 2129SOL     OW 7285   4.526   3.769   5.931
 2129SOL    HW1 7286   4.500   3.674   5.947
 2129SOL    HW2 7287   4.565   3.778   5.839
 2130SOL     OW 7288   3.301   1.015   2.048
 2130SOL    HW1 7289   3.372   1.081   2.026
 2130SOL    HW2 7290   3.288   0.953   1.970
 2131SOL     OW 7291   6.419   6.992   0.316
 2131SOL    HW1 7292   6.371   0.048   0.361
 2131SOL    HW2 7293   6.352   6.930   0.275
 2132SOL     OW 7294   3.960   1.955   1.539
 2132SOL    HW1 7295   3.893   1.895   1.583
 2132SOL    HW2 7296   3.917   2.002   1.462
 2133SOL     OW 7297   2.755   3.274   6.860
 2133SOL    HW1 7298   2.681   3.215   6.895
 2133SOL    HW2 7299   2.716   3.359   6.826
 2134SOL     OW 7300   0.202   2.627   0.014
 2134SOL    HW1 7301   0.236   2.677   0.094
 2134SOL    HW2 7302   0.162   2.692   6.969
 2135SOL     OW 7303   7.006   4.196   4.297
 2135SOL    HW1 7304   0.038   4.117   4.266
 2135SOL    HW2 7305   6.910   4.184   4.274
 2136SOL     OW 7306   1.723   4.210   2.540
 2136SOL    HW1 7307   1.652   4.279   2.556
 2136SOL    HW2 7308   1.809   4.255   2.517
 2137SOL     OW 7309   2.699   5.908   5.470
 2137SOL    HW1 7310   2.758   5.965   5.413
 2137SOL    HW2 7311   2.753   5.837   5.515
 2138SOL     OW 7312   6.813   6.449   2.707
 2138SOL    HW1 7313   6.729   6.469   2.658
 2138SOL    HW2 7314   6.828   6.519   2.778
 2139SOL     OW 7315   4.528   0.839   3.754
 2139SOL    HW1 7316   4.534   0.917   3.817
 2139SOL    HW2 7317   4.480   0.763   3.800
 2140SOL     OW 7318   3.403   0.192   4.024
 2140SOL    HW1 7319   3.429   0.226   4.115
 2140SOL    HW2 7320   3.465   0.119   3.997
 2141SOL     OW 7321   6.486   3.150   2.195
 2141SOL    HW1 7322   6.477   3.130   2.097
 2141SOL    HW2 7323   6.576   3.121   2.227
 2142SOL     OW 7324   1.330   1.222   3.198
 2142SOL    HW1 7325   1.370   1.157   3.133
 2142SOL    HW2 7326   1.398   1.293   3.219
 2143SOL     OW 7327   3.132   4.896   1.417
 2143SOL    HW1 7328   3.221   4.928   1.447
 2143SOL    HW2 7329   3.143   4.819   1.354
 2144SOL     OW 7330   0.442   5.515   4.790
 2144SOL    HW1 7331   0.434   5.594   4.729
 2144SOL    HW2 7332   0.366   5.452   4.773
 2145SOL     OW 7333   3.947   6.560   4.125
 2145SOL    HW1 7334   3.920   6.532   4.033
 2145SOL    HW2 7335   3.910   6.497   4.192
 2146SOL     OW 7336   2.351   3.407   0.716
 2146SOL    HW1 7337   2.319   3.436   0.806
 2146SOL    HW2 7338   2.393   3.316   0.723
 2147SOL     OW 7339   6.129   1.734   5.951
 2147SOL    HW1 7340   6.159   1.639   5.954
 2147SOL    HW2 7341   6.085   1.758   6.037
 2148SOL     OW 7342   6.185   3.586   5.945
 2148SOL    HW1 7343   6.121   3.596   6.021
 2148SOL    HW2 7344   6.177   3.664   5.883
 2149SOL     OW 7345   2.746   1.757   0.947
 2149SOL    HW1 7346   2.676   1.688   0.929
 2149SOL    HW2 7347   2.819   1.748   0.880
 2150SOL     OW 7348   2.515   2.515   2.223
 2150SOL    HW1 7349   2.579   2.438   2.220
 2150SOL    HW2 7350   2.504   2.553   2.131
 2151SOL     OW 7351   1.848   6.766   6.047
 2151SOL    HW1 7352   1.920   6.743   6.112
 2151SOL    HW2 7353   1.832   6.689   5.986
 2152SOL     OW 7354   3.375   5.205   2.492
 2152SOL    HW1 7355   3.334   5.152   2.418
 2152SOL    HW2 7356   3.461   5.245   2.460
 2153SOL     OW 7357   4.704   1.542   2.892
 2153SOL    HW1 7358   4.747   1.455   2.865
 2153SOL    HW2 7359   4.746   1.617   2.840
 2154SOL     OW 7360   5.118   0.482   4.363
 2154SOL    HW1 7361   5.169   0.551   4.415
 2154SOL    HW2 7362   5.040   0.450   4.416
 2155SOL     OW 7363   3.906   6.501   1.424
 2155SOL    HW1 7364   3.979   6.568   1.414
 2155SOL    HW2 7365   3.834   6.519   1.357
 2156SOL     OW 7366   0.603   1.435   4.671
 2156SOL    HW1 7367   0.582   1.362   4.606
 2156SOL    HW2 7368   0.529   1.444   4.737
 2157SOL     OW 7369   5.972   6.833   2.899
 2157SOL    HW1 7370   5.980   6.735   2.917
 2157SOL    HW2 7371   6.038   6.883   2.956
 2158SOL     OW 7372   3.505   5.961   1.115
 2158SOL    HW1 7373   3.597   5.969   1.078
 2158SOL    HW2 7374   3.484   5.865   1.132
 2159SOL     OW 7375   1.515   0.500   4.756
 2159SOL    HW1 7376   1.437   0.519   4.696
 2159SOL    HW2 7377   1.546   0.586   4.798
 2160SOL     OW 7378   4.740   4.073   6.814
 2160SOL    HW1 7379   4.717   3.989   6.863
 2160SOL    HW2 7380   4.788   4.049   6.729
 2161SOL     OW 7381   5.808   4.429   2.342
 2161SOL    HW1 7382   5.867   4.377   2.281
 2161SOL    HW2 7383   5.832   4.410   2.437
 2162SOL     OW 7384   3.294   0.782   1.902
 2162SOL    HW1 7385   3.252   0.699   1.938
 2162SOL    HW2 7386   3.321   0.768   1.807
 2163SOL     OW 7387   2.029   4.356   0.495
 2163SOL    HW1 7388   2.007   4.319   0.585
 2163SOL    HW2 7389   1.965   4.430   0.473
 2164SOL     OW 7390   1.853   2.020   6.404
 2164SOL    HW1 7391   1.927   2.074   6.443
 2164SOL    HW2 7392   1.888   1.933   6.370
 2165SOL     OW 7393   6.968   2.038   3.311
 2165SOL    HW1 7394   0.045   2.032   3.290
 2165SOL    HW2 7395   6.952   2.003   3.404
 2166SOL     OW 7396   1.565   2.723   4.768
 2166SOL    HW1 7397   1.538   2.817   4.749
 2166SOL    HW2 7398   1.484   2.667   4.781
 2167SOL     OW 7399   1.869   1.944   3.785
 2167SOL    HW1 7400   1.816   1.906   3.860
 2167SOL    HW2 7401   1.871   2.043   3.791
 2168SOL     OW 7402   0.910   1.779   3.477
 2168SOL    HW1 7403   0.859   1.720   3.540
 2168SOL    HW2 7404   1.007   1.777   3.500
 2169SOL     OW 7405   5.712   2.350   6.816
 2169SOL    HW1 7406   5.709   2.405   6.900
 2169SOL    HW2 7407   5.620   2.339   6.780
 2170SOL     OW 7408   6.817   3.821   4.786
 2170SOL    HW1 7409   6.848   3.887   4.854
 2170SOL    HW2 7410   6.734   3.855   4.743
 2171SOL     OW 7411   0.241   5.163   1.603
 2171SOL    HW1 7412   0.195   5.233   1.658
 2171SOL    HW2 7413   0.202   5.074   1.622
 2172SOL     OW 7414   2.004   1.682   6.635
 2172SOL    HW1 7415   1.994   1.590   6.598
 2172SOL    HW2 7416   1.928   1.702   6.697
 2173SOL     OW 7417   4.308   0.725   5.625
 2173SOL    HW1 7418   4.299   0.630   5.656
 2173SOL    HW2 7419   4.405   0.745   5.608
 2174SOL     OW 7420   6.767   5.371   4.901
 2174SOL    HW1 7421   6.699   5.427   4.948
 2174SOL    HW2 7422   6.799   5.418   4.819
 2175SOL     OW 7423   1.736   2.307   4.513
 2175SOL    HW1 7424   1.737   2.242   4.589
 2175SOL    HW2 7425   1.698   2.394   4.543
 2176SOL     OW 7426   5.475   2.418   0.349
 2176SOL    HW1 7427   5.379   2.424   0.375
 2176SOL    HW2 7428   5.484   2.439   0.251
 2177SOL     OW 7429   6.673   1.730   2.760
 2177SOL    HW1 7430   6.705   1.708   2.852
 2177SOL    HW2 7431   6.697   1.656   2.698
 2178SOL     OW 7432   1.807   1.775   2.064
 2178SOL    HW1 7433   1.886   1.837   2.065
 2178SOL    HW2 7434   1.838   1.682   2.085
 2179SOL     OW 7435   1.706   5.078   5.816
 2179SOL    HW1 7436   1.609   5.069   5.841
 2179SOL    HW2 7437   1.729   5.175   5.805
 2180SOL     OW 7438   1.702   2.564   2.167
 2180SOL    HW1 7439   1.749   2.647   2.137
 2180SOL    HW2 7440   1.753   2.523   2.243
 2181SOL     OW 7441   4.609   4.831   4.545
 2181SOL    HW1 7442   4.688   4.771   4.555
 2181SOL    HW2 7443   4.599   4.886   4.628
 2182SOL     OW 7444   1.580   3.936   3.481
 2182SOL    HW1 7445   1.581   3.836   3.477
 2182SOL    HW2 7446   1.577   3.965   3.576
 2183SOL     OW 7447   2.384   4.655   6.722
 2183SOL    HW1 7448   2.319   4.719   6.762
 2183SOL    HW2 7449   2.337   4.593   6.660
 2184SOL     OW 7450   4.753   1.022   5.946
 2184SOL    HW1 7451   4.712   1.107   5.980
 2184SOL    HW2 7452   4.770   1.029   5.848
 2185SOL     OW 7453   0.587   0.433   0.922
 2185SOL    HW1 7454   0.583   0.401   0.827
 2185SOL    HW2 7455   0.494   0.443   0.957
 2186SOL     OW 7456   6.424   5.416   0.723
 2186SOL    HW1 7457   6.391   5.322   0.726
 2186SOL    HW2 7458   6.406   5.456   0.633
 2187SOL     OW 7459   6.882   5.940   2.410
 2187SOL    HW1 7460   6.886   5.959   2.312
 2187SOL    HW2 7461   6.965   5.976   2.454
 2188SOL     OW 7462   0.108   5.427   5.182
 2188SOL    HW1 7463   0.135   5.331   5.173
 2188SOL    HW2 7464   0.155   5.481   5.112
 2189SOL     OW 7465   2.186   0.161   1.490
 2189SOL    HW1 7466   2.091   0.185   1.469
 2189SOL    HW2 7467   2.216   0.211   1.571
 2190SOL     OW 7468   0.079   3.375   1.983
 2190SOL    HW1 7469   0.154   3.441   1.989
 2190SOL    HW2 7470   0.081   3.315   2.063
 2191SOL     OW 7471   2.576   1.690   6.542
 2191SOL    HW1 7472   2.620   1.775   6.568
 2191SOL    HW2 7473   2.643   1.631   6.496
 2192SOL     OW 7474   4.904   1.319   2.421
 2192SOL    HW1 7475   4.975   1.379   2.384
 2192SOL    HW2 7476   4.815   1.351   2.389
 2193SOL     OW 7477   5.656   6.635   6.862
 2193SOL    HW1 7478   5.741   6.663   6.817
 2193SOL    HW2 7479   5.674   6.557   6.921
 2194SOL     OW 7480   2.016   4.374   6.036
 2194SOL    HW1 7481   2.110   4.407   6.043
 2194SOL    HW2 7482   1.981   4.392   5.944
 2195SOL     OW 7483   6.845   6.986   5.299
 2195SOL    HW1 7484   6.845   6.900   5.350
 2195SOL    HW2 7485   6.900   0.034   5.348
 2196SOL     OW 7486   3.959   0.630   4.410
 2196SOL    HW1 7487   3.908   0.708   4.445
 2196SOL    HW2 7488   4.047   0.623   4.457
 2197SOL     OW 7489   3.098   3.394   6.827
 2197SOL    HW1 7490   3.161   3.369   6.901
 2197SOL    HW2 7491   3.033   3.461   6.860
 2198SOL     OW 7492   5.270   0.143   1.058
 2198SOL    HW1 7493   5.347   0.187   1.105
 2198SOL    HW2 7494   5.303   0.094   0.977
 2199SOL     OW 7495   5.515   6.453   3.449
 2199SOL    HW1 7496   5.499   6.443   3.547
 2199SOL    HW2 7497   5.444   6.512   3.409
 2200SOL     OW 7498   2.271   1.908   3.899
 2200SOL    HW1 7499   2.294   2.004   3.916
 2200SOL    HW2 7500   2.250   1.863   3.986
 2201SOL     OW 7501   6.469   2.761   3.561
 2201SOL    HW1 7502   6.382   2.809   3.574
 2201SOL    HW2 7503   6.539   2.827   3.532
 2202SOL     OW 7504   3.572   5.662   2.422
 2202SOL    HW1 7505   3.550   5.625   2.332
 2202SOL    HW2 7506   3.640   5.735   2.412
 2203SOL     OW 7507   2.194   3.049   0.943
 2203SOL    HW1 7508   2.244   2.982   0.998
 2203SOL    HW2 7509   2.192   3.019   0.847
 2204SOL     OW 7510   5.013   2.025   0.950
 2204SOL    HW1 7511   5.111   2.009   0.950
 2204SOL    HW2 7512   4.976   2.007   1.041
 2205SOL     OW 7513   0.646   6.583   6.405
 2205SOL    HW1 7514   0.599   6.605   6.490
 2205SOL    HW2 7515   0.579   6.562   6.334
 2206SOL     OW 7516   3.366   5.282   5.709
 2206SOL    HW1 7517   3.350   5.373   5.748
 2206SOL    HW2 7518   3.278   5.241   5.683
 2207SOL     OW 7519   2.820   5.168   6.558
 2207SOL    HW1 7520   2.832   5.165   6.458
 2207SOL    HW2 7521   2.910   5.170   6.602
 2208SOL     OW 7522   1.463   5.252   2.994
 2208SOL    HW1 7523   1.374   5.245   2.948
 2208SOL    HW2 7524   1.452   5.306   3.078
 2209SOL     OW 7525   1.352   0.149   5.695
 2209SOL    HW1 7526   1.318   0.061   5.661
 2209SOL    HW2 7527   1.357   0.146   5.795
 2210SOL     OW 7528   0.194   4.350   4.366
 2210SOL    HW1 7529   0.235   4.396   4.287
 2210SOL    HW2 7530   0.110   4.304   4.338
 2211SOL     OW 7531   6.420   0.495   0.647
 2211SOL    HW1 7532   6.333   0.484   0.599
 2211SOL    HW2 7533   6.474   0.566   0.603
 2212SOL     OW 7534   2.688   5.679   0.712
 2212SOL    HW1 7535   2.614   5.745   0.701
 2212SOL    HW2 7536   2.660   5.608   0.777
 2213SOL     OW 7537   3.289   1.607   5.108
 2213SOL    HW1 7538   3.287   1.513   5.140
 2213SOL    HW2 7539   3.353   1.660   5.164
 2214SOL     OW 7540   3.312   3.940   4.860
 2214SOL    HW1 7541   3.265   3.857   4.829
 2214SOL    HW2 7542   3.260   3.982   4.934
 2215SOL     OW 7543   5.793   1.675   0.072
 2215SOL    HW1 7544   5.793   1.583   0.031
 2215SOL    HW2 7545   5.883   1.692   0.113
 2216SOL     OW 7546   1.297   0.709   6.858
 2216SOL    HW1 7547   1.257   0.798   6.839
 2216SOL    HW2 7548   1.340   0.673   6.775
 2217SOL     OW 7549   4.190   0.066   2.472
 2217SOL    HW1 7550   4.129   0.021   2.407
 2217SOL    HW2 7551   4.160   0.160   2.488
 2218SOL     OW 7552   6.650   5.267   0.139
 2218SOL    HW1 7553   6.637   5.268   0.238
 2218SOL    HW2 7554   6.741   5.302   0.117
 2219SOL     OW 7555   5.616   1.579   0.782
 2219SOL    HW1 7556   5.546   1.600   0.849
 2219SOL    HW2 7557   5.598   1.630   0.697
 2220SOL     OW 7558   2.241   6.425   5.012
 2220SOL    HW1 7559   2.176   6.396   5.081
 2220SOL    HW2 7560   2.314   6.357   5.004
 2221SOL     OW 7561   6.276   1.652   5.396
 2221SOL    HW1 7562   6.312   1.650   5.303
 2221SOL    HW2 7563   6.336   1.707   5.454
 2222SOL     OW 7564   5.466   0.649   0.658
 2222SOL    HW1 7565   5.375   0.611   0.644
 2222SOL    HW2 7566   5.483   0.661   0.756
 2223SOL     OW 7567   5.844   1.442   5.512
 2223SOL    HW1 7568   5.871   1.376   5.442
 2223SOL    HW2 7569   5.792   1.396   5.583
 2224SOL     OW 7570   6.942   3.527   0.680
 2224SOL    HW1 7571   6.936   3.427   0.668
 2224SOL    HW2 7572   6.910   3.552   0.771
 2225SOL     OW 7573   6.106   6.901   3.700
 2225SOL    HW1 7574   6.145   6.814   3.730
 2225SOL    HW2 7575   6.111   6.968   3.774
 2226SOL     OW 7576   4.011   5.346   0.612
 2226SOL    HW1 7577   4.043   5.383   0.700
 2226SOL    HW2 7578   3.931   5.288   0.627
 2227SOL     OW 7579   5.319   3.017   6.818
 2227SOL    HW1 7580   5.315   3.092   6.884
 2227SOL    HW2 7581   5.292   3.051   6.728
 2228SOL     OW 7582   4.197   5.352   1.120
 2228SOL    HW1 7583   4.293   5.370   1.100
 2228SOL    HW2 7584   4.151   5.437   1.146
 2229SOL     OW 7585   4.378   2.556   5.483
 2229SOL    HW1 7586   4.473   2.535   5.505
 2229SOL    HW2 7587   4.335   2.603   5.560
 2230SOL     OW 7588   5.889   6.367   0.445
 2230SOL    HW1 7589   5.893   6.310   0.527
 2230SOL    HW2 7590   5.972   6.422   0.439
 2231SOL     OW 7591   0.383   0.869   1.530
 2231SOL    HW1 7592   0.285   0.880   1.543
 2231SOL    HW2 7593   0.407   0.889   1.435
 2232SOL     OW 7594   1.130   2.275   4.482
 2232SOL    HW1 7595   1.055   2.295   4.545
 2232SOL    HW2 7596   1.112   2.190   4.433
 2233SOL     OW 7597   2.290   2.831   0.404
 2233SOL    HW1 7598   2.316   2.883   0.323
 2233SOL    HW2 7599   2.190   2.824   0.409
 2234SOL     OW 7600   4.522   1.809   1.299
 2234SOL    HW1 7601   4.556   1.719   1.325
 2234SOL    HW2 7602   4.443   1.833   1.356
 2235SOL     OW 7603   2.964   0.431   1.484
 2235SOL    HW1 7604   2.984   0.348   1.432
 2235SOL    HW2 7605   3.050   0.478   1.506
 2236SOL     OW 7606   2.333   4.097   6.844
 2236SOL    HW1 7607   2.275   4.018   6.825
 2236SOL    HW2 7608   2.316   4.168   6.776
 2237SOL     OW 7609   6.122   4.530   3.681
 2237SOL    HW1 7610   6.030   4.494   3.668
 2237SOL    HW2 7611   6.139   4.602   3.614
 2238SOL     OW 7612   4.519   4.752   2.105
 2238SOL    HW1 7613   4.424   4.744   2.134
 2238SOL    HW2 7614   4.539   4.683   2.035
 2239SOL     OW 7615   3.819   5.018   4.186
 2239SOL    HW1 7616   3.812   4.983   4.280
 2239SOL    HW2 7617   3.783   5.112   4.183
 2240SOL     OW 7618   3.460   5.775   3.398
 2240SOL    HW1 7619   3.486   5.871   3.411
 2240SOL    HW2 7620   3.516   5.736   3.326
 2241SOL     OW 7621   0.840   5.624   3.621
 2241SOL    HW1 7622   0.934   5.649   3.599
 2241SOL    HW2 7623   0.793   5.594   3.538
 2242SOL     OW 7624   5.828   3.266   2.678
 2242SOL    HW1 7625   5.777   3.347   2.707
 2242SOL    HW2 7626   5.816   3.253   2.580
 2243SOL     OW 7627   1.653   6.288   6.081
 2243SOL    HW1 7628   1.562   6.312   6.116
 2243SOL    HW2 7629   1.662   6.189   6.076
 2244SOL     OW 7630   2.007   6.418   1.381
 2244SOL    HW1 7631   1.994   6.341   1.444
 2244SOL    HW2 7632   2.096   6.460   1.397
 2245SOL     OW 7633   0.485   1.902   1.114
 2245SOL    HW1 7634   0.484   1.918   1.213
 2245SOL    HW2 7635   0.454   1.809   1.095
 2246SOL     OW 7636   1.651   0.663   4.391
 2246SOL    HW1 7637   1.626   0.751   4.350
 2246SOL    HW2 7638   1.687   0.602   4.319
 2247SOL     OW 7639   3.283   2.895   3.772
 2247SOL    HW1 7640   3.346   2.879   3.696
 2247SOL    HW2 7641   3.331   2.882   3.859
 2248SOL     OW 7642   6.634   3.793   5.521
 2248SOL    HW1 7643   6.605   3.744   5.439
 2248SOL    HW2 7644   6.597   3.747   5.602
 2249SOL     OW 7645   5.556   6.503   3.957
 2249SOL    HW1 7646   5.522   6.523   3.865
 2249SOL    HW2 7647   5.551   6.585   4.013
 2250SOL     OW 7648   3.383   3.583   5.380
 2250SOL    HW1 7649   3.295   3.628   5.395
 2250SOL    HW2 7650   3.399   3.575   5.282
 2251SOL     OW 7651   5.154   0.506   6.469
 2251SOL    HW1 7652   5.155   0.509   6.369
 2251SOL    HW2 7653   5.223   0.440   6.500
 2252SOL     OW 7654   4.726   2.313   2.334
 2252SOL    HW1 7655   4.799   2.285   2.396
 2252SOL    HW2 7656   4.658   2.366   2.384
 2253SOL     OW 7657   0.171   3.937   6.727
 2253SOL    HW1 7658   0.255   3.895   6.692
 2253SOL    HW2 7659   0.193   3.996   6.805
 2254SOL     OW 7660   3.487   3.080   5.173
 2254SOL    HW1 7661   3.396   3.042   5.185
 2254SOL    HW2 7662   3.545   3.013   5.126
 2255SOL     OW 7663   4.065   3.207   5.998
 2255SOL    HW1 7664   3.987   3.233   5.941
 2255SOL    HW2 7665   4.084   3.280   6.063
 2256SOL     OW 7666   4.759   5.960   2.342
 2256SOL    HW1 7667   4.697   6.032   2.311
 2256SOL    HW2 7668   4.780   5.899   2.265
 2257SOL     OW 7669   0.216   2.513   4.480
 2257SOL    HW1 7670   0.298   2.476   4.523
 2257SOL    HW2 7671   0.214   2.613   4.491
 2258SOL     OW 7672   1.449   5.283   4.427
 2258SOL    HW1 7673   1.394   5.358   4.462
 2258SOL    HW2 7674   1.546   5.307   4.433
 2259SOL     OW 7675   5.260   3.497   6.216
 2259SOL    HW1 7676   5.282   3.422   6.278
 2259SOL    HW2 7677   5.312   3.578   6.242
 2260SOL     OW 7678   0.406   4.509   1.459
 2260SOL    HW1 7679   0.404   4.423   1.511
 2260SOL    HW2 7680   0.427   4.489   1.364
 2261SOL     OW 7681   5.951   4.899   0.297
 2261SOL    HW1 7682   6.016   4.827   0.272
 2261SOL    HW2 7683   5.898   4.870   0.377
 2262SOL     OW 7684   5.698   0.765   3.692
 2262SOL    HW1 7685   5.771   0.802   3.750
 2262SOL    HW2 7686   5.735   0.691   3.636
 2263SOL     OW 7687   3.045   5.947   6.391
 2263SOL    HW1 7688   3.028   5.996   6.306
 2263SOL    HW2 7689   3.095   6.006   6.454
 2264SOL     OW 7690   2.715   5.237   0.183
 2264SOL    HW1 7691   2.740   5.332   0.163
 2264SOL    HW2 7692   2.760   5.209   0.268
 2265SOL     OW 7693   1.299   0.567   4.313
 2265SOL    HW1 7694   1.255   0.553   4.402
 2265SOL    HW2 7695   1.319   0.479   4.271
 2266SOL     OW 7696   5.069   1.856   0.280
 2266SOL    HW1 7697   5.091   1.784   0.345
 2266SOL    HW2 7698   4.977   1.891   0.298
 2267SOL     OW 7699   4.946   2.258   5.024
 2267SOL    HW1 7700   4.865   2.202   5.004
 2267SOL    HW2 7701   5.018   2.235   4.959
 2268SOL     OW 7702   6.344   4.261   0.077
 2268SOL    HW1 7703   6.399   4.323   0.133
 2268SOL    HW2 7704   6.405   4.209   0.016
 2269SOL     OW 7705   6.671   4.762   5.500
 2269SOL    HW1 7706   6.725   4.846   5.510
 2269SOL    HW2 7707   6.577   4.786   5.475
 2270SOL     OW 7708   3.169   2.829   5.926
 2270SOL    HW1 7709   3.224   2.817   5.843
 2270SOL    HW2 7710   3.102   2.900   5.911
 2271SOL     OW 7711   5.312   4.088   0.296
 2271SOL    HW1 7712   5.270   4.040   0.373
 2271SOL    HW2 7713   5.300   4.186   0.307
 2272SOL     OW 7714   6.673   2.719   6.595
 2272SOL    HW1 7715   6.756   2.695   6.544
 2272SOL    HW2 7716   6.600   2.740   6.531
 2273SOL     OW 7717   1.706   2.151   2.182
 2273SOL    HW1 7718   1.764   2.152   2.263
 2273SOL    HW2 7719   1.635   2.081   2.193
 2274SOL     OW 7720   0.442   2.437   6.270
 2274SOL    HW1 7721   0.450   2.357   6.210
 2274SOL    HW2 7722   0.527   2.490   6.268
 2275SOL     OW 7723   6.507   6.800   4.059
 2275SOL    HW1 7724   6.453   6.884   4.064
 2275SOL    HW2 7725   6.527   6.767   4.151
 2276SOL     OW 7726   2.169   5.751   1.323
 2276SOL    HW1 7727   2.200   5.801   1.242
 2276SOL    HW2 7728   2.183   5.808   1.405
 2277SOL     OW 7729   3.891   3.314   4.345
 2277SOL    HW1 7730   3.852   3.314   4.437
 2277SOL    HW2 7731   3.840   3.251   4.287
 2278SOL     OW 7732   6.211   4.589   4.469
 2278SOL    HW1 7733   6.151   4.647   4.415
 2278SOL    HW2 7734   6.235   4.507   4.416
 2279SOL     OW 7735   5.977   6.687   5.614
 2279SOL    HW1 7736   5.944   6.596   5.590
 2279SOL    HW2 7737   5.925   6.756   5.563
 2280SOL     OW 7738   6.820   6.822   4.394
 2280SOL    HW1 7739   6.884   6.898   4.390
 2280SOL    HW2 7740   6.864   6.740   4.357
 2281SOL     OW 7741   3.521   1.590   2.064
 2281SOL    HW1 7742   3.479   1.508   2.103
 2281SOL    HW2 7743   3.506   1.667   2.125
 2282SOL     OW 7744   5.785   0.560   5.219
 2282SOL    HW1 7745   5.802   0.476   5.169
 2282SOL    HW2 7746   5.760   0.633   5.156
 2283SOL     OW 7747   0.706   4.875   1.414
 2283SOL    HW1 7748   0.801   4.904   1.407
 2283SOL    HW2 7749   0.658   4.935   1.478
 2284SOL     OW 7750   1.086   2.996   6.733
 2284SOL    HW1 7751   1.028   3.077   6.741
 2284SOL    HW2 7752   1.181   3.020   6.754
 2285SOL     OW 7753   2.116   2.255   1.032
 2285SOL    HW1 7754   2.114   2.234   1.129
 2285SOL    HW2 7755   2.208   2.281   1.005
 2286SOL     OW 7756   6.476   0.393   3.561
 2286SOL    HW1 7757   6.514   0.309   3.522
 2286SOL    HW2 7758   6.396   0.421   3.509
 2287SOL     OW 7759   1.797   0.080   3.038
 2287SOL    HW1 7760   1.783   0.019   2.960
 2287SOL    HW2 7761   1.859   0.037   3.104
 2288SOL     OW 7762   6.052   4.584   4.224
 2288SOL    HW1 7763   5.959   4.611   4.196
 2288SOL    HW2 7764   6.116   4.604   4.149
 2289SOL     OW 7765   1.013   4.853   1.332
 2289SOL    HW1 7766   0.978   4.937   1.373
 2289SOL    HW2 7767   0.985   4.774   1.387
 2290SOL     OW 7768   0.701   4.374   0.535
 2290SOL    HW1 7769   0.681   4.339   0.627
 2290SOL    HW2 7770   0.759   4.308   0.486
 2291SOL     OW 7771   2.593   2.466   5.948
 2291SOL    HW1 7772   2.570   2.533   6.018
 2291SOL    HW2 7773   2.676   2.416   5.976
 2292SOL     OW 7774   0.165   2.670   4.803
 2292SOL    HW1 7775   0.227   2.693   4.728
 2292SOL    HW2 7776   0.159   2.747   4.867
 2293SOL     OW 7777   4.439   6.252   1.589
 2293SOL    HW1 7778   4.478   6.250   1.681
 2293SOL    HW2 7779   4.343   6.279   1.594
 2294SOL     OW 7780   3.432   0.144   6.875
 2294SOL    HW1 7781   3.371   0.110   6.946
 2294SOL    HW2 7782   3.427   0.244   6.872
 2295SOL     OW 7783   0.586   2.237   2.801
 2295SOL    HW1 7784   0.564   2.181   2.721
 2295SOL    HW2 7785   0.568   2.333   2.780
 2296SOL     OW 7786   4.665   5.322   0.943
 2296SOL    HW1 7787   4.625   5.262   0.875
 2296SOL    HW2 7788   4.741   5.276   0.989
 2297SOL     OW 7789   4.026   4.194   5.265
 2297SOL    HW1 7790   3.940   4.197   5.214
 2297SOL    HW2 7791   4.058   4.287   5.281
 2298SOL     OW 7792   3.822   3.124   1.790
 2298SOL    HW1 7793   3.814   3.223   1.807
 2298SOL    HW2 7794   3.905   3.089   1.834
 2299SOL     OW 7795   4.517   6.197   5.124
 2299SOL    HW1 7796   4.580   6.192   5.047
 2299SOL    HW2 7797   4.507   6.292   5.153
 2300SOL     OW 7798   2.396   5.719   2.343
 2300SOL    HW1 7799   2.370   5.639   2.396
 2300SOL    HW2 7800   2.416   5.692   2.249
 2301SOL     OW 7801   3.284   2.929   2.978
 2301SOL    HW1 7802   3.373   2.900   2.943
 2301SOL    HW2 7803   3.251   3.006   2.923
 2302SOL     OW 7804   3.832   0.068   1.188
 2302SOL    HW1 7805   3.910   0.065   1.127
 2302SOL    HW2 7806   3.747   0.074   1.135
 2303SOL     OW 7807   2.232   3.040   6.126
 2303SOL    HW1 7808   2.272   3.046   6.218
 2303SOL    HW2 7809   2.302   3.012   6.061
 2304SOL     OW 7810   4.715   6.856   3.877
 2304SOL    HW1 7811   4.616   6.852   3.862
 2304SOL    HW2 7812   4.747   6.949   3.859
 2305SOL     OW 7813   2.269   6.529   3.120
 2305SOL    HW1 7814   2.255   6.460   3.192
 2305SOL    HW2 7815   2.186   6.585   3.111
 2306SOL     OW 7816   3.231   5.440   2.479
 2306SOL    HW1 7817   3.281   5.354   2.477
 2306SOL    HW2 7818   3.236   5.483   2.389
 2307SOL     OW 7819   6.891   3.965   2.253
 2307SOL    HW1 7820   6.848   3.912   2.327
 2307SOL    HW2 7821   6.844   4.052   2.243
 2308SOL     OW 7822   1.011   6.045   0.706
 2308SOL    HW1 7823   1.036   6.033   0.802
 2308SOL    HW2 7824   1.093   6.059   0.651
 2309SOL     OW 7825   1.382   0.368   6.471
 2309SOL    HW1 7826   1.478   0.364   6.443
 2309SOL    HW2 7827   1.326   0.403   6.396
 2310SOL     OW 7828   4.767   6.434   1.406
 2310SOL    HW1 7829   4.795   6.529   1.425
 2310SOL    HW2 7830   4.846   6.374   1.411
 2311SOL     OW 7831   2.073   5.875   1.764
 2311SOL    HW1 7832   2.108   5.848   1.853
 2311SOL    HW2 7833   1.999   5.942   1.775
 2312SOL     OW 7834   3.634   6.899   4.116
 2312SOL    HW1 7835   3.609   6.958   4.193
 2312SOL    HW2 7836   3.599   6.939   4.031
 2313SOL     OW 7837   5.152   5.566   1.706
 2313SOL    HW1 7838   5.170   5.478   1.750
 2313SOL    HW2 7839   5.220   5.633   1.736
 2314SOL     OW 7840   5.855   6.953   5.178
 2314SOL    HW1 7841   5.777   6.912   5.225
 2314SOL    HW2 7842   5.937   6.901   5.198
 2315SOL     OW 7843   4.725   3.118   5.315
 2315SOL    HW1 7844   4.700   3.025   5.287
 2315SOL    HW2 7845   4.766   3.115   5.406
 2316SOL     OW 7846   3.303   0.769   4.456
 2316SOL    HW1 7847   3.390   0.727   4.429
 2316SOL    HW2 7848   3.232   0.741   4.392
 2317SOL     OW 7849   0.484   6.276   3.697
 2317SOL    HW1 7850   0.507   6.373   3.685
 2317SOL    HW2 7851   0.407   6.253   3.638
 2318SOL     OW 7852   2.307   2.956   4.469
 2318SOL    HW1 7853   2.395   2.925   4.433
 2318SOL    HW2 7854   2.311   2.960   4.569
 2319SOL     OW 7855   2.084   4.974   4.288
 2319SOL    HW1 7856   2.066   4.892   4.234
 2319SOL    HW2 7857   2.093   4.949   4.384
 2320SOL     OW 7858   0.471   3.069   4.810
 2320SOL    HW1 7859   0.552   3.127   4.800
 2320SOL    HW2 7860   0.392   3.127   4.832
 2321SOL     OW 7861   2.405   6.679   7.000
 2321SOL    HW1 7862   2.460   6.684   6.916
 2321SOL    HW2 7863   2.341   6.755   7.002
 2322SOL     OW 7864   1.921   2.537   4.168
 2322SOL    HW1 7865   1.902   2.635   4.159
 2322SOL    HW2 7866   1.844   2.492   4.213
 2323SOL     OW 7867   3.205   5.103   1.943
 2323SOL    HW1 7868   3.297   5.140   1.943
 2323SOL    HW2 7869   3.205   5.013   1.987
 2324SOL     OW 7870   6.709   6.667   1.077
 2324SOL    HW1 7871   6.612   6.644   1.069
 2324SOL    HW2 7872   6.736   6.669   1.173
 2325SOL     OW 7873   0.678   4.365   1.184
 2325SOL    HW1 7874   0.601   4.329   1.237
 2325SOL    HW2 7875   0.669   4.465   1.176
 2326SOL     OW 7876   3.602   5.220   6.352
 2326SOL    HW1 7877   3.675   5.168   6.308
 2326SOL    HW2 7878   3.518   5.214   6.297
 2327SOL     OW 7879   6.819   2.266   3.649
 2327SOL    HW1 7880   6.810   2.365   3.657
 2327SOL    HW2 7881   6.729   2.225   3.640
 2328SOL     OW 7882   2.147   1.799   2.747
 2328SOL    HW1 7883   2.237   1.834   2.769
 2328SOL    HW2 7884   2.120   1.830   2.656
 2329SOL     OW 7885   1.911   4.680   4.385
 2329SOL    HW1 7886   1.826   4.634   4.409
 2329SOL    HW2 7887   1.957   4.628   4.312
 2330SOL     OW 7888   1.143   3.786   1.234
 2330SOL    HW1 7889   1.178   3.872   1.197
 2330SOL    HW2 7890   1.206   3.752   1.305
 2331SOL     OW 7891   4.116   5.426   6.589
 2331SOL    HW1 7892   4.085   5.520   6.606
 2331SOL    HW2 7893   4.216   5.423   6.597
 2332SOL     OW 7894   5.288   1.558   5.154
 2332SOL    HW1 7895   5.241   1.581   5.069
 2332SOL    HW2 7896   5.375   1.511   5.133
 2333SOL     OW 7897   0.438   4.937   2.851
 2333SOL    HW1 7898   0.432   4.997   2.932
 2333SOL    HW2 7899   0.415   4.844   2.877
 2334SOL     OW 7900   2.122   0.544   0.658
 2334SOL    HW1 7901   2.065   0.571   0.581
 2334SOL    HW2 7902   2.067   0.542   0.741
 2335SOL     OW 7903   6.890   0.668   2.376
 2335SOL    HW1 7904   6.817   0.609   2.340
 2335SOL    HW2 7905   6.867   0.763   2.359
 2336SOL     OW 7906   4.664   2.498   4.820
 2336SOL    HW1 7907   4.567   2.475   4.807
 2336SOL    HW2 7908   4.692   2.471   4.912
 2337SOL     OW 7909   4.706   1.529   2.123
 2337SOL    HW1 7910   4.622   1.544   2.069
 2337SOL    HW2 7911   4.750   1.444   2.093
 2338SOL     OW 7912   1.166   2.188   5.367
 2338SOL    HW1 7913   1.165   2.244   5.285
 2338SOL    HW2 7914   1.259   2.154   5.383
 2339SOL     OW 7915   3.668   3.770   4.633
 2339SOL    HW1 7916   3.683   3.681   4.589
 2339SOL    HW2 7917   3.682   3.761   4.732
 2340SOL     OW 7918   6.072   4.574   0.674
 2340SOL    HW1 7919   5.977   4.576   0.641
 2340SOL    HW2 7920   6.132   4.549   0.598
 2341SOL     OW 7921   4.362   4.950   1.315
 2341SOL    HW1 7922   4.274   4.986   1.282
 2341SOL    HW2 7923   4.398   5.010   1.386
 2342SOL     OW 7924   6.907   6.809   5.514
 2342SOL    HW1 7925   6.972   6.741   5.547
 2342SOL    HW2 7926   6.814   6.781   5.539
 2343SOL     OW 7927   2.573   5.585   2.527
 2343SOL    HW1 7928   2.506   5.512   2.517
 2343SOL    HW2 7929   2.584   5.633   2.440
 2344SOL     OW 7930   1.828   6.789   0.284
 2344SOL    HW1 7931   1.805   6.725   0.210
 2344SOL    HW2 7932   1.899   6.749   0.342
 2345SOL     OW 7933   2.983   5.509   4.650
 2345SOL    HW1 7934   2.921   5.434   4.626
 2345SOL    HW2 7935   3.077   5.484   4.625
 2346SOL     OW 7936   4.529   2.884   5.282
 2346SOL    HW1 7937   4.602   2.885   5.214
 2346SOL    HW2 7938   4.484   2.795   5.282
 2347SOL     OW 7939   2.680   3.199   1.761
 2347SOL    HW1 7940   2.676   3.284   1.708
 2347SOL    HW2 7941   2.592   3.153   1.758
 2348SOL     OW 7942   3.003   6.697   3.707
 2348SOL    HW1 7943   3.033   6.617   3.654
 2348SOL    HW2 7944   3.040   6.691   3.799
 2349SOL     OW 7945   0.908   4.234   6.070
 2349SOL    HW1 7946   0.982   4.201   6.011
 2349SOL    HW2 7947   0.926   4.328   6.098
 2350SOL     OW 7948   4.654   6.137   6.819
 2350SOL    HW1 7949   4.628   6.147   6.915
 2350SOL    HW2 7950   4.573   6.115   6.765
 2351SOL     OW 7951   2.793   5.083   3.451
 2351SOL    HW1 7952   2.719   5.017   3.441
 2351SOL    HW2 7953   2.856   5.052   3.523
 2352SOL     OW 7954   0.618   5.146   1.887
 2352SOL    HW1 7955   0.526   5.179   1.908
 2352SOL    HW2 7956   0.665   5.122   1.973
 2353SOL     OW 7957   3.121   4.376   5.629
 2353SOL    HW1 7958   3.163   4.286   5.617
 2353SOL    HW2 7959   3.136   4.430   5.547
 2354SOL     OW 7960   2.571   1.540   5.960
 2354SOL    HW1 7961   2.537   1.458   5.914
 2354SOL    HW2 7962   2.496   1.605   5.972
 2355SOL     OW 7963   2.214   5.783   0.519
 2355SOL    HW1 7964   2.287   5.715   0.521
 2355SOL    HW2 7965   2.137   5.749   0.464
 2356SOL     OW 7966   1.584   3.699   0.026
 2356SOL    HW1 7967   1.584   3.638   6.966
 2356SOL    HW2 7968   1.534   3.783   0.004
 2357SOL     OW 7969   4.623   6.155   3.677
 2357SOL    HW1 7970   4.552   6.179   3.743
 2357SOL    HW2 7971   4.614   6.213   3.596
 2358SOL     OW 7972   3.915   5.015   5.506
 2358SOL    HW1 7973   3.898   5.040   5.410
 2358SOL    HW2 7974   3.836   4.966   5.542
 2359SOL     OW 7975   0.268   1.013   6.102
 2359SOL    HW1 7976   0.260   0.916   6.124
 2359SOL    HW2 7977   0.185   1.061   6.131
 2360SOL     OW 7978   5.793   4.692   6.676
 2360SOL    HW1 7979   5.821   4.597   6.691
 2360SOL    HW2 7980   5.840   4.728   6.595
 2361SOL     OW 7981   2.514   0.676   4.807
 2361SOL    HW1 7982   2.508   0.589   4.856
 2361SOL    HW2 7983   2.538   0.659   4.712
 2362SOL     OW 7984   2.545   0.427   5.415
 2362SOL    HW1 7985   2.608   0.466   5.348
 2362SOL    HW2 7986   2.580   0.443   5.507
 2363SOL     OW 7987   4.201   2.266   5.495
 2363SOL    HW1 7988   4.214   2.169   5.517
 2363SOL    HW2 7989   4.171   2.315   5.577
 2364SOL     OW 7990   0.698   1.931   2.706
 2364SOL    HW1 7991   0.792   1.938   2.671
 2364SOL    HW2 7992   0.636   1.911   2.630
 2365SOL     OW 7993   6.264   3.193   6.702
 2365SOL    HW1 7994   6.198   3.225   6.634
 2365SOL    HW2 7995   6.341   3.149   6.655
 2366SOL     OW 7996   1.611   4.944   6.252
 2366SOL    HW1 7997   1.607   4.862   6.195
 2366SOL    HW2 7998   1.644   5.021   6.197
 2367SOL     OW 7999   3.130   4.366   0.899
 2367SOL    HW1 8000   3.164   4.455   0.868
 2367SOL    HW2 8001   3.056   4.379   0.966
 2368SOL     OW 8002   4.620   0.168   2.680
 2368SOL    HW1 8003   4.567   0.116   2.747
 2368SOL    HW2 8004   4.704   0.118   2.658
 2369SOL     OW 8005   1.219   2.859   5.889
 2369SOL    HW1 8006   1.222   2.804   5.972
 2369SOL    HW2 8007   1.139   2.834   5.834
 2370SOL     OW 8008   4.884   3.959   6.595
 2370SOL    HW1 8009   4.894   3.864   6.624
 2370SOL    HW2 8010   4.792   3.973   6.558
 2371SOL     OW 8011   0.705   6.657   2.020
 2371SOL    HW1 8012   0.710   6.658   2.119
 2371SOL    HW2 8013   0.633   6.719   1.989
 2372SOL     OW 8014   6.575   2.442   1.616
 2372SOL    HW1 8015   6.552   2.516   1.553
 2372SOL    HW2 8016   6.674   2.439   1.630
 2373SOL     OW 8017   0.279   1.284   0.146
 2373SOL    HW1 8018   0.369   1.242   0.132
 2373SOL    HW2 8019   0.208   1.224   0.109
 2374SOL     OW 8020   6.149   1.255   3.441
 2374SOL    HW1 8021   6.182   1.161   3.438
 2374SOL    HW2 8022   6.222   1.315   3.472
 2375SOL     OW 8023   2.397   0.035   4.531
 2375SOL    HW1 8024   2.335   6.977   4.532
 2375SOL    HW2 8025   2.486   0.007   4.496
 2376SOL     OW 8026   6.596   2.416   4.667
 2376SOL    HW1 8027   6.525   2.363   4.621
 2376SOL    HW2 8028   6.614   2.499   4.616
 2377SOL     OW 8029   3.367   4.077   2.911
 2377SOL    HW1 8030   3.284   4.055   2.962
 2377SOL    HW2 8031   3.350   4.064   2.813
 2378SOL     OW 8032   4.972   3.227   0.468
 2378SOL    HW1 8033   4.879   3.249   0.441
 2378SOL    HW2 8034   4.975   3.200   0.564
 2379SOL     OW 8035   5.762   2.735   6.559
 2379SOL    HW1 8036   5.671   2.697   6.571
 2379SOL    HW2 8037   5.828   2.681   6.612
 2380SOL     OW 8038   0.065   7.006   5.567
 2380SOL    HW1 8039   0.144   7.001   5.507
 2380SOL    HW2 8040   0.005   6.928   5.551
 2381SOL     OW 8041   2.099   3.639   4.460
 2381SOL    HW1 8042   2.179   3.595   4.501
 2381SOL    HW2 8043   2.114   3.650   4.362
 2382SOL     OW 8044   2.180   4.414   3.734
 2382SOL    HW1 8045   2.188   4.513   3.743
 2382SOL    HW2 8046   2.272   4.373   3.734
 2383SOL     OW 8047   5.778   6.473   1.085
 2383SOL    HW1 8048   5.716   6.552   1.088
 2383SOL    HW2 8049   5.814   6.463   0.992
 2384SOL     OW 8050   6.434   6.574   1.799
 2384SOL    HW1 8051   6.421   6.578   1.898
 2384SOL    HW2 8052   6.428   6.666   1.761
 2385SOL     OW 8053   0.317   6.446   1.122
 2385SOL    HW1 8054   0.370   6.455   1.038
 2385SOL    HW2 8055   0.351   6.369   1.176
 2386SOL     OW 8056   5.087   5.260   4.371
 2386SOL    HW1 8057   5.029   5.179   4.380
 2386SOL    HW2 8058   5.183   5.233   4.376
 2387SOL     OW 8059   0.856   1.589   3.899
 2387SOL    HW1 8060   0.884   1.615   3.807
 2387SOL    HW2 8061   0.871   1.492   3.913
 2388SOL     OW 8062   1.780   1.735   3.597
 2388SOL    HW1 8063   1.682   1.731   3.616
 2388SOL    HW2 8064   1.819   1.816   3.639
 2389SOL     OW 8065   5.321   3.669   3.256
 2389SOL    HW1 8066   5.289   3.718   3.337
 2389SOL    HW2 8067   5.290   3.718   3.174
 2390SOL     OW 8068   3.584   3.582   3.231
 2390SOL    HW1 8069   3.536   3.644   3.169
 2390SOL    HW2 8070   3.612   3.631   3.313
 2391SOL     OW 8071   5.023   4.991   6.023
 2391SOL    HW1 8072   5.030   4.940   6.109
 2391SOL    HW2 8073   5.045   4.931   5.947
 2392SOL     OW 8074   3.469   0.100   5.185
 2392SOL    HW1 8075   3.420   0.130   5.267
 2392SOL    HW2 8076   3.558   0.061   5.211
 2393SOL     OW 8077   4.456   4.503   6.140
 2393SOL    HW1 8078   4.554   4.493   6.156
 2393SOL    HW2 8079   4.423   4.426   6.087
 2394SOL     OW 8080   2.133   3.512   4.753
 2394SOL    HW1 8081   2.104   3.600   4.791
 2394SOL    HW2 8082   2.130   3.442   4.825
 2395SOL     OW 8083   6.475   2.681   6.411
 2395SOL    HW1 8084   6.406   2.721   6.350
 2395SOL    HW2 8085   6.435   2.606   6.463
 2396SOL     OW 8086   3.856   5.521   1.659
 2396SOL    HW1 8087   3.814   5.546   1.746
 2396SOL    HW2 8088   3.791   5.470   1.603
 2397SOL     OW 8089   0.401   4.134   6.642
 2397SOL    HW1 8090   0.396   4.049   6.590
 2397SOL    HW2 8091   0.455   4.120   6.724
 2398SOL     OW 8092   3.292   3.801   6.769
 2398SOL    HW1 8093   3.310   3.776   6.673
 2398SOL    HW2 8094   3.295   3.900   6.779
 2399SOL     OW 8095   4.673   1.398   2.344
 2399SOL    HW1 8096   4.573   1.397   2.348
 2399SOL    HW2 8097   4.703   1.454   2.267
 2400SOL     OW 8098   3.607   5.141   0.327
 2400SOL    HW1 8099   3.683   5.150   0.263
 2400SOL    HW2 8100   3.544   5.071   0.294
 2401SOL     OW 8101   4.339   6.712   6.643
 2401SOL    HW1 8102   4.383   6.623   6.639
 2401SOL    HW2 8103   4.241   6.702   6.623
 2402SOL     OW 8104   0.824   0.786   4.148
 2402SOL    HW1 8105   0.857   0.835   4.068
 2402SOL    HW2 8106   0.731   0.752   4.130
 2403SOL     OW 8107   2.375   2.288   0.956
 2403SOL    HW1 8108   2.456   2.231   0.943
 2403SOL    HW2 8109   2.401   2.373   1.001
 2404SOL     OW 8110   5.403   0.934   1.375
 2404SOL    HW1 8111   5.449   0.863   1.322
 2404SOL    HW2 8112   5.455   0.952   1.459
 2405SOL     OW 8113   3.622   3.470   2.887
 2405SOL    HW1 8114   3.688   3.446   2.815
 2405SOL    HW2 8115   3.669   3.472   2.975
 2406SOL     OW 8116   2.703   0.170   3.105
 2406SOL    HW1 8117   2.706   0.224   3.020
 2406SOL    HW2 8118   2.761   0.089   3.094
 2407SOL     OW 8119   5.475   2.570   2.893
 2407SOL    HW1 8120   5.554   2.548   2.951
 2407SOL    HW2 8121   5.460   2.495   2.828
 2408SOL     OW 8122   4.258   4.867   3.582
 2408SOL    HW1 8123   4.197   4.795   3.616
 2408SOL    HW2 8124   4.259   4.866   3.483
 2409SOL     OW 8125   1.079   3.312   1.722
 2409SOL    HW1 8126   1.093   3.364   1.807
 2409SOL    HW2 8127   0.985   3.326   1.691
 2410SOL     OW 8128   4.885   2.288   6.458
 2410SOL    HW1 8129   4.966   2.340   6.484
 2410SOL    HW2 8130   4.902   2.190   6.474
 2411SOL     OW 8131   4.519   5.140   5.533
 2411SOL    HW1 8132   4.446   5.182   5.478
 2411SOL    HW2 8133   4.498   5.043   5.547
 2412SOL     OW 8134   4.161   5.059   1.180
 2412SOL    HW1 8135   4.141   5.005   1.098
 2412SOL    HW2 8136   4.135   5.154   1.165
 2413SOL     OW 8137   6.377   2.157   0.374
 2413SOL    HW1 8138   6.404   2.216   0.450
 2413SOL    HW2 8139   6.337   2.213   0.301
 2414SOL     OW 8140   5.089   3.923   2.128
 2414SOL    HW1 8141   5.051   3.852   2.188
 2414SOL    HW2 8142   5.042   3.921   2.040
 2415SOL     OW 8143   0.294   0.251   2.072
 2415SOL    HW1 8144   0.348   0.253   2.156
 2415SOL    HW2 8145   0.271   0.156   2.049
 2416SOL     OW 8146   3.459   2.082   4.691
 2416SOL    HW1 8147   3.494   2.097   4.784
 2416SOL    HW2 8148   3.361   2.102   4.688
 2417SOL     OW 8149   4.072   3.366   5.556
 2417SOL    HW1 8150   4.162   3.410   5.557
 2417SOL    HW2 8151   4.004   3.431   5.524
 2418SOL     OW 8152   3.394   4.064   4.090
 2418SOL    HW1 8153   3.302   4.046   4.125
 2418SOL    HW2 8154   3.433   3.980   4.053
 2419SOL     OW 8155   0.862   5.949   4.381
 2419SOL    HW1 8156   0.953   5.926   4.415
 2419SOL    HW2 8157   0.851   6.049   4.380
 2420SOL     OW 8158   3.683   1.714   1.527
 2420SOL    HW1 8159   3.739   1.662   1.591
 2420SOL    HW2 8160   3.588   1.713   1.558
 2421SOL     OW 8161   2.596   1.549   5.261
 2421SOL    HW1 8162   2.623   1.551   5.358
 2421SOL    HW2 8163   2.632   1.630   5.215
 2422SOL     OW 8164   5.869   0.034   1.496
 2422SOL    HW1 8165   5.845   6.957   1.501
 2422SOL    HW2 8166   5.928   0.050   1.416
 2423SOL     OW 8167   1.447   6.401   3.589
 2423SOL    HW1 8168   1.538   6.415   3.550
 2423SOL    HW2 8169   1.386   6.366   3.518
 2424SOL     OW 8170   6.210   6.328   6.134
 2424SOL    HW1 8171   6.228   6.353   6.229
 2424SOL    HW2 8172   6.267   6.384   6.074
 2425SOL     OW 8173   6.608   0.189   3.991
 2425SOL    HW1 8174   6.537   0.232   3.936
 2425SOL    HW2 8175   6.643   0.109   3.942
 2426SOL     OW 8176   1.173   5.317   4.754
 2426SOL    HW1 8177   1.094   5.377   4.767
 2426SOL    HW2 8178   1.239   5.361   4.694
 2427SOL     OW 8179   5.247   5.519   6.489
 2427SOL    HW1 8180   5.338   5.557   6.479
 2427SOL    HW2 8181   5.202   5.517   6.399
 2428SOL     OW 8182   6.049   0.754   3.323
 2428SOL    HW1 8183   6.006   0.685   3.382
 2428SOL    HW2 8184   6.031   0.732   3.227
 2429SOL     OW 8185   6.494   5.367   4.268
 2429SOL    HW1 8186   6.430   5.408   4.203
 2429SOL    HW2 8187   6.494   5.268   4.256
 2430SOL     OW 8188   6.099   1.477   0.849
 2430SOL    HW1 8189   6.117   1.386   0.811
 2430SOL    HW2 8190   6.006   1.480   0.885
 2431SOL     OW 8191   4.150   0.484   1.898
 2431SOL    HW1 8192   4.215   0.546   1.942
 2431SOL    HW2 8193   4.065   0.482   1.951
 2432SOL     OW 8194   3.321   6.932   2.845
 2432SOL    HW1 8195   3.397   6.955   2.906
 2432SOL    HW2 8196   3.235   6.965   2.884
 2433SOL     OW 8197   3.253   0.134   1.183
 2433SOL    HW1 8198   3.320   0.204   1.205
 2433SOL    HW2 8199   3.279   0.048   1.228
 2434SOL     OW 8200   4.298   1.262   4.347
 2434SOL    HW1 8201   4.232   1.192   4.375
 2434SOL    HW2 8202   4.341   1.301   4.428
 2435SOL     OW 8203   4.168   5.170   5.893
 2435SOL    HW1 8204   4.108   5.184   5.814
 2435SOL    HW2 8205   4.140   5.231   5.967
 2436SOL     OW 8206   1.914   6.976   2.111
 2436SOL    HW1 8207   1.896   6.884   2.145
 2436SOL    HW2 8208   1.857   0.021   2.160
 2437SOL     OW 8209   4.331   5.899   0.692
 2437SOL    HW1 8210   4.265   5.843   0.641
 2437SOL    HW2 8211   4.305   5.995   0.685
 2438SOL     OW 8212   3.485   1.574   5.893
 2438SOL    HW1 8213   3.486   1.530   5.982
 2438SOL    HW2 8214   3.576   1.608   5.871
 2439SOL     OW 8215   0.664   4.476   6.489
 2439SOL    HW1 8216   0.584   4.422   6.465
 2439SOL    HW2 8217   0.702   4.443   6.576
 2440SOL     OW 8218   5.018   6.352   5.442
 2440SOL    HW1 8219   4.978   6.444   5.447
 2440SOL    HW2 8220   4.960   6.288   5.493
 2441SOL     OW 8221   6.649   6.902   0.460
 2441SOL    HW1 8222   6.563   6.931   0.419
 2441SOL    HW2 8223   6.714   6.978   0.460
 2442SOL     OW 8224   6.428   5.036   4.715
 2442SOL    HW1 8225   6.412   4.941   4.689
 2442SOL    HW2 8226   6.522   5.045   4.748
 2443SOL     OW 8227   4.041   6.478   5.423
 2443SOL    HW1 8228   4.075   6.558   5.374
 2443SOL    HW2 8229   4.044   6.495   5.521
 2444SOL     OW 8230   3.084   4.233   5.895
 2444SOL    HW1 8231   3.036   4.222   5.808
 2444SOL    HW2 8232   3.173   4.188   5.889
 2445SOL     OW 8233   0.504   0.823   1.887
 2445SOL    HW1 8234   0.494   0.747   1.823
 2445SOL    HW2 8235   0.417   0.870   1.896
 2446SOL     OW 8236   0.476   4.224   3.518
 2446SOL    HW1 8237   0.485   4.282   3.437
 2446SOL    HW2 8238   0.382   4.191   3.526
 2447SOL     OW 8239   2.936   1.748   0.747
 2447SOL    HW1 8240   3.009   1.684   0.768
 2447SOL    HW2 8241   2.966   1.811   0.675
 2448SOL     OW 8242   0.116   1.067   5.451
 2448SOL    HW1 8243   0.083   1.078   5.357
 2448SOL    HW2 8244   0.110   0.971   5.478
 2449SOL     OW 8245   0.265   5.075   1.318
 2449SOL    HW1 8246   0.228   5.085   1.225
 2449SOL    HW2 8247   0.213   5.004   1.366
 2450SOL     OW 8248   2.932   4.813   4.546
 2450SOL    HW1 8249   2.878   4.831   4.464
 2450SOL    HW2 8250   2.885   4.748   4.604
 2451SOL     OW 8251   0.695   0.211   3.320
 2451SOL    HW1 8252   0.616   0.240   3.266
 2451SOL    HW2 8253   0.779   0.243   3.276
 2452SOL     OW 8254   1.774   2.747   2.866
 2452SOL    HW1 8255   1.869   2.779   2.869
 2452SOL    HW2 8256   1.751   2.722   2.771
 2453SOL     OW 8257   6.548   3.789   0.690
 2453SOL    HW1 8258   6.633   3.828   0.657
 2453SOL    HW2 8259   6.472   3.823   0.634
 2454SOL     OW 8260   3.712   1.398   0.428
 2454SOL    HW1 8261   3.704   1.299   0.443
 2454SOL    HW2 8262   3.807   1.426   0.442
 2455SOL     OW 8263   5.589   6.661   1.053
 2455SOL    HW1 8264   5.531   6.602   1.109
 2455SOL    HW2 8265   5.532   6.710   0.986
 2456SOL     OW 8266   6.032   0.123   0.531
 2456SOL    HW1 8267   5.976   0.181   0.473
 2456SOL    HW2 8268   6.041   0.164   0.622
 2457SOL     OW 8269   6.821   6.185   0.592
 2457SOL    HW1 8270   6.886   6.120   0.631
 2457SOL    HW2 8271   6.728   6.155   0.611
 2458SOL     OW 8272   2.829   5.790   3.669
 2458SOL    HW1 8273   2.730   5.797   3.658
 2458SOL    HW2 8274   2.848   5.741   3.754
 2459SOL     OW 8275   2.515   6.852   0.499
 2459SOL    HW1 8276   2.479   6.885   0.586
 2459SOL    HW2 8277   2.440   6.837   0.435
 2460SOL     OW 8278   2.008   0.698   1.233
 2460SOL    HW1 8279   2.053   0.755   1.303
 2460SOL    HW2 8280   2.012   0.745   1.145
 2461SOL     OW 8281   5.030   0.830   2.584
 2461SOL    HW1 8282   5.054   0.744   2.539
 2461SOL    HW2 8283   4.974   0.811   2.665
 2462SOL     OW 8284   2.038   5.737   6.971
 2462SOL    HW1 8285   2.049   5.646   7.011
 2462SOL    HW2 8286   2.054   5.806   0.021
 2463SOL     OW 8287   5.695   2.477   3.813
 2463SOL    HW1 8288   5.613   2.483   3.871
 2463SOL    HW2 8289   5.687   2.542   3.737
 2464SOL     OW 8290   1.477   4.803   1.493
 2464SOL    HW1 8291   1.517   4.867   1.558
 2464SOL    HW2 8292   1.550   4.765   1.435
 2465SOL     OW 8293   6.637   5.754   1.040
 2465SOL    HW1 8294   6.645   5.670   0.987
 2465SOL    HW2 8295   6.637   5.733   1.137
 2466SOL     OW 8296   3.228   0.847   1.367
 2466SOL    HW1 8297   3.290   0.770   1.381
 2466SOL    HW2 8298   3.248   0.919   1.433
 2467SOL     OW 8299   5.357   1.536   5.628
 2467SOL    HW1 8300   5.437   1.595   5.643
 2467SOL    HW2 8301   5.275   1.593   5.620
 2468SOL     OW 8302   6.188   6.069   1.976
 2468SOL    HW1 8303   6.270   6.036   2.022
 2468SOL    HW2 8304   6.116   6.085   2.043
 2469SOL     OW 8305   3.557   4.774   5.272
 2469SOL    HW1 8306   3.502   4.705   5.226
 2469SOL    HW2 8307   3.622   4.730   5.334
 2470SOL     OW 8308   3.215   3.924   6.223
 2470SOL    HW1 8309   3.155   3.848   6.197
 2470SOL    HW2 8310   3.180   4.009   6.184
 2471SOL     OW 8311   2.208   6.468   1.703
 2471SOL    HW1 8312   2.245   6.495   1.614
 2471SOL    HW2 8313   2.239   6.376   1.725
 2472SOL     OW 8314   5.767   1.306   4.736
 2472SOL    HW1 8315   5.848   1.249   4.723
 2472SOL    HW2 8316   5.755   1.366   4.657
 2473SOL     OW 8317   1.831   4.010   4.632
 2473SOL    HW1 8318   1.924   3.980   4.653
 2473SOL    HW2 8319   1.767   3.935   4.649
 2474SOL     OW 8320   0.229   5.564   0.410
 2474SOL    HW1 8321   0.256   5.468   0.406
 2474SOL    HW2 8322   0.211   5.598   0.317
 2475SOL     OW 8323   4.679   1.858   1.088
 2475SOL    HW1 8324   4.624   1.833   1.168
 2475SOL    HW2 8325   4.619   1.896   1.018
 2476SOL     OW 8326   0.535   2.637   3.378
 2476SOL    HW1 8327   0.606   2.706   3.365
 2476SOL    HW2 8328   0.445   2.679   3.368
 2477SOL     OW 8329   6.277   0.457   1.866
 2477SOL    HW1 8330   6.261   0.359   1.882
 2477SOL    HW2 8331   6.340   0.491   1.935
 2478SOL     OW 8332   5.492   6.491   2.437
 2478SOL    HW1 8333   5.448   6.573   2.401
 2478SOL    HW2 8334   5.439   6.456   2.514
 2479SOL     OW 8335   0.896   3.657   1.562
 2479SOL    HW1 8336   0.827   3.663   1.635
 2479SOL    HW2 8337   0.863   3.595   1.491
 2480SOL     OW 8338   6.221   3.479   1.051
 2480SOL    HW1 8339   6.193   3.575   1.051
 2480SOL    HW2 8340   6.145   3.422   1.081
 2481SOL     OW 8341   3.808   6.422   0.127
 2481SOL    HW1 8342   3.812   6.418   0.027
 2481SOL    HW2 8343   3.786   6.332   0.163
 2482SOL     OW 8344   4.792   3.062   5.587
 2482SOL    HW1 8345   4.884   3.026   5.594
 2482SOL    HW2 8346   4.729   3.007   5.642
 2483SOL     OW 8347   2.139   1.540   0.834
 2483SOL    HW1 8348   2.077   1.605   0.879
 2483SOL    HW2 8349   2.218   1.590   0.797
 2484SOL     OW 8350   1.945   0.828   0.583
 2484SOL    HW1 8351   1.966   0.785   0.670
 2484SOL    HW2 8352   1.961   0.763   0.509
 2485SOL     OW 8353   4.566   5.241   2.497
 2485SOL    HW1 8354   4.643   5.300   2.471
 2485SOL    HW2 8355   4.488   5.299   2.524
 2486SOL     OW 8356   2.522   6.006   2.874
 2486SOL    HW1 8357   2.523   5.932   2.807
 2486SOL    HW2 8358   2.611   6.010   2.920
 2487SOL     OW 8359   3.732   6.076   0.515
 2487SOL    HW1 8360   3.755   6.077   0.417
 2487SOL    HW2 8361   3.761   5.989   0.555
 2488SOL     OW 8362   2.443   4.286   1.552
 2488SOL    HW1 8363   2.383   4.238   1.617
 2488SOL    HW2 8364   2.533   4.299   1.592
 2489SOL     OW 8365   2.505   4.878   4.372
 2489SOL    HW1 8366   2.453   4.916   4.296
 2489SOL    HW2 8367   2.486   4.930   4.456
 2490SOL     OW 8368   6.629   5.354   1.097
 2490SOL    HW1 8369   6.635   5.261   1.133
 2490SOL    HW2 8370   6.685   5.415   1.154
 2491SOL     OW 8371   2.328   5.724   3.124
 2491SOL    HW1 8372   2.353   5.696   3.217
 2491SOL    HW2 8373   2.360   5.656   3.059
 2492SOL     OW 8374   3.740   3.010   6.494
 2492SOL    HW1 8375   3.748   3.045   6.400
 2492SOL    HW2 8376   3.828   2.971   6.522
 2493SOL     OW 8377   5.907   0.244   2.859
 2493SOL    HW1 8378   5.931   0.266   2.765
 2493SOL    HW2 8379   5.823   0.189   2.859
 2494SOL     OW 8380   5.278   3.093   2.662
 2494SOL    HW1 8381   5.376   3.072   2.660
 2494SOL    HW2 8382   5.227   3.013   2.631
 2495SOL     OW 8383   4.879   0.589   5.369
 2495SOL    HW1 8384   4.853   0.685   5.385
 2495SOL    HW2 8385   4.915   0.580   5.276
 2496SOL     OW 8386   0.577   5.082   0.296
 2496SOL    HW1 8387   0.500   5.121   0.246
 2496SOL    HW2 8388   0.574   5.114   0.391
 2497SOL     OW 8389   0.540   2.323   6.534
 2497SOL    HW1 8390   0.538   2.376   6.619
 2497SOL    HW2 8391   0.457   2.341   6.482
 2498SOL     OW 8392   2.134   2.765   3.656
 2498SOL    HW1 8393   2.141   2.763   3.756
 2498SOL    HW2 8394   2.094   2.852   3.627
 2499SOL     OW 8395   5.761   0.324   4.554
 2499SOL    HW1 8396   5.822   0.402   4.560
 2499SOL    HW2 8397   5.813   0.239   4.560
 2500SOL     OW 8398   4.566   3.995   5.393
 2500SOL    HW1 8399   4.520   3.916   5.352
 2500SOL    HW2 8400   4.646   3.964   5.444
 2501SOL     OW 8401   6.312   4.659   6.795
 2501SOL    HW1 8402   6.347   4.721   6.865
 2501SOL    HW2 8403   6.250   4.709   6.734
 2502SOL     OW 8404   2.757   6.554   3.472
 2502SOL    HW1 8405   2.740   6.463   3.433
 2502SOL    HW2 8406   2.831   6.547   3.539
 2503SOL     OW 8407   4.092   6.039   5.405
 2503SOL    HW1 8408   4.015   6.045   5.469
 2503SOL    HW2 8409   4.160   5.975   5.440
 2504SOL     OW 8410   2.600   5.453   5.182
 2504SOL    HW1 8411   2.553   5.494   5.260
 2504SOL    HW2 8412   2.617   5.356   5.200
 2505SOL     OW 8413   3.325   6.195   4.679
 2505SOL    HW1 8414   3.301   6.098   4.672
 2505SOL    HW2 8415   3.262   6.248   4.622
 2506SOL     OW 8416   6.954   3.463   6.272
 2506SOL    HW1 8417   7.010   3.400   6.326
 2506SOL    HW2 8418   7.014   3.518   6.214
 2507SOL     OW 8419   6.322   5.051   0.056
 2507SOL    HW1 8420   6.390   5.124   0.054
 2507SOL    HW2 8421   6.255   5.070   0.127
 2508SOL     OW 8422   2.798   1.924   2.128
 2508SOL    HW1 8423   2.756   1.951   2.042
 2508SOL    HW2 8424   2.884   1.974   2.141
 2509SOL     OW 8425   5.361   2.075   2.471
 2509SOL    HW1 8426   5.394   2.126   2.550
 2509SOL    HW2 8427   5.345   1.979   2.497
 2510SOL     OW 8428   2.498   4.208   0.686
 2510SOL    HW1 8429   2.457   4.124   0.651
 2510SOL    HW2 8430   2.426   4.270   0.717
 2511SOL     OW 8431   1.541   1.439   4.643
 2511SOL    HW1 8432   1.508   1.517   4.696
 2511SOL    HW2 8433   1.559   1.467   4.549
 2512SOL     OW 8434   5.756   4.189   4.978
 2512SOL    HW1 8435   5.823   4.124   5.013
 2512SOL    HW2 8436   5.804   4.271   4.946
 2513SOL     OW 8437   1.266   2.388   5.961
 2513SOL    HW1 8438   1.230   2.454   5.895
 2513SOL    HW2 8439   1.358   2.360   5.934
 2514SOL     OW 8440   0.154   2.539   3.836
 2514SOL    HW1 8441   0.110   2.629   3.840
 2514SOL    HW2 8442   0.109   2.484   3.765
 2515SOL     OW 8443   1.258   6.827   0.995
 2515SOL    HW1 8444   1.216   6.741   1.023
 2515SOL    HW2 8445   1.221   6.902   1.050
 2516SOL     OW 8446   5.995   5.441   3.249
 2516SOL    HW1 8447   6.006   5.534   3.215
 2516SOL    HW2 8448   5.899   5.414   3.242
 2517SOL     OW 8449   2.189   5.062   6.360
 2517SOL    HW1 8450   2.115   5.041   6.296
 2517SOL    HW2 8451   2.244   4.980   6.375
 2518SOL     OW 8452   2.187   3.055   6.914
 2518SOL    HW1 8453   2.286   3.043   6.924
 2518SOL    HW2 8454   2.144   2.966   6.896
 2519SOL     OW 8455   4.741   5.082   4.222
 2519SOL    HW1 8456   4.757   5.134   4.138
 2519SOL    HW2 8457   4.828   5.068   4.270
 2520SOL     OW 8458   1.624   2.669   1.016
 2520SOL    HW1 8459   1.639   2.573   1.041
 2520SOL    HW2 8460   1.707   2.706   0.976
 2521SOL     OW 8461   1.083   0.215   5.864
 2521SOL    HW1 8462   1.018   0.201   5.938
 2521SOL    HW2 8463   1.170   0.171   5.888
 2522SOL     OW 8464   0.959   3.273   4.433
 2522SOL    HW1 8465   1.000   3.324   4.508
 2522SOL    HW2 8466   0.924   3.186   4.468
 2523SOL     OW 8467   6.989   3.030   0.598
 2523SOL    HW1 8468   6.903   2.984   0.576
 2523SOL    HW2 8469   0.031   2.964   0.641
 2524SOL     OW 8470   0.159   6.306   4.654
 2524SOL    HW1 8471   0.219   6.372   4.698
 2524SOL    HW2 8472   0.133   6.236   4.721
 2525SOL     OW 8473   1.671   3.175   4.437
 2525SOL    HW1 8474   1.622   3.139   4.358
 2525SOL    HW2 8475   1.718   3.100   4.484
 2526SOL     OW 8476   0.493   2.979   5.385
 2526SOL    HW1 8477   0.543   2.895   5.362
 2526SOL    HW2 8478   0.504   3.045   5.311
 2527SOL     OW 8479   6.337   6.784   5.618
 2527SOL    HW1 8480   6.394   6.756   5.540
 2527SOL    HW2 8481   6.268   6.850   5.587
 2528SOL     OW 8482   5.522   5.024   1.360
 2528SOL    HW1 8483   5.463   4.957   1.316
 2528SOL    HW2 8484   5.593   5.053   1.295
 2529SOL     OW 8485   5.426   4.985   5.953
 2529SOL    HW1 8486   5.434   4.934   6.039
 2529SOL    HW2 8487   5.359   5.058   5.964
 2530SOL     OW 8488   0.774   6.218   4.382
 2530SOL    HW1 8489   0.867   6.255   4.375
 2530SOL    HW2 8490   0.736   6.239   4.472
 2531SOL     OW 8491   5.715   6.815   4.834
 2531SOL    HW1 8492   5.688   6.768   4.918
 2531SOL    HW2 8493   5.656   6.895   4.821
 2532SOL     OW 8494   0.577   5.549   0.479
 2532SOL    HW1 8495   0.637   5.487   0.429
 2532SOL    HW2 8496   0.629   5.630   0.508
 2533SOL     OW 8497   5.243   6.665   5.221
 2533SOL    HW1 8498   5.249   6.709   5.131
 2533SOL    HW2 8499   5.210   6.731   5.289
 2534SOL     OW 8500   2.300   0.598   3.085
 2534SOL    HW1 8501   2.337   0.506   3.089
 2534SOL    HW2 8502   2.201   0.595   3.095
 2535SOL     OW 8503   1.987   1.788   6.350
 2535SOL    HW1 8504   2.033   1.710   6.309
 2535SOL    HW2 8505   1.972   1.770   6.448
 2536SOL     OW 8506   6.973   1.724   3.388
 2536SOL    HW1 8507   6.891   1.670   3.407
 2536SOL    HW2 8508   6.986   1.733   3.289
 2537SOL     OW 8509   5.377   6.587   0.707
 2537SOL    HW1 8510   5.328   6.547   0.784
 2537SOL    HW2 8511   5.467   6.544   0.699
 2538SOL     OW 8512   2.009   4.394   4.822
 2538SOL    HW1 8513   2.093   4.340   4.821
 2538SOL    HW2 8514   1.990   4.429   4.731
 2539SOL     OW 8515   4.352   7.012   5.421
 2539SOL    HW1 8516   4.279   6.954   5.386
 2539SOL    HW2 8517   4.435   6.957   5.435
 2540SOL     OW 8518   5.578   1.249   1.490
 2540SOL    HW1 8519   5.553   1.266   1.395
 2540SOL    HW2 8520   5.504   1.200   1.536
 2541SOL     OW 8521   1.481   0.367   5.415
 2541SOL    HW1 8522   1.486   0.458   5.373
 2541SOL    HW2 8523   1.396   0.323   5.389
 2542SOL     OW 8524   4.040   2.070   4.219
 2542SOL    HW1 8525   4.010   1.985   4.261
 2542SOL    HW2 8526   3.964   2.135   4.218
 2543SOL     OW 8527   1.591   0.525   3.004
 2543SOL    HW1 8528   1.550   0.576   3.080
 2543SOL    HW2 8529   1.601   0.429   3.029
 2544SOL     OW 8530   0.691   5.067   2.137
 2544SOL    HW1 8531   0.733   5.157   2.153
 2544SOL    HW2 8532   0.698   5.012   2.221
 2545SOL     OW 8533   1.464   1.475   1.347
 2545SOL    HW1 8534   1.470   1.387   1.300
 2545SOL    HW2 8535   1.398   1.533   1.300
 2546SOL     OW 8536   6.826   3.344   1.076
 2546SOL    HW1 8537   6.810   3.290   0.993
 2546SOL    HW2 8538   6.916   3.322   1.113
 2547SOL     OW 8539   5.394   5.482   1.032
 2547SOL    HW1 8540   5.459   5.526   0.971
 2547SOL    HW2 8541   5.328   5.549   1.066
 2548SOL     OW 8542   2.116   0.531   4.991
 2548SOL    HW1 8543   2.118   0.447   4.937
 2548SOL    HW2 8544   2.068   0.602   4.939
 2549SOL     OW 8545   2.221   2.707   1.389
 2549SOL    HW1 8546   2.127   2.738   1.404
 2549SOL    HW2 8547   2.245   2.638   1.456
 2550SOL     OW 8548   5.540   0.477   6.714
 2550SOL    HW1 8549   5.605   0.514   6.648
 2550SOL    HW2 8550   5.464   0.433   6.665
 2551SOL     OW 8551   4.064   5.046   6.995
 2551SOL    HW1 8552   4.013   5.120   6.951
 2551SOL    HW2 8553   4.098   5.077   0.064
 2552SOL     OW 8554   2.234   5.288   6.810
 2552SOL    HW1 8555   2.311   5.260   6.867
 2552SOL    HW2 8556   2.246   5.252   6.718
 2553SOL     OW 8557   3.592   2.793   6.076
 2553SOL    HW1 8558   3.687   2.785   6.104
 2553SOL    HW2 8559   3.549   2.702   6.076
 2554SOL     OW 8560   1.540   5.847   6.605
 2554SOL    HW1 8561   1.636   5.869   6.619
 2554SOL    HW2 8562   1.529   5.793   6.522
 2555SOL     OW 8563   6.058   5.920   6.917
 2555SOL    HW1 8564   5.976   5.950   6.966
 2555SOL    HW2 8565   6.036   5.906   6.820
 2556SOL     OW 8566   4.132   0.328   1.250
 2556SOL    HW1 8567   4.125   0.285   1.160
 2556SOL    HW2 8568   4.059   0.294   1.308
 2557SOL     OW 8569   2.668   0.879   6.964
 2557SOL    HW1 8570   2.665   0.928   6.876
 2557SOL    HW2 8571   2.693   0.784   6.947
 2558SOL     OW 8572   4.715   3.919   6.095
 2558SOL    HW1 8573   4.773   3.993   6.061
 2558SOL    HW2 8574   4.651   3.891   6.023
 2559SOL     OW 8575   6.749   3.189   3.694
 2559SOL    HW1 8576   6.690   3.270   3.700
 2559SOL    HW2 8577   6.746   3.139   3.780
 2560SOL     OW 8578   5.107   3.510   3.530
 2560SOL    HW1 8579   5.119   3.411   3.537
 2560SOL    HW2 8580   5.045   3.542   3.603
 2561SOL     OW 8581   3.913   1.558   2.953
 2561SOL    HW1 8582   3.818   1.529   2.952
 2561SOL    HW2 8583   3.918   1.652   2.987
 2562SOL     OW 8584   3.169   5.842   3.308
 2562SOL    HW1 8585   3.241   5.783   3.274
 2562SOL    HW2 8586   3.116   5.794   3.378
 2563SOL     OW 8587   3.205   1.718   6.520
 2563SOL    HW1 8588   3.148   1.744   6.597
 2563SOL    HW2 8589   3.296   1.757   6.531
 2564SOL     OW 8590   1.868   6.922   0.536
 2564SOL    HW1 8591   1.925   6.840   0.538
 2564SOL    HW2 8592   1.790   6.906   0.474
 2565SOL     OW 8593   0.235   1.158   6.825
 2565SOL    HW1 8594   0.172   1.150   6.902
 2565SOL    HW2 8595   0.329   1.151   6.859
 2566SOL     OW 8596   2.580   6.574   1.806
 2566SOL    HW1 8597   2.564   6.542   1.713
 2566SOL    HW2 8598   2.645   6.513   1.852
 2567SOL     OW 8599   1.586   1.389   0.948
 2567SOL    HW1 8600   1.534   1.345   0.876
 2567SOL    HW2 8601   1.573   1.340   1.034
 2568SOL     OW 8602   2.940   6.870   0.637
 2568SOL    HW1 8603   2.903   6.885   0.728
 2568SOL    HW2 8604   3.024   6.924   0.626
 2569SOL     OW 8605   2.794   2.110   1.906
 2569SOL    HW1 8606   2.859   2.045   1.866
 2569SOL    HW2 8607   2.845   2.187   1.944
 2570SOL     OW 8608   4.872   5.976   6.185
 2570SOL    HW1 8609   4.807   5.985   6.261
 2570SOL    HW2 8610   4.908   6.066   6.161
 2571SOL     OW 8611   3.359   2.946   4.459
 2571SOL    HW1 8612   3.447   2.930   4.504
 2571SOL    HW2 8613   3.290   2.885   4.499
 2572SOL     OW 8614   2.487   5.996   1.264
 2572SOL    HW1 8615   2.464   5.903   1.234
 2572SOL    HW2 8616   2.415   6.059   1.237
 2573SOL     OW 8617   6.326   2.280   3.531
 2573SOL    HW1 8618   6.258   2.208   3.512
 2573SOL    HW2 8619   6.413   2.255   3.490
 2574SOL     OW 8620   6.229   3.185   0.683
 2574SOL    HW1 8621   6.274   3.157   0.599
 2574SOL    HW2 8622   6.284   3.156   0.762
 2575SOL     OW 8623   5.337   3.800   1.325
 2575SOL    HW1 8624   5.241   3.790   1.299
 2575SOL    HW2 8625   5.387   3.718   1.297
 2576SOL     OW 8626   3.563   0.012   3.860
 2576SOL    HW1 8627   3.482   7.010   3.805
 2576SOL    HW2 8628   3.632   0.055   3.801
 2577SOL     OW 8629   4.730   0.374   3.423
 2577SOL    HW1 8630   4.688   0.290   3.390
 2577SOL    HW2 8631   4.817   0.353   3.467
 2578SOL     OW 8632   5.041   2.954   5.228
 2578SOL    HW1 8633   5.067   3.026   5.163
 2578SOL    HW2 8634   5.119   2.895   5.246
 2579SOL     OW 8635   1.109   1.501   5.460
 2579SOL    HW1 8636   1.160   1.448   5.392
 2579SOL    HW2 8637   1.118   1.599   5.440
 2580SOL     OW 8638   2.155   2.687   5.859
 2580SOL    HW1 8639   2.065   2.644   5.859
 2580SOL    HW2 8640   2.178   2.718   5.767
 2581SOL     OW 8641   5.573   4.533   1.868
 2581SOL    HW1 8642   5.671   4.543   1.851
 2581SOL    HW2 8643   5.539   4.612   1.920
 2582SOL     OW 8644   2.186   4.650   3.123
 2582SOL    HW1 8645   2.247   4.653   3.203
 2582SOL    HW2 8646   2.184   4.557   3.086
 2583SOL     OW 8647   1.088   0.745   0.935
 2583SOL    HW1 8648   1.108   0.843   0.924
 2583SOL    HW2 8649   1.123   0.694   0.857
 2584SOL     OW 8650   4.162   6.309   0.991
 2584SOL    HW1 8651   4.236   6.295   1.058
 2584SOL    HW2 8652   4.196   6.364   0.915
 2585SOL     OW 8653   3.072   0.317   0.375
 2585SOL    HW1 8654   3.002   0.282   0.437
 2585SOL    HW2 8655   3.070   0.417   0.378
 2586SOL     OW 8656   5.537   1.486   4.800
 2586SOL    HW1 8657   5.512   1.582   4.809
 2586SOL    HW2 8658   5.609   1.477   4.731
 2587SOL     OW 8659   6.554   0.042   4.694
 2587SOL    HW1 8660   6.545   0.058   4.792
 2587SOL    HW2 8661   6.566   0.129   4.647
 2588SOL     OW 8662   4.860   6.747   0.573
 2588SOL    HW1 8663   4.794   6.675   0.593
 2588SOL    HW2 8664   4.812   6.829   0.542
 2589SOL     OW 8665   0.239   6.912   5.374
 2589SOL    HW1 8666   0.213   6.838   5.437
 2589SOL    HW2 8667   0.331   6.894   5.339
 2590SOL     OW 8668   3.816   0.077   2.844
 2590SOL    HW1 8669   3.802   0.093   2.942
 2590SOL    HW2 8670   3.806   6.999   2.824
 2591SOL     OW 8671   5.621   5.899   2.414
 2591SOL    HW1 8672   5.584   5.911   2.321
 2591SOL    HW2 8673   5.619   5.801   2.437
 2592SOL     OW 8674   2.753   6.386   1.886
 2592SOL    HW1 8675   2.812   6.427   1.956
 2592SOL    HW2 8676   2.759   6.286   1.891
 2593SOL     OW 8677   3.594   6.718   2.232
 2593SOL    HW1 8678   3.651   6.793   2.198
 2593SOL    HW2 8679   3.561   6.664   2.156
 2594SOL     OW 8680   0.398   6.578   6.231
 2594SOL    HW1 8681   0.304   6.604   6.254
 2594SOL    HW2 8682   0.436   6.646   6.168
 2595SOL     OW 8683   0.019   2.043   5.465
 2595SOL    HW1 8684   0.069   2.065   5.381
 2595SOL    HW2 8685   0.059   2.093   5.542
 2596SOL     OW 8686   3.844   2.376   1.668
 2596SOL    HW1 8687   3.761   2.367   1.723
 2596SOL    HW2 8688   3.832   2.450   1.602
 2597SOL     OW 8689   2.124   3.873   0.744
 2597SOL    HW1 8690   2.129   3.955   0.801
 2597SOL    HW2 8691   2.216   3.839   0.726
 2598SOL     OW 8692   6.002   2.961   4.555
 2598SOL    HW1 8693   5.926   2.953   4.620
 2598SOL    HW2 8694   5.975   2.921   4.467
 2599SOL     OW 8695   3.506   5.644   6.992
 2599SOL    HW1 8696   3.489   5.607   0.064
 2599SOL    HW2 8697   3.604   5.661   6.981
 2600SOL     OW 8698   4.963   3.527   4.039
 2600SOL    HW1 8699   4.977   3.491   4.131
 2600SOL    HW2 8700   4.903   3.465   3.987
 2601SOL     OW 8701   3.700   2.226   6.530
 2601SOL    HW1 8702   3.765   2.199   6.460
 2601SOL    HW2 8703   3.720   2.320   6.560
 2602SOL     OW 8704   6.843   4.882   3.508
 2602SOL    HW1 8705   6.792   4.855   3.589
 2602SOL    HW2 8706   6.812   4.972   3.477
 2603SOL     OW 8707   2.935   2.042   1.578
 2603SOL    HW1 8708   3.025   2.004   1.600
 2603SOL    HW2 8709   2.941   2.142   1.578
 2604SOL     OW 8710   4.948   1.369   1.571
 2604SOL    HW1 8711   4.911   1.410   1.654
 2604SOL    HW2 8712   5.040   1.405   1.554
 2605SOL     OW 8713   3.909   4.993   3.343
 2605SOL    HW1 8714   3.928   5.082   3.302
 2605SOL    HW2 8715   3.900   5.003   3.443
 2606SOL     OW 8716   6.438   4.704   0.640
 2606SOL    HW1 8717   6.419   4.622   0.695
 2606SOL    HW2 8718   6.449   4.783   0.700
 2607SOL     OW 8719   0.381   2.054   5.519
 2607SOL    HW1 8720   0.399   2.104   5.435
 2607SOL    HW2 8721   0.294   2.085   5.558
 2608SOL     OW 8722   4.697   6.072   3.004
 2608SOL    HW1 8723   4.777   6.082   2.945
 2608SOL    HW2 8724   4.632   6.008   2.962
 2609SOL     OW 8725   0.923   2.311   0.983
 2609SOL    HW1 8726   0.823   2.307   0.984
 2609SOL    HW2 8727   0.957   2.323   1.077
 2610SOL     OW 8728   6.917   5.314   4.462
 2610SOL    HW1 8729   6.896   5.359   4.375
 2610SOL    HW2 8730   7.006   5.270   4.456
 2611SOL     OW 8731   6.301   6.768   0.889
 2611SOL    HW1 8732   6.353   6.840   0.936
 2611SOL    HW2 8733   6.261   6.806   0.806
 2612SOL     OW 8734   6.596   6.341   4.922
 2612SOL    HW1 8735   6.664   6.313   4.990
 2612SOL    HW2 8736   6.623   6.429   4.883
 2613SOL     OW 8737   3.144   6.567   2.130
 2613SOL    HW1 8738   3.056   6.610   2.147
 2613SOL    HW2 8739   3.203   6.578   2.210
 2614SOL     OW 8740   6.472   6.265   5.914
 2614SOL    HW1 8741   6.518   6.182   5.882
 2614SOL    HW2 8742   6.373   6.252   5.911
 2615SOL     OW 8743   5.527   4.963   3.283
 2615SOL    HW1 8744   5.526   5.040   3.347
 2615SOL    HW2 8745   5.574   4.990   3.199
 2616SOL     OW 8746   3.723   3.633   3.985
 2616SOL    HW1 8747   3.759   3.618   3.893
 2616SOL    HW2 8748   3.794   3.612   4.052
 2617SOL     OW 8749   3.363   6.338   1.242
 2617SOL    HW1 8750   3.317   6.401   1.303
 2617SOL    HW2 8751   3.303   6.315   1.166
 2618SOL     OW 8752   0.100   6.618   3.873
 2618SOL    HW1 8753   0.004   6.598   3.894
 2618SOL    HW2 8754   0.129   6.563   3.795
 2619SOL     OW 8755   3.277   1.075   2.998
 2619SOL    HW1 8756   3.370   1.040   3.014
 2619SOL    HW2 8757   3.216   1.039   3.069
 2620SOL     OW 8758   1.072   5.886   3.750
 2620SOL    HW1 8759   1.114   5.814   3.694
 2620SOL    HW2 8760   1.037   5.846   3.834
 2621SOL     OW 8761   1.737   5.675   4.033
 2621SOL    HW1 8762   1.694   5.648   3.947
 2621SOL    HW2 8763   1.836   5.659   4.027
 2622SOL     OW 8764   2.273   2.362   6.554
 2622SOL    HW1 8765   2.303   2.437   6.496
 2622SOL    HW2 8766   2.251   2.398   6.645
 2623SOL     OW 8767   3.739   1.706   4.795
 2623SOL    HW1 8768   3.757   1.768   4.872
 2623SOL    HW2 8769   3.768   1.614   4.820
 2624SOL     OW 8770   6.776   3.076   3.938
 2624SOL    HW1 8771   6.857   3.094   3.994
 2624SOL    HW2 8772   6.761   2.978   3.932
 2625SOL     OW 8773   2.578   2.752   5.330
 2625SOL    HW1 8774   2.570   2.833   5.271
 2625SOL    HW2 8775   2.511   2.684   5.301
 2626SOL     OW 8776   0.418   6.963   4.089
 2626SOL    HW1 8777   0.403   6.905   4.009
 2626SOL    HW2 8778   0.330   6.998   4.121
 2627SOL     OW 8779   0.479   0.927   3.867
 2627SOL    HW1 8780   0.398   0.874   3.842
 2627SOL    HW2 8781   0.543   0.869   3.919
 2628SOL     OW 8782   3.706   5.459   6.697
 2628SOL    HW1 8783   3.774   5.398   6.656
 2628SOL    HW2 8784   3.697   5.438   6.794
 2629SOL     OW 8785   3.522   3.896   2.284
 2629SOL    HW1 8786   3.445   3.941   2.329
 2629SOL    HW2 8787   3.593   3.876   2.351
 2630SOL     OW 8788   3.698   1.784   2.225
 2630SOL    HW1 8789   3.778   1.825   2.270
 2630SOL    HW2 8790   3.665   1.845   2.153
 2631SOL     OW 8791   4.764   6.766   3.594
 2631SOL    HW1 8792   4.826   6.835   3.556
 2631SOL    HW2 8793   4.784   6.754   3.691
 2632SOL     OW 8794   2.812   2.288   5.961
 2632SOL    HW1 8795   2.897   2.247   5.994
 2632SOL    HW2 8796   2.826   2.324   5.869
 2633SOL     OW 8797   6.419   2.431   6.042
 2633SOL    HW1 8798   6.427   2.523   6.003
 2633SOL    HW2 8799   6.406   2.365   5.969
 2634SOL     OW 8800   2.223   3.962   3.092
 2634SOL    HW1 8801   2.137   3.942   3.140
 2634SOL    HW2 8802   2.299   3.922   3.144
 2635SOL     OW 8803   5.770   5.905   4.349
 2635SOL    HW1 8804   5.789   5.815   4.388
 2635SOL    HW2 8805   5.783   5.975   4.419
 2636SOL     OW 8806   5.176   0.477   5.923
 2636SOL    HW1 8807   5.182   0.576   5.907
 2636SOL    HW2 8808   5.086   0.444   5.893
 2637SOL     OW 8809   6.309   0.983   3.660
 2637SOL    HW1 8810   6.231   1.025   3.707
 2637SOL    HW2 8811   6.301   0.884   3.665
 2638SOL     OW 8812   6.896   6.815   2.916
 2638SOL    HW1 8813   6.995   6.822   2.907
 2638SOL    HW2 8814   6.874   6.772   3.004
 2639SOL     OW 8815   6.995   6.815   1.943
 2639SOL    HW1 8816   6.942   6.779   2.019
 2639SOL    HW2 8817   6.991   6.751   1.866
 2640SOL     OW 8818   6.996   6.305   5.818
 2640SOL    HW1 8819   6.956   6.263   5.736
 2640SOL    HW2 8820   6.942   6.385   5.843
 2641SOL     OW 8821   5.389   3.104   1.777
 2641SOL    HW1 8822   5.290   3.121   1.776
 2641SOL    HW2 8823   5.437   3.184   1.741
 2642SOL     OW 8824   5.171   0.702   4.630
 2642SOL    HW1 8825   5.085   0.716   4.582
 2642SOL    HW2 8826   5.153   0.656   4.718
 2643SOL     OW 8827   1.100   4.620   3.269
 2643SOL    HW1 8828   1.019   4.670   3.300
 2643SOL    HW2 8829   1.083   4.581   3.178
 2644SOL     OW 8830   0.406   4.190   5.163
 2644SOL    HW1 8831   0.490   4.138   5.178
 2644SOL    HW2 8832   0.362   4.159   5.080
 2645SOL     OW 8833   4.909   6.589   4.955
 2645SOL    HW1 8834   4.856   6.622   4.876
 2645SOL    HW2 8835   4.907   6.658   5.028
 2646SOL     OW 8836   6.179   6.662   6.536
 2646SOL    HW1 8837   6.133   6.627   6.618
 2646SOL    HW2 8838   6.149   6.755   6.518
 2647SOL     OW 8839   5.462   0.908   0.580
 2647SOL    HW1 8840   5.461   0.808   0.588
 2647SOL    HW2 8841   5.515   0.947   0.656
 2648SOL     OW 8842   6.836   0.036   4.129
 2648SOL    HW1 8843   6.856   6.958   4.126
 2648SOL    HW2 8844   6.778   0.059   4.051
 2649SOL     OW 8845   4.395   2.181   6.222
 2649SOL    HW1 8846   4.459   2.152   6.294
 2649SOL    HW2 8847   4.383   2.107   6.157
 2650SOL     OW 8848   0.477   4.083   3.867
 2650SOL    HW1 8849   0.388   4.108   3.829
 2650SOL    HW2 8850   0.549   4.137   3.821
 2651SOL     OW 8851   1.231   1.745   0.573
 2651SOL    HW1 8852   1.248   1.837   0.537
 2651SOL    HW2 8853   1.263   1.677   0.507
 2652SOL     OW 8854   3.066   3.976   3.301
 2652SOL    HW1 8855   3.090   4.014   3.391
 2652SOL    HW2 8856   2.999   3.903   3.312
 2653SOL     OW 8857   5.169   0.082   4.971
 2653SOL    HW1 8858   5.243   0.144   4.993
 2653SOL    HW2 8859   5.081   0.124   4.996
 2654SOL     OW 8860   4.722   3.283   0.382
 2654SOL    HW1 8861   4.714   3.191   0.345
 2654SOL    HW2 8862   4.661   3.293   0.460
 2655SOL     OW 8863   4.756   4.613   4.588
 2655SOL    HW1 8864   4.817   4.586   4.513
 2655SOL    HW2 8865   4.680   4.549   4.595
 2656SOL     OW 8866   4.175   4.901   4.160
 2656SOL    HW1 8867   4.135   4.947   4.239
 2656SOL    HW2 8868   4.220   4.968   4.101
 2657SOL     OW 8869   2.613   4.628   6.486
 2657SOL    HW1 8870   2.522   4.630   6.528
 2657SOL    HW2 8871   2.604   4.628   6.387
 2658SOL     OW 8872   5.402   3.944   0.583
 2658SOL    HW1 8873   5.480   3.882   0.586
 2658SOL    HW2 8874   5.424   4.023   0.525
 2659SOL     OW 8875   6.298   2.292   4.268
 2659SOL    HW1 8876   6.397   2.304   4.264
 2659SOL    HW2 8877   6.271   2.216   4.209
 2660SOL     OW 8878   0.781   1.826   1.151
 2660SOL    HW1 8879   0.686   1.856   1.147
 2660SOL    HW2 8880   0.837   1.884   1.091
 2661SOL     OW 8881   2.165   6.328   2.294
 2661SOL    HW1 8882   2.254   6.292   2.323
 2661SOL    HW2 8883   2.153   6.420   2.330
 2662SOL     OW 8884   4.625   0.577   5.214
 2662SOL    HW1 8885   4.592   0.492   5.257
 2662SOL    HW2 8886   4.716   0.598   5.249
 2663SOL     OW 8887   2.971   4.639   1.177
 2663SOL    HW1 8888   2.931   4.610   1.090
 2663SOL    HW2 8889   2.956   4.568   1.247
 2664SOL     OW 8890   4.097   3.764   3.582
 2664SOL    HW1 8891   4.138   3.686   3.629
 2664SOL    HW2 8892   4.063   3.830   3.649
 2665SOL     OW 8893   3.089   1.880   4.551
 2665SOL    HW1 8894   3.035   1.838   4.624
 2665SOL    HW2 8895   3.115   1.810   4.485
 2666SOL     OW 8896   4.539   3.798   1.496
 2666SOL    HW1 8897   4.584   3.776   1.583
 2666SOL    HW2 8898   4.450   3.839   1.515
 2667SOL     OW 8899   1.909   5.863   4.545
 2667SOL    HW1 8900   1.842   5.904   4.484
 2667SOL    HW2 8901   1.878   5.772   4.572
 2668SOL     OW 8902   6.842   3.147   3.225
 2668SOL    HW1 8903   6.847   3.050   3.251
 2668SOL    HW2 8904   6.907   3.199   3.280
 2669SOL     OW 8905   2.774   4.891   5.032
 2669SOL    HW1 8906   2.832   4.888   5.114
 2669SOL    HW2 8907   2.716   4.810   5.029
 2670SOL     OW 8908   6.174   1.163   6.383
 2670SOL    HW1 8909   6.171   1.209   6.294
 2670SOL    HW2 8910   6.269   1.142   6.407
 2671SOL     OW 8911   3.245   5.279   0.462
 2671SOL    HW1 8912   3.166   5.253   0.406
 2671SOL    HW2 8913   3.220   5.274   0.559
 2672SOL     OW 8914   0.490   5.615   6.811
 2672SOL    HW1 8915   0.582   5.647   6.835
 2672SOL    HW2 8916   0.488   5.591   6.714
 2673SOL     OW 8917   5.481   2.100   3.479
 2673SOL    HW1 8918   5.533   2.015   3.478
 2673SOL    HW2 8919   5.398   2.088   3.534
 2674SOL     OW 8920   2.270   4.185   4.346
 2674SOL    HW1 8921   2.314   4.105   4.305
 2674SOL    HW2 8922   2.223   4.158   4.431
 2675SOL     OW 8923   0.611   4.795   5.366
 2675SOL    HW1 8924   0.575   4.864   5.429
 2675SOL    HW2 8925   0.618   4.833   5.274
 2676SOL     OW 8926   4.554   0.761   2.964
 2676SOL    HW1 8927   4.522   0.856   2.967
 2676SOL    HW2 8928   4.575   0.736   2.870
 2677SOL     OW 8929   3.063   5.385   0.703
 2677SOL    HW1 8930   3.140   5.411   0.760
 2677SOL    HW2 8931   3.058   5.445   0.624
 2678SOL     OW 8932   0.068   3.922   1.013
 2678SOL    HW1 8933   0.125   3.848   0.977
 2678SOL    HW2 8934   7.004   3.928   0.959
 2679SOL     OW 8935   4.095   5.592   1.206
 2679SOL    HW1 8936   4.038   5.666   1.171
 2679SOL    HW2 8937   4.052   5.553   1.287
 2680SOL     OW 8938   1.729   1.470   0.705
 2680SOL    HW1 8939   1.721   1.455   0.804
 2680SOL    HW2 8940   1.638   1.489   0.667
 2681SOL     OW 8941   1.405   2.086   4.477
 2681SOL    HW1 8942   1.395   2.181   4.506
 2681SOL    HW2 8943   1.421   2.028   4.556
 2682SOL     OW 8944   5.638   3.283   2.074
 2682SOL    HW1 8945   5.661   3.185   2.074
 2682SOL    HW2 8946   5.545   3.295   2.109
 2683SOL     OW 8947   1.531   3.570   0.256
 2683SOL    HW1 8948   1.578   3.485   0.283
 2683SOL    HW2 8949   1.576   3.607   0.174
 2684SOL     OW 8950   4.172   5.140   3.265
 2684SOL    HW1 8951   4.105   5.145   3.190
 2684SOL    HW2 8952   4.156   5.214   3.329
 2685SOL     OW 8953   0.121   6.904   5.812
 2685SOL    HW1 8954   0.218   6.885   5.826
 2685SOL    HW2 8955   0.107   6.941   5.719
 2686SOL     OW 8956   1.740   1.998   5.495
 2686SOL    HW1 8957   1.751   2.011   5.594
 2686SOL    HW2 8958   1.773   1.907   5.470
 2687SOL     OW 8959   4.365   4.693   3.221
 2687SOL    HW1 8960   4.381   4.777   3.272
 2687SOL    HW2 8961   4.370   4.615   3.283
 2688SOL     OW 8962   4.355   5.410   6.384
 2688SOL    HW1 8963   4.351   5.317   6.346
 2688SOL    HW2 8964   4.442   5.421   6.432
 2689SOL     OW 8965   2.107   2.178   3.362
 2689SOL    HW1 8966   2.051   2.097   3.340
 2689SOL    HW2 8967   2.065   2.228   3.437
 2690SOL     OW 8968   2.991   3.857   3.720
 2690SOL    HW1 8969   2.952   3.767   3.736
 2690SOL    HW2 8970   2.990   3.910   3.805
 2691SOL     OW 8971   1.375   5.300   2.357
 2691SOL    HW1 8972   1.290   5.267   2.317
 2691SOL    HW2 8973   1.438   5.223   2.369
 2692SOL     OW 8974   4.943   5.757   4.357
 2692SOL    HW1 8975   5.015   5.691   4.376
 2692SOL    HW2 8976   4.974   5.849   4.383
 2693SOL     OW 8977   1.927   4.284   2.792
 2693SOL    HW1 8978   2.005   4.250   2.740
 2693SOL    HW2 8979   1.897   4.371   2.753
 2694SOL     OW 8980   3.932   0.449   2.943
 2694SOL    HW1 8981   3.942   0.472   2.847
 2694SOL    HW2 8982   3.999   0.378   2.968
 2695SOL     OW 8983   5.680   1.714   2.430
 2695SOL    HW1 8984   5.710   1.664   2.511
 2695SOL    HW2 8985   5.761   1.741   2.377
 2696SOL     OW 8986   3.546   3.332   5.264
 2696SOL    HW1 8987   3.473   3.391   5.230
 2696SOL    HW2 8988   3.536   3.240   5.227
 2697SOL     OW 8989   4.032   2.020   3.259
 2697SOL    HW1 8990   4.076   1.932   3.276
 2697SOL    HW2 8991   4.096   2.080   3.212
 2698SOL     OW 8992   1.770   5.557   0.953
 2698SOL    HW1 8993   1.855   5.544   0.902
 2698SOL    HW2 8994   1.775   5.642   1.005
 2699SOL     OW 8995   3.204   5.736   0.258
 2699SOL    HW1 8996   3.186   5.753   0.162
 2699SOL    HW2 8997   3.253   5.650   0.268
 2700SOL     OW 8998   2.109   3.312   1.819
 2700SOL    HW1 8999   2.190   3.353   1.860
 2700SOL    HW2 9000   2.095   3.348   1.727
 2701SOL     OW 9001   4.175   6.953   6.492
 2701SOL    HW1 9002   4.163   6.958   6.591
 2701SOL    HW2 9003   4.189   0.026   6.456
 2702SOL     OW 9004   0.607   1.897   3.570
 2702SOL    HW1 9005   0.647   1.962   3.505
 2702SOL    HW2 9006   0.653   1.903   3.658
 2703SOL     OW 9007   2.174   0.853   2.659
 2703SOL    HW1 9008   2.221   0.773   2.697
 2703SOL    HW2 9009   2.231   0.894   2.588
 2704SOL     OW 9010   1.047   4.972   0.862
 2704SOL    HW1 9011   1.123   4.934   0.915
 2704SOL    HW2 9012   0.963   4.921   0.883
 2705SOL     OW 9013   1.246   5.476   4.531
 2705SOL    HW1 9014   1.156   5.458   4.492
 2705SOL    HW2 9015   1.274   5.569   4.508
 2706SOL     OW 9016   0.689   0.596   1.339
 2706SOL    HW1 9017   0.632   0.548   1.406
 2706SOL    HW2 9018   0.662   0.692   1.335
 2707SOL     OW 9019   2.235   0.619   5.448
 2707SOL    HW1 9020   2.311   0.677   5.476
 2707SOL    HW2 9021   2.229   0.618   5.348
 2708SOL     OW 9022   1.615   2.347   1.593
 2708SOL    HW1 9023   1.659   2.356   1.503
 2708SOL    HW2 9024   1.684   2.352   1.665
 2709SOL     OW 9025   5.300   6.574   1.361
 2709SOL    HW1 9026   5.298   6.670   1.390
 2709SOL    HW2 9027   5.225   6.524   1.405
 2710SOL     OW 9028   6.758   2.761   2.632
 2710SOL    HW1 9029   6.701   2.684   2.659
 2710SOL    HW2 9030   6.714   2.847   2.658
 2711SOL     OW 9031   3.119   0.957   3.173
 2711SOL    HW1 9032   3.135   0.915   3.262
 2711SOL    HW2 9033   3.069   0.892   3.115
 2712SOL     OW 9034   3.441   5.360   1.080
 2712SOL    HW1 9035   3.495   5.279   1.105
 2712SOL    HW2 9036   3.361   5.366   1.140
 2713SOL     OW 9037   1.560   2.206   4.905
 2713SOL    HW1 9038   1.598   2.297   4.918
 2713SOL    HW2 9039   1.464   2.213   4.876
 2714SOL     OW 9040   5.157   1.895   6.845
 2714SOL    HW1 9041   5.110   1.983   6.848
 2714SOL    HW2 9042   5.123   1.842   6.767
 2715SOL     OW 9043   5.875   0.272   0.361
 2715SOL    HW1 9044   5.897   0.367   0.339
 2715SOL    HW2 9045   5.794   0.244   0.309
 2716SOL     OW 9046   6.012   5.402   1.999
 2716SOL    HW1 9047   5.991   5.317   2.046
 2716SOL    HW2 9048   6.040   5.382   1.905
 2717SOL     OW 9049   1.081   5.250   1.872
 2717SOL    HW1 9050   0.987   5.218   1.885
 2717SOL    HW2 9051   1.108   5.305   1.951
 2718SOL     OW 9052   2.062   3.865   4.645
 2718SOL    HW1 9053   2.045   3.822   4.734
 2718SOL    HW2 9054   2.073   3.794   4.575
 2719SOL     OW 9055   5.231   4.925   1.801
 2719SOL    HW1 9056   5.313   4.943   1.747
 2719SOL    HW2 9057   5.153   4.913   1.739
 2720SOL     OW 9058   1.783   6.021   3.421
 2720SOL    HW1 9059   1.724   5.961   3.475
 2720SOL    HW2 9060   1.870   6.034   3.469
 2721SOL     OW 9061   2.908   0.165   4.909
 2721SOL    HW1 9062   2.990   0.160   4.966
 2721SOL    HW2 9063   2.851   0.085   4.925
 2722SOL     OW 9064   6.760   5.583   3.009
 2722SOL    HW1 9065   6.721   5.584   2.917
 2722SOL    HW2 9066   6.851   5.626   3.007
 2723SOL     OW 9067   1.589   6.922   5.746
 2723SOL    HW1 9068   1.672   6.943   5.695
 2723SOL    HW2 9069   1.590   6.971   5.833
 2724SOL     OW 9070   3.150   6.642   5.909
 2724SOL    HW1 9071   3.054   6.614   5.912
 2724SOL    HW2 9072   3.156   6.738   5.882
 2725SOL     OW 9073   6.241   5.294   3.193
 2725SOL    HW1 9074   6.324   5.343   3.166
 2725SOL    HW2 9075   6.175   5.358   3.233
 2726SOL     OW 9076   6.181   4.163   0.828
 2726SOL    HW1 9077   6.238   4.115   0.761
 2726SOL    HW2 9078   6.094   4.189   0.786
 2727SOL     OW 9079   6.925   4.575   2.689
 2727SOL    HW1 9080   6.926   4.500   2.755
 2727SOL    HW2 9081   6.992   4.558   2.617
 2728SOL     OW 9082   3.681   0.310   5.495
 2728SOL    HW1 9083   3.707   0.214   5.496
 2728SOL    HW2 9084   3.609   0.326   5.563
 2729SOL     OW 9085   6.898   5.889   2.136
 2729SOL    HW1 9086   6.825   5.956   2.122
 2729SOL    HW2 9087   6.898   5.823   2.062
 2730SOL     OW 9088   1.553   6.209   1.235
 2730SOL    HW1 9089   1.524   6.288   1.288
 2730SOL    HW2 9090   1.631   6.234   1.178
 2731SOL     OW 9091   3.885   3.661   1.935
 2731SOL    HW1 9092   3.967   3.645   1.990
 2731SOL    HW2 9093   3.806   3.623   1.983
 2732SOL     OW 9094   6.064   3.154   1.617
 2732SOL    HW1 9095   6.026   3.094   1.546
 2732SOL    HW2 9096   6.163   3.161   1.605
 2733SOL     OW 9097   0.176   0.062   5.118
 2733SOL    HW1 9098   0.242   7.007   5.122
 2733SOL    HW2 9099   0.146   0.086   5.210
 2734SOL     OW 9100   2.099   5.338   2.388
 2734SOL    HW1 9101   2.117   5.287   2.304
 2734SOL    HW2 9102   2.114   5.278   2.467
 2735SOL     OW 9103   0.796   3.899   3.085
 2735SOL    HW1 9104   0.734   3.951   3.144
 2735SOL    HW2 9105   0.842   3.828   3.138
 2736SOL     OW 9106   4.948   0.326   3.596
 2736SOL    HW1 9107   5.030   0.269   3.585
 2736SOL    HW2 9108   4.936   0.347   3.693
 2737SOL     OW 9109   3.485   3.312   5.552
 2737SOL    HW1 9110   3.483   3.335   5.455
 2737SOL    HW2 9111   3.543   3.232   5.566
 2738SOL     OW 9112   5.177   5.372   4.598
 2738SOL    HW1 9113   5.125   5.343   4.519
 2738SOL    HW2 9114   5.215   5.292   4.645
 2739SOL     OW 9115   5.771   4.789   0.499
 2739SOL    HW1 9116   5.796   4.692   0.498
 2739SOL    HW2 9117   5.789   4.827   0.590
 2740SOL     OW 9118   5.745   2.705   2.759
 2740SOL    HW1 9119   5.732   2.606   2.754
 2740SOL    HW2 9120   5.686   2.750   2.692
 2741SOL     OW 9121   6.790   1.476   5.896
 2741SOL    HW1 9122   6.750   1.568   5.891
 2741SOL    HW2 9123   6.785   1.442   5.990
 2742SOL     OW 9124   1.837   5.446   6.584
 2742SOL    HW1 9125   1.741   5.425   6.599
 2742SOL    HW2 9126   1.878   5.375   6.526
 2743SOL     OW 9127   6.285   5.183   2.131
 2743SOL    HW1 9128   6.285   5.221   2.224
 2743SOL    HW2 9129   6.378   5.155   2.106
 2744SOL     OW 9130   3.972   2.503   6.772
 2744SOL    HW1 9131   4.038   2.510   6.697
 2744SOL    HW2 9132   3.992   2.421   6.826
 2745SOL     OW 9133   1.265   0.260   6.903
 2745SOL    HW1 9134   1.214   0.322   6.843
 2745SOL    HW2 9135   1.205   0.229   6.977
 2746SOL     OW 9136   2.195   1.987   4.383
 2746SOL    HW1 9137   2.227   1.898   4.416
 2746SOL    HW2 9138   2.260   2.023   4.316
 2747SOL     OW 9139   5.446   3.941   5.538
 2747SOL    HW1 9140   5.375   3.971   5.602
 2747SOL    HW2 9141   5.461   3.843   5.547
 2748SOL     OW 9142   3.757   1.399   1.212
 2748SOL    HW1 9143   3.757   1.496   1.233
 2748SOL    HW2 9144   3.840   1.375   1.161
 2749SOL     OW 9145   5.914   4.456   3.972
 2749SOL    HW1 9146   5.999   4.482   4.018
 2749SOL    HW2 9147   5.855   4.537   3.964
 2750SOL     OW 9148   0.509   5.087   1.506
 2750SOL    HW1 9149   0.462   5.128   1.584
 2750SOL    HW2 9150   0.442   5.065   1.434
 2751SOL     OW 9151   1.563   6.891   0.391
 2751SOL    HW1 9152   1.513   6.946   0.458
 2751SOL    HW2 9153   1.598   6.950   0.318
 2752SOL     OW 9154   5.471   5.433   5.019
 2752SOL    HW1 9155   5.371   5.442   5.028
 2752SOL    HW2 9156   5.499   5.345   5.057
 2753SOL     OW 9157   1.580   6.887   6.105
 2753SOL    HW1 9158   1.545   6.796   6.083
 2753SOL    HW2 9159   1.677   6.892   6.080
 2754SOL     OW 9160   6.290   1.186   4.317
 2754SOL    HW1 9161   6.282   1.283   4.341
 2754SOL    HW2 9162   6.345   1.139   4.386
 2755SOL     OW 9163   3.215   6.848   3.115
 2755SOL    HW1 9164   3.210   6.938   3.158
 2755SOL    HW2 9165   3.291   6.796   3.154
 2756SOL     OW 9166   6.402   3.725   4.410
 2756SOL    HW1 9167   6.378   3.822   4.404
 2756SOL    HW2 9168   6.477   3.706   4.346
 2757SOL     OW 9169   2.664   1.397   6.938
 2757SOL    HW1 9170   2.661   1.309   6.890
 2757SOL    HW2 9171   2.592   1.399   7.008
 2758SOL     OW 9172   5.632   6.134   3.742
 2758SOL    HW1 9173   5.539   6.097   3.751
 2758SOL    HW2 9174   5.687   6.072   3.686
 2759SOL     OW 9175   3.805   5.290   5.048
 2759SOL    HW1 9176   3.796   5.364   4.981
 2759SOL    HW2 9177   3.725   5.230   5.043
 2760SOL     OW 9178   0.116   5.350   2.940
 2760SOL    HW1 9179   0.182   5.282   2.972
 2760SOL    HW2 9180   0.113   5.349   2.840
 2761SOL     OW 9181   1.948   3.983   3.720
 2761SOL    HW1 9182   2.028   3.932   3.751
 2761SOL    HW2 9183   1.953   4.076   3.755
 2762SOL     OW 9184   1.339   2.095   6.989
 2762SOL    HW1 9185   1.362   2.020   0.031
 2762SOL    HW2 9186   1.400   2.173   7.007
 2763SOL     OW 9187   4.993   2.305   5.446
 2763SOL    HW1 9188   4.924   2.286   5.516
 2763SOL    HW2 9189   4.949   2.335   5.362
 2764SOL     OW 9190   0.434   5.499   2.683
 2764SOL    HW1 9191   0.527   5.465   2.670
 2764SOL    HW2 9192   0.418   5.577   2.623
 2765SOL     OW 9193   6.923   0.258   1.096
 2765SOL    HW1 9194   6.853   0.190   1.074
 2765SOL    HW2 9195   6.927   0.327   1.024
 2766SOL     OW 9196   4.172   1.203   6.527
 2766SOL    HW1 9197   4.140   1.144   6.452
 2766SOL    HW2 9198   4.095   1.224   6.588
 2767SOL     OW 9199   5.920   5.813   6.705
 2767SOL    HW1 9200   5.886   5.772   6.790
 2767SOL    HW2 9201   5.940   5.740   6.639
 2768SOL     OW 9202   4.221   1.265   6.891
 2768SOL    HW1 9203   4.161   1.314   6.954
 2768SOL    HW2 9204   4.257   1.183   6.935
 2769SOL     OW 9205   2.645   4.483   6.197
 2769SOL    HW1 9206   2.687   4.472   6.107
 2769SOL    HW2 9207   2.596   4.570   6.200
 2770SOL     OW 9208   4.270   5.952   6.266
 2770SOL    HW1 9209   4.266   6.011   6.185
 2770SOL    HW2 9210   4.186   5.963   6.320
 2771SOL     OW 9211   5.841   0.123   4.954
 2771SOL    HW1 9212   5.860   0.053   5.023
 2771SOL    HW2 9213   5.887   0.098   4.869
 2772SOL     OW 9214   3.057   1.623   2.084
 2772SOL    HW1 9215   2.975   1.606   2.138
 2772SOL    HW2 9216   3.040   1.599   1.988
 2773SOL     OW 9217   0.053   2.780   3.907
 2773SOL    HW1 9218   0.099   2.789   3.995
 2773SOL    HW2 9219   6.974   2.777   3.921
 2774SOL     OW 9220   5.136   3.110   2.923
 2774SOL    HW1 9221   5.215   3.105   2.862
 2774SOL    HW2 9222   5.164   3.149   3.011
 2775SOL     OW 9223   6.297   3.981   3.690
 2775SOL    HW1 9224   6.251   4.062   3.728
 2775SOL    HW2 9225   6.318   3.918   3.765
 2776SOL     OW 9226   5.500   4.761   5.785
 2776SOL    HW1 9227   5.443   4.743   5.704
 2776SOL    HW2 9228   5.465   4.842   5.832
 2777SOL     OW 9229   2.274   1.418   6.693
 2777SOL    HW1 9230   2.258   1.424   6.595
 2777SOL    HW2 9231   2.345   1.484   6.719
 2778SOL     OW 9232   1.911   6.064   6.438
 2778SOL    HW1 9233   1.895   5.967   6.453
 2778SOL    HW2 9234   1.862   6.117   6.508
 2779SOL     OW 9235   5.689   6.564   1.975
 2779SOL    HW1 9236   5.679   6.632   1.902
 2779SOL    HW2 9237   5.754   6.597   2.043
 2780SOL     OW 9238   6.835   0.138   6.357
 2780SOL    HW1 9239   6.889   0.180   6.430
 2780SOL    HW2 9240   6.872   0.048   6.335
 2781SOL     OW 9241   5.988   0.380   3.076
 2781SOL    HW1 9242   6.083   0.391   3.045
 2781SOL    HW2 9243   5.945   0.308   3.022
 2782SOL     OW 9244   4.260   1.506   5.595
 2782SOL    HW1 9245   4.249   1.465   5.685
 2782SOL    HW2 9246   4.207   1.455   5.527
 2783SOL     OW 9247   6.706   3.894   1.403
 2783SOL    HW1 9248   6.652   3.858   1.327
 2783SOL    HW2 9249   6.791   3.933   1.367
 2784SOL     OW 9250   3.428   1.728   1.617
 2784SOL    HW1 9251   3.473   1.815   1.638
 2784SOL    HW2 9252   3.353   1.713   1.682
 2785SOL     OW 9253   5.575   2.071   1.031
 2785SOL    HW1 9254   5.556   2.037   0.939
 2785SOL    HW2 9255   5.492   2.111   1.070
 2786SOL     OW 9256   6.823   6.064   1.202
 2786SOL    HW1 9257   6.836   6.162   1.185
 2786SOL    HW2 9258   6.864   6.012   1.127
 2787SOL     OW 9259   6.643   5.808   5.751
 2787SOL    HW1 9260   6.594   5.746   5.690
 2787SOL    HW2 9261   6.725   5.841   5.705
 2788SOL     OW 9262   2.870   6.168   6.223
 2788SOL    HW1 9263   2.940   6.199   6.158
 2788SOL    HW2 9264   2.781   6.169   6.178
 2789SOL     OW 9265   1.702   2.088   3.518
 2789SOL    HW1 9266   1.612   2.130   3.531
 2789SOL    HW2 9267   1.773   2.158   3.528
 2790SOL     OW 9268   3.367   5.202   0.753
 2790SOL    HW1 9269   3.366   5.296   0.789
 2790SOL    HW2 9270   3.368   5.137   0.829
 2791SOL     OW 9271   0.187   4.422   2.166
 2791SOL    HW1 9272   0.137   4.466   2.091
 2791SOL    HW2 9273   0.284   4.414   2.141
 2792SOL     OW 9274   2.893   1.289   4.371
 2792SOL    HW1 9275   2.855   1.381   4.361
 2792SOL    HW2 9276   2.980   1.294   4.420
 2793SOL     OW 9277   4.985   3.860   1.816
 2793SOL    HW1 9278   5.049   3.915   1.762
 2793SOL    HW2 9279   5.023   3.768   1.827
 2794SOL     OW 9280   6.578   2.053   5.637
 2794SOL    HW1 9281   6.503   1.987   5.628
 2794SOL    HW2 9282   6.647   2.033   5.568
 2795SOL     OW 9283   0.455   4.962   1.102
 2795SOL    HW1 9284   0.535   5.021   1.093
 2795SOL    HW2 9285   0.411   4.978   1.190
 2796SOL     OW 9286   0.700   5.379   4.463
 2796SOL    HW1 9287   0.646   5.309   4.416
 2796SOL    HW2 9288   0.720   5.348   4.556
 2797SOL     OW 9289   5.284   5.771   5.773
 2797SOL    HW1 9290   5.323   5.860   5.749
 2797SOL    HW2 9291   5.316   5.744   5.864
 2798SOL     OW 9292   6.711   5.731   2.457
 2798SOL    HW1 9293   6.795   5.780   2.439
 2798SOL    HW2 9294   6.643   5.752   2.387
 2799SOL     OW 9295   4.830   5.533   5.574
 2799SOL    HW1 9296   4.925   5.562   5.585
 2799SOL    HW2 9297   4.805   5.539   5.477
 2800SOL     OW 9298   6.279   0.827   6.236
 2800SOL    HW1 9299   6.286   0.742   6.185
 2800SOL    HW2 9300   6.206   0.883   6.197
 2801SOL     OW 9301   1.960   5.644   5.648
 2801SOL    HW1 9302   2.032   5.663   5.581
 2801SOL    HW2 9303   1.887   5.593   5.603
 2802SOL     OW 9304   6.695   6.625   5.624
 2802SOL    HW1 9305   6.654   6.666   5.543
 2802SOL    HW2 9306   6.677   6.527   5.624
 2803SOL     OW 9307   3.570   4.169   5.606
 2803SOL    HW1 9308   3.512   4.090   5.623
 2803SOL    HW2 9309   3.574   4.226   5.689
 2804SOL     OW 9310   0.157   3.490   4.304
 2804SOL    HW1 9311   0.086   3.551   4.269
 2804SOL    HW2 9312   0.246   3.537   4.300
 2805SOL     OW 9313   6.082   3.719   2.494
 2805SOL    HW1 9314   6.095   3.792   2.427
 2805SOL    HW2 9315   6.030   3.754   2.572
 2806SOL     OW 9316   1.665   4.738   7.010
 2806SOL    HW1 9317   1.754   4.694   0.003
 2806SOL    HW2 9318   1.604   4.713   0.066
 2807SOL     OW 9319   4.117   0.253   3.000
 2807SOL    HW1 9320   4.117   0.159   2.965
 2807SOL    HW2 9321   4.146   0.254   3.095
 2808SOL     OW 9322   6.065   6.142   1.022
 2808SOL    HW1 9323   6.004   6.144   1.101
 2808SOL    HW2 9324   6.019   6.181   0.942
 2809SOL     OW 9325   6.145   2.594   1.881
 2809SOL    HW1 9326   6.184   2.502   1.891
 2809SOL    HW2 9327   6.218   2.661   1.875
 2810SOL     OW 9328   2.542   5.247   2.634
 2810SOL    HW1 9329   2.526   5.166   2.578
 2810SOL    HW2 9330   2.468   5.258   2.699
 2811SOL     OW 9331   0.842   1.238   2.287
 2811SOL    HW1 9332   0.742   1.243   2.290
 2811SOL    HW2 9333   0.876   1.202   2.373
 2812SOL     OW 9334   6.371   3.137   0.442
 2812SOL    HW1 9335   6.320   3.181   0.369
 2812SOL    HW2 9336   6.453   3.094   0.405
 2813SOL     OW 9337   0.576   1.475   0.542
 2813SOL    HW1 9338   0.508   1.456   0.471
 2813SOL    HW2 9339   0.595   1.391   0.593
 2814SOL     OW 9340   3.220   4.067   5.645
 2814SOL    HW1 9341   3.270   4.093   5.728
 2814SOL    HW2 9342   3.266   3.989   5.602
 2815SOL     OW 9343   0.104   6.083   6.135
 2815SOL    HW1 9344   0.100   6.162   6.195
 2815SOL    HW2 9345   0.140   6.111   6.046
 2816SOL     OW 9346   6.748   5.731   5.029
 2816SOL    HW1 9347   6.793   5.649   4.993
 2816SOL    HW2 9348   6.755   5.732   5.128
 2817SOL     OW 9349   3.579   1.690   2.472
 2817SOL    HW1 9350   3.575   1.705   2.374
 2817SOL    HW2 9351   3.516   1.753   2.518
 2818SOL     OW 9352   0.109   0.920   1.587
 2818SOL    HW1 9353   0.073   0.834   1.552
 2818SOL    HW2 9354   0.034   0.986   1.596
 2819SOL     OW 9355   1.361   0.184   1.137
 2819SOL    HW1 9356   1.342   0.205   1.041
 2819SOL    HW2 9357   1.399   0.265   1.182
 2820SOL     OW 9358   0.659   2.071   2.251
 2820SOL    HW1 9359   0.585   2.010   2.222
 2820SOL    HW2 9360   0.621   2.156   2.286
 2821SOL     OW 9361   3.062   5.078   6.067
 2821SOL    HW1 9362   2.977   5.038   6.033
 2821SOL    HW2 9363   3.120   5.005   6.103
 2822SOL     OW 9364   4.283   2.506   0.085
 2822SOL    HW1 9365   4.364   2.550   0.123
 2822SOL    HW2 9366   4.311   2.441   0.014
 2823SOL     OW 9367   5.484   0.982   6.994
 2823SOL    HW1 9368   5.531   0.959   6.909
 2823SOL    HW2 9369   5.454   1.077   6.990
 2824SOL     OW 9370   1.718   3.491   5.314
 2824SOL    HW1 9371   1.797   3.511   5.256
 2824SOL    HW2 9372   1.709   3.392   5.328
 2825SOL     OW 9373   5.739   0.703   6.548
 2825SOL    HW1 9374   5.799   0.707   6.629
 2825SOL    HW2 9375   5.788   0.739   6.469
 2826SOL     OW 9376   2.158   2.746   6.296
 2826SOL    HW1 9377   2.071   2.702   6.274
 2826SOL    HW2 9378   2.176   2.819   6.230
 2827SOL     OW 9379   0.464   1.021   6.483
 2827SOL    HW1 9380   0.503   1.002   6.573
 2827SOL    HW2 9381   0.371   1.057   6.495
 2828SOL     OW 9382   1.877   3.610   1.265
 2828SOL    HW1 9383   1.930   3.533   1.230
 2828SOL    HW2 9384   1.868   3.602   1.365
 2829SOL     OW 9385   3.452   3.184   3.299
 2829SOL    HW1 9386   3.535   3.215   3.252
 2829SOL    HW2 9387   3.447   3.084   3.296
 2830SOL     OW 9388   3.587   4.254   5.359
 2830SOL    HW1 9389   3.499   4.225   5.321
 2830SOL    HW2 9390   3.587   4.240   5.458
 2831SOL     OW 9391   0.111   2.032   2.893
 2831SOL    HW1 9392   0.210   2.016   2.893
 2831SOL    HW2 9393   0.066   1.963   2.836
 2832SOL     OW 9394   0.806   3.298   1.650
 2832SOL    HW1 9395   0.810   3.357   1.570
 2832SOL    HW2 9396   0.747   3.339   1.720
 2833SOL     OW 9397   2.304   1.365   2.280
 2833SOL    HW1 9398   2.369   1.313   2.225
 2833SOL    HW2 9399   2.354   1.421   2.346
 2834SOL     OW 9400   4.894   6.324   4.984
 2834SOL    HW1 9401   4.911   6.417   4.952
 2834SOL    HW2 9402   4.811   6.289   4.941
 2835SOL     OW 9403   0.864   6.763   0.515
 2835SOL    HW1 9404   0.815   6.831   0.461
 2835SOL    HW2 9405   0.954   6.799   0.540
 2836SOL     OW 9406   3.079   6.260   2.953
 2836SOL    HW1 9407   3.018   6.231   2.879
 2836SOL    HW2 9408   3.167   6.213   2.944
 2837SOL     OW 9409   5.606   4.239   2.296
 2837SOL    HW1 9410   5.625   4.143   2.315
 2837SOL    HW2 9411   5.687   4.294   2.315
 2838SOL     OW 9412   4.873   4.064   0.213
 2838SOL    HW1 9413   4.909   4.043   0.304
 2838SOL    HW2 9414   4.882   4.162   0.195
 2839SOL     OW 9415   6.882   2.275   3.209
 2839SOL    HW1 9416   6.926   2.270   3.119
 2839SOL    HW2 9417   6.907   2.193   3.262
 2840SOL     OW 9418   1.716   5.323   2.726
 2840SOL    HW1 9419   1.621   5.298   2.707
 2840SOL    HW2 9420   1.752   5.264   2.799
 2841SOL     OW 9421   6.251   2.299   0.152
 2841SOL    HW1 9422   6.268   2.397   0.165
 2841SOL    HW2 9423   6.161   2.285   0.112
 2842SOL     OW 9424   1.581   5.671   5.163
 2842SOL    HW1 9425   1.486   5.642   5.166
 2842SOL    HW2 9426   1.598   5.723   5.079
 2843SOL     OW 9427   2.691   2.440   2.916
 2843SOL    HW1 9428   2.645   2.427   3.004
 2843SOL    HW2 9429   2.786   2.467   2.933
 2844SOL     OW 9430   5.026   4.807   1.188
 2844SOL    HW1 9431   5.030   4.796   1.288
 2844SOL    HW2 9432   5.066   4.895   1.164
 2845SOL     OW 9433   5.222   2.651   3.572
 2845SOL    HW1 9434   5.146   2.604   3.528
 2845SOL    HW2 9435   5.298   2.660   3.508
 2846SOL     OW 9436   3.585   0.727   0.171
 2846SOL    HW1 9437   3.626   0.805   0.219
 2846SOL    HW2 9438   3.627   0.642   0.203
 2847SOL     OW 9439   4.755   4.098   2.359
 2847SOL    HW1 9440   4.747   4.020   2.296
 2847SOL    HW2 9441   4.728   4.181   2.311
 2848SOL     OW 9442   1.471   2.079   5.400
 2848SOL    HW1 9443   1.478   2.037   5.309
 2848SOL    HW2 9444   1.560   2.077   5.445
 2849SOL     OW 9445   3.703   1.289   1.454
 2849SOL    HW1 9446   3.608   1.306   1.483
 2849SOL    HW2 9447   3.724   1.347   1.376
 2850SOL     OW 9448   1.834   0.080   3.817
 2850SOL    HW1 9449   1.881   0.119   3.738
 2850SOL    HW2 9450   1.823   7.002   3.804
 2851SOL     OW 9451   4.242   3.631   6.477
 2851SOL    HW1 9452   4.239   3.730   6.460
 2851SOL    HW2 9453   4.251   3.614   6.575
 2852SOL     OW 9454   6.549   4.336   6.909
 2852SOL    HW1 9455   6.624   4.309   6.848
 2852SOL    HW2 9456   6.576   4.417   6.961
 2853SOL     OW 9457   0.791   3.369   0.100
 2853SOL    HW1 9458   0.701   3.345   0.139
 2853SOL    HW2 9459   0.808   3.466   0.115
 2854SOL     OW 9460   3.576   1.082   6.077
 2854SOL    HW1 9461   3.666   1.083   6.121
 2854SOL    HW2 9462   3.544   1.176   6.066
 2855SOL     OW 9463   0.914   2.388   4.109
 2855SOL    HW1 9464   0.849   2.461   4.088
 2855SOL    HW2 9465   1.000   2.405   4.060
 2856SOL     OW 9466   1.517   2.690   3.273
 2856SOL    HW1 9467   1.537   2.785   3.250
 2856SOL    HW2 9468   1.549   2.630   3.200
 2857SOL     OW 9469   0.338   3.271   1.078
 2857SOL    HW1 9470   0.342   3.317   0.989
 2857SOL    HW2 9471   0.428   3.272   1.120
 2858SOL     OW 9472   4.998   6.363   2.497
 2858SOL    HW1 9473   5.077   6.351   2.557
 2858SOL    HW2 9474   4.942   6.280   2.499
 2859SOL     OW 9475   5.492   5.472   0.720
 2859SOL    HW1 9476   5.515   5.566   0.694
 2859SOL    HW2 9477   5.404   5.447   0.680
 2860SOL     OW 9478   1.755   6.594   2.295
 2860SOL    HW1 9479   1.785   6.503   2.325
 2860SOL    HW2 9480   1.762   6.658   2.371
 2861SOL     OW 9481   3.102   5.153   5.664
 2861SOL    HW1 9482   3.102   5.135   5.566
 2861SOL    HW2 9483   3.083   5.250   5.680
 2862SOL     OW 9484   4.490   2.577   1.771
 2862SOL    HW1 9485   4.405   2.527   1.791
 2862SOL    HW2 9486   4.468   2.669   1.741
 2863SOL     OW 9487   5.448   1.602   6.545
 2863SOL    HW1 9488   5.489   1.637   6.461
 2863SOL    HW2 9489   5.432   1.504   6.537
 2864SOL     OW 9490   4.348   3.205   1.127
 2864SOL    HW1 9491   4.344   3.134   1.057
 2864SOL    HW2 9492   4.273   3.192   1.192
 2865SOL     OW 9493   4.644   0.066   4.157
 2865SOL    HW1 9494   4.643   0.148   4.099
 2865SOL    HW2 9495   4.738   0.042   4.179
 2866SOL     OW 9496   5.665   3.931   0.281
 2866SOL    HW1 9497   5.689   3.838   0.310
 2866SOL    HW2 9498   5.586   3.927   0.220
 2867SOL     OW 9499   6.563   6.255   2.124
 2867SOL    HW1 9500   6.596   6.239   2.031
 2867SOL    HW2 9501   6.634   6.302   2.177
 2868SOL     OW 9502   1.102   1.240   5.288
 2868SOL    HW1 9503   1.196   1.207   5.291
 2868SOL    HW2 9504   1.061   1.232   5.378
 2869SOL     OW 9505   5.891   0.369   3.706
 2869SOL    HW1 9506   5.912   0.387   3.802
 2869SOL    HW2 9507   5.925   0.278   3.681
 2870SOL     OW 9508   0.679   1.758   6.657
 2870SOL    HW1 9509   0.694   1.699   6.737
 2870SOL    HW2 9510   0.688   1.705   6.574
 2871SOL     OW 9511   6.523   0.871   0.181
 2871SOL    HW1 9512   6.472   0.875   0.267
 2871SOL    HW2 9513   6.514   0.780   0.141
 2872SOL     OW 9514   2.437   1.274   1.238
 2872SOL    HW1 9515   2.505   1.339   1.274
 2872SOL    HW2 9516   2.393   1.314   1.158
 2873SOL     OW 9517   7.002   5.570   1.637
 2873SOL    HW1 9518   6.958   5.656   1.664
 2873SOL    HW2 9519   0.078   5.586   1.616
 2874SOL     OW 9520   4.455   0.072   2.871
 2874SOL    HW1 9521   4.470   0.156   2.923
 2874SOL    HW2 9522   4.423   0.000   2.934
 2875SOL     OW 9523   3.880   6.819   2.829
 2875SOL    HW1 9524   3.815   6.788   2.898
 2875SOL    HW2 9525   3.862   6.770   2.743
 2876SOL     OW 9526   1.276   6.249   1.940
 2876SOL    HW1 9527   1.363   6.201   1.942
 2876SOL    HW2 9528   1.291   6.346   1.925
 2877SOL     OW 9529   1.919   1.165   6.677
 2877SOL    HW1 9530   1.855   1.139   6.748
 2877SOL    HW2 9531   2.006   1.117   6.691
 2878SOL     OW 9532   3.176   3.958   4.224
 2878SOL    HW1 9533   3.246   3.888   4.212
 2878SOL    HW2 9534   3.183   3.997   4.316
 2879SOL     OW 9535   4.082   5.352   6.081
 2879SOL    HW1 9536   4.010   5.393   6.024
 2879SOL    HW2 9537   4.154   5.419   6.097
 2880SOL     OW 9538   0.744   1.645   3.639
 2880SOL    HW1 9539   0.734   1.547   3.656
 2880SOL    HW2 9540   0.655   1.690   3.648
 2881SOL     OW 9541   3.390   5.882   0.388
 2881SOL    HW1 9542   3.323   5.813   0.362
 2881SOL    HW2 9543   3.348   5.949   0.448
 2882SOL     OW 9544   5.983   6.338   1.430
 2882SOL    HW1 9545   6.057   6.272   1.443
 2882SOL    HW2 9546   5.913   6.300   1.371
 2883SOL     OW 9547   6.018   6.431   3.617
 2883SOL    HW1 9548   6.042   6.398   3.708
 2883SOL    HW2 9549   6.101   6.437   3.561
 2884SOL     OW 9550   6.687   5.384   2.239
 2884SOL    HW1 9551   6.647   5.312   2.183
 2884SOL    HW2 9552   6.626   5.463   2.242
 2885SOL     OW 9553   1.364   1.897   4.283
 2885SOL    HW1 9554   1.456   1.862   4.264
 2885SOL    HW2 9555   1.371   1.980   4.339
 2886SOL     OW 9556   2.787   4.493   6.987
 2886SOL    HW1 9557   2.702   4.546   6.985
 2886SOL    HW2 9558   2.768   4.397   6.965
 2887SOL     OW 9559   6.968   6.427   4.083
 2887SOL    HW1 9560   0.009   6.349   4.076
 2887SOL    HW2 9561   6.925   6.444   3.994
 2888SOL     OW 9562   6.896   4.964   0.023
 2888SOL    HW1 9563   6.938   5.026   6.977
 2888SOL    HW2 9564   6.798   4.983   0.030
 2889SOL     OW 9565   3.093   6.609   2.960
 2889SOL    HW1 9566   3.094   6.539   3.032
 2889SOL    HW2 9567   3.154   6.684   2.985
 2890SOL     OW 9568   1.985   5.275   0.922
 2890SOL    HW1 9569   1.896   5.272   0.967
 2890SOL    HW2 9570   2.001   5.368   0.887
 2891SOL     OW 9571   0.664   3.373   3.094
 2891SOL    HW1 9572   0.658   3.375   2.994
 2891SOL    HW2 9573   0.759   3.390   3.121
 2892SOL     OW 9574   5.992   2.811   0.968
 2892SOL    HW1 9575   6.060   2.884   0.963
 2892SOL    HW2 9576   5.961   2.800   1.063
 2893SOL     OW 9577   1.848   5.642   4.747
 2893SOL    HW1 9578   1.905   5.710   4.794
 2893SOL    HW2 9579   1.903   5.561   4.727
 2894SOL     OW 9580   1.923   3.997   1.657
 2894SOL    HW1 9581   1.966   4.076   1.701
 2894SOL    HW2 9582   1.885   4.024   1.568
 2895SOL     OW 9583   4.091   0.983   6.261
 2895SOL    HW1 9584   4.025   0.907   6.262
 2895SOL    HW2 9585   4.071   1.043   6.183
 2896SOL     OW 9586   5.231   0.195   6.342
 2896SOL    HW1 9587   5.242   0.278   6.288
 2896SOL    HW2 9588   5.250   0.115   6.285
 2897SOL     OW 9589   4.312   4.680   2.939
 2897SOL    HW1 9590   4.223   4.711   2.907
 2897SOL    HW2 9591   4.318   4.688   3.038
 2898SOL     OW 9592   5.264   3.834   3.791
 2898SOL    HW1 9593   5.220   3.764   3.848
 2898SOL    HW2 9594   5.203   3.912   3.781
 2899SOL     OW 9595   6.370   1.794   1.086
 2899SOL    HW1 9596   6.432   1.867   1.057
 2899SOL    HW2 9597   6.318   1.761   1.007
 2900SOL     OW 9598   3.983   4.803   0.079
 2900SOL    HW1 9599   4.053   4.861   0.038
 2900SOL    HW2 9600   3.997   4.797   0.177
 2901SOL     OW 9601   1.571   4.877   3.340
 2901SOL    HW1 9602   1.514   4.799   3.316
 2901SOL    HW2 9603   1.551   4.905   3.434
 2902SOL     OW 9604   0.212   5.652   3.680
 2902SOL    HW1 9605   0.124   5.669   3.637
 2902SOL    HW2 9606   0.243   5.735   3.725
 2903SOL     OW 9607   4.496   6.416   1.378
 2903SOL    HW1 9608   4.595   6.425   1.381
 2903SOL    HW2 9609   4.464   6.369   1.460
 2904SOL     OW 9610   3.055   4.894   4.933
 2904SOL    HW1 9611   2.958   4.869   4.932
 2904SOL    HW2 9612   3.104   4.835   4.998
 2905SOL     OW 9613   1.477   4.075   3.746
 2905SOL    HW1 9614   1.536   4.137   3.797
 2905SOL    HW2 9615   1.389   4.119   3.728
 2906SOL     OW 9616   5.398   5.967   2.534
 2906SOL    HW1 9617   5.485   5.937   2.496
 2906SOL    HW2 9618   5.360   5.894   2.591
 2907SOL     OW 9619   0.667   1.695   4.064
 2907SOL    HW1 9620   0.733   1.639   4.014
 2907SOL    HW2 9621   0.624   1.640   4.136
 2908SOL     OW 9622   5.619   6.775   4.386
 2908SOL    HW1 9623   5.683   6.851   4.373
 2908SOL    HW2 9624   5.631   6.737   4.477
 2909SOL     OW 9625   1.417   6.504   3.310
 2909SOL    HW1 9626   1.454   6.442   3.240
 2909SOL    HW2 9627   1.330   6.468   3.343
 2910SOL     OW 9628   6.619   0.956   3.594
 2910SOL    HW1 9629   6.611   1.054   3.573
 2910SOL    HW2 9630   6.575   0.937   3.682
 2911SOL     OW 9631   0.965   4.930   3.979
 2911SOL    HW1 9632   1.031   4.995   4.016
 2911SOL    HW2 9633   0.873   4.968   3.985
 2912SOL     OW 9634   6.671   6.276   6.927
 2912SOL    HW1 9635   6.673   6.351   6.994
 2912SOL    HW2 9636   6.752   6.219   6.939
 2913SOL     OW 9637   2.679   4.696   2.668
 2913SOL    HW1 9638   2.708   4.710   2.763
 2913SOL    HW2 9639   2.759   4.698   2.608
 2914SOL     OW 9640   5.625   5.504   1.401
 2914SOL    HW1 9641   5.619   5.406   1.417
 2914SOL    HW2 9642   5.720   5.530   1.389
 2915SOL     OW 9643   3.000   1.906   3.727
 2915SOL    HW1 9644   2.942   1.904   3.646
 2915SOL    HW2 9645   3.064   1.983   3.719
 2916SOL     OW 9646   2.110   5.544   0.171
 2916SOL    HW1 9647   2.090   5.576   0.264
 2916SOL    HW2 9648   2.072   5.453   0.159
 2917SOL     OW 9649   3.125   0.587   3.839
 2917SOL    HW1 9650   3.138   0.519   3.767
 2917SOL    HW2 9651   3.068   0.549   3.912
 2918SOL     OW 9652   5.813   3.659   6.973
 2918SOL    HW1 9653   5.907   3.682   6.999
 2918SOL    HW2 9654   5.784   3.718   6.898
 2919SOL     OW 9655   6.441   6.524   3.609
 2919SOL    HW1 9656   6.536   6.512   3.580
 2919SOL    HW2 9657   6.430   6.613   3.653
 2920SOL     OW 9658   3.052   0.505   2.308
 2920SOL    HW1 9659   2.975   0.536   2.252
 2920SOL    HW2 9660   3.052   0.554   2.395
 2921SOL     OW 9661   0.097   0.288   6.028
 2921SOL    HW1 9662   0.045   0.341   5.962
 2921SOL    HW2 9663   0.072   0.192   6.021
 2922SOL     OW 9664   3.991   6.825   2.093
 2922SOL    HW1 9665   3.896   6.816   2.063
 2922SOL    HW2 9666   4.051   6.789   2.022
 2923SOL     OW 9667   6.257   5.260   4.627
 2923SOL    HW1 9668   6.327   5.199   4.664
 2923SOL    HW2 9669   6.301   5.339   4.584
 2924SOL     OW 9670   6.326   1.698   4.652
 2924SOL    HW1 9671   6.269   1.622   4.622
 2924SOL    HW2 9672   6.342   1.690   4.751
 2925SOL     OW 9673   5.670   1.886   6.982
 2925SOL    HW1 9674   5.599   1.839   6.930
 2925SOL    HW2 9675   5.723   1.819   0.014
 2926SOL     OW 9676   6.874   2.521   6.174
 2926SOL    HW1 9677   6.833   2.595   6.122
 2926SOL    HW2 9678   6.804   2.455   6.202
 2927SOL     OW 9679   1.890   3.222   0.589
 2927SOL    HW1 9680   1.929   3.295   0.533
 2927SOL    HW2 9681   1.891   3.137   0.537
 2928SOL     OW 9682   6.733   1.364   6.784
 2928SOL    HW1 9683   6.673   1.383   6.861
 2928SOL    HW2 9684   6.779   1.449   6.755
 2929SOL     OW 9685   1.357   2.681   5.122
 2929SOL    HW1 9686   1.397   2.762   5.080
 2929SOL    HW2 9687   1.322   2.704   5.213
 2930SOL     OW 9688   5.666   6.166   5.377
 2930SOL    HW1 9689   5.703   6.254   5.348
 2930SOL    HW2 9690   5.643   6.111   5.297
 2931SOL     OW 9691   4.028   4.812   0.357
 2931SOL    HW1 9692   4.113   4.760   0.349
 2931SOL    HW2 9693   3.951   4.748   0.369
 2932SOL     OW 9694   6.635   5.219   1.762
 2932SOL    HW1 9695   6.608   5.258   1.674
 2932SOL    HW2 9696   6.732   5.197   1.760
 2933SOL     OW 9697   0.642   0.149   2.277
 2933SOL    HW1 9698   0.615   0.240   2.246
 2933SOL    HW2 9699   0.723   0.157   2.336
 2934SOL     OW 9700   4.829   2.988   1.212
 2934SOL    HW1 9701   4.756   3.050   1.240
 2934SOL    HW2 9702   4.791   2.911   1.161
 2935SOL     OW 9703   0.903   2.541   6.209
 2935SOL    HW1 9704   0.827   2.492   6.251
 2935SOL    HW2 9705   0.977   2.478   6.188
 2936SOL     OW 9706   3.981   6.428   0.744
 2936SOL    HW1 9707   3.904   6.468   0.794
 2936SOL    HW2 9708   3.971   6.328   0.742
 2937SOL     OW 9709   4.776   5.101   1.218
 2937SOL    HW1 9710   4.840   5.099   1.141
 2937SOL    HW2 9711   4.758   5.196   1.244
 2938SOL     OW 9712   6.427   5.296   0.006
 2938SOL    HW1 9713   6.518   5.300   0.046
 2938SOL    HW2 9714   6.370   5.368   0.046
 2939SOL     OW 9715   0.938   0.206   1.796
 2939SOL    HW1 9716   0.978   0.294   1.770
 2939SOL    HW2 9717   0.991   0.167   1.871
 2940SOL     OW 9718   6.250   5.770   4.889
 2940SOL    HW1 9719   6.211   5.714   4.962
 2940SOL    HW2 9720   6.202   5.858   4.885
 2941SOL     OW 9721   2.250   2.303   2.901
 2941SOL    HW1 9722   2.289   2.392   2.921
 2941SOL    HW2 9723   2.150   2.310   2.900
 2942SOL     OW 9724   3.558   2.679   0.322
 2942SOL    HW1 9725   3.570   2.580   0.316
 2942SOL    HW2 9726   3.496   2.710   0.251
 2943SOL     OW 9727   6.343   4.987   3.600
 2943SOL    HW1 9728   6.281   4.933   3.657
 2943SOL    HW2 9729   6.409   4.926   3.556
 2944SOL     OW 9730   2.682   6.256   3.864
 2944SOL    HW1 9731   2.640   6.340   3.831
 2944SOL    HW2 9732   2.613   6.184   3.870
 2945SOL     OW 9733   5.231   3.379   1.740
 2945SOL    HW1 9734   5.221   3.442   1.663
 2945SOL    HW2 9735   5.180   3.295   1.721
 2946SOL     OW 9736   1.828   3.945   5.570
 2946SOL    HW1 9737   1.865   3.993   5.491
 2946SOL    HW2 9738   1.852   3.849   5.566
 2947SOL     OW 9739   0.285   5.291   0.401
 2947SOL    HW1 9740   0.311   5.295   0.305
 2947SOL    HW2 9741   0.205   5.232   0.412
 2948SOL     OW 9742   6.875   4.734   3.236
 2948SOL    HW1 9743   6.827   4.761   3.152
 2948SOL    HW2 9744   6.850   4.796   3.310
 2949SOL     OW 9745   0.344   5.955   6.601
 2949SOL    HW1 9746   0.249   5.950   6.634
 2949SOL    HW2 9747   0.405   5.974   6.678
 2950SOL     OW 9748   5.351   5.206   3.362
 2950SOL    HW1 9749   5.412   5.263   3.419
 2950SOL    HW2 9750   5.260   5.249   3.358
 2951SOL     OW 9751   5.533   1.303   2.299
 2951SOL    HW1 9752   5.474   1.342   2.228
 2951SOL    HW2 9753   5.587   1.228   2.260
 2952SOL     OW 9754   6.517   6.707   5.073
 2952SOL    HW1 9755   6.437   6.712   5.014
 2952SOL    HW2 9756   6.554   6.799   5.087
 2953SOL     OW 9757   0.221   4.475   3.277
 2953SOL    HW1 9758   0.300   4.443   3.329
 2953SOL    HW2 9759   0.189   4.402   3.216
 2954SOL     OW 9760   6.719   4.810   6.549
 2954SOL    HW1 9761   6.677   4.813   6.639
 2954SOL    HW2 9762   6.684   4.886   6.493
 2955SOL     OW 9763   1.224   4.380   0.370
 2955SOL    HW1 9764   1.177   4.439   0.435
 2955SOL    HW2 9765   1.294   4.434   0.321
 2956SOL     OW 9766   0.153   5.722   4.074
 2956SOL    HW1 9767   0.071   5.735   4.130
 2956SOL    HW2 9768   0.140   5.766   3.985
 2957SOL     OW 9769   4.136   4.960   1.476
 2957SOL    HW1 9770   4.132   4.983   1.379
 2957SOL    HW2 9771   4.055   4.997   1.523
 2958SOL     OW 9772   2.108   4.854   3.459
 2958SOL    HW1 9773   2.145   4.932   3.409
 2958SOL    HW2 9774   2.011   4.869   3.477
 2959SOL     OW 9775   4.906   2.743   2.914
 2959SOL    HW1 9776   4.988   2.718   2.862
 2959SOL    HW2 9777   4.899   2.843   2.919
 2960SOL     OW 9778   3.719   0.096   6.858
 2960SOL    HW1 9779   3.736   0.057   6.767
 2960SOL    HW2 9780   3.622   0.089   6.880
 2961SOL     OW 9781   6.658   5.053   3.403
 2961SOL    HW1 9782   6.651   5.124   3.333
 2961SOL    HW2 9783   6.589   4.982   3.387
 2962SOL     OW 9784   4.859   6.501   3.240
 2962SOL    HW1 9785   4.861   6.515   3.339
 2962SOL    HW2 9786   4.785   6.438   3.216
 2963SOL     OW 9787   1.139   0.672   6.542
 2963SOL    HW1 9788   1.174   0.763   6.519
 2963SOL    HW2 9789   1.169   0.648   6.634
 2964SOL     OW 9790   0.432   2.810   6.306
 2964SOL    HW1 9791   0.510   2.754   6.280
 2964SOL    HW2 9792   0.403   2.867   6.228
 2965SOL     OW 9793   1.133   0.334   4.411
 2965SOL    HW1 9794   1.113   0.238   4.430
 2965SOL    HW2 9795   1.200   0.340   4.337
 2966SOL     OW 9796   4.895   5.576   3.888
 2966SOL    HW1 9797   4.798   5.596   3.906
 2966SOL    HW2 9798   4.952   5.640   3.938
 2967SOL     OW 9799   6.084   1.415   5.776
 2967SOL    HW1 9800   6.008   1.352   5.790
 2967SOL    HW2 9801   6.080   1.453   5.683
 2968SOL     OW 9802   1.868   2.509   0.783
 2968SOL    HW1 9803   1.895   2.605   0.783
 2968SOL    HW2 9804   1.937   2.455   0.735
 2969SOL     OW 9805   4.861   3.701   4.726
 2969SOL    HW1 9806   4.854   3.680   4.824
 2969SOL    HW2 9807   4.854   3.800   4.713
 2970SOL     OW 9808   2.952   2.949   5.305
 2970SOL    HW1 9809   3.034   2.942   5.362
 2970SOL    HW2 9810   2.970   3.012   5.229
 2971SOL     OW 9811   5.882   4.077   0.150
 2971SOL    HW1 9812   5.968   4.095   0.197
 2971SOL    HW2 9813   5.822   4.023   0.208
 2972SOL     OW 9814   5.431   4.865   6.950
 2972SOL    HW1 9815   5.451   4.810   0.011
 2972SOL    HW2 9816   5.386   4.950   6.976
 2973SOL     OW 9817   4.830   6.998   2.422
 2973SOL    HW1 9818   4.762   6.931   2.454
 2973SOL    HW2 9819   4.807   0.007   2.329
 2974SOL     OW 9820   6.154   4.193   3.325
 2974SOL    HW1 9821   6.178   4.125   3.256
 2974SOL    HW2 9822   6.189   4.283   3.297
 2975SOL     OW 9823   5.058   4.758   4.365
 2975SOL    HW1 9824   5.059   4.698   4.446
 2975SOL    HW2 9825   5.052   4.702   4.283
 2976SOL     OW 9826   5.209   2.130   3.121
 2976SOL    HW1 9827   5.306   2.109   3.112
 2976SOL    HW2 9828   5.197   2.211   3.178
 2977SOL     OW 9829   0.969   0.579   2.433
 2977SOL    HW1 9830   0.937   0.670   2.406
 2977SOL    HW2 9831   0.891   0.522   2.460
 2978SOL     OW 9832   4.158   3.749   0.092
 2978SOL    HW1 9833   4.203   3.727   0.006
 2978SOL    HW2 9834   4.124   3.843   0.089
 2979SOL     OW 9835   3.075   1.524   4.164
 2979SOL    HW1 9836   3.119   1.435   4.171
 2979SOL    HW2 9837   3.020   1.529   4.081
 2980SOL     OW 9838   2.286   5.276   6.503
 2980SOL    HW1 9839   2.233   5.205   6.456
 2980SOL    HW2 9840   2.372   5.291   6.455
 2981SOL     OW 9841   2.436   1.674   0.104
 2981SOL    HW1 9842   2.468   1.748   0.163
 2981SOL    HW2 9843   2.365   1.708   0.043
 2982SOL     OW 9844   1.984   6.085   2.359
 2982SOL    HW1 9845   2.062   6.034   2.394
 2982SOL    HW2 9846   1.991   6.092   2.259
 2983SOL     OW 9847   0.115   2.101   1.101
 2983SOL    HW1 9848   0.090   2.155   1.020
 2983SOL    HW2 9849   0.089   2.005   1.087
 2984SOL     OW 9850   5.845   5.076   6.089
 2984SOL    HW1 9851   5.798   4.988   6.084
 2984SOL    HW2 9852   5.879   5.090   6.182
 2985SOL     OW 9853   0.546   1.172   4.515
 2985SOL    HW1 9854   0.586   1.167   4.424
 2985SOL    HW2 9855   0.449   1.195   4.507
 2986SOL     OW 9856   3.371   4.141   2.323
 2986SOL    HW1 9857   3.371   4.165   2.226
 2986SOL    HW2 9858   3.458   4.168   2.364
 2987SOL     OW 9859   1.702   1.110   4.576
 2987SOL    HW1 9860   1.604   1.121   4.559
 2987SOL    HW2 9861   1.723   1.013   4.590
 2988SOL     OW 9862   1.603   6.834   1.524
 2988SOL    HW1 9863   1.533   6.835   1.453
 2988SOL    HW2 9864   1.565   6.870   1.609
 2989SOL     OW 9865   5.108   3.897   5.204
 2989SOL    HW1 9866   5.143   3.990   5.202
 2989SOL    HW2 9867   5.022   3.895   5.256
 2990SOL     OW 9868   5.071   2.466   4.626
 2990SOL    HW1 9869   5.156   2.434   4.585
 2990SOL    HW2 9870   5.089   2.549   4.679
 2991SOL     OW 9871   6.086   3.289   6.516
 2991SOL    HW1 9872   6.151   3.330   6.451
 2991SOL    HW2 9873   6.075   3.350   6.594
 2992SOL     OW 9874   1.639   4.805   4.691
 2992SOL    HW1 9875   1.618   4.900   4.666
 2992SOL    HW2 9876   1.730   4.782   4.658
 2993SOL     OW 9877   0.081   5.092   0.522
 2993SOL    HW1 9878   0.034   5.166   0.569
 2993SOL    HW2 9879   0.033   5.072   0.436
 2994SOL     OW 9880   4.393   6.022   6.997
 2994SOL    HW1 9881   4.312   6.072   6.965
 2994SOL    HW2 9882   4.425   6.063   0.062
 2995SOL     OW 9883   4.431   0.102   0.249
 2995SOL    HW1 9884   4.349   0.108   0.193
 2995SOL    HW2 9885   4.472   0.011   0.239
 2996SOL     OW 9886   0.860   1.790   4.779
 2996SOL    HW1 9887   0.919   1.721   4.738
 2996SOL    HW2 9888   0.765   1.774   4.750
 2997SOL     OW 9889   4.730   0.349   2.900
 2997SOL    HW1 9890   4.707   0.307   2.812
 2997SOL    HW2 9891   4.795   0.424   2.885
 2998SOL     OW 9892   3.745   0.111   3.661
 2998SOL    HW1 9893   3.719   0.154   3.575
 2998SOL    HW2 9894   3.844   0.110   3.670
 2999SOL     OW 9895   3.186   4.726   5.920
 2999SOL    HW1 9896   3.211   4.744   6.015
 2999SOL    HW2 9897   3.200   4.809   5.866
 3000SOL     OW 9898   2.824   4.475   6.570
 3000SOL    HW1 9899   2.759   4.545   6.541
 3000SOL    HW2 9900   2.783   4.384   6.558
 3001SOL     OW 9901   6.148   2.137   0.560
 3001SOL    HW1 9902   6.234   2.086   0.559
 3001SOL    HW2 9903   6.071   2.074   0.547
 3002SOL     OW 9904   3.176   1.708   0.433
 3002SOL    HW1 9905   3.261   1.759   0.446
 3002SOL    HW2 9906   3.109   1.766   0.386
 3003SOL     OW 9907   0.631   6.382   1.361
 3003SOL    HW1 9908   0.591   6.466   1.325
 3003SOL    HW2 9909   0.558   6.321   1.393
 3004SOL     OW 9910   1.967   4.841   3.138
 3004SOL    HW1 9911   1.891   4.783   3.106
 3004SOL    HW2 9912   2.036   4.783   3.182
 3005SOL     OW 9913   1.482   3.087   6.117
 3005SOL    HW1 9914   1.433   3.173   6.103
 3005SOL    HW2 9915   1.418   3.010   6.115
 3006SOL     OW 9916   5.556   1.098   5.137
 3006SOL    HW1 9917   5.651   1.086   5.108
 3006SOL    HW2 9918   5.495   1.057   5.069
 3007SOL     OW 9919   4.896   5.229   0.277
 3007SOL    HW1 9920   4.955   5.176   0.215
 3007SOL    HW2 9921   4.877   5.175   0.359
 3008SOL     OW 9922   3.547   2.443   6.261
 3008SOL    HW1 9923   3.626   2.469   6.316
 3008SOL    HW2 9924   3.480   2.517   6.261
 3009SOL     OW 9925   0.034   2.267   2.991
 3009SOL    HW1 9926   0.051   2.173   2.961
 3009SOL    HW2 9927   0.115   2.323   2.971
 3010SOL     OW 9928   3.188   5.618   4.834
 3010SOL    HW1 9929   3.251   5.648   4.762
 3010SOL    HW2 9930   3.096   5.607   4.795
 3011SOL     OW 9931   6.493   6.912   1.554
 3011SOL    HW1 9932   6.453   6.828   1.516
 3011SOL    HW2 9933   6.463   6.990   1.500
 3012SOL     OW 9934   2.354   3.788   0.138
 3012SOL    HW1 9935   2.331   3.731   0.217
 3012SOL    HW2 9936   2.426   3.742   0.084
 3013SOL     OW 9937   6.435   4.881   3.334
 3013SOL    HW1 9938   6.353   4.932   3.305
 3013SOL    HW2 9939   6.408   4.798   3.382
 3014SOL     OW 9940   4.847   1.627   6.967
 3014SOL    HW1 9941   4.881   1.669   6.883
 3014SOL    HW2 9942   4.786   1.692   7.014
 3015SOL     OW 9943   2.333   1.681   0.723
 3015SOL    HW1 9944   2.391   1.636   0.655
 3015SOL    HW2 9945   2.364   1.774   0.738
 3016SOL     OW 9946   3.292   6.889   4.223
 3016SOL    HW1 9947   3.377   6.932   4.255
 3016SOL    HW2 9948   3.307   6.850   4.132
 3017SOL     OW 9949   5.630   4.561   2.639
 3017SOL    HW1 9950   5.648   4.658   2.624
 3017SOL    HW2 9951   5.715   4.509   2.632
 3018SOL     OW 9952   3.840   6.973   6.640
 3018SOL    HW1 9953   3.824   6.947   6.544
 3018SOL    HW2 9954   3.938   6.985   6.655
 3019SOL     OW 9955   0.521   6.914   0.466
 3019SOL    HW1 9956   0.438   6.859   0.460
 3019SOL    HW2 9957   0.500   7.003   0.508
 3020SOL     OW 9958   4.254   3.348   0.559
 3020SOL    HW1 9959   4.260   3.373   0.462
 3020SOL    HW2 9960   4.190   3.273   0.570
 3021SOL     OW 9961   2.285   6.819   4.450
 3021SOL    HW1 9962   2.274   6.800   4.352
 3021SOL    HW2 9963   2.215   6.770   4.502
 3022SOL     OW 9964   4.313   5.605   4.298
 3022SOL    HW1 9965   4.327   5.507   4.309
 3022SOL    HW2 9966   4.219   5.622   4.267
 3023SOL     OW 9967   3.905   6.842   2.535
 3023SOL    HW1 9968   3.921   6.914   2.603
 3023SOL    HW2 9969   3.913   6.881   2.443
 3024SOL     OW 9970   6.124   6.082   5.425
 3024SOL    HW1 9971   6.147   6.065   5.521
 3024SOL    HW2 9972   6.157   6.172   5.399
 3025SOL     OW 9973   3.827   5.909   1.652
 3025SOL    HW1 9974   3.857   6.004   1.657
 3025SOL    HW2 9975   3.894   5.855   1.601
 3026SOL     OW 9976   0.469   1.181   6.266
 3026SOL    HW1 9977   0.409   1.116   6.220
 3026SOL    HW2 9978   0.467   1.165   6.365
 3027SOL     OW 9979   4.150   1.363   2.128
 3027SOL    HW1 9980   4.247   1.342   2.117
 3027SOL    HW2 9981   4.130   1.450   2.084
 3028SOL     OW 9982   1.908   3.885   6.191
 3028SOL    HW1 9983   1.916   3.829   6.109
 3028SOL    HW2 9984   1.967   3.965   6.183
 3029SOL     OW 9985   1.094   2.560   3.529
 3029SOL    HW1 9986   1.153   2.580   3.451
 3029SOL    HW2 9987   1.092   2.461   3.545
 3030SOL     OW 9988   1.476   4.242   0.807
 3030SOL    HW1 9989   1.428   4.275   0.726
 3030SOL    HW2 9990   1.535   4.165   0.782
 3031SOL     OW 9991   1.616   4.754   0.611
 3031SOL    HW1 9992   1.517   4.754   0.603
 3031SOL    HW2 9993   1.655   4.813   0.540
 3032SOL     OW 9994   2.315   5.468   2.482
 3032SOL    HW1 9995   2.239   5.423   2.435
 3032SOL    HW2 9996   2.284   5.501   2.571
 3033SOL     OW 9997   5.895   2.084   3.021
 3033SOL    HW1 9998   5.821   2.018   3.032
 3033SOL    HW2 9999   5.953   2.056   2.944
 3034SOL     OW10000   1.126   5.723   4.240
 3034SOL    HW110001   1.084   5.778   4.168
 3034SOL    HW210002   1.225   5.722   4.229
 3035SOL     OW10003   0.999   3.072   6.207
 3035SOL    HW110004   0.987   3.115   6.297
 3035SOL    HW210005   0.985   3.141   6.136
 3036SOL     OW10006   1.206   1.875   5.145
 3036SOL    HW110007   1.157   1.840   5.065
 3036SOL    HW210008   1.205   1.975   5.144
 3037SOL     OW10009   6.792   5.022   5.448
 3037SOL    HW110010   6.825   4.971   5.369
 3037SOL    HW210011   6.870   5.053   5.503
 3038SOL     OW10012   5.193   4.576   5.826
 3038SOL    HW110013   5.113   4.517   5.833
 3038SOL    HW210014   5.275   4.520   5.815
 3039SOL     OW10015   0.105   3.180   6.864
 3039SOL    HW110016   0.037   3.184   6.791
 3039SOL    HW210017   0.063   3.143   6.947
 3040SOL     OW10018   2.970   4.851   5.669
 3040SOL    HW110019   2.996   4.932   5.721
 3040SOL    HW210020   2.930   4.784   5.732
 3041SOL     OW10021   1.163   4.561   5.988
 3041SOL    HW110022   1.228   4.578   5.914
 3041SOL    HW210023   1.193   4.608   6.070
 3042SOL     OW10024   6.143   5.677   2.622
 3042SOL    HW110025   6.110   5.594   2.669
 3042SOL    HW210026   6.099   5.685   2.533
 3043SOL     OW10027   3.170   3.474   0.575
 3043SOL    HW110028   3.196   3.548   0.512
 3043SOL    HW210029   3.227   3.479   0.657
 3044SOL     OW10030   3.105   4.873   5.423
 3044SOL    HW110031   3.074   4.869   5.518
 3044SOL    HW210032   3.030   4.845   5.362
 3045SOL     OW10033   4.774   6.805   3.136
 3045SOL    HW110034   4.738   6.728   3.084
 3045SOL    HW210035   4.782   6.885   3.076
 3046SOL     OW10036   3.899   6.158   6.832
 3046SOL    HW110037   3.920   6.117   6.921
 3046SOL    HW210038   3.882   6.256   6.843
 3047SOL     OW10039   6.246   0.259   0.445
 3047SOL    HW110040   6.170   0.195   0.459
 3047SOL    HW210041   6.221   0.348   0.482
 3048SOL     OW10042   4.585   2.215   0.858
 3048SOL    HW110043   4.512   2.218   0.926
 3048SOL    HW210044   4.575   2.133   0.802
 3049SOL     OW10045   1.234   0.881   3.891
 3049SOL    HW110046   1.282   0.898   3.805
 3049SOL    HW210047   1.288   0.819   3.947
 3050SOL     OW10048   2.554   2.494   1.378
 3050SOL    HW110049   2.593   2.412   1.418
 3050SOL    HW210050   2.612   2.573   1.398
 3051SOL     OW10051   2.763   6.627   6.339
 3051SOL    HW110052   2.765   6.604   6.437
 3051SOL    HW210053   2.669   6.645   6.310
 3052SOL     OW10054   5.501   5.225   2.235
 3052SOL    HW110055   5.478   5.259   2.144
 3052SOL    HW210056   5.435   5.155   2.262
 3053SOL     OW10057   0.666   3.952   0.806
 3053SOL    HW110058   0.580   4.002   0.804
 3053SOL    HW210059   0.739   4.013   0.836
 3054SOL     OW10060   5.662   0.935   2.525
 3054SOL    HW110061   5.594   0.911   2.595
 3054SOL    HW210062   5.738   0.871   2.530
 3055SOL     OW10063   5.522   6.797   5.554
 3055SOL    HW110064   5.562   6.871   5.498
 3055SOL    HW210065   5.525   6.711   5.503
 3056SOL     OW10066   6.021   1.739   5.696
 3056SOL    HW110067   6.099   1.746   5.634
 3056SOL    HW210068   6.053   1.750   5.790
 3057SOL     OW10069   5.302   6.082   4.434
 3057SOL    HW110070   5.374   6.122   4.378
 3057SOL    HW210071   5.320   6.101   4.531
 3058SOL     OW10072   6.375   4.077   0.663
 3058SOL    HW110073   6.468   4.079   0.699
 3058SOL    HW210074   6.358   3.989   0.617
 3059SOL     OW10075   2.276   1.780   4.168
 3059SOL    HW110076   2.358   1.822   4.208
 3059SOL    HW210077   2.302   1.704   4.110
 3060SOL     OW10078   2.468   5.177   6.941
 3060SOL    HW110079   2.473   5.079   6.958
 3060SOL    HW210080   2.536   5.202   6.871
 3061SOL     OW10081   5.637   6.000   5.866
 3061SOL    HW110082   5.667   5.984   5.960
 3061SOL    HW210083   5.537   6.002   5.862
 3062SOL     OW10084   3.194   5.348   1.243
 3062SOL    HW110085   3.146   5.260   1.238
 3062SOL    HW210086   3.127   5.421   1.257
 3063SOL     OW10087   0.793   4.284   0.890
 3063SOL    HW110088   0.850   4.363   0.868
 3063SOL    HW210089   0.698   4.304   0.867
 3064SOL     OW10090   4.414   3.081   6.935
 3064SOL    HW110091   4.480   3.141   6.978
 3064SOL    HW210092   4.407   2.996   6.986
 3065SOL     OW10093   0.991   1.595   6.276
 3065SOL    HW110094   0.974   1.668   6.210
 3065SOL    HW210095   0.981   1.507   6.230
 3066SOL     OW10096   5.277   5.329   6.187
 3066SOL    HW110097   5.203   5.383   6.225
 3066SOL    HW210098   5.300   5.254   6.249
 3067SOL     OW10099   2.543   1.584   0.894
 3067SOL    HW110100   2.458   1.635   0.876
 3067SOL    HW210101   2.530   1.488   0.867
 3068SOL     OW10102   7.001   0.698   1.480
 3068SOL    HW110103   6.994   0.748   1.393
 3068SOL    HW210104   6.923   0.636   1.489
 3069SOL     OW10105   6.368   6.560   3.243
 3069SOL    HW110106   6.331   6.561   3.150
 3069SOL    HW210107   6.306   6.607   3.305
 3070SOL     OW10108   2.768   0.942   6.713
 3070SOL    HW110109   2.747   1.031   6.754
 3070SOL    HW210110   2.736   0.940   6.618
 3071SOL     OW10111   6.719   4.912   3.851
 3071SOL    HW110112   6.765   4.999   3.871
 3071SOL    HW210113   6.720   4.854   3.932
 3072SOL     OW10114   1.889   6.328   6.840
 3072SOL    HW110115   1.882   6.251   6.776
 3072SOL    HW210116   1.891   6.293   6.934
 3073SOL     OW10117   0.183   4.088   1.462
 3073SOL    HW110118   0.233   4.044   1.387
 3073SOL    HW210119   0.235   4.168   1.493
 3074SOL     OW10120   1.425   4.162   1.193
 3074SOL    HW110121   1.338   4.204   1.219
 3074SOL    HW210122   1.445   4.086   1.254
 3075SOL     OW10123   2.460   5.238   3.950
 3075SOL    HW110124   2.426   5.214   3.859
 3075SOL    HW210125   2.384   5.238   4.015
 3076SOL     OW10126   6.304   1.455   4.383
 3076SOL    HW110127   6.389   1.455   4.436
 3076SOL    HW210128   6.317   1.508   4.300
 3077SOL     OW10129   6.055   3.463   1.890
 3077SOL    HW110130   5.986   3.433   1.823
 3077SOL    HW210131   6.047   3.408   1.973
 3078SOL     OW10132   6.607   2.911   2.008
 3078SOL    HW110133   6.706   2.900   2.000
 3078SOL    HW210134   6.580   2.999   1.969
 3079SOL     OW10135   2.951   2.251   3.786
 3079SOL    HW110136   2.937   2.259   3.885
 3079SOL    HW210137   3.039   2.208   3.768
 3080SOL     OW10138   4.847   4.268   2.000
 3080SOL    HW110139   4.912   4.271   2.075
 3080SOL    HW210140   4.755   4.285   2.035
 3081SOL     OW10141   0.470   4.654   6.270
 3081SOL    HW110142   0.467   4.569   6.217
 3081SOL    HW210143   0.563   4.691   6.269
 3082SOL     OW10144   2.746   5.811   4.183
 3082SOL    HW110145   2.762   5.906   4.159
 3082SOL    HW210146   2.707   5.806   4.275
 3083SOL     OW10147   3.315   5.826   2.814
 3083SOL    HW110148   3.302   5.771   2.731
 3083SOL    HW210149   3.288   5.920   2.796
 3084SOL     OW10150   0.146   3.920   2.291
 3084SOL    HW110151   0.059   3.955   2.256
 3084SOL    HW210152   0.221   3.972   2.251
 3085SOL     OW10153   5.315   4.629   0.853
 3085SOL    HW110154   5.237   4.626   0.790
 3085SOL    HW210155   5.283   4.623   0.947
 3086SOL     OW10156   4.385   0.934   6.886
 3086SOL    HW110157   4.431   1.017   6.917
 3086SOL    HW210158   4.449   0.857   6.887
 3087SOL     OW10159   2.523   6.250   2.763
 3087SOL    HW110160   2.572   6.328   2.804
 3087SOL    HW210161   2.518   6.176   2.829
 3088SOL     OW10162   1.516   3.060   5.519
 3088SOL    HW110163   1.508   2.989   5.589
 3088SOL    HW210164   1.496   3.149   5.559
 3089SOL     OW10165   4.726   1.932   5.015
 3089SOL    HW110166   4.645   1.934   4.956
 3089SOL    HW210167   4.762   1.839   5.020
 3090SOL     OW10168   1.765   0.980   1.927
 3090SOL    HW110169   1.790   0.994   2.022
 3090SOL    HW210170   1.760   1.069   1.880
 3091SOL     OW10171   1.310   1.026   0.644
 3091SOL    HW110172   1.353   0.947   0.688
 3091SOL    HW210173   1.373   1.103   0.645
 3092SOL     OW10174   5.007   6.650   1.398
 3092SOL    HW110175   5.012   6.696   1.486
 3092SOL    HW210176   4.927   6.684   1.348
 3093SOL     OW10177   5.123   6.605   5.594
 3093SOL    HW110178   5.209   6.552   5.594
 3093SOL    HW210179   5.133   6.683   5.532
 3094SOL     OW10180   3.128   0.576   4.352
 3094SOL    HW110181   3.030   0.592   4.337
 3094SOL    HW210182   3.140   0.495   4.409
 3095SOL     OW10183   1.937   3.465   5.774
 3095SOL    HW110184   2.011   3.435   5.834
 3095SOL    HW210185   1.952   3.432   5.681
 3096SOL     OW10186   0.205   3.599   5.189
 3096SOL    HW110187   0.198   3.677   5.126
 3096SOL    HW210188   0.161   3.622   5.276
 3097SOL     OW10189   5.417   2.857   0.267
 3097SOL    HW110190   5.422   2.794   0.344
 3097SOL    HW210191   5.470   2.939   0.287
 3098SOL     OW10192   1.541   3.107   1.784
 3098SOL    HW110193   1.590   3.060   1.857
 3098SOL    HW210194   1.597   3.181   1.748
 3099SOL     OW10195   1.001   5.932   4.115
 3099SOL    HW110196   1.034   6.024   4.092
 3099SOL    HW210197   0.940   5.938   4.194
 3100SOL     OW10198   7.013   6.324   2.121
 3100SOL    HW110199   6.957   6.312   2.203
 3100SOL    HW210200   0.089   6.331   2.147
 3101SOL     OW10201   4.595   6.338   5.946
 3101SOL    HW110202   4.504   6.370   5.971
 3101SOL    HW210203   4.658   6.416   5.942
 3102SOL     OW10204   6.917   5.469   0.937
 3102SOL    HW110205   6.856   5.469   0.858
 3102SOL    HW210206   6.971   5.553   0.938
 3103SOL     OW10207   5.074   0.789   0.924
 3103SOL    HW110208   4.976   0.795   0.907
 3103SOL    HW210209   5.095   0.702   0.968
 3104SOL     OW10210   4.124   6.956   6.769
 3104SOL    HW110211   4.196   0.006   6.763
 3104SOL    HW210212   4.119   6.921   6.862
 3105SOL     OW10213   4.764   3.655   1.394
 3105SOL    HW110214   4.678   3.704   1.387
 3105SOL    HW210215   4.839   3.720   1.409
 3106SOL     OW10216   5.396   6.964   5.137
 3106SOL    HW110217   5.390   6.942   5.040
 3106SOL    HW210218   5.311   7.007   5.167
 3107SOL     OW10219   3.955   1.680   4.075
 3107SOL    HW110220   4.043   1.727   4.075
 3107SOL    HW210221   3.884   1.740   4.038
 3108SOL     OW10222   2.019   5.401   4.678
 3108SOL    HW110223   2.070   5.432   4.758
 3108SOL    HW210224   2.012   5.301   4.680
 3109SOL     OW10225   6.450   0.708   4.403
 3109SOL    HW110226   6.385   0.735   4.474
 3109SOL    HW210227   6.419   0.746   4.315
 3110SOL     OW10228   2.267   4.196   3.451
 3110SOL    HW110229   2.180   4.245   3.456
 3110SOL    HW210230   2.320   4.230   3.373
 3111SOL     OW10231   0.236   4.760   3.265
 3111SOL    HW110232   0.247   4.661   3.261
 3111SOL    HW210233   0.322   4.805   3.241
 3112SOL     OW10234   3.321   3.430   6.998
 3112SOL    HW110235   3.374   3.486   6.935
 3112SOL    HW210236   3.367   3.342   7.012
 3113SOL     OW10237   3.218   6.083   2.717
 3113SOL    HW110238   3.140   6.142   2.695
 3113SOL    HW210239   3.301   6.137   2.719
 3114SOL     OW10240   4.107   1.478   0.247
 3114SOL    HW110241   4.083   1.508   0.340
 3114SOL    HW210242   4.154   1.552   0.200
 3115SOL     OW10243   3.707   4.527   5.342
 3115SOL    HW110244   3.688   4.561   5.434
 3115SOL    HW210245   3.691   4.428   5.339
 3116SOL     OW10246   0.614   1.944   0.245
 3116SOL    HW110247   0.560   2.024   0.273
 3116SOL    HW210248   0.611   1.875   0.316
 3117SOL     OW10249   4.672   2.469   5.442
 3117SOL    HW110250   4.710   2.559   5.422
 3117SOL    HW210251   4.714   2.401   5.382
 3118SOL     OW10252   1.201   6.772   1.967
 3118SOL    HW110253   1.181   6.844   2.033
 3118SOL    HW210254   1.174   6.684   2.006
 3119SOL     OW10255   2.920   2.432   5.741
 3119SOL    HW110256   2.930   2.363   5.670
 3119SOL    HW210257   2.965   2.517   5.711
 3120SOL     OW10258   3.249   0.894   5.862
 3120SOL    HW110259   3.248   0.808   5.914
 3120SOL    HW210260   3.243   0.874   5.765
 3121SOL     OW10261   5.509   2.090   4.502
 3121SOL    HW110262   5.557   2.159   4.556
 3121SOL    HW210263   5.573   2.050   4.436
 3122SOL     OW10264   4.386   4.800   5.181
 3122SOL    HW110265   4.418   4.894   5.184
 3122SOL    HW210266   4.305   4.790   5.238
 3123SOL     OW10267   1.608   0.909   3.591
 3123SOL    HW110268   1.564   0.961   3.664
 3123SOL    HW210269   1.594   0.956   3.504
 3124SOL     OW10270   5.403   6.569   3.737
 3124SOL    HW110271   5.319   6.520   3.757
 3124SOL    HW210272   5.385   6.639   3.667
 3125SOL     OW10273   0.932   2.993   5.396
 3125SOL    HW110274   0.841   2.950   5.393
 3125SOL    HW210275   0.964   2.995   5.491
 3126SOL     OW10276   5.519   4.429   5.906
 3126SOL    HW110277   5.540   4.342   5.862
 3126SOL    HW210278   5.543   4.504   5.844
 3127SOL     OW10279   1.546   2.879   5.055
 3127SOL    HW110280   1.608   2.932   4.997
 3127SOL    HW210281   1.578   2.881   5.150
 3128SOL     OW10282   3.772   0.545   0.280
 3128SOL    HW110283   3.842   0.581   0.218
 3128SOL    HW210284   3.801   0.562   0.375
 3129SOL     OW10285   5.069   3.764   1.311
 3129SOL    HW110286   5.029   3.704   1.241
 3129SOL    HW210287   5.032   3.856   1.300
 3130SOL     OW10288   1.464   4.663   1.097
 3130SOL    HW110289   1.370   4.697   1.098
 3130SOL    HW210290   1.464   4.566   1.073
 3131SOL     OW10291   0.469   3.433   2.450
 3131SOL    HW110292   0.516   3.354   2.412
 3131SOL    HW210293   0.382   3.445   2.402
 3132SOL     OW10294   4.568   4.869   6.667
 3132SOL    HW110295   4.555   4.957   6.712
 3132SOL    HW210296   4.569   4.881   6.568
 3133SOL     OW10297   3.670   0.797   2.863
 3133SOL    HW110298   3.741   0.850   2.816
 3133SOL    HW210299   3.601   0.768   2.797
 3134SOL     OW10300   3.991   5.295   1.741
 3134SOL    HW110301   3.941   5.373   1.703
 3134SOL    HW210302   3.956   5.211   1.702
 3135SOL     OW10303   4.662   6.640   6.272
 3135SOL    HW110304   4.597   6.714   6.291
 3135SOL    HW210305   4.738   6.675   6.218
 3136SOL     OW10306   5.484   0.518   1.779
 3136SOL    HW110307   5.497   0.509   1.680
 3136SOL    HW210308   5.563   0.479   1.826
 3137SOL     OW10309   6.565   6.712   3.121
 3137SOL    HW110310   6.474   6.723   3.161
 3137SOL    HW210311   6.559   6.655   3.039
 3138SOL     OW10312   6.009   5.392   3.533
 3138SOL    HW110313   5.995   5.436   3.444
 3138SOL    HW210314   6.089   5.332   3.528
 3139SOL     OW10315   3.615   4.747   1.305
 3139SOL    HW110316   3.546   4.721   1.372
 3139SOL    HW210317   3.581   4.825   1.252
 3140SOL     OW10318   6.475   6.354   5.482
 3140SOL    HW110319   6.540   6.291   5.439
 3140SOL    HW210320   6.494   6.360   5.580
 3141SOL     OW10321   0.153   0.064   6.729
 3141SOL    HW110322   0.189   0.153   6.704
 3141SOL    HW210323   0.053   0.069   6.739
 3142SOL     OW10324   3.607   1.310   3.050
 3142SOL    HW110325   3.677   1.276   3.113
 3142SOL    HW210326   3.615   1.409   3.041
 3143SOL     OW10327   6.344   2.045   6.681
 3143SOL    HW110328   6.389   2.086   6.760
 3143SOL    HW210329   6.245   2.057   6.689
 3144SOL     OW10330   4.436   3.754   0.702
 3144SOL    HW110331   4.424   3.826   0.770
 3144SOL    HW210332   4.369   3.681   0.718
 3145SOL     OW10333   2.143   6.599   2.393
 3145SOL    HW110334   2.201   6.664   2.442
 3145SOL    HW210335   2.047   6.614   2.419
 3146SOL     OW10336   0.500   0.866   4.830
 3146SOL    HW110337   0.405   0.840   4.847
 3146SOL    HW210338   0.558   0.785   4.832
 3147SOL     OW10339   3.040   5.113   6.715
 3147SOL    HW110340   2.956   5.120   6.770
 3147SOL    HW210341   3.083   5.024   6.731
 3148SOL     OW10342   0.092   0.441   4.144
 3148SOL    HW110343   0.017   0.492   4.102
 3148SOL    HW210344   0.055   0.364   4.196
 3149SOL     OW10345   3.462   1.197   6.826
 3149SOL    HW110346   3.490   1.216   6.732
 3149SOL    HW210347   3.540   1.212   6.888
 3150SOL     OW10348   6.566   5.761   5.301
 3150SOL    HW110349   6.475   5.769   5.259
 3150SOL    HW210350   6.562   5.695   5.376
 3151SOL     OW10351   0.027   1.877   5.933
 3151SOL    HW110352   0.068   1.859   5.844
 3151SOL    HW210353   6.954   1.839   5.934
 3152SOL     OW10354   0.952   4.213   6.826
 3152SOL    HW110355   1.031   4.268   6.855
 3152SOL    HW210356   0.966   4.181   6.733
 3153SOL     OW10357   6.172   5.089   0.276
 3153SOL    HW110358   6.154   5.171   0.329
 3153SOL    HW210359   6.094   5.027   0.283
 3154SOL     OW10360   6.295   0.957   1.123
 3154SOL    HW110361   6.225   0.900   1.165
 3154SOL    HW210362   6.335   1.018   1.191
 3155SOL     OW10363   6.182   4.453   0.469
 3155SOL    HW110364   6.120   4.427   0.395
 3155SOL    HW210365   6.233   4.372   0.500
 3156SOL     OW10366   3.140   4.009   2.214
 3156SOL    HW110367   3.071   3.946   2.248
 3156SOL    HW210368   3.156   4.081   2.282
 3157SOL     OW10369   1.844   1.668   5.267
 3157SOL    HW110370   1.916   1.625   5.214
 3157SOL    HW210371   1.863   1.657   5.365
 3158SOL     OW10372   2.670   1.399   4.521
 3158SOL    HW110373   2.756   1.346   4.520
 3158SOL    HW210374   2.689   1.493   4.494
 3159SOL     OW10375   5.952   0.101   6.634
 3159SOL    HW110376   6.044   0.107   6.673
 3159SOL    HW210377   5.958   0.075   6.538
 3160SOL     OW10378   1.377   6.369   5.972
 3160SOL    HW110379   1.296   6.350   5.917
 3160SOL    HW210380   1.454   6.388   5.911
 3161SOL     OW10381   2.460   2.632   2.817
 3161SOL    HW110382   2.542   2.576   2.820
 3161SOL    HW210383   2.412   2.626   2.905
 3162SOL     OW10384   1.336   5.725   0.726
 3162SOL    HW110385   1.416   5.727   0.786
 3162SOL    HW210386   1.253   5.711   0.781
 3163SOL     OW10387   3.817   3.653   6.885
 3163SOL    HW110388   3.791   3.647   6.789
 3163SOL    HW210389   3.754   3.712   6.934
 3164SOL     OW10390   3.814   5.735   2.276
 3164SOL    HW110391   3.898   5.708   2.229
 3164SOL    HW210392   3.760   5.794   2.217
 3165SOL     OW10393   0.905   5.528   1.167
 3165SOL    HW110394   0.990   5.510   1.215
 3165SOL    HW210395   0.874   5.445   1.121
 3166SOL     OW10396   4.597   1.535   4.325
 3166SOL    HW110397   4.573   1.534   4.422
 3166SOL    HW210398   4.521   1.574   4.272
 3167SOL     OW10399   5.563   4.337   0.581
 3167SOL    HW110400   5.567   4.375   0.674
 3167SOL    HW210401   5.622   4.256   0.576
 3168SOL     OW10402   5.715   2.836   6.992
 3168SOL    HW110403   5.752   2.830   0.065
 3168SOL    HW210404   5.781   2.799   6.927
 3169SOL     OW10405   1.646   3.638   3.428
 3169SOL    HW110406   1.563   3.604   3.473
 3169SOL    HW210407   1.725   3.589   3.465
 3170SOL     OW10408   4.398   5.637   2.656
 3170SOL    HW110409   4.458   5.662   2.580
 3170SOL    HW210410   4.333   5.712   2.673
 3171SOL     OW10411   5.875   2.083   1.352
 3171SOL    HW110412   5.951   2.147   1.355
 3171SOL    HW210413   5.878   2.031   1.267
 3172SOL     OW10414   0.282   5.161   6.934
 3172SOL    HW110415   0.371   5.160   6.888
 3172SOL    HW210416   0.215   5.206   6.875
 3173SOL     OW10417   3.263   2.381   6.747
 3173SOL    HW110418   3.349   2.411   6.789
 3173SOL    HW210419   3.257   2.418   6.654
 3174SOL     OW10420   2.516   2.985   6.377
 3174SOL    HW110421   2.588   3.032   6.326
 3174SOL    HW210422   2.553   2.954   6.465
 3175SOL     OW10423   5.956   1.395   1.706
 3175SOL    HW110424   6.014   1.436   1.636
 3175SOL    HW210425   5.924   1.306   1.674
 3176SOL     OW10426   0.952   2.979   5.669
 3176SOL    HW110427   1.031   3.040   5.659
 3176SOL    HW210428   0.873   3.031   5.702
 3177SOL     OW10429   5.172   4.356   3.954
 3177SOL    HW110430   5.166   4.257   3.944
 3177SOL    HW210431   5.258   4.379   3.999
 3178SOL     OW10432   6.523   2.348   0.109
 3178SOL    HW110433   6.547   2.378   0.016
 3178SOL    HW210434   6.428   2.317   0.110
 3179SOL     OW10435   1.106   1.753   1.790
 3179SOL    HW110436   1.113   1.821   1.717
 3179SOL    HW210437   1.148   1.790   1.873
 3180SOL     OW10438   5.750   6.770   0.799
 3180SOL    HW110439   5.808   6.802   0.874
 3180SOL    HW210440   5.667   6.825   0.795
 3181SOL     OW10441   6.610   2.234   3.987
 3181SOL    HW110442   6.536   2.243   3.920
 3181SOL    HW210443   6.655   2.145   3.975
 3182SOL     OW10444   2.760   0.363   0.178
 3182SOL    HW110445   2.674   0.404   0.147
 3182SOL    HW210446   2.747   0.264   0.191
 3183SOL     OW10447   4.069   4.823   2.268
 3183SOL    HW110448   4.138   4.872   2.214
 3183SOL    HW210449   4.105   4.804   2.359
 3184SOL     OW10450   0.609   2.046   3.203
 3184SOL    HW110451   0.669   2.089   3.271
 3184SOL    HW210452   0.547   2.115   3.165
 3185SOL     OW10453   4.968   6.470   6.590
 3185SOL    HW110454   4.929   6.378   6.596
 3185SOL    HW210455   4.949   6.520   6.674
 3186SOL     OW10456   3.005   1.683   0.099
 3186SOL    HW110457   3.053   1.732   0.026
 3186SOL    HW210458   3.014   1.585   0.085
 3187SOL     OW10459   3.700   5.227   2.059
 3187SOL    HW110460   3.779   5.219   1.998
 3187SOL    HW210461   3.721   5.185   2.147
 3188SOL     OW10462   1.518   6.222   4.592
 3188SOL    HW110463   1.561   6.290   4.533
 3188SOL    HW210464   1.528   6.250   4.688
 3189SOL     OW10465   1.611   1.670   1.157
 3189SOL    HW110466   1.601   1.583   1.108
 3189SOL    HW210467   1.570   1.744   1.104
 3190SOL     OW10468   0.013   5.857   6.921
 3190SOL    HW110469   0.063   5.853   7.008
 3190SOL    HW210470   0.044   5.783   6.862
 3191SOL     OW10471   4.626   5.046   1.905
 3191SOL    HW110472   4.643   4.975   1.837
 3191SOL    HW210473   4.559   5.013   1.972
 3192SOL     OW10474   0.769   3.023   1.092
 3192SOL    HW110475   0.828   3.085   1.041
 3192SOL    HW210476   0.674   3.034   1.061
 3193SOL     OW10477   3.952   1.451   4.914
 3193SOL    HW110478   4.046   1.450   4.950
 3193SOL    HW210479   3.952   1.415   4.820
 3194SOL     OW10480   1.041   1.899   5.727
 3194SOL    HW110481   1.080   1.923   5.638
 3194SOL    HW210482   1.073   1.965   5.795
 3195SOL     OW10483   0.861   1.578   1.568
 3195SOL    HW110484   0.919   1.659   1.564
 3195SOL    HW210485   0.767   1.602   1.543
 3196SOL     OW10486   6.961   0.192   6.862
 3196SOL    HW110487   6.965   0.145   6.951
 3196SOL    HW210488   7.000   0.283   6.871
 3197SOL     OW10489   2.383   6.956   5.266
 3197SOL    HW110490   2.459   6.892   5.259
 3197SOL    HW210491   2.417   0.029   5.269
 3198SOL     OW10492   6.655   3.174   3.047
 3198SOL    HW110493   6.713   3.164   3.127
 3198SOL    HW210494   6.580   3.237   3.067
 3199SOL     OW10495   5.294   4.336   2.987
 3199SOL    HW110496   5.334   4.317   3.077
 3199SOL    HW210497   5.359   4.389   2.933
 3200SOL     OW10498   6.034   2.946   2.606
 3200SOL    HW110499   6.007   2.963   2.511
 3200SOL    HW210500   5.956   2.965   2.666
 3201SOL     OW10501   6.696   4.765   3.016
 3201SOL    HW110502   6.654   4.846   3.057
 3201SOL    HW210503   6.642   4.734   2.939
 3202SOL     OW10504   0.894   5.070   0.391
 3202SOL    HW110505   0.950   5.081   0.309
 3202SOL    HW210506   0.803   5.037   0.366
 3203SOL     OW10507   5.856   1.704   0.464
 3203SOL    HW110508   5.870   1.605   0.464
 3203SOL    HW210509   5.792   1.728   0.391
 3204SOL     OW10510   3.766   0.240   3.427
 3204SOL    HW110511   3.856   0.268   3.460
 3204SOL    HW210512   3.737   0.300   3.353
 3205SOL     OW10513   4.937   3.111   6.018
 3205SOL    HW110514   4.954   3.182   5.950
 3205SOL    HW210515   5.000   3.122   6.095
 3206SOL     OW10516   1.525   4.385   1.033
 3206SOL    HW110517   1.529   4.323   0.954
 3206SOL    HW210518   1.616   4.422   1.051
 3207SOL     OW10519   1.141   1.031   6.971
 3207SOL    HW110520   1.193   1.026   0.036
 3207SOL    HW210521   1.113   1.125   6.955
 3208SOL     OW10522   5.363   5.885   6.450
 3208SOL    HW110523   5.275   5.866   6.407
 3208SOL    HW210524   5.359   5.972   6.499
 3209SOL     OW10525   2.863   5.277   4.531
 3209SOL    HW110526   2.930   5.204   4.515
 3209SOL    HW210527   2.804   5.285   4.451
 3210SOL     OW10528   1.523   5.015   1.006
 3210SOL    HW110529   1.541   5.015   1.104
 3210SOL    HW210530   1.564   4.934   0.964
 3211SOL     OW10531   1.951   4.050   0.593
 3211SOL    HW110532   2.006   4.059   0.510
 3211SOL    HW210533   1.998   3.992   0.658
 3212SOL     OW10534   3.073   6.955   2.556
 3212SOL    HW110535   3.042   6.880   2.616
 3212SOL    HW210536   3.065   0.022   2.605
 3213SOL     OW10537   1.053   0.344   6.738
 3213SOL    HW110538   1.033   0.247   6.723
 3213SOL    HW210539   0.971   0.398   6.717
 3214SOL     OW10540   4.783   5.757   2.147
 3214SOL    HW110541   4.799   5.662   2.119
 3214SOL    HW210542   4.863   5.790   2.196
 3215SOL     OW10543   0.388   3.941   0.578
 3215SOL    HW110544   0.446   3.860   0.582
 3215SOL    HW210545   0.345   3.947   0.488
 3216SOL     OW10546   5.869   5.384   0.802
 3216SOL    HW110547   5.803   5.324   0.757
 3216SOL    HW210548   5.836   5.407   0.894
 3217SOL     OW10549   0.690   5.405   2.712
 3217SOL    HW110550   0.738   5.480   2.758
 3217SOL    HW210551   0.710   5.319   2.758
 3218SOL     OW10552   5.614   2.756   3.094
 3218SOL    HW110553   5.711   2.749   3.118
 3218SOL    HW210554   5.566   2.674   3.126
 3219SOL     OW10555   6.707   0.988   4.223
 3219SOL    HW110556   6.798   1.028   4.231
 3219SOL    HW210557   6.694   0.952   4.131
 3220SOL     OW10558   0.208   5.741   6.081
 3220SOL    HW110559   0.167   5.786   6.001
 3220SOL    HW210560   0.221   5.809   6.154
 3221SOL     OW10561   3.763   0.136   2.369
 3221SOL    HW110562   3.681   0.079   2.359
 3221SOL    HW210563   3.777   0.158   2.466
 3222SOL     OW10564   2.874   1.326   2.539
 3222SOL    HW110565   2.794   1.369   2.498
 3222SOL    HW210566   2.956   1.349   2.486
 3223SOL     OW10567   2.650   6.331   6.952
 3223SOL    HW110568   2.640   6.414   6.896
 3223SOL    HW210569   2.592   6.259   6.915
 3224SOL     OW10570   4.705   2.825   4.903
 3224SOL    HW110571   4.778   2.892   4.890
 3224SOL    HW210572   4.678   2.788   4.815
 3225SOL     OW10573   4.610   1.742   5.615
 3225SOL    HW110574   4.675   1.668   5.631
 3225SOL    HW210575   4.518   1.710   5.637
 3226SOL     OW10576   2.652   0.657   2.384
 3226SOL    HW110577   2.624   0.659   2.480
 3226SOL    HW210578   2.641   0.748   2.344
 3227SOL     OW10579   3.671   3.715   6.629
 3227SOL    HW110580   3.740   3.762   6.575
 3227SOL    HW210581   3.595   3.778   6.649
 3228SOL     OW10582   6.816   3.634   1.180
 3228SOL    HW110583   6.737   3.692   1.202
 3228SOL    HW210584   6.786   3.556   1.125
 3229SOL     OW10585   3.714   1.040   5.557
 3229SOL    HW110586   3.719   0.987   5.641
 3229SOL    HW210587   3.805   1.048   5.516
 3230SOL     OW10588   2.028   5.041   5.777
 3230SOL    HW110589   2.028   5.141   5.783
 3230SOL    HW210590   1.949   5.011   5.724
 3231SOL     OW10591   2.584   0.299   2.617
 3231SOL    HW110592   2.674   0.328   2.650
 3231SOL    HW210593   2.571   0.334   2.524
 3232SOL     OW10594   4.016   6.274   4.034
 3232SOL    HW110595   4.045   6.278   3.938
 3232SOL    HW210596   3.916   6.265   4.038
 3233SOL     OW10597   6.773   2.420   0.882
 3233SOL    HW110598   6.767   2.329   0.842
 3233SOL    HW210599   6.747   2.415   0.979
 3234SOL     OW10600   0.581   2.690   0.412
 3234SOL    HW110601   0.569   2.599   0.373
 3234SOL    HW210602   0.659   2.736   0.367
 3235SOL     OW10603   6.730   6.914   1.655
 3235SOL    HW110604   6.639   6.909   1.612
 3235SOL    HW210605   6.725   6.973   1.735
 3236SOL     OW10606   0.626   4.390   6.992
 3236SOL    HW110607   0.704   4.453   6.990
 3236SOL    HW210608   0.638   4.325   0.047
 3237SOL     OW10609   5.894   1.762   2.255
 3237SOL    HW110610   5.941   1.676   2.274
 3237SOL    HW210611   5.890   1.776   2.156
 3238SOL     OW10612   5.828   5.141   0.325
 3238SOL    HW110613   5.872   5.058   0.292
 3238SOL    HW210614   5.897   5.209   0.348
 3239SOL     OW10615   0.433   1.103   2.877
 3239SOL    HW110616   0.404   1.052   2.958
 3239SOL    HW210617   0.354   1.149   2.836
 3240SOL     OW10618   6.937   0.296   6.617
 3240SOL    HW110619   0.013   0.277   6.594
 3240SOL    HW210620   6.918   0.261   6.709
 3241SOL     OW10621   5.023   1.340   5.925
 3241SOL    HW110622   5.073   1.255   5.941
 3241SOL    HW210623   5.088   1.416   5.919
 3242SOL     OW10624   4.393   4.065   6.175
 3242SOL    HW110625   4.451   4.140   6.208
 3242SOL    HW210626   4.444   4.010   6.109
 3243SOL     OW10627   4.624   5.288   0.320
 3243SOL    HW110628   4.582   5.208   0.363
 3243SOL    HW210629   4.724   5.278   0.321
 3244SOL     OW10630   5.522   6.189   0.211
 3244SOL    HW110631   5.570   6.186   0.123
 3244SOL    HW210632   5.548   6.273   0.260
 3245SOL     OW10633   4.838   2.288   4.176
 3245SOL    HW110634   4.829   2.375   4.225
 3245SOL    HW210635   4.875   2.219   4.238
 3246SOL     OW10636   6.448   0.020   3.151
 3246SOL    HW110637   6.517   0.082   3.115
 3246SOL    HW210638   6.445   0.028   3.251
 3247SOL     OW10639   5.812   4.178   1.957
 3247SOL    HW110640   5.812   4.101   2.021
 3247SOL    HW210641   5.718   4.199   1.931
 3248SOL     OW10642   5.770   3.213   2.431
 3248SOL    HW110643   5.722   3.134   2.393
 3248SOL    HW210644   5.869   3.203   2.414
 3249SOL     OW10645   3.586   4.160   3.093
 3249SOL    HW110646   3.514   4.137   3.028
 3249SOL    HW210647   3.643   4.233   3.057
 3250SOL     OW10648   5.504   0.313   2.608
 3250SOL    HW110649   5.510   0.273   2.517
 3250SOL    HW210650   5.468   0.245   2.672
 3251SOL     OW10651   3.400   0.738   3.642
 3251SOL    HW110652   3.428   0.643   3.653
 3251SOL    HW210653   3.359   0.771   3.727
 3252SOL     OW10654   3.037   0.935   2.597
 3252SOL    HW110655   2.939   0.932   2.613
 3252SOL    HW210656   3.085   0.951   2.683
 3253SOL     OW10657   4.519   3.572   1.104
 3253SOL    HW110658   4.431   3.528   1.084
 3253SOL    HW210659   4.591   3.502   1.107
 3254SOL     OW10660   4.995   6.251   0.176
 3254SOL    HW110661   5.016   6.165   0.222
 3254SOL    HW210662   5.033   6.249   0.083
 3255SOL     OW10663   4.301   6.596   1.607
 3255SOL    HW110664   4.249   6.587   1.522
 3255SOL    HW210665   4.375   6.662   1.593
 3256SOL     OW10666   3.485   1.492   1.125
 3256SOL    HW110667   3.484   1.592   1.119
 3256SOL    HW210668   3.579   1.460   1.116
 3257SOL     OW10669   1.242   1.911   1.597
 3257SOL    HW110670   1.204   1.902   1.505
 3257SOL    HW210671   1.341   1.922   1.591
 3258SOL     OW10672   4.248   5.818   3.092
 3258SOL    HW110673   4.284   5.877   3.019
 3258SOL    HW210674   4.320   5.756   3.123
 3259SOL     OW10675   4.880   4.740   4.826
 3259SOL    HW110676   4.973   4.777   4.830
 3259SOL    HW210677   4.863   4.703   4.735
 3260SOL     OW10678   1.682   2.818   1.723
 3260SOL    HW110679   1.586   2.793   1.741
 3260SOL    HW210680   1.718   2.759   1.650
 3261SOL     OW10681   5.727   0.806   1.258
 3261SOL    HW110682   5.793   0.767   1.194
 3261SOL    HW210683   5.772   0.828   1.344
 3262SOL     OW10684   3.864   2.143   2.225
 3262SOL    HW110685   3.958   2.157   2.193
 3262SOL    HW210686   3.800   2.176   2.155
 3263SOL     OW10687   2.654   1.443   3.150
 3263SOL    HW110688   2.664   1.353   3.192
 3263SOL    HW210689   2.671   1.436   3.052
 3264SOL     OW10690   2.238   5.402   1.297
 3264SOL    HW110691   2.271   5.331   1.235
 3264SOL    HW210692   2.159   5.448   1.256
 3265SOL     OW10693   5.070   6.961   6.648
 3265SOL    HW110694   5.033   0.006   6.582
 3265SOL    HW210695   5.084   6.873   6.603
 3266SOL     OW10696   3.054   4.883   0.017
 3266SOL    HW110697   3.090   4.846   6.952
 3266SOL    HW210698   2.954   4.881   0.014
 3267SOL     OW10699   3.131   6.342   1.970
 3267SOL    HW110700   3.201   6.278   2.004
 3267SOL    HW210701   3.138   6.428   2.021
 3268SOL     OW10702   2.196   3.940   1.240
 3268SOL    HW110703   2.281   3.984   1.211
 3268SOL    HW210704   2.156   3.992   1.316
 3269SOL     OW10705   6.189   5.777   2.110
 3269SOL    HW110706   6.160   5.726   2.191
 3269SOL    HW210707   6.121   5.765   2.038
 3270SOL     OW10708   2.002   4.069   6.849
 3270SOL    HW110709   2.031   4.026   6.935
 3270SOL    HW210710   1.994   3.999   6.778
 3271SOL     OW10711   6.809   3.016   1.248
 3271SOL    HW110712   6.873   3.012   1.171
 3271SOL    HW210713   6.848   2.969   1.327
 3272SOL     OW10714   3.042   4.124   6.123
 3272SOL    HW110715   2.998   4.187   6.187
 3272SOL    HW210716   3.071   4.175   6.042
 3273SOL     OW10717   6.305   4.792   0.002
 3273SOL    HW110718   6.318   4.890   0.010
 3273SOL    HW210719   6.212   4.768   0.031
 3274SOL     OW10720   5.900   0.624   0.544
 3274SOL    HW110721   5.822   0.562   0.555
 3274SOL    HW210722   5.873   0.717   0.569
 3275SOL     OW10723   5.212   0.923   0.030
 3275SOL    HW110724   5.167   0.989   0.090
 3275SOL    HW210725   5.310   0.943   0.028
 3276SOL     OW10726   4.053   5.963   6.660
 3276SOL    HW110727   3.976   5.978   6.721
 3276SOL    HW210728   4.083   5.868   6.668
 3277SOL     OW10729   3.530   0.933   0.906
 3277SOL    HW110730   3.598   0.905   0.974
 3277SOL    HW210731   3.480   1.012   0.940
 3278SOL     OW10732   1.029   0.915   5.666
 3278SOL    HW110733   0.932   0.904   5.647
 3278SOL    HW210734   1.069   0.978   5.599
 3279SOL     OW10735   5.340   6.770   0.274
 3279SOL    HW110736   5.249   6.774   0.315
 3279SOL    HW210737   5.407   6.746   0.345
 3280SOL     OW10738   4.917   4.928   5.076
 3280SOL    HW110739   4.949   4.841   5.039
 3280SOL    HW210740   4.825   4.917   5.114
 3281SOL     OW10741   0.966   4.695   1.111
 3281SOL    HW110742   1.005   4.603   1.119
 3281SOL    HW210743   0.995   4.750   1.189
 3282SOL     OW10744   6.435   5.213   4.940
 3282SOL    HW110745   6.429   5.308   4.910
 3282SOL    HW210746   6.424   5.152   4.861
 3283SOL     OW10747   3.129   1.234   1.149
 3283SOL    HW110748   3.215   1.187   1.171
 3283SOL    HW210749   3.065   1.170   1.107
 3284SOL     OW10750   1.218   6.104   6.061
 3284SOL    HW110751   1.240   6.072   5.969
 3284SOL    HW210752   1.136   6.161   6.058
 3285SOL     OW10753   4.426   1.937   4.531
 3285SOL    HW110754   4.346   1.892   4.491
 3285SOL    HW210755   4.478   1.871   4.585
 3286SOL     OW10756   3.470   2.796   2.112
 3286SOL    HW110757   3.504   2.702   2.124
 3286SOL    HW210758   3.474   2.820   2.015
 3287SOL     OW10759   0.347   6.782   0.091
 3287SOL    HW110760   0.419   6.752   0.154
 3287SOL    HW210761   0.277   6.831   0.143
 3288SOL     OW10762   2.256   6.469   0.058
 3288SOL    HW110763   2.335   6.527   0.040
 3288SOL    HW210764   2.173   6.515   0.025
 3289SOL     OW10765   2.945   1.103   6.399
 3289SOL    HW110766   3.041   1.130   6.392
 3289SOL    HW210767   2.899   1.162   6.466
 3290SOL     OW10768   6.742   4.435   0.828
 3290SOL    HW110769   6.788   4.371   0.767
 3290SOL    HW210770   6.796   4.519   0.834
 3291SOL     OW10771   2.262   0.864   6.158
 3291SOL    HW110772   2.257   0.805   6.078
 3291SOL    HW210773   2.231   0.814   6.239
 3292SOL     OW10774   0.006   0.915   0.485
 3292SOL    HW110775   6.928   0.899   0.472
 3292SOL    HW210776   0.026   1.012   0.472
 3293SOL     OW10777   6.147   4.287   1.587
 3293SOL    HW110778   6.166   4.202   1.637
 3293SOL    HW210779   6.136   4.266   1.490
 3294SOL     OW10780   5.517   3.096   6.234
 3294SOL    HW110781   5.462   3.113   6.153
 3294SOL    HW210782   5.512   2.999   6.258
 3295SOL     OW10783   0.829   2.724   2.429
 3295SOL    HW110784   0.840   2.824   2.426
 3295SOL    HW210785   0.821   2.689   2.335
 3296SOL     OW10786   1.444   0.687   3.181
 3296SOL    HW110787   1.369   0.753   3.174
 3296SOL    HW210788   1.524   0.732   3.220
 3297SOL     OW10789   2.683   1.764   5.103
 3297SOL    HW110790   2.611   1.826   5.132
 3297SOL    HW210791   2.772   1.807   5.117
 3298SOL     OW10792   5.892   2.333   5.764
 3298SOL    HW110793   5.950   2.391   5.707
 3298SOL    HW210794   5.804   2.379   5.780
 3299SOL     OW10795   4.036   6.196   2.583
 3299SOL    HW110796   3.994   6.285   2.563
 3299SOL    HW210797   4.059   6.151   2.497
 3300SOL     OW10798   0.809   0.781   5.850
 3300SOL    HW110799   0.895   0.799   5.897
 3300SOL    HW210800   0.770   0.867   5.818
 3301SOL     OW10801   1.819   3.060   3.241
 3301SOL    HW110802   1.844   3.018   3.154
 3301SOL    HW210803   1.867   3.147   3.251
 3302SOL     OW10804   0.327   4.801   5.342
 3302SOL    HW110805   0.419   4.765   5.352
 3302SOL    HW210806   0.261   4.728   5.360
 3303SOL     OW10807   3.337   3.539   0.228
 3303SOL    HW110808   3.319   3.506   0.135
 3303SOL    HW210809   3.266   3.606   0.253
 3304SOL     OW10810   1.888   5.359   6.119
 3304SOL    HW110811   1.898   5.430   6.188
 3304SOL    HW210812   1.934   5.387   6.035
 3305SOL     OW10813   2.354   1.791   2.429
 3305SOL    HW110814   2.430   1.856   2.426
 3305SOL    HW210815   2.274   1.834   2.470
 3306SOL     OW10816   1.635   5.151   5.021
 3306SOL    HW110817   1.604   5.119   4.932
 3306SOL    HW210818   1.628   5.251   5.024
 3307SOL     OW10819   0.575   6.711   6.055
 3307SOL    HW110820   0.642   6.655   6.006
 3307SOL    HW210821   0.620   6.754   6.134
 3308SOL     OW10822   3.009   5.500   1.602
 3308SOL    HW110823   3.074   5.463   1.668
 3308SOL    HW210824   2.943   5.559   1.649
 3309SOL     OW10825   6.624   5.389   3.911
 3309SOL    HW110826   6.701   5.333   3.879
 3309SOL    HW210827   6.654   5.443   3.990
 3310SOL     OW10828   0.315   4.071   4.934
 3310SOL    HW110829   0.377   4.101   4.862
 3310SOL    HW210830   0.223   4.106   4.915
 3311SOL     OW10831   3.501   4.362   0.867
 3311SOL    HW110832   3.423   4.405   0.914
 3311SOL    HW210833   3.563   4.434   0.834
 3312SOL     OW10834   4.219   3.921   5.787
 3312SOL    HW110835   4.177   3.846   5.838
 3312SOL    HW210836   4.290   3.964   5.843
 3313SOL     OW10837   0.918   6.426   4.074
 3313SOL    HW110838   0.909   6.501   4.139
 3313SOL    HW210839   0.845   6.431   4.006
 3314SOL     OW10840   2.502   1.331   2.637
 3314SOL    HW110841   2.481   1.370   2.727
 3314SOL    HW210842   2.476   1.397   2.566
 3315SOL     OW10843   0.457   4.196   4.720
 3315SOL    HW110844   0.516   4.235   4.650
 3315SOL    HW210845   0.365   4.185   4.683
 3316SOL     OW10846   4.919   1.069   5.092
 3316SOL    HW110847   4.846   1.124   5.133
 3316SOL    HW210848   4.924   1.088   4.994
 3317SOL     OW10849   5.118   2.845   2.128
 3317SOL    HW110850   5.060   2.919   2.094
 3317SOL    HW210851   5.213   2.876   2.131
 3318SOL     OW10852   1.900   1.702   1.151
 3318SOL    HW110853   1.801   1.689   1.156
 3318SOL    HW210854   1.927   1.772   1.217
 3319SOL     OW10855   5.536   1.239   3.957
 3319SOL    HW110856   5.612   1.180   3.929
 3319SOL    HW210857   5.451   1.207   3.915
 3320SOL     OW10858   6.167   0.614   6.783
 3320SOL    HW110859   6.141   0.536   6.840
 3320SOL    HW210860   6.171   0.586   6.687
 3321SOL     OW10861   5.482   2.068   0.372
 3321SOL    HW110862   5.557   2.132   0.389
 3321SOL    HW210863   5.491   2.028   0.281
 3322SOL     OW10864   6.973   2.759   1.288
 3322SOL    HW110865   6.916   2.741   1.207
 3322SOL    HW210866   6.989   2.674   1.337
 3323SOL     OW10867   2.962   3.187   0.003
 3323SOL    HW110868   2.904   3.232   6.955
 3323SOL    HW210869   2.927   3.094   0.020
 3324SOL     OW10870   3.971   4.703   6.641
 3324SOL    HW110871   3.959   4.615   6.687
 3324SOL    HW210872   4.029   4.762   6.697
 3325SOL     OW10873   0.219   3.842   0.093
 3325SOL    HW110874   0.205   3.882   0.184
 3325SOL    HW210875   0.293   3.890   0.047
 3326SOL     OW10876   5.161   1.850   1.915
 3326SOL    HW110877   5.082   1.909   1.930
 3326SOL    HW210878   5.145   1.791   1.836
 3327SOL     OW10879   3.250   5.356   2.084
 3327SOL    HW110880   3.216   5.434   2.136
 3327SOL    HW210881   3.346   5.373   2.059
 3328SOL     OW10882   4.220   1.977   0.859
 3328SOL    HW110883   4.219   2.076   0.845
 3328SOL    HW210884   4.140   1.936   0.815
 3329SOL     OW10885   6.095   0.161   5.250
 3329SOL    HW110886   6.018   0.198   5.302
 3329SOL    HW210887   6.063   0.088   5.190
 3330SOL     OW10888   6.533   3.506   1.386
 3330SOL    HW110889   6.524   3.579   1.318
 3330SOL    HW210890   6.621   3.460   1.374
 3331SOL     OW10891   2.296   2.940   1.827
 3331SOL    HW110892   2.336   3.032   1.822
 3331SOL    HW210893   2.258   2.925   1.918
 3332SOL     OW10894   5.743   5.755   0.309
 3332SOL    HW110895   5.838   5.786   0.304
 3332SOL    HW210896   5.733   5.670   0.257
 3333SOL     OW10897   4.049   5.684   6.513
 3333SOL    HW110898   4.075   5.684   6.417
 3333SOL    HW210899   3.951   5.699   6.521
 3334SOL     OW10900   3.273   3.601   1.236
 3334SOL    HW110901   3.261   3.504   1.257
 3334SOL    HW210902   3.190   3.637   1.193
 3335SOL     OW10903   4.835   5.398   5.869
 3335SOL    HW110904   4.767   5.416   5.797
 3335SOL    HW210905   4.835   5.301   5.891
 3336SOL     OW10906   2.943   5.301   5.009
 3336SOL    HW110907   2.888   5.290   5.091
 3336SOL    HW210908   3.040   5.304   5.033
 3337SOL     OW10909   3.015   3.678   2.073
 3337SOL    HW110910   2.951   3.669   1.996
 3337SOL    HW210911   3.101   3.717   2.039
 3338SOL     OW10912   5.785   3.199   1.317
 3338SOL    HW110913   5.756   3.194   1.222
 3338SOL    HW210914   5.881   3.225   1.321
 3339SOL     OW10915   6.445   0.039   6.956
 3339SOL    HW110916   6.454   6.963   6.981
 3339SOL    HW210917   6.471   0.052   6.861
 3340SOL     OW10918   3.628   0.149   0.997
 3340SOL    HW110919   3.631   0.100   0.910
 3340SOL    HW210920   3.625   0.247   0.980
 3341SOL     OW10921   0.806   5.985   3.881
 3341SOL    HW110922   0.893   5.946   3.910
 3341SOL    HW210923   0.744   5.989   3.959
 3342SOL     OW10924   2.798   6.707   4.062
 3342SOL    HW110925   2.817   6.753   4.149
 3342SOL    HW210926   2.812   6.771   3.986
 3343SOL     OW10927   4.655   3.137   0.958
 3343SOL    HW110928   4.665   3.037   0.955
 3343SOL    HW210929   4.560   3.161   0.943
 3344SOL     OW10930   6.121   3.187   4.450
 3344SOL    HW110931   6.101   3.097   4.491
 3344SOL    HW210932   6.040   3.220   4.403
 3345SOL     OW10933   1.485   3.958   5.453
 3345SOL    HW110934   1.554   4.022   5.419
 3345SOL    HW210935   1.460   3.983   5.546
 3346SOL     OW10936   1.656   0.914   1.053
 3346SOL    HW110937   1.713   0.993   1.075
 3346SOL    HW210938   1.644   0.907   0.954
 3347SOL     OW10939   0.574   4.674   4.134
 3347SOL    HW110940   0.621   4.744   4.188
 3347SOL    HW210941   0.625   4.655   4.051
 3348SOL     OW10942   2.941   3.235   3.589
 3348SOL    HW110943   2.994   3.153   3.609
 3348SOL    HW210944   2.895   3.267   3.672
 3349SOL     OW10945   0.536   5.180   4.323
 3349SOL    HW110946   0.528   5.124   4.240
 3349SOL    HW210947   0.478   5.141   4.395
 3350SOL     OW10948   1.007   2.308   5.681
 3350SOL    HW110949   1.049   2.383   5.731
 3350SOL    HW210950   1.078   2.252   5.638
 3351SOL     OW10951   5.494   0.204   3.147
 3351SOL    HW110952   5.445   0.171   3.066
 3351SOL    HW210953   5.505   0.129   3.212
 3352SOL     OW10954   0.370   2.906   0.429
 3352SOL    HW110955   0.429   2.829   0.454
 3352SOL    HW210956   0.383   2.981   0.495
 3353SOL     OW10957   1.406   6.519   2.278
 3353SOL    HW110958   1.478   6.499   2.212
 3353SOL    HW210959   1.323   6.468   2.254
 3354SOL     OW10960   5.331   2.648   4.540
 3354SOL    HW110961   5.342   2.548   4.545
 3354SOL    HW210962   5.409   2.692   4.585
 3355SOL     OW10963   1.499   1.709   0.388
 3355SOL    HW110964   1.575   1.766   0.418
 3355SOL    HW210965   1.455   1.751   0.309
 3356SOL     OW10966   2.243   3.820   6.539
 3356SOL    HW110967   2.161   3.850   6.490
 3356SOL    HW210968   2.281   3.740   6.494
 3357SOL     OW10969   2.633   4.741   1.805
 3357SOL    HW110970   2.708   4.700   1.856
 3357SOL    HW210971   2.563   4.671   1.787
 3358SOL     OW10972   4.949   0.299   1.372
 3358SOL    HW110973   4.958   0.331   1.277
 3358SOL    HW210974   5.028   0.330   1.424
 3359SOL     OW10975   6.705   0.506   3.700
 3359SOL    HW110976   6.612   0.478   3.675
 3359SOL    HW210977   6.742   0.440   3.766
 3360SOL     OW10978   0.493   1.150   6.868
 3360SOL    HW110979   0.508   1.142   6.967
 3360SOL    HW210980   0.562   1.209   6.828
 3361SOL     OW10981   0.392   4.380   2.726
 3361SOL    HW110982   0.475   4.337   2.763
 3361SOL    HW210983   0.350   4.437   2.796
 3362SOL     OW10984   3.833   1.891   3.951
 3362SOL    HW110985   3.901   1.964   3.956
 3362SOL    HW210986   3.754   1.922   3.898
 3363SOL     OW10987   0.704   0.334   0.266
 3363SOL    HW110988   0.716   0.265   0.338
 3363SOL    HW210989   0.775   0.323   0.197
 3364SOL     OW10990   0.941   4.299   4.496
 3364SOL    HW110991   0.948   4.199   4.487
 3364SOL    HW210992   0.986   4.328   4.581
 3365SOL     OW10993   0.572   2.625   5.095
 3365SOL    HW110994   0.670   2.642   5.082
 3365SOL    HW210995   0.520   2.705   5.065
 3366SOL     OW10996   6.065   0.487   6.115
 3366SOL    HW110997   5.987   0.477   6.176
 3366SOL    HW210998   6.037   0.466   6.021
 3367SOL     OW10999   2.714   2.871   1.172
 3367SOL    HW111000   2.717   2.970   1.183
 3367SOL    HW211001   2.807   2.835   1.167
 3368SOL     OW11002   0.627   5.893   6.135
 3368SOL    HW111003   0.595   5.940   6.053
 3368SOL    HW211004   0.578   5.928   6.215
 3369SOL     OW11005   3.389   2.425   5.657
 3369SOL    HW111006   3.421   2.383   5.573
 3369SOL    HW211007   3.399   2.525   5.650
 3370SOL     OW11008   6.785   6.112   6.024
 3370SOL    HW111009   6.844   6.171   6.080
 3370SOL    HW211010   6.773   6.153   5.934
 3371SOL     OW11011   0.806   4.073   2.454
 3371SOL    HW111012   0.855   4.150   2.414
 3371SOL    HW211013   0.871   4.010   2.497
 3372SOL     OW11014   0.526   1.096   1.706
 3372SOL    HW111015   0.487   1.005   1.692
 3372SOL    HW211016   0.608   1.107   1.651
 3373SOL     OW11017   6.772   0.914   2.632
 3373SOL    HW111018   6.708   0.838   2.625
 3373SOL    HW211019   6.865   0.878   2.638
 3374SOL     OW11020   2.605   6.006   4.808
 3374SOL    HW111021   2.654   5.960   4.882
 3374SOL    HW211022   2.510   5.975   4.807
 3375SOL     OW11023   4.851   4.954   6.304
 3375SOL    HW111024   4.938   4.905   6.315
 3375SOL    HW211025   4.869   5.052   6.292
 3376SOL     OW11026   3.683   3.321   3.186
 3376SOL    HW111027   3.756   3.337   3.252
 3376SOL    HW211028   3.635   3.407   3.169
 3377SOL     OW11029   6.966   6.479   4.553
 3377SOL    HW111030   6.954   6.529   4.639
 3377SOL    HW211031   0.041   6.446   4.548
 3378SOL     OW11032   6.337   0.971   0.376
 3378SOL    HW111033   6.287   0.886   0.359
 3378SOL    HW211034   6.293   1.046   0.327
 3379SOL     OW11035   0.084   5.349   6.246
 3379SOL    HW111036   0.112   5.279   6.180
 3379SOL    HW211037   0.061   5.305   6.333
 3380SOL     OW11038   5.699   6.446   6.260
 3380SOL    HW111039   5.762   6.493   6.321
 3380SOL    HW211040   5.628   6.400   6.314
 3381SOL     OW11041   1.229   2.849   0.994
 3381SOL    HW111042   1.324   2.842   1.025
 3381SOL    HW211043   1.218   2.797   0.910
 3382SOL     OW11044   0.860   0.678   0.474
 3382SOL    HW111045   0.941   0.619   0.475
 3382SOL    HW211046   0.831   0.697   0.568
 3383SOL     OW11047   4.427   5.575   3.153
 3383SOL    HW111048   4.447   5.505   3.221
 3383SOL    HW211049   4.505   5.638   3.146
 3384SOL     OW11050   2.797   3.376   5.376
 3384SOL    HW111051   2.734   3.416   5.443
 3384SOL    HW211052   2.765   3.284   5.351
 3385SOL     OW11053   0.216   4.142   3.782
 3385SOL    HW111054   0.202   4.131   3.683
 3385SOL    HW211055   0.137   4.188   3.822
 3386SOL     OW11056   6.442   3.796   6.366
 3386SOL    HW111057   6.429   3.884   6.412
 3386SOL    HW211058   6.508   3.741   6.418
 3387SOL     OW11059   2.772   1.157   3.231
 3387SOL    HW111060   2.771   1.093   3.308
 3387SOL    HW211061   2.807   1.112   3.150
 3388SOL     OW11062   5.752   3.473   1.924
 3388SOL    HW111063   5.711   3.400   1.978
 3388SOL    HW211064   5.771   3.441   1.832
 3389SOL     OW11065   4.844   5.179   4.897
 3389SOL    HW111066   4.750   5.182   4.865
 3389SOL    HW211067   4.846   5.155   4.994
 3390SOL     OW11068   5.395   4.655   5.548
 3390SOL    HW111069   5.302   4.647   5.510
 3390SOL    HW211070   5.433   4.744   5.525
 3391SOL     OW11071   5.450   2.781   4.771
 3391SOL    HW111072   5.539   2.739   4.789
 3391SOL    HW211073   5.393   2.774   4.853
 3392SOL     OW11074   2.693   0.197   3.805
 3392SOL    HW111075   2.717   0.281   3.855
 3392SOL    HW211076   2.655   0.130   3.869
 3393SOL     OW11077   0.216   6.531   0.319
 3393SOL    HW111078   0.226   6.455   0.384
 3393SOL    HW211079   0.303   6.545   0.271
 3394SOL     OW11080   5.843   2.958   0.728
 3394SOL    HW111081   5.776   2.977   0.799
 3394SOL    HW211082   5.889   2.871   0.748
 3395SOL     OW11083   6.085   3.457   3.512
 3395SOL    HW111084   5.988   3.438   3.499
 3395SOL    HW211085   6.129   3.467   3.423
 3396SOL     OW11086   5.998   2.097   3.265
 3396SOL    HW111087   5.919   2.094   3.327
 3396SOL    HW211088   5.966   2.092   3.170
 3397SOL     OW11089   2.831   1.319   5.367
 3397SOL    HW111090   2.735   1.292   5.376
 3397SOL    HW211091   2.889   1.250   5.410
 3398SOL     OW11092   1.212   6.586   3.967
 3398SOL    HW111093   1.197   6.489   3.944
 3398SOL    HW211094   1.128   6.637   3.949
 3399SOL     OW11095   5.588   4.413   5.087
 3399SOL    HW111096   5.651   4.348   5.045
 3399SOL    HW211097   5.500   4.410   5.038
 3400SOL     OW11098   4.702   1.818   5.878
 3400SOL    HW111099   4.679   1.783   5.787
 3400SOL    HW211100   4.695   1.744   5.945
 3401SOL     OW11101   6.922   3.244   0.781
 3401SOL    HW111102   6.827   3.273   0.777
 3401SOL    HW211103   6.936   3.166   0.720
 3402SOL     OW11104   4.222   6.151   0.652
 3402SOL    HW111105   4.176   6.203   0.724
 3402SOL    HW211106   4.277   6.213   0.596
 3403SOL     OW11107   4.110   0.040   5.036
 3403SOL    HW111108   4.182   7.018   4.980
 3403SOL    HW211109   4.152   0.103   5.101
 3404SOL     OW11110   5.712   1.786   6.391
 3404SOL    HW111111   5.720   1.818   6.485
 3404SOL    HW211112   5.745   1.856   6.328
 3405SOL     OW11113   6.568   4.470   4.361
 3405SOL    HW111114   6.485   4.418   4.339
 3405SOL    HW211115   6.639   4.449   4.294
 3406SOL     OW11116   0.691   4.388   2.475
 3406SOL    HW111117   0.767   4.453   2.471
 3406SOL    HW211118   0.722   4.297   2.449
 3407SOL     OW11119   1.406   5.342   0.047
 3407SOL    HW111120   1.457   5.286   0.112
 3407SOL    HW211121   1.428   5.313   6.974
 3408SOL     OW11122   5.102   3.915   4.819
 3408SOL    HW111123   5.192   3.910   4.863
 3408SOL    HW211124   5.030   3.912   4.889
 3409SOL     OW11125   3.586   6.247   6.206
 3409SOL    HW111126   3.676   6.290   6.191
 3409SOL    HW211127   3.591   6.152   6.177
 3410SOL     OW11128   6.711   5.747   0.063
 3410SOL    HW111129   6.757   5.803   0.131
 3410SOL    HW211130   6.755   5.758   6.994
 3411SOL     OW11131   0.442   2.459   1.909
 3411SOL    HW111132   0.374   2.424   1.844
 3411SOL    HW211133   0.471   2.551   1.881
 3412SOL     OW11134   4.654   2.682   6.431
 3412SOL    HW111135   4.640   2.671   6.529
 3412SOL    HW211136   4.682   2.776   6.412
 3413SOL     OW11137   5.471   0.894   2.279
 3413SOL    HW111138   5.571   0.894   2.276
 3413SOL    HW211139   5.439   0.948   2.357
 3414SOL     OW11140   1.968   0.868   5.930
 3414SOL    HW111141   1.999   0.810   5.854
 3414SOL    HW211142   2.034   0.941   5.944
 3415SOL     OW11143   1.748   4.282   4.682
 3415SOL    HW111144   1.801   4.303   4.764
 3415SOL    HW211145   1.766   4.187   4.654
 3416SOL     OW11146   6.949   5.470   0.324
 3416SOL    HW111147   6.975   5.499   0.415
 3416SOL    HW211148   6.980   5.377   0.308
 3417SOL     OW11149   0.690   5.870   3.662
 3417SOL    HW111150   0.741   5.785   3.651
 3417SOL    HW211151   0.728   5.922   3.739
 3418SOL     OW11152   4.121   6.939   5.282
 3418SOL    HW111153   4.124   6.841   5.263
 3418SOL    HW211154   4.097   6.988   5.199
 3419SOL     OW11155   3.863   5.170   4.640
 3419SOL    HW111156   3.814   5.161   4.726
 3419SOL    HW211157   3.832   5.252   4.592
 3420SOL     OW11158   5.211   3.258   3.506
 3420SOL    HW111159   5.262   3.186   3.458
 3420SOL    HW211160   5.186   3.226   3.597
 3421SOL     OW11161   5.901   0.864   6.370
 3421SOL    HW111162   5.849   0.882   6.286
 3421SOL    HW211163   5.998   0.878   6.352
 3422SOL     OW11164   1.756   6.528   1.150
 3422SOL    HW111165   1.749   6.435   1.115
 3422SOL    HW211166   1.738   6.528   1.248
 3423SOL     OW11167   2.143   6.339   0.519
 3423SOL    HW111168   2.227   6.391   0.531
 3423SOL    HW211169   2.164   6.242   0.511
 3424SOL     OW11170   2.933   0.092   2.319
 3424SOL    HW111171   2.951   0.014   2.379
 3424SOL    HW211172   2.842   0.083   2.280
 3425SOL     OW11173   5.609   3.962   2.353
 3425SOL    HW111174   5.604   3.953   2.452
 3425SOL    HW211175   5.518   3.947   2.314
 3426SOL     OW11176   3.330   2.935   0.013
 3426SOL    HW111177   3.383   3.018   7.013
 3426SOL    HW211178   3.263   2.919   6.960
 3427SOL     OW11179   6.404   6.434   0.074
 3427SOL    HW111180   6.501   6.457   0.075
 3427SOL    HW211181   6.350   6.518   0.065
 3428SOL     OW11182   3.052   5.097   1.234
 3428SOL    HW111183   3.085   5.054   1.318
 3428SOL    HW211184   2.952   5.101   1.237
 3429SOL     OW11185   0.702   1.600   6.883
 3429SOL    HW111186   0.776   1.548   6.924
 3429SOL    HW211187   0.663   1.663   6.950
 3430SOL     OW11188   0.001   6.520   5.226
 3430SOL    HW111189   6.996   6.489   5.134
 3430SOL    HW211190   0.096   6.550   5.227
 3431SOL     OW11191   2.005   6.593   1.113
 3431SOL    HW111192   1.907   6.576   1.124
 3431SOL    HW211193   2.039   6.648   1.189
 3432SOL     OW11194   2.389   2.829   6.645
 3432SOL    HW111195   2.410   2.910   6.701
 3432SOL    HW211196   2.402   2.747   6.699
 3433SOL     OW11197   1.034   6.775   6.435
 3433SOL    HW111198   1.083   6.856   6.467
 3433SOL    HW211199   1.027   6.709   6.510
 3434SOL     OW11200   4.312   2.090   0.557
 3434SOL    HW111201   4.219   2.126   0.560
 3434SOL    HW211202   4.309   1.990   0.552
 3435SOL     OW11203   1.201   1.632   1.180
 3435SOL    HW111204   1.169   1.551   1.228
 3435SOL    HW211205   1.172   1.628   1.085
 3436SOL     OW11206   3.456   6.239   5.658
 3436SOL    HW111207   3.384   6.259   5.592
 3436SOL    HW211208   3.529   6.307   5.651
 3437SOL     OW11209   3.248   0.692   6.026
 3437SOL    HW111210   3.319   0.623   6.038
 3437SOL    HW211211   3.195   0.699   6.111
 3438SOL     OW11212   1.395   2.418   0.596
 3438SOL    HW111213   1.303   2.454   0.578
 3438SOL    HW211214   1.439   2.475   0.665
 3439SOL     OW11215   1.911   6.113   5.512
 3439SOL    HW111216   1.987   6.079   5.455
 3439SOL    HW211217   1.941   6.193   5.564
 3440SOL     OW11218   4.060   3.164   1.957
 3440SOL    HW111219   4.056   3.233   2.029
 3440SOL    HW211220   4.019   3.079   1.990
 3441SOL     OW11221   5.126   6.846   3.810
 3441SOL    HW111222   5.149   6.809   3.900
 3441SOL    HW211223   5.167   6.937   3.800
 3442SOL     OW11224   2.796   4.787   2.895
 3442SOL    HW111225   2.736   4.865   2.879
 3442SOL    HW211226   2.892   4.815   2.882
 3443SOL     OW11227   5.491   0.249   1.986
 3443SOL    HW111228   5.428   0.279   1.914
 3443SOL    HW211229   5.469   0.156   2.013
 3444SOL     OW11230   5.265   5.345   0.598
 3444SOL    HW111231   5.216   5.266   0.634
 3444SOL    HW211232   5.296   5.326   0.505
 3445SOL     OW11233   5.950   5.580   4.722
 3445SOL    HW111234   5.950   5.480   4.712
 3445SOL    HW211235   6.043   5.611   4.742
 3446SOL     OW11236   6.180   0.708   2.475
 3446SOL    HW111237   6.168   0.717   2.376
 3446SOL    HW211238   6.173   0.798   2.518
 3447SOL     OW11239   5.103   5.340   1.214
 3447SOL    HW111240   5.133   5.376   1.303
 3447SOL    HW211241   5.177   5.285   1.174
 3448SOL     OW11242   3.259   0.210   0.520
 3448SOL    HW111243   3.294   0.296   0.556
 3448SOL    HW211244   3.210   0.227   0.434
 3449SOL     OW11245   6.505   6.914   3.561
 3449SOL    HW111246   6.493   6.838   3.626
 3449SOL    HW211247   6.415   6.948   3.534
 3450SOL     OW11248   0.584   2.720   6.743
 3450SOL    HW111249   0.510   2.775   6.704
 3450SOL    HW211250   0.545   2.641   6.790
 3451SOL     OW11251   1.317   5.655   2.943
 3451SOL    HW111252   1.237   5.698   2.986
 3451SOL    HW211253   1.390   5.723   2.932
 3452SOL     OW11254   6.145   1.683   6.484
 3452SOL    HW111255   6.202   1.748   6.535
 3452SOL    HW211256   6.070   1.651   6.541
 3453SOL     OW11257   6.972   5.932   6.357
 3453SOL    HW111258   6.884   5.904   6.317
 3453SOL    HW211259   0.025   5.920   6.289
 3454SOL     OW11260   1.358   1.255   6.624
 3454SOL    HW111261   1.359   1.300   6.713
 3454SOL    HW211262   1.389   1.319   6.554
 3455SOL     OW11263   2.316   2.692   4.257
 3455SOL    HW111264   2.312   2.656   4.351
 3455SOL    HW211265   2.243   2.760   4.245
 3456SOL     OW11266   5.271   5.713   2.305
 3456SOL    HW111267   5.359   5.730   2.261
 3456SOL    HW211268   5.285   5.666   2.392
 3457SOL     OW11269   2.584   5.724   3.998
 3457SOL    HW111270   2.667   5.772   4.029
 3457SOL    HW211271   2.584   5.631   4.034
 3458SOL     OW11272   4.492   6.965   0.655
 3458SOL    HW111273   4.487   6.928   0.562
 3458SOL    HW211274   4.554   0.023   0.656
 3459SOL     OW11275   6.474   4.049   2.858
 3459SOL    HW111276   6.389   4.043   2.908
 3459SOL    HW211277   6.551   4.047   2.922
 3460SOL     OW11278   2.343   2.908   0.094
 3460SOL    HW111279   2.246   2.902   0.070
 3460SOL    HW211280   2.364   3.001   0.125
 3461SOL     OW11281   4.349   6.157   4.698
 3461SOL    HW111282   4.312   6.085   4.639
 3461SOL    HW211283   4.434   6.192   4.659
 3462SOL     OW11284   0.537   3.533   2.061
 3462SOL    HW111285   0.611   3.598   2.077
 3462SOL    HW211286   0.471   3.573   1.998
 3463SOL     OW11287   1.330   3.285   3.209
 3463SOL    HW111288   1.311   3.247   3.299
 3463SOL    HW211289   1.425   3.316   3.205
 3464SOL     OW11290   6.740   3.023   6.578
 3464SOL    HW111291   6.738   2.954   6.650
 3464SOL    HW211292   6.647   3.054   6.559
 3465SOL     OW11293   0.790   2.771   2.118
 3465SOL    HW111294   0.719   2.833   2.085
 3465SOL    HW211295   0.879   2.799   2.081
 3466SOL     OW11296   6.546   5.123   6.745
 3466SOL    HW111297   6.562   5.081   6.834
 3466SOL    HW211298   6.632   5.160   6.710
 3467SOL     OW11299   2.197   1.893   0.934
 3467SOL    HW111300   2.201   1.915   1.032
 3467SOL    HW211301   2.282   1.922   0.890
 3468SOL     OW11302   5.563   0.900   2.825
 3468SOL    HW111303   5.589   0.841   2.901
 3468SOL    HW211304   5.505   0.849   2.761
 3469SOL     OW11305   4.685   0.633   4.249
 3469SOL    HW111306   4.615   0.625   4.177
 3469SOL    HW211307   4.645   0.679   4.328
 3470SOL     OW11308   0.297   2.125   1.531
 3470SOL    HW111309   0.373   2.123   1.466
 3470SOL    HW211310   0.213   2.151   1.483
 3471SOL     OW11311   4.578   4.390   4.540
 3471SOL    HW111312   4.534   4.303   4.521
 3471SOL    HW211313   4.590   4.401   4.639
 3472SOL     OW11314   2.784   1.449   2.911
 3472SOL    HW111315   2.877   1.416   2.896
 3472SOL    HW211316   2.759   1.512   2.837
 3473SOL     OW11317   0.117   2.197   2.037
 3473SOL    HW111318   0.088   2.257   1.962
 3473SOL    HW211319   0.057   2.211   2.115
 3474SOL     OW11320   0.253   4.480   2.947
 3474SOL    HW111321   0.154   4.494   2.943
 3474SOL    HW211322   0.272   4.392   2.991
 3475SOL     OW11323   1.245   4.207   3.759
 3475SOL    HW111324   1.209   4.126   3.712
 3475SOL    HW211325   1.189   4.227   3.839
 3476SOL     OW11326   2.132   1.944   2.517
 3476SOL    HW111327   2.134   2.036   2.557
 3476SOL    HW211328   2.097   1.948   2.424
 3477SOL     OW11329   1.937   5.032   0.753
 3477SOL    HW111330   1.928   4.956   0.817
 3477SOL    HW211331   1.953   5.116   0.804
 3478SOL     OW11332   2.258   5.380   5.788
 3478SOL    HW111333   2.232   5.439   5.865
 3478SOL    HW211334   2.177   5.335   5.752
 3479SOL     OW11335   0.969   0.700   2.771
 3479SOL    HW111336   1.001   0.776   2.714
 3479SOL    HW211337   1.006   0.614   2.736
 3480SOL     OW11338   6.642   5.645   4.574
 3480SOL    HW111339   6.723   5.591   4.598
 3480SOL    HW211340   6.603   5.685   4.658
 3481SOL     OW11341   5.266   0.522   0.256
 3481SOL    HW111342   5.281   0.619   0.274
 3481SOL    HW211343   5.220   0.511   0.168
 3482SOL     OW11344   6.099   1.177   2.100
 3482SOL    HW111345   6.121   1.235   2.022
 3482SOL    HW211346   6.079   1.084   2.068
 3483SOL     OW11347   5.009   2.179   1.617
 3483SOL    HW111348   5.081   2.149   1.680
 3483SOL    HW211349   4.962   2.259   1.655
 3484SOL     OW11350   0.618   2.555   0.648
 3484SOL    HW111351   0.575   2.612   0.717
 3484SOL    HW211352   0.605   2.596   0.558
 3485SOL     OW11353   1.687   1.748   4.349
 3485SOL    HW111354   1.636   1.758   4.434
 3485SOL    HW211355   1.779   1.787   4.361
 3486SOL     OW11356   2.599   0.428   3.481
 3486SOL    HW111357   2.599   0.334   3.446
 3486SOL    HW211358   2.506   0.465   3.478
 3487SOL     OW11359   6.699   2.121   0.456
 3487SOL    HW111360   6.752   2.086   0.379
 3487SOL    HW211361   6.676   2.046   0.518
 3488SOL     OW11362   6.579   0.747   4.973
 3488SOL    HW111363   6.624   0.826   4.931
 3488SOL    HW211364   6.575   0.760   5.072
 3489SOL     OW11365   3.865   0.412   1.984
 3489SOL    HW111366   3.853   0.470   2.064
 3489SOL    HW211367   3.783   0.414   1.928
 3490SOL     OW11368   3.921   4.086   1.068
 3490SOL    HW111369   3.829   4.125   1.064
 3490SOL    HW211370   3.976   4.140   1.132
 3491SOL     OW11371   4.720   2.646   5.858
 3491SOL    HW111372   4.683   2.573   5.800
 3491SOL    HW211373   4.667   2.651   5.942
 3492SOL     OW11374   6.463   4.401   0.816
 3492SOL    HW111375   6.559   4.431   0.817
 3492SOL    HW211376   6.440   4.369   0.724
 3493SOL     OW11377   4.738   4.174   4.794
 3493SOL    HW111378   4.677   4.248   4.822
 3493SOL    HW211379   4.731   4.098   4.859
 3494SOL     OW11380   3.118   1.186   2.150
 3494SOL    HW111381   3.122   1.174   2.249
 3494SOL    HW211382   3.177   1.119   2.106
 3495SOL     OW11383   5.927   4.677   1.559
 3495SOL    HW111384   6.026   4.689   1.566
 3495SOL    HW211385   5.893   4.726   1.479
 3496SOL     OW11386   6.128   5.201   0.905
 3496SOL    HW111387   6.117   5.300   0.897
 3496SOL    HW211388   6.217   5.181   0.945
 3497SOL     OW11389   2.426   0.964   4.088
 3497SOL    HW111390   2.338   0.975   4.136
 3497SOL    HW211391   2.501   0.971   4.154
 3498SOL     OW11392   3.244   1.692   1.217
 3498SOL    HW111393   3.151   1.728   1.225
 3498SOL    HW211394   3.251   1.634   1.136
 3499SOL     OW11395   5.731   3.941   4.410
 3499SOL    HW111396   5.810   3.989   4.447
 3499SOL    HW211397   5.725   3.957   4.311
 3500SOL     OW11398   2.126   3.264   4.632
 3500SOL    HW111399   2.151   3.203   4.707
 3500SOL    HW211400   2.143   3.359   4.658
 3501SOL     OW11401   2.523   5.773   5.741
 3501SOL    HW111402   2.599   5.708   5.739
 3501SOL    HW211403   2.453   5.745   5.676
 3502SOL     OW11404   6.788   2.321   1.790
 3502SOL    HW111405   6.760   2.228   1.766
 3502SOL    HW211406   6.740   2.350   1.873
 3503SOL     OW11407   6.014   6.256   4.809
 3503SOL    HW111408   5.916   6.274   4.816
 3503SOL    HW211409   6.058   6.332   4.761
 3504SOL     OW11410   2.645   0.921   2.328
 3504SOL    HW111411   2.641   0.904   2.229
 3504SOL    HW211412   2.694   1.006   2.345
 3505SOL     OW11413   5.530   4.440   5.626
 3505SOL    HW111414   5.566   4.387   5.549
 3505SOL    HW211415   5.497   4.528   5.592
 3506SOL     OW11416   4.859   4.989   5.645
 3506SOL    HW111417   4.934   4.927   5.670
 3506SOL    HW211418   4.852   5.062   5.713
 3507SOL     OW11419   2.394   0.738   1.145
 3507SOL    HW111420   2.404   0.836   1.163
 3507SOL    HW211421   2.452   0.686   1.208
 3508SOL     OW11422   2.066   1.959   6.164
 3508SOL    HW111423   2.165   1.947   6.172
 3508SOL    HW211424   2.020   1.905   6.236
 3509SOL     OW11425   4.988   0.558   6.691
 3509SOL    HW111426   5.024   0.651   6.683
 3509SOL    HW211427   5.053   0.495   6.649
 3510SOL     OW11428   1.143   1.280   2.174
 3510SOL    HW111429   1.046   1.262   2.158
 3510SOL    HW211430   1.198   1.211   2.128
 3511SOL     OW11431   2.144   4.915   1.082
 3511SOL    HW111432   2.225   4.856   1.078
 3511SOL    HW211433   2.071   4.875   1.026
 3512SOL     OW11434   0.659   4.628   0.650
 3512SOL    HW111435   0.687   4.538   0.618
 3512SOL    HW211436   0.646   4.689   0.572
 3513SOL     OW11437   5.429   2.306   6.774
 3513SOL    HW111438   5.373   2.343   6.848
 3513SOL    HW211439   5.383   2.322   6.686
 3514SOL     OW11440   6.818   1.782   1.899
 3514SOL    HW111441   6.906   1.735   1.894
 3514SOL    HW211442   6.791   1.793   1.995
 3515SOL     OW11443   4.412   5.865   3.587
 3515SOL    HW111444   4.511   5.873   3.579
 3515SOL    HW211445   4.368   5.916   3.513
 3516SOL     OW11446   5.200   6.828   1.005
 3516SOL    HW111447   5.144   6.851   0.925
 3516SOL    HW211448   5.170   6.883   1.083
 3517SOL     OW11449   1.423   2.222   1.453
 3517SOL    HW111450   1.476   2.252   1.373
 3517SOL    HW211451   1.445   2.281   1.531
 3518SOL     OW11452   5.354   2.817   4.267
 3518SOL    HW111453   5.370   2.742   4.204
 3518SOL    HW211454   5.321   2.782   4.354
 3519SOL     OW11455   1.572   0.564   6.184
 3519SOL    HW111456   1.644   0.587   6.119
 3519SOL    HW211457   1.606   0.494   6.248
 3520SOL     OW11458   3.202   5.344   6.661
 3520SOL    HW111459   3.235   5.274   6.599
 3520SOL    HW211460   3.175   5.302   6.748
 3521SOL     OW11461   5.209   2.093   0.215
 3521SOL    HW111462   5.296   2.117   0.258
 3521SOL    HW211463   5.181   2.002   0.246
 3522SOL     OW11464   6.745   4.613   1.177
 3522SOL    HW111465   6.661   4.571   1.210
 3522SOL    HW211466   6.748   4.608   1.077
 3523SOL     OW11467   1.326   4.629   6.200
 3523SOL    HW111468   1.379   4.553   6.163
 3523SOL    HW211469   1.320   4.621   6.299
 3524SOL     OW11470   4.765   1.794   2.169
 3524SOL    HW111471   4.774   1.696   2.153
 3524SOL    HW211472   4.724   1.837   2.089
 3525SOL     OW11473   0.483   4.642   2.956
 3525SOL    HW111474   0.389   4.607   2.960
 3525SOL    HW211475   0.547   4.567   2.974
 3526SOL     OW11476   2.152   6.802   3.987
 3526SOL    HW111477   2.065   6.779   4.030
 3526SOL    HW211478   2.135   6.857   3.905
 3527SOL     OW11479   5.688   3.400   6.450
 3527SOL    HW111480   5.629   3.421   6.372
 3527SOL    HW211481   5.645   3.330   6.506
 3528SOL     OW11482   1.246   6.330   5.252
 3528SOL    HW111483   1.300   6.327   5.168
 3528SOL    HW211484   1.302   6.299   5.329
 3529SOL     OW11485   3.814   0.475   6.617
 3529SOL    HW111486   3.852   0.418   6.690
 3529SOL    HW211487   3.762   0.550   6.657
 3530SOL     OW11488   6.926   5.064   2.307
 3530SOL    HW111489   6.916   5.121   2.388
 3530SOL    HW211490   0.001   5.065   2.277
 3531SOL     OW11491   5.148   3.414   0.385
 3531SOL    HW111492   5.176   3.413   0.289
 3531SOL    HW211493   5.075   3.347   0.400
 3532SOL     OW11494   2.979   0.449   1.843
 3532SOL    HW111495   2.998   0.360   1.802
 3532SOL    HW211496   2.891   0.445   1.891
 3533SOL     OW11497   1.528   1.746   2.806
 3533SOL    HW111498   1.534   1.830   2.752
 3533SOL    HW211499   1.443   1.746   2.858
 3534SOL     OW11500   6.613   1.930   0.639
 3534SOL    HW111501   6.559   1.851   0.612
 3534SOL    HW211502   6.557   1.991   0.695
 3535SOL     OW11503   1.546   6.046   0.745
 3535SOL    HW111504   1.598   6.128   0.767
 3535SOL    HW211505   1.487   6.022   0.822
 3536SOL     OW11506   2.608   1.943   3.116
 3536SOL    HW111507   2.614   1.962   3.214
 3536SOL    HW211508   2.530   1.992   3.077
 3537SOL     OW11509   3.360   6.154   2.031
 3537SOL    HW111510   3.442   6.146   2.086
 3537SOL    HW211511   3.385   6.165   1.934
 3538SOL     OW11512   1.540   7.016   6.345
 3538SOL    HW111513   1.501   6.961   6.420
 3538SOL    HW211514   1.524   6.970   6.258
 3539SOL     OW11515   4.986   3.323   5.842
 3539SOL    HW111516   4.890   3.335   5.817
 3539SOL    HW211517   5.040   3.308   5.759
 3540SOL     OW11518   2.324   1.945   5.643
 3540SOL    HW111519   2.352   1.998   5.563
 3540SOL    HW211520   2.399   1.887   5.673
 3541SOL     OW11521   1.874   2.287   6.336
 3541SOL    HW111522   1.843   2.195   6.359
 3541SOL    HW211523   1.974   2.290   6.333
 3542SOL     OW11524   1.947   5.252   2.920
 3542SOL    HW111525   1.857   5.218   2.945
 3542SOL    HW211526   2.014   5.222   2.988
 3543SOL     OW11527   0.891   2.476   4.364
 3543SOL    HW111528   0.906   2.454   4.268
 3543SOL    HW211529   0.977   2.506   4.405
 3544SOL     OW11530   2.846   4.182   6.500
 3544SOL    HW111531   2.883   4.090   6.512
 3544SOL    HW211532   2.899   4.230   6.430
 3545SOL     OW11533   4.427   5.445   0.426
 3545SOL    HW111534   4.359   5.377   0.453
 3545SOL    HW211535   4.499   5.400   0.373
 3546SOL     OW11536   1.288   4.403   4.128
 3546SOL    HW111537   1.338   4.403   4.214
 3546SOL    HW211538   1.310   4.320   4.077
 3547SOL     OW11539   6.545   4.946   4.423
 3547SOL    HW111540   6.600   4.863   4.434
 3547SOL    HW211541   6.566   4.989   4.336
 3548SOL     OW11542   5.591   1.680   5.701
 3548SOL    HW111543   5.611   1.691   5.798
 3548SOL    HW211544   5.636   1.598   5.667
 3549SOL     OW11545   6.687   5.404   5.850
 3549SOL    HW111546   6.693   5.435   5.755
 3549SOL    HW211547   6.604   5.349   5.862
 3550SOL     OW11548   6.499   2.632   2.690
 3550SOL    HW111549   6.410   2.671   2.668
 3550SOL    HW211550   6.538   2.678   2.769
 3551SOL     OW11551   3.577   0.867   1.937
 3551SOL    HW111552   3.642   0.834   1.869
 3551SOL    HW211553   3.492   0.813   1.931
 3552SOL     OW11554   5.360   6.143   2.727
 3552SOL    HW111555   5.442   6.142   2.784
 3552SOL    HW211556   5.373   6.084   2.647
 3553SOL     OW11557   4.776   4.421   1.168
 3553SOL    HW111558   4.781   4.520   1.155
 3553SOL    HW211559   4.859   4.390   1.214
 3554SOL     OW11560   4.827   2.359   0.867
 3554SOL    HW111561   4.753   2.292   0.859
 3554SOL    HW211562   4.806   2.438   0.811
 3555SOL     OW11563   1.077   4.523   4.214
 3555SOL    HW111564   1.157   4.474   4.178
 3555SOL    HW211565   1.036   4.577   4.142
 3556SOL     OW11566   4.247   1.581   3.793
 3556SOL    HW111567   4.239   1.670   3.747
 3556SOL    HW211568   4.184   1.516   3.752
 3557SOL     OW11569   1.065   0.575   4.152
 3557SOL    HW111570   1.015   0.660   4.171
 3557SOL    HW211571   1.153   0.577   4.201
 3558SOL     OW11572   1.829   6.367   1.699
 3558SOL    HW111573   1.733   6.375   1.725
 3558SOL    HW211574   1.876   6.454   1.712
 3559SOL     OW11575   0.342   6.452   5.524
 3559SOL    HW111576   0.395   6.427   5.443
 3559SOL    HW211577   0.247   6.423   5.511
 3560SOL     OW11578   0.529   5.420   1.676
 3560SOL    HW111579   0.627   5.399   1.676
 3560SOL    HW211580   0.490   5.395   1.587
 3561SOL     OW11581   3.924   4.639   5.282
 3561SOL    HW111582   3.830   4.609   5.296
 3561SOL    HW211583   3.984   4.559   5.282
 3562SOL     OW11584   5.020   0.657   3.288
 3562SOL    HW111585   5.107   0.689   3.251
 3562SOL    HW211586   4.952   0.653   3.214
 3563SOL     OW11587   5.858   2.125   6.890
 3563SOL    HW111588   5.795   2.048   6.897
 3563SOL    HW211589   5.807   2.208   6.868
 3564SOL     OW11590   1.738   4.500   3.824
 3564SOL    HW111591   1.639   4.495   3.835
 3564SOL    HW211592   1.766   4.445   3.746
 3565SOL     OW11593   3.063   5.622   5.263
 3565SOL    HW111594   3.017   5.671   5.189
 3565SOL    HW211595   3.140   5.677   5.297
 3566SOL     OW11596   6.516   3.508   5.489
 3566SOL    HW111597   6.543   3.578   5.422
 3566SOL    HW211598   6.430   3.465   5.460
 3567SOL     OW11599   0.565   3.340   0.254
 3567SOL    HW111600   0.487   3.384   0.210
 3567SOL    HW211601   0.537   3.302   0.342
 3568SOL     OW11602   5.003   5.709   4.100
 3568SOL    HW111603   4.937   5.750   4.164
 3568SOL    HW211604   5.064   5.647   4.149
 3569SOL     OW11605   2.695   2.217   6.204
 3569SOL    HW111606   2.720   2.264   6.120
 3569SOL    HW211607   2.613   2.259   6.242
 3570SOL     OW11608   5.261   0.680   5.184
 3570SOL    HW111609   5.298   0.606   5.129
 3570SOL    HW211610   5.243   0.760   5.126
 3571SOL     OW11611   1.091   0.160   5.087
 3571SOL    HW111612   1.186   0.130   5.095
 3571SOL    HW211613   1.043   0.145   5.173
 3572SOL     OW11614   5.614   3.229   3.031
 3572SOL    HW111615   5.702   3.271   3.010
 3572SOL    HW211616   5.608   3.140   2.985
 3573SOL     OW11617   6.731   4.250   3.325
 3573SOL    HW111618   6.742   4.347   3.303
 3573SOL    HW211619   6.804   4.221   3.387
 3574SOL     OW11620   0.492   2.795   1.050
 3574SOL    HW111621   0.467   2.857   1.125
 3574SOL    HW211622   0.555   2.725   1.085
 3575SOL     OW11623   5.124   6.081   2.941
 3575SOL    HW111624   5.192   6.095   2.869
 3575SOL    HW211625   5.087   6.170   2.969
 3576SOL     OW11626   0.825   2.231   6.760
 3576SOL    HW111627   0.876   2.293   6.820
 3576SOL    HW211628   0.881   2.210   6.679
 3577SOL     OW11629   1.807   2.397   6.667
 3577SOL    HW111630   1.850   2.483   6.641
 3577SOL    HW211631   1.769   2.352   6.586
 3578SOL     OW11632   4.777   1.210   0.836
 3578SOL    HW111633   4.822   1.252   0.915
 3578SOL    HW211634   4.687   1.176   0.864
 3579SOL     OW11635   6.652   2.238   2.900
 3579SOL    HW111636   6.677   2.192   2.985
 3579SOL    HW211637   6.586   2.311   2.919
 3580SOL     OW11638   5.965   3.139   0.601
 3580SOL    HW111639   5.917   3.070   0.655
 3580SOL    HW211640   6.055   3.157   0.642
 3581SOL     OW11641   0.646   5.064   3.408
 3581SOL    HW111642   0.713   4.991   3.397
 3581SOL    HW211643   0.683   5.134   3.470
 3582SOL     OW11644   1.239   3.803   6.048
 3582SOL    HW111645   1.189   3.803   5.961
 3582SOL    HW211646   1.182   3.763   6.119
 3583SOL     OW11647   1.574   4.397   6.691
 3583SOL    HW111648   1.665   4.359   6.711
 3583SOL    HW211649   1.583   4.470   6.624
 3584SOL     OW11650   5.999   4.455   5.727
 3584SOL    HW111651   6.004   4.356   5.714
 3584SOL    HW211652   5.922   4.492   5.674
 3585SOL     OW11653   2.950   2.249   4.582
 3585SOL    HW111654   2.920   2.305   4.505
 3585SOL    HW211655   2.873   2.234   4.644
 3586SOL     OW11656   6.086   1.739   4.810
 3586SOL    HW111657   6.067   1.698   4.900
 3586SOL    HW211658   6.143   1.820   4.822
 3587SOL     OW11659   2.037   5.318   5.631
 3587SOL    HW111660   1.981   5.387   5.587
 3587SOL    HW211661   2.019   5.229   5.591
 3588SOL     OW11662   0.265   3.123   5.154
 3588SOL    HW111663   0.233   3.034   5.187
 3588SOL    HW211664   0.364   3.129   5.166
 3589SOL     OW11665   5.955   0.699   5.709
 3589SOL    HW111666   5.938   0.704   5.611
 3589SOL    HW211667   5.885   0.751   5.758
 3590SOL     OW11668   0.126   3.348   0.323
 3590SOL    HW111669   0.133   3.387   0.231
 3590SOL    HW211670   0.107   3.250   0.316
 3591SOL     OW11671   5.746   3.522   0.168
 3591SOL    HW111672   5.839   3.513   0.203
 3591SOL    HW211673   5.747   3.580   0.087
 3592SOL     OW11674   0.522   6.387   2.327
 3592SOL    HW111675   0.542   6.305   2.274
 3592SOL    HW211676   0.452   6.442   2.281
 3593SOL     OW11677   0.911   4.495   5.861
 3593SOL    HW111678   1.001   4.529   5.887
 3593SOL    HW211679   0.919   4.400   5.829
 3594SOL     OW11680   4.570   0.161   3.293
 3594SOL    HW111681   4.503   0.232   3.272
 3594SOL    HW211682   4.659   0.186   3.254
 3595SOL     OW11683   5.189   5.639   6.721
 3595SOL    HW111684   5.192   5.601   6.628
 3595SOL    HW211685   5.100   5.681   6.737
 3596SOL     OW11686   4.859   3.287   3.282
 3596SOL    HW111687   4.895   3.285   3.188
 3596SOL    HW211688   4.848   3.193   3.314
 3597SOL     OW11689   2.139   2.323   5.718
 3597SOL    HW111690   2.127   2.374   5.633
 3597SOL    HW211691   2.218   2.359   5.768
 3598SOL     OW11692   1.780   6.532   5.937
 3598SOL    HW111693   1.779   6.460   6.006
 3598SOL    HW211694   1.758   6.494   5.848
 3599SOL     OW11695   4.798   1.911   0.347
 3599SOL    HW111696   4.741   1.857   0.286
 3599SOL    HW211697   4.775   2.008   0.338
 3600SOL     OW11698   0.983   2.625   2.632
 3600SOL    HW111699   1.082   2.636   2.627
 3600SOL    HW211700   0.941   2.663   2.549
 3601SOL     OW11701   5.217   2.604   6.003
 3601SOL    HW111702   5.157   2.599   5.923
 3601SOL    HW211703   5.161   2.602   6.087
 3602SOL     OW11704   1.605   4.006   0.730
 3602SOL    HW111705   1.648   3.972   0.646
 3602SOL    HW211706   1.669   3.997   0.806
 3603SOL     OW11707   3.657   0.850   3.987
 3603SOL    HW111708   3.662   0.806   4.077
 3603SOL    HW211709   3.561   0.863   3.962
 3604SOL     OW11710   7.014   6.724   3.481
 3604SOL    HW111711   6.951   6.748   3.407
 3604SOL    HW211712   0.053   6.650   3.452
 3605SOL     OW11713   0.769   4.600   3.938
 3605SOL    HW111714   0.860   4.636   3.957
 3605SOL    HW211715   0.772   4.500   3.940
 3606SOL     OW11716   0.561   6.597   4.356
 3606SOL    HW111717   0.660   6.581   4.352
 3606SOL    HW211718   0.537   6.636   4.445
 3607SOL     OW11719   5.462   4.563   2.168
 3607SOL    HW111720   5.449   4.579   2.266
 3607SOL    HW211721   5.399   4.620   2.116
 3608SOL     OW11722   4.611   1.768   4.640
 3608SOL    HW111723   4.588   1.672   4.622
 3608SOL    HW211724   4.699   1.773   4.689
 3609SOL     OW11725   1.799   0.062   4.652
 3609SOL    HW111726   1.841   0.147   4.621
 3609SOL    HW211727   1.742   0.079   4.732
 3610SOL     OW11728   1.625   0.351   6.347
 3610SOL    HW111729   1.670   0.344   6.436
 3610SOL    HW211730   1.673   0.294   6.281
 3611SOL     OW11731   4.579   5.321   4.159
 3611SOL    HW111732   4.600   5.229   4.192
 3611SOL    HW211733   4.639   5.387   4.205
 3612SOL     OW11734   0.574   0.636   6.753
 3612SOL    HW111735   0.557   0.608   6.848
 3612SOL    HW211736   0.585   0.735   6.750
 3613SOL     OW11737   4.771   4.587   2.305
 3613SOL    HW111738   4.832   4.659   2.271
 3613SOL    HW211739   4.740   4.611   2.397
 3614SOL     OW11740   3.586   3.610   0.808
 3614SOL    HW111741   3.634   3.546   0.867
 3614SOL    HW211742   3.552   3.687   0.863
 3615SOL     OW11743   5.252   2.920   6.032
 3615SOL    HW111744   5.308   2.963   5.962
 3615SOL    HW211745   5.188   2.857   5.989
 3616SOL     OW11746   0.766   0.703   6.220
 3616SOL    HW111747   0.735   0.780   6.276
 3616SOL    HW211748   0.860   0.680   6.245
 3617SOL     OW11749   4.347   1.052   6.194
 3617SOL    HW111750   4.289   0.977   6.226
 3617SOL    HW211751   4.295   1.137   6.198
 3618SOL     OW11752   2.432   3.051   5.456
 3618SOL    HW111753   2.470   3.025   5.368
 3618SOL    HW211754   2.442   3.150   5.469
 3619SOL     OW11755   6.068   2.870   6.027
 3619SOL    HW111756   6.025   2.803   5.967
 3619SOL    HW211757   6.083   2.955   5.977
 3620SOL     OW11758   5.911   5.711   5.480
 3620SOL    HW111759   5.961   5.704   5.567
 3620SOL    HW211760   5.820   5.749   5.498
 3621SOL     OW11761   2.932   3.438   4.748
 3621SOL    HW111762   2.885   3.489   4.676
 3621SOL    HW211763   3.003   3.381   4.709
 3622SOL     OW11764   1.758   1.030   0.244
 3622SOL    HW111765   1.710   1.042   0.158
 3622SOL    HW211766   1.834   1.094   0.250
 3623SOL     OW11767   6.660   6.123   4.307
 3623SOL    HW111768   6.748   6.144   4.348
 3623SOL    HW211769   6.627   6.035   4.341
 3624SOL     OW11770   1.575   0.057   2.627
 3624SOL    HW111771   1.546   0.131   2.568
 3624SOL    HW211772   1.509   0.047   2.702
 3625SOL     OW11773   0.748   3.567   6.040
 3625SOL    HW111774   0.832   3.563   6.095
 3625SOL    HW211775   0.672   3.595   6.098
 3626SOL     OW11776   0.525   3.128   5.603
 3626SOL    HW111777   0.506   3.053   5.539
 3626SOL    HW211778   0.622   3.127   5.628
 3627SOL     OW11779   4.154   2.997   1.506
 3627SOL    HW111780   4.252   3.009   1.492
 3627SOL    HW211781   4.138   2.949   1.592
 3628SOL     OW11782   0.859   1.682   1.843
 3628SOL    HW111783   0.941   1.700   1.788
 3628SOL    HW211784   0.831   1.765   1.890
 3629SOL     OW11785   0.424   0.140   5.542
 3629SOL    HW111786   0.375   0.124   5.456
 3629SOL    HW211787   0.396   0.229   5.580
 3630SOL     OW11788   5.694   2.600   3.582
 3630SOL    HW111789   5.654   2.584   3.491
 3630SOL    HW211790   5.785   2.561   3.585
 3631SOL     OW11791   1.874   0.160   2.632
 3631SOL    HW111792   1.894   0.253   2.601
 3631SOL    HW211793   1.776   0.143   2.624
 3632SOL     OW11794   5.140   4.930   0.752
 3632SOL    HW111795   5.112   5.020   0.720
 3632SOL    HW211796   5.229   4.936   0.796
 3633SOL     OW11797   4.180   2.591   6.073
 3633SOL    HW111798   4.269   2.549   6.058
 3633SOL    HW211799   4.144   2.624   5.986
 3634SOL     OW11800   2.323   5.811   6.151
 3634SOL    HW111801   2.247   5.860   6.194
 3634SOL    HW211802   2.383   5.774   6.222
 3635SOL     OW11803   2.769   0.858   1.140
 3635SOL    HW111804   2.866   0.853   1.162
 3635SOL    HW211805   2.743   0.780   1.082
 3636SOL     OW11806   6.458   5.543   0.951
 3636SOL    HW111807   6.435   5.505   0.861
 3636SOL    HW211808   6.501   5.472   1.007
 3637SOL     OW11809   0.527   2.232   1.392
 3637SOL    HW111810   0.600   2.185   1.342
 3637SOL    HW211811   0.550   2.236   1.489
 3638SOL     OW11812   6.936   4.101   2.551
 3638SOL    HW111813   6.854   4.139   2.509
 3638SOL    HW211814   6.986   4.174   2.598
 3639SOL     OW11815   4.535   4.991   0.114
 3639SOL    HW111816   4.592   5.066   0.081
 3639SOL    HW211817   4.580   4.946   0.191
 3640SOL     OW11818   5.023   1.665   0.490
 3640SOL    HW111819   5.066   1.722   0.560
 3640SOL    HW211820   5.094   1.613   0.442
 3641SOL     OW11821   6.420   3.664   1.595
 3641SOL    HW111822   6.479   3.626   1.523
 3641SOL    HW211823   6.325   3.659   1.566
 3642SOL     OW11824   4.617   2.381   0.000
 3642SOL    HW111825   4.595   2.288   0.031
 3642SOL    HW211826   4.578   2.395   6.929
 3643SOL     OW11827   3.856   6.072   4.922
 3643SOL    HW111828   3.923   6.094   4.993
 3643SOL    HW211829   3.781   6.020   4.962
 3644SOL     OW11830   2.298   1.500   1.745
 3644SOL    HW111831   2.277   1.544   1.657
 3644SOL    HW211832   2.397   1.494   1.756
 3645SOL     OW11833   1.629   2.821   4.492
 3645SOL    HW111834   1.727   2.835   4.474
 3645SOL    HW211835   1.602   2.875   4.571
 3646SOL     OW11836   1.380   4.028   5.684
 3646SOL    HW111837   1.407   4.098   5.749
 3646SOL    HW211838   1.280   4.022   5.681
 3647SOL     OW11839   2.491   5.860   6.866
 3647SOL    HW111840   2.579   5.814   6.860
 3647SOL    HW211841   2.470   5.881   6.962
 3648SOL     OW11842   5.000   5.908   3.783
 3648SOL    HW111843   5.072   5.900   3.852
 3648SOL    HW211844   4.939   5.984   3.808
 3649SOL     OW11845   6.183   3.218   0.203
 3649SOL    HW111846   6.104   3.247   0.256
 3649SOL    HW211847   6.161   3.222   0.106
 3650SOL     OW11848   5.913   5.106   1.517
 3650SOL    HW111849   5.878   5.188   1.472
 3650SOL    HW211850   5.995   5.073   1.469
 3651SOL     OW11851   1.993   0.737   4.868
 3651SOL    HW111852   1.964   0.790   4.948
 3651SOL    HW211853   1.914   0.689   4.830
 3652SOL     OW11854   6.211   6.716   3.403
 3652SOL    HW111855   6.245   6.798   3.448
 3652SOL    HW211856   6.112   6.723   3.391
 3653SOL     OW11857   1.522   1.106   3.010
 3653SOL    HW111858   1.542   1.196   2.970
 3653SOL    HW211859   1.598   1.044   2.993
 3654SOL     OW11860   4.525   5.682   0.491
 3654SOL    HW111861   4.463   5.606   0.475
 3654SOL    HW211862   4.580   5.664   0.573
 3655SOL     OW11863   3.366   0.809   3.893
 3655SOL    HW111864   3.323   0.741   3.952
 3655SOL    HW211865   3.312   0.892   3.894
 3656SOL     OW11866   0.661   5.261   1.345
 3656SOL    HW111867   0.637   5.211   1.428
 3656SOL    HW211868   0.685   5.355   1.369
 3657SOL     OW11869   4.768   5.440   4.704
 3657SOL    HW111870   4.865   5.444   4.729
 3657SOL    HW211871   4.713   5.458   4.785
 3658SOL     OW11872   2.282   4.959   6.752
 3658SOL    HW111873   2.376   4.968   6.720
 3658SOL    HW211874   2.276   4.992   6.847
 3659SOL     OW11875   1.507   2.287   5.940
 3659SOL    HW111876   1.545   2.199   5.965
 3659SOL    HW211877   1.552   2.322   5.858
 3660SOL     OW11878   6.134   5.589   4.359
 3660SOL    HW111879   6.113   5.686   4.375
 3660SOL    HW211880   6.196   5.556   4.430
 3661SOL     OW11881   0.147   0.359   5.169
 3661SOL    HW111882   0.091   0.437   5.196
 3661SOL    HW211883   0.108   0.318   5.087
 3662SOL     OW11884   4.074   0.887   4.645
 3662SOL    HW111885   3.985   0.845   4.661
 3662SOL    HW211886   4.120   0.900   4.733
 3663SOL     OW11887   1.498   2.796   6.501
 3663SOL    HW111888   1.552   2.800   6.417
 3663SOL    HW211889   1.530   2.866   6.565
 3664SOL     OW11890   4.658   2.440   1.605
 3664SOL    HW111891   4.606   2.494   1.670
 3664SOL    HW211892   4.753   2.472   1.603
 3665SOL     OW11893   0.478   5.840   5.367
 3665SOL    HW111894   0.515   5.786   5.443
 3665SOL    HW211895   0.483   5.937   5.389
 3666SOL     OW11896   0.921   3.695   3.225
 3666SOL    HW111897   0.914   3.596   3.232
 3666SOL    HW211898   0.994   3.719   3.160
 3667SOL     OW11899   0.069   1.024   3.306
 3667SOL    HW111900   0.059   1.047   3.403
 3667SOL    HW211901   0.165   1.002   3.287
 3668SOL     OW11902   1.132   0.440   1.308
 3668SOL    HW111903   1.126   0.473   1.214
 3668SOL    HW211904   1.076   0.499   1.367
 3669SOL     OW11905   5.639   1.474   3.864
 3669SOL    HW111906   5.716   1.477   3.801
 3669SOL    HW211907   5.583   1.394   3.844
 3670SOL     OW11908   2.786   5.545   0.173
 3670SOL    HW111909   2.782   5.633   0.127
 3670SOL    HW211910   2.780   5.558   0.272
 3671SOL     OW11911   6.869   2.103   3.870
 3671SOL    HW111912   6.853   2.166   3.794
 3671SOL    HW211913   6.966   2.080   3.876
 3672SOL     OW11914   4.678   2.421   2.770
 3672SOL    HW111915   4.666   2.496   2.835
 3672SOL    HW211916   4.588   2.386   2.742
 3673SOL     OW11917   3.991   5.281   6.890
 3673SOL    HW111918   3.961   5.346   6.960
 3673SOL    HW211919   4.060   5.325   6.832
 3674SOL     OW11920   1.531   6.179   5.330
 3674SOL    HW111921   1.498   6.215   5.417
 3674SOL    HW211922   1.535   6.253   5.262
 3675SOL     OW11923   1.250   2.190   4.207
 3675SOL    HW111924   1.169   2.131   4.218
 3675SOL    HW211925   1.289   2.210   4.297
 3676SOL     OW11926   5.675   3.490   2.432
 3676SOL    HW111927   5.659   3.530   2.342
 3676SOL    HW211928   5.716   3.400   2.421
 3677SOL     OW11929   2.860   0.214   4.596
 3677SOL    HW111930   2.892   0.121   4.577
 3677SOL    HW211931   2.815   0.216   4.686
 3678SOL     OW11932   1.925   0.882   4.166
 3678SOL    HW111933   1.985   0.813   4.206
 3678SOL    HW211934   1.971   0.927   4.090
 3679SOL     OW11935   6.997   0.321   2.970
 3679SOL    HW111936   0.046   0.260   3.009
 3679SOL    HW211937   0.009   0.355   2.882
 3680SOL     OW11938   4.669   2.676   4.615
 3680SOL    HW111939   4.630   2.631   4.535
 3680SOL    HW211940   4.682   2.609   4.688
 3681SOL     OW11941   1.070   1.289   6.901
 3681SOL    HW111942   1.025   1.292   6.811
 3681SOL    HW211943   1.159   1.333   6.895
 3682SOL     OW11944   5.499   2.681   0.062
 3682SOL    HW111945   5.576   2.733   0.025
 3682SOL    HW211946   5.462   2.729   0.142
 3683SOL     OW11947   0.049   0.390   3.790
 3683SOL    HW111948   6.982   0.373   3.835
 3683SOL    HW211949   0.117   0.323   3.819
 3684SOL     OW11950   1.116   5.355   0.066
 3684SOL    HW111951   1.087   5.448   0.090
 3684SOL    HW211952   1.216   5.350   0.068
 3685SOL     OW11953   2.417   5.936   5.913
 3685SOL    HW111954   2.482   5.876   5.867
 3685SOL    HW211955   2.393   5.898   6.002
 3686SOL     OW11956   6.573   5.040   4.156
 3686SOL    HW111957   6.511   5.059   4.080
 3686SOL    HW211958   6.654   5.098   4.149
 3687SOL     OW11959   4.928   6.619   3.849
 3687SOL    HW111960   4.982   6.701   3.829
 3687SOL    HW211961   4.900   6.620   3.945
 3688SOL     OW11962   6.428   3.086   0.167
 3688SOL    HW111963   6.496   3.158   0.156
 3688SOL    HW211964   6.336   3.126   0.160
 3689SOL     OW11965   1.749   1.699   5.555
 3689SOL    HW111966   1.844   1.666   5.560
 3689SOL    HW211967   1.711   1.707   5.647
 3690SOL     OW11968   4.662   5.894   0.909
 3690SOL    HW111969   4.747   5.946   0.907
 3690SOL    HW211970   4.627   5.882   0.816
 3691SOL     OW11971   2.500   1.579   6.780
 3691SOL    HW111972   2.538   1.603   6.691
 3691SOL    HW211973   2.557   1.509   6.823
 3692SOL     OW11974   6.722   4.981   5.794
 3692SOL    HW111975   6.765   4.894   5.816
 3692SOL    HW211976   6.792   5.049   5.774
 3693SOL     OW11977   1.784   2.004   2.590
 3693SOL    HW111978   1.829   1.993   2.678
 3693SOL    HW211979   1.752   1.915   2.556
 3694SOL     OW11980   1.407   6.792   2.337
 3694SOL    HW111981   1.404   6.692   2.333
 3694SOL    HW211982   1.464   6.820   2.414
 3695SOL     OW11983   5.640   1.476   1.644
 3695SOL    HW111984   5.659   1.433   1.732
 3695SOL    HW211985   5.645   1.407   1.571
 3696SOL     OW11986   4.337   6.875   5.015
 3696SOL    HW111987   4.358   6.839   4.924
 3696SOL    HW211988   4.335   6.800   5.081
 3697SOL     OW11989   6.689   6.420   3.064
 3697SOL    HW111990   6.613   6.446   3.004
 3697SOL    HW211991   6.653   6.375   3.146
 3698SOL     OW11992   2.473   0.852   3.561
 3698SOL    HW111993   2.388   0.845   3.508
 3698SOL    HW211994   2.532   0.921   3.520
 3699SOL     OW11995   1.448   1.463   3.475
 3699SOL    HW111996   1.523   1.397   3.472
 3699SOL    HW211997   1.434   1.502   3.384
 3700SOL     OW11998   1.479   5.048   4.829
 3700SOL    HW111999   1.494   4.960   4.873
 3700SOL    HW212000   1.381   5.064   4.818
 3701SOL     OW12001   1.020   6.393   2.987
 3701SOL    HW112002   0.953   6.450   3.034
 3701SOL    HW212003   0.985   6.367   2.897
 3702SOL     OW12004   5.313   6.403   3.132
 3702SOL    HW112005   5.337   6.477   3.196
 3702SOL    HW212006   5.384   6.333   3.134
 3703SOL     OW12007   0.753   0.226   6.645
 3703SOL    HW112008   0.748   0.323   6.668
 3703SOL    HW212009   0.760   0.215   6.546
 3704SOL     OW12010   5.156   2.717   1.099
 3704SOL    HW112011   5.131   2.636   1.046
 3704SOL    HW212012   5.093   2.726   1.177
 3705SOL     OW12013   4.994   4.604   4.149
 3705SOL    HW112014   5.016   4.507   4.163
 3705SOL    HW212015   5.038   4.636   4.065
 3706SOL     OW12016   0.417   4.325   6.453
 3706SOL    HW112017   0.334   4.346   6.402
 3706SOL    HW212018   0.401   4.246   6.512
 3707SOL     OW12019   4.428   6.092   4.231
 3707SOL    HW112020   4.448   6.094   4.133
 3707SOL    HW212021   4.478   6.016   4.273
 3708SOL     OW12022   4.097   6.684   1.390
 3708SOL    HW112023   4.133   6.777   1.395
 3708SOL    HW212024   4.106   6.650   1.296
 3709SOL     OW12025   2.961   0.205   1.700
 3709SOL    HW112026   2.892   0.133   1.697
 3709SOL    HW212027   2.957   0.259   1.616
 3710SOL     OW12028   0.459   5.231   4.863
 3710SOL    HW112029   0.498   5.311   4.817
 3710SOL    HW212030   0.373   5.257   4.907
 3711SOL     OW12031   1.234   5.489   5.082
 3711SOL    HW112032   1.138   5.501   5.056
 3711SOL    HW212033   1.265   5.399   5.053
 3712SOL     OW12034   1.448   6.191   0.005
 3712SOL    HW112035   1.375   6.259   0.011
 3712SOL    HW212036   1.470   6.158   0.097
 3713SOL     OW12037   0.373   0.382   5.321
 3713SOL    HW112038   0.385   0.475   5.357
 3713SOL    HW212039   0.296   0.380   5.257
 3714SOL     OW12040   5.942   5.121   6.334
 3714SOL    HW112041   5.889   5.097   6.415
 3714SOL    HW212042   6.037   5.136   6.360
 3715SOL     OW12043   1.343   4.887   2.214
 3715SOL    HW112044   1.264   4.944   2.191
 3715SOL    HW212045   1.346   4.809   2.153
 3716SOL     OW12046   5.882   5.972   4.819
 3716SOL    HW112047   5.946   6.033   4.773
 3716SOL    HW212048   5.799   5.964   4.763
 3717SOL     OW12049   5.442   1.375   0.456
 3717SOL    HW112050   5.436   1.457   0.399
 3717SOL    HW212051   5.520   1.382   0.518
 3718SOL     OW12052   6.786   6.666   7.011
 3718SOL    HW112053   6.877   6.709   7.017
 3718SOL    HW212054   6.788   6.594   6.942
 3719SOL     OW12055   3.976   2.875   6.537
 3719SOL    HW112056   3.963   2.893   6.634
 3719SOL    HW212057   4.067   2.835   6.523
 3720SOL     OW12058   5.860   3.907   0.590
 3720SOL    HW112059   5.817   3.826   0.550
 3720SOL    HW212060   5.809   3.936   0.671
 3721SOL     OW12061   0.140   4.911   0.720
 3721SOL    HW112062   0.124   4.982   0.651
 3721SOL    HW212063   0.238   4.895   0.729
 3722SOL     OW12064   5.376   6.382   1.577
 3722SOL    HW112065   5.341   6.314   1.513
 3722SOL    HW212066   5.347   6.358   1.670
 3723SOL     OW12067   4.733   5.554   0.671
 3723SOL    HW112068   4.755   5.480   0.608
 3723SOL    HW212069   4.693   5.516   0.755
 3724SOL     OW12070   1.548   4.183   6.038
 3724SOL    HW112071   1.643   4.207   6.054
 3724SOL    HW212072   1.502   4.165   6.125
 3725SOL     OW12073   0.679   5.874   6.654
 3725SOL    HW112074   0.677   5.962   6.701
 3725SOL    HW212075   0.765   5.865   6.603
 3726SOL     OW12076   5.167   3.944   6.169
 3726SOL    HW112077   5.129   4.020   6.221
 3726SOL    HW212078   5.193   3.976   6.078
 3727SOL     OW12079   6.726   2.765   5.291
 3727SOL    HW112080   6.641   2.775   5.240
 3727SOL    HW212081   6.709   2.714   5.375
 3728SOL     OW12082   1.877   3.191   6.538
 3728SOL    HW112083   1.815   3.114   6.553
 3728SOL    HW212084   1.911   3.190   6.444
 3729SOL     OW12085   0.994   1.371   4.149
 3729SOL    HW112086   0.933   1.446   4.173
 3729SOL    HW212087   0.942   1.287   4.137
 3730SOL     OW12088   3.993   6.069   5.679
 3730SOL    HW112089   3.960   6.075   5.773
 3730SOL    HW212090   4.093   6.069   5.678
 3731SOL     OW12091   0.101   1.491   0.223
 3731SOL    HW112092   0.065   1.501   0.131
 3731SOL    HW212093   0.184   1.435   0.221
 3732SOL     OW12094   2.533   2.381   0.679
 3732SOL    HW112095   2.552   2.477   0.695
 3732SOL    HW212096   2.481   2.344   0.756
 3733SOL     OW12097   1.961   2.308   3.565
 3733SOL    HW112098   1.968   2.392   3.511
 3733SOL    HW212099   1.903   2.325   3.646
 3734SOL     OW12100   4.207   0.800   1.602
 3734SOL    HW112101   4.141   0.736   1.642
 3734SOL    HW212102   4.160   0.884   1.575
 3735SOL     OW12103   3.628   0.635   2.494
 3735SOL    HW112104   3.657   0.703   2.426
 3735SOL    HW212105   3.587   0.556   2.447
 3736SOL     OW12106   6.758   1.294   1.142
 3736SOL    HW112107   6.786   1.354   1.217
 3736SOL    HW212108   6.761   1.199   1.172
 3737SOL     OW12109   6.028   1.504   3.310
 3737SOL    HW112110   6.026   1.598   3.345
 3737SOL    HW212111   6.113   1.460   3.339
 3738SOL     OW12112   6.462   0.045   1.277
 3738SOL    HW112113   6.451   0.138   1.241
 3738SOL    HW212114   6.559   0.022   1.283
 3739SOL     OW12115   2.376   4.501   1.403
 3739SOL    HW112116   2.412   4.417   1.445
 3739SOL    HW212117   2.424   4.518   1.317
 3740SOL     OW12118   6.188   5.494   0.520
 3740SOL    HW112119   6.121   5.549   0.571
 3740SOL    HW212120   6.271   5.548   0.505
 3741SOL     OW12121   4.856   2.998   6.918
 3741SOL    HW112122   4.840   2.976   6.821
 3741SOL    HW212123   4.818   2.925   6.975
 3742SOL     OW12124   4.136   0.030   0.382
 3742SOL    HW112125   4.123   0.129   0.372
 3742SOL    HW212126   4.154   0.009   0.478
 3743SOL     OW12127   5.418   3.967   1.069
 3743SOL    HW112128   5.399   3.934   1.162
 3743SOL    HW212129   5.400   4.065   1.066
 3744SOL     OW12130   1.524   6.098   1.973
 3744SOL    HW112131   1.573   6.129   2.054
 3744SOL    HW212132   1.469   6.018   1.995
 3745SOL     OW12133   5.463   3.999   2.940
 3745SOL    HW112134   5.432   4.049   3.021
 3745SOL    HW212135   5.509   4.061   2.878
 3746SOL     OW12136   6.392   0.234   3.832
 3746SOL    HW112137   6.317   0.170   3.821
 3746SOL    HW212138   6.441   0.244   3.746
 3747SOL     OW12139   4.416   6.420   5.267
 3747SOL    HW112140   4.485   6.374   5.322
 3747SOL    HW212141   4.337   6.360   5.256
 3748SOL     OW12142   5.026   0.693   1.714
 3748SOL    HW112143   4.980   0.613   1.676
 3748SOL    HW212144   5.098   0.663   1.778
 3749SOL     OW12145   2.338   4.676   3.335
 3749SOL    HW112146   2.267   4.710   3.397
 3749SOL    HW212147   2.396   4.611   3.384
 3750SOL     OW12148   5.800   4.239   0.873
 3750SOL    HW112149   5.844   4.283   0.794
 3750SOL    HW212150   5.794   4.305   0.948
 3751SOL     OW12151   6.732   2.936   0.826
 3751SOL    HW112152   6.789   2.891   0.756
 3751SOL    HW212153   6.781   3.015   0.862
 3752SOL     OW12154   0.891   0.190   0.771
 3752SOL    HW112155   0.865   0.198   0.868
 3752SOL    HW212156   0.920   0.096   0.752
 3753SOL     OW12157   6.969   0.785   4.190
 3753SOL    HW112158   0.036   0.751   4.227
 3753SOL    HW212159   6.987   0.852   4.118
 3754SOL     OW12160   4.174   6.325   1.620
 3754SOL    HW112161   4.178   6.424   1.616
 3754SOL    HW212162   4.147   6.296   1.712
 3755SOL     OW12163   5.456   5.683   4.170
 3755SOL    HW112164   5.515   5.604   4.186
 3755SOL    HW212165   5.462   5.711   4.075
 3756SOL     OW12166   2.022   6.720   6.241
 3756SOL    HW112167   2.085   6.798   6.237
 3756SOL    HW212168   1.973   6.722   6.329
 3757SOL     OW12169   3.811   5.673   6.976
 3757SOL    HW112170   3.794   5.734   0.033
 3757SOL    HW212171   3.907   5.681   6.948
 3758SOL     OW12172   1.653   0.866   4.192
 3758SOL    HW112173   1.752   0.867   4.180
 3758SOL    HW212174   1.620   0.960   4.207
 3759SOL     OW12175   4.593   4.914   6.396
 3759SOL    HW112176   4.691   4.911   6.378
 3759SOL    HW212177   4.544   4.867   6.322
 3760SOL     OW12178   1.373   2.799   4.397
 3760SOL    HW112179   1.377   2.777   4.299
 3760SOL    HW212180   1.465   2.808   4.433
 3761SOL     OW12181   6.979   0.201   5.384
 3761SOL    HW112182   0.014   0.272   5.338
 3761SOL    HW212183   6.990   0.209   5.483
 3762SOL     OW12184   0.636   5.511   0.126
 3762SOL    HW112185   0.701   5.523   0.051
 3762SOL    HW212186   0.682   5.467   0.203
 3763SOL     OW12187   6.528   4.824   0.222
 3763SOL    HW112188   6.560   4.776   0.304
 3763SOL    HW212189   6.436   4.793   0.198
 3764SOL     OW12190   1.629   0.180   3.536
 3764SOL    HW112191   1.556   0.112   3.533
 3764SOL    HW212192   1.591   0.269   3.562
 3765SOL     OW12193   5.259   1.477   1.003
 3765SOL    HW112194   5.224   1.451   1.093
 3765SOL    HW212195   5.350   1.516   1.013
 3766SOL     OW12196   1.346   1.159   4.280
 3766SOL    HW112197   1.332   1.246   4.327
 3766SOL    HW212198   1.300   1.086   4.330
 3767SOL     OW12199   2.364   5.579   0.102
 3767SOL    HW112200   2.266   5.568   0.119
 3767SOL    HW212201   2.412   5.498   0.135
 3768SOL     OW12202   2.533   5.860   5.274
 3768SOL    HW112203   2.485   5.775   5.296
 3768SOL    HW212204   2.588   5.888   5.353
 3769SOL     OW12205   5.594   5.688   5.063
 3769SOL    HW112206   5.567   5.597   5.035
 3769SOL    HW212207   5.536   5.719   5.139
 3770SOL     OW12208   1.910   7.013   6.824
 3770SOL    HW112209   1.894   0.044   6.908
 3770SOL    HW212210   1.837   6.946   6.812
 3771SOL     OW12211   6.078   2.520   6.932
 3771SOL    HW112212   6.009   2.494   6.999
 3771SOL    HW212213   6.126   2.602   6.965
 3772SOL     OW12214   6.734   1.610   0.044
 3772SOL    HW112215   6.667   1.538   0.065
 3772SOL    HW212216   6.731   1.630   6.966
 3773SOL     OW12217   6.188   3.193   6.148
 3773SOL    HW112218   6.118   3.158   6.211
 3773SOL    HW212219   6.153   3.188   6.054
 3774SOL     OW12220   0.455   6.091   0.096
 3774SOL    HW112221   0.491   6.105   0.188
 3774SOL    HW212222   0.390   6.015   0.097
 3775SOL     OW12223   5.080   4.460   2.174
 3775SOL    HW112224   5.129   4.495   2.254
 3775SOL    HW212225   5.077   4.360   2.178
 3776SOL     OW12226   3.820   0.839   0.542
 3776SOL    HW112227   3.744   0.884   0.590
 3776SOL    HW212228   3.904   0.851   0.594
 3777SOL     OW12229   3.071   5.018   4.693
 3777SOL    HW112230   3.079   4.984   4.787
 3777SOL    HW212231   3.026   4.949   4.636
 3778SOL     OW12232   2.666   5.069   2.881
 3778SOL    HW112233   2.585   5.069   2.939
 3778SOL    HW212234   2.639   5.084   2.785
 3779SOL     OW12235   1.732   4.538   0.785
 3779SOL    HW112236   1.720   4.592   0.702
 3779SOL    HW212237   1.788   4.458   0.766
 3780SOL     OW12238   4.414   5.095   6.067
 3780SOL    HW112239   4.359   5.096   5.984
 3780SOL    HW212240   4.448   5.002   6.084
 3781SOL     OW12241   1.507   6.839   4.760
 3781SOL    HW112242   1.479   6.761   4.704
 3781SOL    HW212243   1.592   6.817   4.807
 3782SOL     OW12244   2.851   1.564   4.395
 3782SOL    HW112245   2.821   1.650   4.438
 3782SOL    HW212246   2.942   1.576   4.356
 3783SOL     OW12247   5.291   6.322   5.390
 3783SOL    HW112248   5.194   6.343   5.406
 3783SOL    HW212249   5.318   6.359   5.301
 3784SOL     OW12250   4.699   1.994   3.617
 3784SOL    HW112251   4.771   2.063   3.618
 3784SOL    HW212252   4.739   1.903   3.603
 3785SOL     OW12253   1.234   0.934   6.715
 3785SOL    HW112254   1.203   0.991   6.792
 3785SOL    HW212255   1.275   0.992   6.645
 3786SOL     OW12256   2.649   6.503   2.835
 3786SOL    HW112257   2.645   6.453   2.921
 3786SOL    HW212258   2.595   6.587   2.842
 3787SOL     OW12259   6.074   6.577   3.125
 3787SOL    HW112260   6.103   6.497   3.074
 3787SOL    HW212261   6.000   6.552   3.187
 3788SOL     OW12262   0.288   3.092   4.022
 3788SOL    HW112263   0.366   3.052   3.974
 3788SOL    HW212264   0.321   3.161   4.086
 3789SOL     OW12265   0.581   3.033   4.200
 3789SOL    HW112266   0.595   2.985   4.113
 3789SOL    HW212267   0.597   3.131   4.186
 3790SOL     OW12268   1.876   3.685   5.561
 3790SOL    HW112269   1.789   3.636   5.551
 3790SOL    HW212270   1.935   3.634   5.624
 3791SOL     OW12271   6.154   0.473   0.559
 3791SOL    HW112272   6.159   0.435   0.651
 3791SOL    HW212273   6.071   0.527   0.549
 3792SOL     OW12274   6.871   1.005   3.857
 3792SOL    HW112275   6.947   0.957   3.901
 3792SOL    HW212276   6.892   1.103   3.851
 3793SOL     OW12277   3.766   0.209   2.629
 3793SOL    HW112278   3.804   0.165   2.711
 3793SOL    HW212279   3.744   0.304   2.649
 3794SOL     OW12280   2.412   4.089   1.057
 3794SOL    HW112281   2.510   4.092   1.035
 3794SOL    HW212282   2.385   4.175   1.101
 3795SOL     OW12283   3.773   6.689   6.569
 3795SOL    HW112284   3.723   6.603   6.559
 3795SOL    HW212285   3.716   6.756   6.616
 3796SOL     OW12286   2.685   1.760   1.206
 3796SOL    HW112287   2.616   1.689   1.216
 3796SOL    HW212288   2.709   1.770   1.109
 3797SOL     OW12289   6.430   4.381   2.939
 3797SOL    HW112290   6.376   4.309   2.895
 3797SOL    HW212291   6.403   4.470   2.903
 3798SOL     OW12292   3.797   5.969   3.381
 3798SOL    HW112293   3.847   5.923   3.454
 3798SOL    HW212294   3.822   5.928   3.293
 3799SOL     OW12295   0.065   2.385   4.050
 3799SOL    HW112296   6.986   2.393   4.045
 3799SOL    HW212297   0.105   2.417   3.964
 3800SOL     OW12298   5.280   3.189   4.499
 3800SOL    HW112299   5.307   3.284   4.483
 3800SOL    HW212300   5.337   3.150   4.571
 3801SOL     OW12301   6.529   6.381   3.325
 3801SOL    HW112302   6.609   6.409   3.377
 3801SOL    HW212303   6.472   6.461   3.305
 3802SOL     OW12304   0.617   2.658   3.649
 3802SOL    HW112305   0.589   2.647   3.554
 3802SOL    HW212306   0.560   2.601   3.708
 3803SOL     OW12307   3.855   2.097   0.871
 3803SOL    HW112308   3.892   2.015   0.913
 3803SOL    HW212309   3.775   2.073   0.815
 3804SOL     OW12310   4.897   1.935   3.846
 3804SOL    HW112311   4.978   1.921   3.789
 3804SOL    HW212312   4.835   1.858   3.835
 3805SOL     OW12313   2.742   3.424   1.283
 3805SOL    HW112314   2.765   3.477   1.365
 3805SOL    HW212315   2.823   3.375   1.251
 3806SOL     OW12316   3.024   3.994   7.016
 3806SOL    HW112317   3.079   3.919   0.033
 3806SOL    HW212318   3.076   4.041   6.945
 3807SOL     OW12319   2.659   0.040   4.049
 3807SOL    HW112320   2.611   6.974   4.068
 3807SOL    HW212321   2.633   0.108   4.117
 3808SOL     OW12322   4.128   0.614   1.095
 3808SOL    HW112323   4.148   0.519   1.072
 3808SOL    HW212324   4.197   0.673   1.053
 3809SOL     OW12325   6.041   2.700   0.586
 3809SOL    HW112326   6.111   2.680   0.518
 3809SOL    HW212327   5.968   2.632   0.581
 3810SOL     OW12328   4.464   2.274   5.323
 3810SOL    HW112329   4.537   2.231   5.271
 3810SOL    HW212330   4.455   2.229   5.412
 3811SOL     OW12331   1.061   4.224   3.967
 3811SOL    HW112332   0.975   4.183   3.937
 3811SOL    HW212333   1.052   4.257   4.061
 3812SOL     OW12334   5.445   0.869   4.930
 3812SOL    HW112335   5.351   0.835   4.922
 3812SOL    HW212336   5.449   0.964   4.899
 3813SOL     OW12337   3.974   4.082   0.394
 3813SOL    HW112338   3.939   3.989   0.384
 3813SOL    HW212339   3.941   4.121   0.481
 3814SOL     OW12340   0.348   0.015   1.192
 3814SOL    HW112341   0.272   6.996   1.244
 3814SOL    HW212342   0.362   6.982   1.109
 3815SOL     OW12343   5.030   2.940   0.599
 3815SOL    HW112344   4.943   2.962   0.643
 3815SOL    HW212345   5.048   3.006   0.527
 3816SOL     OW12346   0.345   5.773   0.529
 3816SOL    HW112347   0.327   5.681   0.493
 3816SOL    HW212348   0.436   5.802   0.500
 3817SOL     OW12349   5.414   3.431   3.368
 3817SOL    HW112350   5.351   3.505   3.343
 3817SOL    HW212351   5.363   3.346   3.379
 3818SOL     OW12352   5.065   0.401   0.416
 3818SOL    HW112353   5.137   0.433   0.354
 3818SOL    HW212354   4.977   0.441   0.390
 3819SOL     OW12355   5.504   5.688   1.227
 3819SOL    HW112356   5.537   5.603   1.268
 3819SOL    HW212357   5.551   5.703   1.140
 3820SOL     OW12358   6.945   6.989   3.663
 3820SOL    HW112359   6.974   6.912   3.606
 3820SOL    HW212360   6.963   0.054   3.615
 3821SOL     OW12361   2.258   2.608   1.030
 3821SOL    HW112362   2.349   2.575   1.053
 3821SOL    HW212363   2.203   2.614   1.114
 3822SOL     OW12364   1.800   6.064   2.583
 3822SOL    HW112365   1.857   6.090   2.505
 3822SOL    HW212366   1.816   5.968   2.606
 3823SOL     OW12367   4.175   2.211   5.885
 3823SOL    HW112368   4.262   2.165   5.906
 3823SOL    HW212369   4.115   2.147   5.836
 3824SOL     OW12370   5.640   1.743   5.968
 3824SOL    HW112371   5.653   1.841   5.978
 3824SOL    HW212372   5.727   1.696   5.985
 3825SOL     OW12373   0.521   6.869   1.000
 3825SOL    HW112374   0.590   6.831   1.061
 3825SOL    HW212375   0.498   6.801   0.930
 3826SOL     OW12376   0.763   3.625   0.191
 3826SOL    HW112377   0.774   3.681   0.109
 3826SOL    HW212378   0.710   3.676   0.260
 3827SOL     OW12379   2.871   3.197   0.743
 3827SOL    HW112380   2.789   3.237   0.701
 3827SOL    HW212381   2.941   3.182   0.673
 3828SOL     OW12382   4.620   2.558   1.021
 3828SOL    HW112383   4.544   2.554   0.956
 3828SOL    HW212384   4.608   2.488   1.091
 3829SOL     OW12385   2.001   4.798   4.095
 3829SOL    HW112386   1.907   4.770   4.115
 3829SOL    HW212387   2.055   4.717   4.070
 3830SOL     OW12388   1.008   0.010   4.880
 3830SOL    HW112389   1.025   0.081   4.949
 3830SOL    HW212390   0.965   0.051   4.800
 3831SOL     OW12391   4.542   2.174   2.160
 3831SOL    HW112392   4.625   2.210   2.203
 3831SOL    HW212393   4.516   2.088   2.205
 3832SOL     OW12394   5.960   0.883   2.288
 3832SOL    HW112395   5.984   0.906   2.382
 3832SOL    HW212396   6.039   0.896   2.229
 3833SOL     OW12397   1.424   6.065   6.250
 3833SOL    HW112398   1.361   6.090   6.176
 3833SOL    HW212399   1.500   6.013   6.213
 3834SOL     OW12400   3.617   2.599   0.748
 3834SOL    HW112401   3.684   2.528   0.728
 3834SOL    HW212402   3.585   2.589   0.843
 3835SOL     OW12403   3.163   5.374   5.162
 3835SOL    HW112404   3.122   5.460   5.192
 3835SOL    HW212405   3.254   5.365   5.203
 3836SOL     OW12406   1.874   3.792   5.156
 3836SOL    HW112407   1.970   3.816   5.139
 3836SOL    HW212408   1.817   3.833   5.085
 3837SOL     OW12409   5.097   3.642   6.974
 3837SOL    HW112410   5.039   3.720   6.999
 3837SOL    HW212411   5.057   3.558   7.011
 3838SOL     OW12412   6.174   4.244   4.525
 3838SOL    HW112413   6.234   4.264   4.602
 3838SOL    HW212414   6.080   4.233   4.558
 3839SOL     OW12415   4.220   0.610   4.465
 3839SOL    HW112416   4.289   0.680   4.446
 3839SOL    HW212417   4.251   0.552   4.540
 3840SOL     OW12418   1.680   1.477   5.344
 3840SOL    HW112419   1.751   1.429   5.396
 3840SOL    HW212420   1.720   1.518   5.262
 3841SOL     OW12421   6.791   3.420   4.438
 3841SOL    HW112422   6.701   3.447   4.404
 3841SOL    HW212423   6.818   3.480   4.513
 3842SOL     OW12424   1.311   4.656   6.875
 3842SOL    HW112425   1.217   4.644   6.843
 3842SOL    HW212426   1.364   4.704   6.805
 3843SOL     OW12427   6.967   4.498   2.015
 3843SOL    HW112428   7.006   4.517   1.925
 3843SOL    HW212429   6.913   4.414   2.011
 3844SOL     OW12430   0.008   4.104   5.741
 3844SOL    HW112431   6.931   4.127   5.740
 3844SOL    HW212432   0.060   4.175   5.693
 3845SOL     OW12433   3.885   2.947   3.043
 3845SOL    HW112434   3.929   3.035   3.064
 3845SOL    HW212435   3.943   2.872   3.074
 3846SOL     OW12436   0.341   4.639   4.259
 3846SOL    HW112437   0.430   4.657   4.217
 3846SOL    HW212438   0.351   4.634   4.358
 3847SOL     OW12439   6.255   1.319   5.339
 3847SOL    HW112440   6.199   1.335   5.421
 3847SOL    HW212441   6.206   1.351   5.258
 3848SOL     OW12442   2.952   5.879   3.121
 3848SOL    HW112443   3.037   5.841   3.156
 3848SOL    HW212444   2.899   5.807   3.075
 3849SOL     OW12445   0.290   1.543   5.642
 3849SOL    HW112446   0.356   1.602   5.688
 3849SOL    HW212447   0.318   1.448   5.650
 3850SOL     OW12448   2.482   3.434   1.424
 3850SOL    HW112449   2.538   3.469   1.350
 3850SOL    HW212450   2.397   3.487   1.430
 3851SOL     OW12451   1.290   4.285   3.017
 3851SOL    HW112452   1.322   4.256   3.107
 3851SOL    HW212453   1.315   4.217   2.948
 3852SOL     OW12454   4.542   6.762   4.841
 3852SOL    HW112455   4.570   6.679   4.889
 3852SOL    HW212456   4.595   6.840   4.874
 3853SOL     OW12457   1.512   3.145   2.504
 3853SOL    HW112458   1.578   3.140   2.579
 3853SOL    HW212459   1.524   3.067   2.443
 3854SOL     OW12460   0.638   4.070   2.722
 3854SOL    HW112461   0.635   3.980   2.766
 3854SOL    HW212462   0.657   4.059   2.624
 3855SOL     OW12463   5.423   5.518   6.812
 3855SOL    HW112464   5.332   5.557   6.797
 3855SOL    HW212465   5.417   5.418   6.812
 3856SOL     OW12466   6.757   6.243   5.132
 3856SOL    HW112467   6.675   6.209   5.178
 3856SOL    HW212468   6.796   6.171   5.074
 3857SOL     OW12469   0.996   6.434   5.183
 3857SOL    HW112470   1.093   6.422   5.201
 3857SOL    HW212471   0.978   6.530   5.161
 3858SOL     OW12472   1.444   5.907   5.682
 3858SOL    HW112473   1.405   5.837   5.622
 3858SOL    HW212474   1.537   5.928   5.652
 3859SOL     OW12475   6.825   1.650   2.970
 3859SOL    HW112476   6.873   1.565   2.989
 3859SOL    HW212477   6.885   1.728   2.991
 3860SOL     OW12478   1.630   6.381   4.375
 3860SOL    HW112479   1.559   6.437   4.333
 3860SOL    HW212480   1.712   6.382   4.318
 3861SOL     OW12481   5.212   4.506   1.932
 3861SOL    HW112482   5.152   4.498   2.012
 3861SOL    HW212483   5.264   4.422   1.920
 3862SOL     OW12484   6.605   6.918   5.567
 3862SOL    HW112485   6.580   6.924   5.664
 3862SOL    HW212486   6.533   6.961   5.512
 3863SOL     OW12487   3.838   4.319   6.473
 3863SOL    HW112488   3.815   4.347   6.566
 3863SOL    HW212489   3.836   4.398   6.412
 3864SOL     OW12490   4.313   1.758   5.647
 3864SOL    HW112491   4.250   1.779   5.722
 3864SOL    HW212492   4.294   1.666   5.613
 3865SOL     OW12493   4.022   0.625   1.690
 3865SOL    HW112494   4.031   0.603   1.592
 3865SOL    HW212495   4.072   0.557   1.744
 3866SOL     OW12496   3.895   0.624   0.019
 3866SOL    HW112497   3.883   0.665   6.949
 3866SOL    HW212498   3.983   0.577   0.024
 3867SOL     OW12499   2.178   3.674   4.129
 3867SOL    HW112500   2.147   3.660   4.035
 3867SOL    HW212501   2.256   3.615   4.148
 3868SOL     OW12502   2.122   6.358   2.033
 3868SOL    HW112503   2.153   6.344   2.127
 3868SOL    HW212504   2.103   6.455   2.018
 3869SOL     OW12505   0.193   2.762   4.171
 3869SOL    HW112506   0.133   2.709   4.230
 3869SOL    HW212507   0.213   2.850   4.214
 3870SOL     OW12508   4.186   4.981   0.541
 3870SOL    HW112509   4.254   4.915   0.574
 3870SOL    HW212510   4.135   4.942   0.465
 3871SOL     OW12511   3.219   0.851   2.780
 3871SOL    HW112512   3.315   0.873   2.770
 3871SOL    HW212513   3.201   0.761   2.739
 3872SOL     OW12514   3.578   2.738   1.499
 3872SOL    HW112515   3.587   2.822   1.552
 3872SOL    HW212516   3.644   2.739   1.424
 3873SOL     OW12517   5.904   5.440   1.548
 3873SOL    HW112518   5.964   5.398   1.617
 3873SOL    HW212519   5.824   5.480   1.593
 3874SOL     OW12520   4.390   6.341   0.509
 3874SOL    HW112521   4.484   6.364   0.482
 3874SOL    HW212522   4.328   6.365   0.435
 3875SOL     OW12523   1.110   3.347   2.478
 3875SOL    HW112524   1.124   3.440   2.447
 3875SOL    HW212525   1.193   3.314   2.524
 3876SOL     OW12526   4.892   5.019   6.728
 3876SOL    HW112527   4.863   4.996   6.820
 3876SOL    HW212528   4.818   5.067   6.680
 3877SOL     OW12529   6.515   1.316   0.790
 3877SOL    HW112530   6.615   1.310   0.803
 3877SOL    HW212531   6.470   1.302   0.878
 3878SOL     OW12532   2.525   6.054   6.318
 3878SOL    HW112533   2.459   5.993   6.361
 3878SOL    HW212534   2.617   6.030   6.348
 3879SOL     OW12535   5.106   5.900   1.260
 3879SOL    HW112536   5.087   5.812   1.216
 3879SOL    HW212537   5.192   5.895   1.310
 3880SOL     OW12538   6.259   3.959   2.994
 3880SOL    HW112539   6.176   3.962   2.937
 3880SOL    HW212540   6.260   3.873   3.045
 3881SOL     OW12541   1.455   5.519   0.590
 3881SOL    HW112542   1.395   5.460   0.535
 3881SOL    HW212543   1.403   5.597   0.625
 3882SOL     OW12544   6.504   0.756   5.715
 3882SOL    HW112545   6.601   0.743   5.736
 3882SOL    HW212546   6.480   0.853   5.725
 3883SOL     OW12547   5.160   1.650   4.021
 3883SOL    HW112548   5.167   1.749   4.037
 3883SOL    HW212549   5.203   1.628   3.933
 3884SOL     OW12550   1.045   6.238   4.420
 3884SOL    HW112551   1.106   6.186   4.479
 3884SOL    HW212552   1.093   6.319   4.385
 3885SOL     OW12553   6.524   1.059   4.444
 3885SOL    HW112554   6.544   0.988   4.511
 3885SOL    HW212555   6.579   1.043   4.362
 3886SOL     OW12556   5.924   0.047   5.849
 3886SOL    HW112557   5.915   6.971   5.875
 3886SOL    HW212558   5.944   0.102   5.929
 3887SOL     OW12559   4.823   1.899   5.346
 3887SOL    HW112560   4.879   1.851   5.413
 3887SOL    HW212561   4.760   1.961   5.393
 3888SOL     OW12562   0.060   0.935   6.420
 3888SOL    HW112563   7.003   0.913   6.481
 3888SOL    HW212564   0.127   0.990   6.469
 3889SOL     OW12565   0.605   5.312   6.607
 3889SOL    HW112566   0.616   5.409   6.582
 3889SOL    HW212567   0.525   5.276   6.560
 3890SOL     OW12568   6.499   6.546   2.913
 3890SOL    HW112569   6.413   6.597   2.918
 3890SOL    HW212570   6.493   6.478   2.839
 3891SOL     OW12571   5.354   4.821   4.621
 3891SOL    HW112572   5.452   4.842   4.619
 3891SOL    HW212573   5.319   4.818   4.527
 3892SOL     OW12574   1.186   0.293   2.537
 3892SOL    HW112575   1.116   0.259   2.600
 3892SOL    HW212576   1.267   0.234   2.541
 3893SOL     OW12577   3.301   6.073   3.270
 3893SOL    HW112578   3.379   6.079   3.332
 3893SOL    HW212579   3.254   5.986   3.283
 3894SOL     OW12580   3.914   2.488   0.128
 3894SOL    HW112581   3.814   2.493   0.122
 3894SOL    HW212582   3.955   2.530   0.047
 3895SOL     OW12583   1.413   1.299   5.355
 3895SOL    HW112584   1.423   1.279   5.257
 3895SOL    HW212585   1.495   1.344   5.389
 3896SOL     OW12586   0.616   1.866   5.992
 3896SOL    HW112587   0.566   1.939   5.944
 3896SOL    HW212588   0.552   1.812   6.046
 3897SOL     OW12589   2.880   6.649   2.523
 3897SOL    HW112590   2.921   6.614   2.607
 3897SOL    HW212591   2.822   6.579   2.482
 3898SOL     OW12592   3.075   3.058   4.100
 3898SOL    HW112593   3.084   2.977   4.042
 3898SOL    HW212594   3.141   3.127   4.070
 3899SOL     OW12595   5.265   1.251   4.802
 3899SOL    HW112596   5.213   1.189   4.743
 3899SOL    HW212597   5.247   1.346   4.773
 3900SOL     OW12598   6.190   2.833   3.555
 3900SOL    HW112599   6.106   2.884   3.573
 3900SOL    HW212600   6.201   2.819   3.457
 3901SOL     OW12601   1.430   6.552   5.549
 3901SOL    HW112602   1.461   6.562   5.644
 3901SOL    HW212603   1.503   6.512   5.494
 3902SOL     OW12604   5.408   4.713   2.926
 3902SOL    HW112605   5.498   4.755   2.922
 3902SOL    HW212606   5.414   4.618   2.896
 3903SOL     OW12607   4.653   3.023   0.287
 3903SOL    HW112608   4.557   2.998   0.278
 3903SOL    HW212609   4.710   2.940   0.284
 3904SOL     OW12610   0.745   6.909   0.319
 3904SOL    HW112611   0.740   6.823   0.268
 3904SOL    HW212612   0.663   6.919   0.376
 3905SOL     OW12613   6.573   6.377   6.479
 3905SOL    HW112614   6.566   6.297   6.419
 3905SOL    HW212615   6.507   6.368   6.554
 3906SOL     OW12616   1.523   4.786   3.948
 3906SOL    HW112617   1.526   4.865   4.008
 3906SOL    HW212618   1.449   4.797   3.882
 3907SOL     OW12619   0.204   0.929   4.774
 3907SOL    HW112620   0.142   0.851   4.765
 3907SOL    HW212621   0.267   0.930   4.696
 3908SOL     OW12622   1.212   0.657   5.584
 3908SOL    HW112623   1.158   0.712   5.648
 3908SOL    HW212624   1.154   0.586   5.544
 3909SOL     OW12625   5.068   3.527   6.022
 3909SOL    HW112626   5.067   3.452   5.955
 3909SOL    HW212627   5.138   3.510   6.091
 3910SOL     OW12628   3.637   3.885   1.854
 3910SOL    HW112629   3.630   3.892   1.755
 3910SOL    HW212630   3.673   3.795   1.879
 3911SOL     OW12631   5.564   0.709   0.895
 3911SOL    HW112632   5.538   0.794   0.941
 3911SOL    HW212633   5.509   0.633   0.931
 3912SOL     OW12634   3.224   1.968   6.093
 3912SOL    HW112635   3.163   2.046   6.100
 3912SOL    HW212636   3.290   1.983   6.020
 3913SOL     OW12637   3.859   6.607   0.562
 3913SOL    HW112638   3.937   6.545   0.570
 3913SOL    HW212639   3.881   6.694   0.607
 3914SOL     OW12640   5.665   1.499   1.139
 3914SOL    HW112641   5.714   1.572   1.186
 3914SOL    HW212642   5.721   1.464   1.064
 3915SOL     OW12643   3.656   6.232   0.212
 3915SOL    HW112644   3.601   6.245   0.294
 3915SOL    HW212645   3.636   6.142   0.172
 3916SOL     OW12646   3.092   0.563   2.934
 3916SOL    HW112647   3.085   0.487   2.870
 3916SOL    HW212648   3.188   0.592   2.941
 3917SOL     OW12649   2.704   5.144   0.962
 3917SOL    HW112650   2.694   5.235   0.923
 3917SOL    HW212651   2.617   5.094   0.953
 3918SOL     OW12652   5.134   1.058   0.233
 3918SOL    HW112653   5.068   1.043   0.307
 3918SOL    HW212654   5.224   1.076   0.271
 3919SOL     OW12655   4.893   1.313   1.077
 3919SOL    HW112656   4.922   1.220   1.054
 3919SOL    HW212657   4.967   1.361   1.123
 3920SOL     OW12658   3.005   1.416   6.695
 3920SOL    HW112659   3.105   1.421   6.688
 3920SOL    HW212660   2.968   1.508   6.708
 3921SOL     OW12661   0.353   2.614   6.464
 3921SOL    HW112662   0.357   2.705   6.423
 3921SOL    HW212663   0.381   2.545   6.396
 3922SOL     OW12664   4.739   4.868   2.211
 3922SOL    HW112665   4.669   4.815   2.163
 3922SOL    HW212666   4.695   4.929   2.277
 3923SOL     OW12667   6.189   1.127   1.770
 3923SOL    HW112668   6.276   1.147   1.816
 3923SOL    HW212669   6.143   1.052   1.817
 3924SOL     OW12670   0.221   4.475   4.052
 3924SOL    HW112671   0.307   4.443   4.012
 3924SOL    HW212672   0.241   4.549   4.117
 3925SOL     OW12673   4.669   3.635   0.610
 3925SOL    HW112674   4.744   3.702   0.609
 3925SOL    HW212675   4.585   3.681   0.640
 3926SOL     OW12676   1.731   0.711   5.969
 3926SOL    HW112677   1.801   0.778   5.947
 3926SOL    HW212678   1.658   0.716   5.901
 3927SOL     OW12679   0.471   2.407   4.457
 3927SOL    HW112680   0.510   2.369   4.542
 3927SOL    HW212681   0.495   2.347   4.381
 3928SOL     OW12682   2.426   0.030   3.738
 3928SOL    HW112683   2.436   0.129   3.723
 3928SOL    HW212684   2.331   0.009   3.758
 3929SOL     OW12685   6.754   1.972   5.462
 3929SOL    HW112686   6.735   1.984   5.365
 3929SOL    HW212687   6.851   1.990   5.479
 3930SOL     OW12688   1.583   2.401   3.941
 3930SOL    HW112689   1.557   2.307   3.964
 3930SOL    HW212690   1.500   2.453   3.920
 3931SOL     OW12691   1.403   2.092   1.972
 3931SOL    HW112692   1.353   2.169   2.012
 3931SOL    HW212693   1.350   2.008   1.983
 3932SOL     OW12694   2.024   5.606   4.083
 3932SOL    HW112695   2.051   5.510   4.085
 3932SOL    HW212696   2.102   5.663   4.109
 3933SOL     OW12697   1.707   5.532   0.261
 3933SOL    HW112698   1.733   5.591   0.185
 3933SOL    HW212699   1.722   5.579   0.348
 3934SOL     OW12700   0.900   1.171   2.540
 3934SOL    HW112701   0.816   1.179   2.594
 3934SOL    HW212702   0.965   1.240   2.571
 3935SOL     OW12703   6.239   3.439   6.300
 3935SOL    HW112704   6.231   3.351   6.253
 3935SOL    HW212705   6.333   3.471   6.295
 3936SOL     OW12706   6.326   5.772   5.202
 3936SOL    HW112707   6.349   5.678   5.177
 3936SOL    HW212708   6.233   5.774   5.240
 3937SOL     OW12709   6.976   5.377   2.501
 3937SOL    HW112710   0.034   5.378   2.563
 3937SOL    HW212711   6.928   5.289   2.510
 3938SOL     OW12712   6.750   3.765   3.725
 3938SOL    HW112713   6.657   3.754   3.691
 3938SOL    HW212714   6.776   3.862   3.720
 3939SOL     OW12715   0.720   1.403   1.744
 3939SOL    HW112716   0.716   1.383   1.842
 3939SOL    HW212717   0.799   1.461   1.725
 3940SOL     OW12718   2.995   4.807   1.847
 3940SOL    HW112719   3.094   4.802   1.860
 3940SOL    HW212720   2.952   4.729   1.894
 3941SOL     OW12721   5.903   6.993   3.938
 3941SOL    HW112722   5.818   6.969   3.890
 3941SOL    HW212723   5.917   6.930   4.014
 3942SOL     OW12724   0.968   6.301   6.354
 3942SOL    HW112725   0.993   6.392   6.321
 3942SOL    HW212726   1.025   6.277   6.433
 3943SOL     OW12727   0.819   3.890   1.835
 3943SOL    HW112728   0.840   3.983   1.804
 3943SOL    HW212729   0.751   3.849   1.774
 3944SOL     OW12730   6.395   3.008   6.455
 3944SOL    HW112731   6.318   2.958   6.494
 3944SOL    HW212732   6.455   2.946   6.406
 3945SOL     OW12733   0.904   1.569   3.280
 3945SOL    HW112734   0.827   1.525   3.324
 3945SOL    HW212735   0.925   1.656   3.326
 3946SOL     OW12736   6.793   3.299   0.455
 3946SOL    HW112737   6.825   3.394   0.459
 3946SOL    HW212738   6.694   3.297   0.469
 3947SOL     OW12739   5.609   6.036   0.879
 3947SOL    HW112740   5.647   6.088   0.955
 3947SOL    HW212741   5.509   6.041   0.881
 3948SOL     OW12742   1.914   2.675   6.217
 3948SOL    HW112743   1.863   2.608   6.164
 3948SOL    HW212744   1.853   2.719   6.283
 3949SOL     OW12745   6.528   6.357   2.725
 3949SOL    HW112746   6.615   6.308   2.730
 3949SOL    HW212747   6.476   6.324   2.646
 3950SOL     OW12748   4.061   4.624   1.344
 3950SOL    HW112749   4.092   4.622   1.439
 3950SOL    HW212750   4.134   4.592   1.284
 3951SOL     OW12751   0.164   1.766   5.169
 3951SOL    HW112752   0.216   1.708   5.233
 3951SOL    HW212753   0.066   1.753   5.184
 3952SOL     OW12754   5.893   2.536   4.968
 3952SOL    HW112755   5.977   2.581   4.940
 3952SOL    HW212756   5.909   2.437   4.976
 3953SOL     OW12757   2.928   3.947   5.900
 3953SOL    HW112758   2.914   4.014   5.827
 3953SOL    HW212759   2.959   3.993   5.983
 3954SOL     OW12760   0.187   3.840   5.018
 3954SOL    HW112761   0.192   3.790   4.931
 3954SOL    HW212762   0.244   3.922   5.012
 3955SOL     OW12763   5.301   6.048   0.104
 3955SOL    HW112764   5.376   6.090   0.155
 3955SOL    HW212765   5.292   6.093   0.015
 3956SOL     OW12766   0.652   2.772   5.679
 3956SOL    HW112767   0.664   2.784   5.778
 3956SOL    HW212768   0.605   2.851   5.642
 3957SOL     OW12769   2.846   6.947   3.906
 3957SOL    HW112770   2.942   6.952   3.931
 3957SOL    HW212771   2.792   7.004   3.968
 3958SOL     OW12772   6.445   5.644   0.474
 3958SOL    HW112773   6.468   5.644   0.377
 3958SOL    HW212774   6.514   5.696   0.525
 3959SOL     OW12775   2.659   6.050   0.441
 3959SOL    HW112776   2.617   6.140   0.431
 3959SOL    HW212777   2.598   5.980   0.404
 3960SOL     OW12778   4.162   2.713   6.882
 3960SOL    HW112779   4.076   2.760   6.860
 3960SOL    HW212780   4.169   2.630   6.828
 3961SOL     OW12781   4.980   1.525   2.644
 3961SOL    HW112782   4.929   1.610   2.654
 3961SOL    HW212783   4.962   1.487   2.553
 3962SOL     OW12784   1.100   6.330   0.331
 3962SOL    HW112785   1.200   6.329   0.327
 3962SOL    HW212786   1.070   6.393   0.403
 3963SOL     OW12787   5.334   4.922   3.898
 3963SOL    HW112788   5.357   4.903   3.802
 3963SOL    HW212789   5.250   4.975   3.902
 3964SOL     OW12790   5.072   6.069   5.353
 3964SOL    HW112791   5.061   6.078   5.254
 3964SOL    HW212792   5.164   6.099   5.380
 3965SOL     OW12793   4.273   4.663   6.892
 3965SOL    HW112794   4.270   4.728   6.968
 3965SOL    HW212795   4.356   4.680   6.838
 3966SOL     OW12796   6.149   5.244   5.971
 3966SOL    HW112797   6.055   5.214   5.989
 3966SOL    HW212798   6.212   5.192   6.029
 3967SOL     OW12799   0.084   5.997   5.031
 3967SOL    HW112800   0.183   5.986   5.022
 3967SOL    HW212801   0.048   5.927   5.093
 3968SOL     OW12802   5.013   0.623   2.393
 3968SOL    HW112803   4.999   0.701   2.332
 3968SOL    HW212804   5.070   0.555   2.348
 3969SOL     OW12805   1.347   4.892   2.963
 3969SOL    HW112806   1.303   4.953   2.898
 3969SOL    HW212807   1.370   4.942   3.046
 3970SOL     OW12808   4.886   4.929   3.952
 3970SOL    HW112809   4.862   4.880   4.036
 3970SOL    HW212810   4.840   5.017   3.951
 3971SOL     OW12811   2.667   5.413   3.531
 3971SOL    HW112812   2.590   5.452   3.581
 3971SOL    HW212813   2.738   5.385   3.595
 3972SOL     OW12814   0.683   6.342   0.730
 3972SOL    HW112815   0.674   6.440   0.742
 3972SOL    HW212816   0.680   6.297   0.819
 3973SOL     OW12817   3.467   3.692   4.120
 3973SOL    HW112818   3.526   3.655   4.048
 3973SOL    HW212819   3.523   3.719   4.198
 3974SOL     OW12820   0.032   1.522   6.126
 3974SOL    HW112821   0.130   1.514   6.143
 3974SOL    HW212822   0.011   1.484   6.036
 3975SOL     OW12823   6.539   0.962   6.438
 3975SOL    HW112824   6.554   0.864   6.430
 3975SOL    HW212825   6.493   0.983   6.525
 3976SOL     OW12826   1.221   4.424   0.985
 3976SOL    HW112827   1.184   4.434   1.077
 3976SOL    HW212828   1.299   4.361   0.986
 3977SOL     OW12829   2.148   5.950   6.338
 3977SOL    HW112830   2.193   5.883   6.398
 3977SOL    HW212831   2.062   5.978   6.379
 3978SOL     OW12832   5.814   1.768   5.511
 3978SOL    HW112833   5.726   1.724   5.495
 3978SOL    HW212834   5.861   1.724   5.588
 3979SOL     OW12835   1.157   6.818   1.677
 3979SOL    HW112836   1.185   6.808   1.772
 3979SOL    HW212837   1.057   6.811   1.670
 3980SOL     OW12838   5.276   3.473   4.484
 3980SOL    HW112839   5.338   3.545   4.453
 3980SOL    HW212840   5.215   3.508   4.554
 3981SOL     OW12841   0.372   1.578   6.403
 3981SOL    HW112842   0.342   1.541   6.491
 3981SOL    HW212843   0.385   1.677   6.412
 3982SOL     OW12844   2.200   0.868   4.440
 3982SOL    HW112845   2.225   0.853   4.536
 3982SOL    HW212846   2.171   0.963   4.428
 3983SOL     OW12847   3.001   6.968   4.599
 3983SOL    HW112848   2.957   6.907   4.663
 3983SOL    HW212849   3.097   6.981   4.625
 3984SOL     OW12850   1.591   6.546   2.031
 3984SOL    HW112851   1.687   6.571   2.018
 3984SOL    HW212852   1.533   6.619   1.997
 3985SOL     OW12853   1.494   3.756   6.701
 3985SOL    HW112854   1.495   3.674   6.759
 3985SOL    HW212855   1.400   3.787   6.689
 3986SOL     OW12856   0.115   1.816   1.314
 3986SOL    HW112857   0.057   1.851   1.241
 3986SOL    HW212858   0.098   1.869   1.398
 3987SOL     OW12859   2.328   5.611   5.613
 3987SOL    HW112860   2.244   5.620   5.560
 3987SOL    HW212861   2.314   5.545   5.687
 3988SOL     OW12862   4.336   1.852   6.464
 3988SOL    HW112863   4.293   1.763   6.447
 3988SOL    HW212864   4.421   1.838   6.516
 3989SOL     OW12865   6.328   0.328   7.012
 3989SOL    HW112866   6.346   0.235   6.981
 3989SOL    HW212867   6.387   0.392   6.963
 3990SOL     OW12868   6.957   2.901   4.421
 3990SOL    HW112869   6.961   3.001   4.415
 3990SOL    HW212870   6.863   2.873   4.437
 3991SOL     OW12871   0.639   2.194   3.628
 3991SOL    HW112872   0.625   2.211   3.725
 3991SOL    HW212873   0.724   2.144   3.615
 3992SOL     OW12874   4.273   3.231   6.570
 3992SOL    HW112875   4.255   3.256   6.475
 3992SOL    HW212876   4.211   3.282   6.630
 3993SOL     OW12877   2.746   2.149   2.432
 3993SOL    HW112878   2.715   2.182   2.521
 3993SOL    HW212879   2.844   2.126   2.437
 3994SOL     OW12880   2.593   2.456   4.956
 3994SOL    HW112881   2.602   2.477   4.858
 3994SOL    HW212882   2.679   2.419   4.990
 3995SOL     OW12883   1.865   3.954   3.444
 3995SOL    HW112884   1.766   3.952   3.459
 3995SOL    HW212885   1.910   3.978   3.530
 3996SOL     OW12886   1.049   1.100   4.499
 3996SOL    HW112887   1.018   1.025   4.558
 3996SOL    HW212888   1.110   1.063   4.429
 3997SOL     OW12889   4.905   3.837   3.419
 3997SOL    HW112890   4.996   3.831   3.460
 3997SOL    HW212891   4.869   3.745   3.407
 3998SOL     OW12892   6.081   2.006   2.827
 3998SOL    HW112893   6.152   1.977   2.891
 3998SOL    HW212894   6.097   1.965   2.738
 3999SOL     OW12895   5.862   3.880   3.156
 3999SOL    HW112896   5.853   3.969   3.201
 3999SOL    HW212897   5.900   3.814   3.221
 4000SOL     OW12898   2.969   5.458   2.794
 4000SOL    HW112899   3.033   5.490   2.864
 4000SOL    HW212900   2.981   5.359   2.780
 4001SOL     OW12901   2.721   3.764   5.961
 4001SOL    HW112902   2.757   3.676   5.991
 4001SOL    HW212903   2.790   3.813   5.908
 4002SOL     OW12904   3.914   3.123   5.219
 4002SOL    HW112905   3.909   3.099   5.122
 4002SOL    HW212906   3.979   3.198   5.231
 4003SOL     OW12907   2.370   1.139   6.591
 4003SOL    HW112908   2.324   1.227   6.584
 4003SOL    HW212909   2.391   1.104   6.500
 4004SOL     OW12910   6.335   3.710   3.094
 4004SOL    HW112911   6.317   3.714   3.192
 4004SOL    HW212912   6.431   3.733   3.077
 4005SOL     OW12913   4.067   4.270   1.250
 4005SOL    HW112914   4.097   4.349   1.196
 4005SOL    HW212915   3.992   4.297   1.310
 4006SOL     OW12916   5.354   4.732   1.960
 4006SOL    HW112917   5.281   4.663   1.955
 4006SOL    HW212918   5.322   4.818   1.921
 4007SOL     OW12919   0.213   1.947   3.254
 4007SOL    HW112920   0.218   2.043   3.226
 4007SOL    HW212921   0.288   1.896   3.212
 4008SOL     OW12922   2.918   6.651   0.008
 4008SOL    HW112923   2.832   6.640   6.978
 4008SOL    HW212924   2.994   6.660   6.963
 4009SOL     OW12925   5.096   2.158   1.330
 4009SOL    HW112926   5.081   2.167   1.429
 4009SOL    HW212927   5.028   2.096   1.292
 4010SOL     OW12928   3.189   3.889   1.272
 4010SOL    HW112929   3.142   3.944   1.341
 4010SOL    HW212930   3.139   3.804   1.257
 4011SOL     OW12931   6.651   5.989   1.404
 4011SOL    HW112932   6.655   6.047   1.485
 4011SOL    HW212933   6.717   6.021   1.337
 4012SOL     OW12934   3.981   7.001   2.313
 4012SOL    HW112935   3.892   0.022   2.332
 4012SOL    HW212936   3.978   6.956   2.223
 4013SOL     OW12937   2.121   6.888   1.741
 4013SOL    HW112938   2.167   6.936   1.815
 4013SOL    HW212939   2.188   6.845   1.681
 4014SOL     OW12940   3.612   6.460   3.972
 4014SOL    HW112941   3.521   6.423   3.954
 4014SOL    HW212942   3.606   6.532   4.041
 4015SOL     OW12943   4.884   4.569   6.351
 4015SOL    HW112944   4.959   4.508   6.379
 4015SOL    HW212945   4.870   4.639   6.421
 4016SOL     OW12946   2.685   5.354   0.527
 4016SOL    HW112947   2.745   5.426   0.562
 4016SOL    HW212948   2.738   5.270   0.513
 4017SOL     OW12949   0.080   4.940   5.350
 4017SOL    HW112950   7.017   4.886   5.333
 4017SOL    HW212951   0.156   4.878   5.368
 4018SOL     OW12952   3.792   0.143   1.670
 4018SOL    HW112953   3.855   0.128   1.746
 4018SOL    HW212954   3.702   0.170   1.706
 4019SOL     OW12955   5.653   3.915   2.611
 4019SOL    HW112956   5.578   3.866   2.655
 4019SOL    HW212957   5.733   3.856   2.605
 4020SOL     OW12958   6.877   3.007   5.377
 4020SOL    HW112959   6.846   2.982   5.469
 4020SOL    HW212960   6.854   2.933   5.314
 4021SOL     OW12961   3.477   4.046   5.090
 4021SOL    HW112962   3.555   4.020   5.147
 4021SOL    HW212963   3.472   3.985   5.011
 4022SOL     OW12964   4.289   6.408   0.279
 4022SOL    HW112965   4.288   6.500   0.319
 4022SOL    HW212966   4.235   6.408   0.195
 4023SOL     OW12967   0.044   1.154   6.202
 4023SOL    HW112968   0.071   1.174   6.297
 4023SOL    HW212969   6.977   1.104   6.202
 4024SOL     OW12970   2.682   5.269   4.315
 4024SOL    HW112971   2.603   5.245   4.372
 4024SOL    HW212972   2.689   5.205   4.239
 4025SOL     OW12973   0.651   6.309   4.609
 4025SOL    HW112974   0.587   6.235   4.625
 4025SOL    HW212975   0.638   6.381   4.678
 4026SOL     OW12976   6.210   6.332   4.171
 4026SOL    HW112977   6.199   6.393   4.250
 4026SOL    HW212978   6.190   6.382   4.087
 4027SOL     OW12979   2.761   2.082   0.183
 4027SOL    HW112980   2.719   2.171   0.163
 4027SOL    HW212981   2.852   2.078   0.142
 4028SOL     OW12982   3.942   1.775   3.550
 4028SOL    HW112983   3.897   1.764   3.462
 4028SOL    HW212984   3.978   1.868   3.558
 4029SOL     OW12985   2.941   4.342   6.270
 4029SOL    HW112986   2.847   4.376   6.266
 4029SOL    HW212987   3.003   4.412   6.234
 4030SOL     OW12988   6.885   1.080   1.618
 4030SOL    HW112989   6.861   1.169   1.579
 4030SOL    HW212990   6.852   1.076   1.712
 4031SOL     OW12991   4.840   6.165   3.402
 4031SOL    HW112992   4.939   6.149   3.394
 4031SOL    HW212993   4.825   6.256   3.442
 4032SOL     OW12994   0.281   0.048   2.742
 4032SOL    HW112995   0.348   7.011   2.693
 4032SOL    HW212996   0.288   0.142   2.710
 4033SOL     OW12997   1.387   2.722   1.717
 4033SOL    HW112998   1.349   2.752   1.804
 4033SOL    HW212999   1.392   2.622   1.715
 4034SOL     OW13000   5.670   2.054   5.384
 4034SOL    HW113001   5.629   1.968   5.353
 4034SOL    HW213002   5.729   2.037   5.463
 4035SOL     OW13003   6.068   1.092   1.004
 4035SOL    HW113004   6.123   1.016   1.039
 4035SOL    HW213005   5.972   1.065   1.004
 4036SOL     OW13006   3.819   4.856   2.266
 4036SOL    HW113007   3.917   4.841   2.263
 4036SOL    HW213008   3.772   4.768   2.273
 4037SOL     OW13009   2.106   1.182   6.435
 4037SOL    HW113010   2.013   1.168   6.402
 4037SOL    HW213011   2.136   1.102   6.487
 4038SOL     OW13012   4.220   3.008   0.714
 4038SOL    HW113013   4.224   2.908   0.707
 4038SOL    HW213014   4.140   3.034   0.768
 4039SOL     OW13015   4.616   5.792   1.819
 4039SOL    HW113016   4.661   5.705   1.839
 4039SOL    HW213017   4.569   5.786   1.731
 4040SOL     OW13018   2.964   7.011   5.346
 4040SOL    HW113019   3.056   6.980   5.323
 4040SOL    HW213020   2.899   6.937   5.329
 4041SOL     OW13021   1.726   5.292   1.051
 4041SOL    HW113022   1.725   5.388   1.024
 4041SOL    HW213023   1.653   5.243   1.005
 4042SOL     OW13024   6.320   5.905   4.403
 4042SOL    HW113025   6.295   5.849   4.482
 4042SOL    HW213026   6.244   5.967   4.380
 4043SOL     OW13027   6.938   2.210   6.247
 4043SOL    HW113028   6.885   2.264   6.312
 4043SOL    HW213029   6.908   2.115   6.251
 4044SOL     OW13030   5.377   6.007   3.792
 4044SOL    HW113031   5.313   6.065   3.742
 4044SOL    HW213032   5.346   5.997   3.886
 4045SOL     OW13033   4.049   6.505   5.706
 4045SOL    HW113034   3.958   6.546   5.711
 4045SOL    HW213035   4.080   6.481   5.798
 4046SOL     OW13036   0.876   2.007   3.093
 4046SOL    HW113037   0.778   2.004   3.116
 4046SOL    HW213038   0.897   1.933   3.030
 4047SOL     OW13039   2.373   2.041   6.939
 4047SOL    HW113040   2.373   2.092   6.853
 4047SOL    HW213041   2.374   2.105   7.016
 4048SOL     OW13042   5.206   1.446   1.506
 4048SOL    HW113043   5.248   1.535   1.489
 4048SOL    HW213044   5.254   1.401   1.581
 4049SOL     OW13045   5.053   5.153   6.534
 4049SOL    HW113046   5.044   5.249   6.560
 4049SOL    HW213047   5.021   5.095   6.609
 4050SOL     OW13048   0.797   6.299   2.174
 4050SOL    HW113049   0.888   6.270   2.145
 4050SOL    HW213050   0.760   6.363   2.107
 4051SOL     OW13051   3.844   1.602   6.337
 4051SOL    HW113052   3.827   1.503   6.329
 4051SOL    HW213053   3.767   1.652   6.297
 4052SOL     OW13054   5.836   1.571   2.886
 4052SOL    HW113055   5.747   1.528   2.896
 4052SOL    HW213056   5.842   1.617   2.797
 4053SOL     OW13057   2.616   6.905   4.703
 4053SOL    HW113058   2.570   6.991   4.727
 4053SOL    HW213059   2.547   6.834   4.689
 4054SOL     OW13060   5.023   4.305   1.158
 4054SOL    HW113061   5.061   4.233   1.100
 4054SOL    HW213062   5.058   4.296   1.251
 4055SOL     OW13063   2.972   3.840   0.602
 4055SOL    HW113064   2.976   3.929   0.558
 4055SOL    HW213065   3.011   3.847   0.694
 4056SOL     OW13066   5.529   4.176   0.878
 4056SOL    HW113067   5.608   4.236   0.865
 4056SOL    HW213068   5.473   4.209   0.954
 4057SOL     OW13069   0.329   2.599   0.542
 4057SOL    HW113070   0.400   2.631   0.479
 4057SOL    HW213071   0.343   2.639   0.632
 4058SOL     OW13072   2.953   6.602   4.974
 4058SOL    HW113073   2.930   6.593   5.071
 4058SOL    HW213074   2.951   6.512   4.931
 4059SOL     OW13075   0.721   1.768   2.443
 4059SOL    HW113076   0.771   1.710   2.378
 4059SOL    HW213077   0.631   1.790   2.405
 4060SOL     OW13078   5.454   4.911   5.478
 4060SOL    HW113079   5.373   4.962   5.450
 4060SOL    HW213080   5.510   4.968   5.539
 4061SOL     OW13081   2.081   4.987   2.134
 4061SOL    HW113082   2.108   5.008   2.228
 4061SOL    HW213083   1.984   4.963   2.132
 4062SOL     OW13084   2.394   0.502   1.656
 4062SOL    HW113085   2.441   0.590   1.667
 4062SOL    HW213086   2.423   0.459   1.571
 4063SOL     OW13087   6.199   6.204   0.448
 4063SOL    HW113088   6.208   6.105   0.444
 4063SOL    HW213089   6.272   6.247   0.394
 4064SOL     OW13090   2.429   0.736   3.800
 4064SOL    HW113091   2.335   0.767   3.813
 4064SOL    HW213092   2.477   0.797   3.738
 4065SOL     OW13093   1.248   6.351   1.574
 4065SOL    HW113094   1.299   6.361   1.659
 4065SOL    HW213095   1.250   6.255   1.545
 4066SOL     OW13096   6.320   4.463   3.240
 4066SOL    HW113097   6.375   4.397   3.290
 4066SOL    HW213098   6.347   4.463   3.143
 4067SOL     OW13099   6.366   3.313   2.782
 4067SOL    HW113100   6.416   3.374   2.843
 4067SOL    HW213101   6.346   3.360   2.696
 4068SOL     OW13102   2.139   1.404   4.523
 4068SOL    HW113103   2.173   1.455   4.602
 4068SOL    HW213104   2.040   1.396   4.529
 4069SOL     OW13105   3.504   5.212   6.689
 4069SOL    HW113106   3.591   5.184   6.730
 4069SOL    HW213107   3.489   5.309   6.706
 4070SOL     OW13108   0.225   2.431   2.912
 4070SOL    HW113109   0.186   2.520   2.936
 4070SOL    HW213110   0.266   2.435   2.821
 4071SOL     OW13111   0.679   1.535   5.309
 4071SOL    HW113112   0.675   1.465   5.379
 4071SOL    HW213113   0.729   1.615   5.344
 4072SOL     OW13114   0.921   5.454   4.711
 4072SOL    HW113115   0.883   5.546   4.720
 4072SOL    HW213116   0.954   5.441   4.617
 4073SOL     OW13117   3.188   6.146   6.546
 4073SOL    HW113118   3.202   6.207   6.469
 4073SOL    HW213119   3.273   6.097   6.565
 4074SOL     OW13120   0.404   4.373   1.192
 4074SOL    HW113121   0.431   4.464   1.161
 4074SOL    HW213122   0.306   4.360   1.177
 4075SOL     OW13123   4.916   1.955   1.476
 4075SOL    HW113124   4.974   1.897   1.534
 4075SOL    HW213125   4.872   2.025   1.533
 4076SOL     OW13126   2.807   3.533   6.056
 4076SOL    HW113127   2.894   3.502   6.018
 4076SOL    HW213128   2.735   3.469   6.029
 4077SOL     OW13129   3.819   1.470   6.813
 4077SOL    HW113130   3.837   1.408   6.890
 4077SOL    HW213131   3.840   1.564   6.841
 4078SOL     OW13132   1.180   5.200   1.618
 4078SOL    HW113133   1.147   5.224   1.709
 4078SOL    HW213134   1.146   5.110   1.593
 4079SOL     OW13135   1.872   0.962   3.579
 4079SOL    HW113136   1.773   0.948   3.585
 4079SOL    HW213137   1.904   0.929   3.490
 4080SOL     OW13138   4.620   3.831   6.323
 4080SOL    HW113139   4.657   3.884   6.247
 4080SOL    HW213140   4.529   3.797   6.299
 4081SOL     OW13141   2.163   2.938   4.200
 4081SOL    HW113142   2.206   2.965   4.286
 4081SOL    HW213143   2.064   2.945   4.208
 4082SOL     OW13144   0.923   4.049   0.033
 4082SOL    HW113145   0.914   3.956   7.016
 4082SOL    HW213146   0.930   4.114   6.977
 4083SOL     OW13147   7.013   2.816   2.720
 4083SOL    HW113148   6.924   2.775   2.698
 4083SOL    HW213149   6.999   2.896   2.779
 4084SOL     OW13150   5.454   2.427   3.933
 4084SOL    HW113151   5.452   2.327   3.938
 4084SOL    HW213152   5.377   2.459   3.878
 4085SOL     OW13153   3.175   5.668   1.925
 4085SOL    HW113154   3.264   5.692   1.963
 4085SOL    HW213155   3.165   5.710   1.834
 4086SOL     OW13156   1.804   5.821   1.673
 4086SOL    HW113157   1.893   5.784   1.646
 4086SOL    HW213158   1.816   5.882   1.751
 4087SOL     OW13159   2.119   1.909   3.665
 4087SOL    HW113160   2.173   1.912   3.749
 4087SOL    HW213161   2.024   1.932   3.685
 4088SOL     OW13162   0.153   1.893   0.427
 4088SOL    HW113163   0.146   1.936   0.517
 4088SOL    HW213164   0.198   1.804   0.436
 4089SOL     OW13165   6.088   6.098   4.064
 4089SOL    HW113166   6.147   6.156   4.120
 4089SOL    HW213167   6.080   6.136   3.972
 4090SOL     OW13168   1.200   4.303   6.060
 4090SOL    HW113169   1.174   4.399   6.053
 4090SOL    HW213170   1.185   4.258   5.972
 4091SOL     OW13171   0.220   6.303   0.450
 4091SOL    HW113172   0.209   6.206   0.431
 4091SOL    HW213173   0.131   6.345   0.463
 4092SOL     OW13174   6.837   2.368   5.747
 4092SOL    HW113175   6.881   2.320   5.670
 4092SOL    HW213176   6.842   2.311   5.829
 4093SOL     OW13177   4.518   0.337   2.488
 4093SOL    HW113178   4.548   0.281   2.565
 4093SOL    HW213179   4.587   0.334   2.416
 4094SOL     OW13180   2.900   6.131   4.409
 4094SOL    HW113181   2.860   6.140   4.318
 4094SOL    HW213182   2.834   6.162   4.478
 4095SOL     OW13183   0.618   3.870   0.307
 4095SOL    HW113184   0.546   3.803   0.289
 4095SOL    HW213185   0.589   3.960   0.276
 4096SOL     OW13186   4.523   5.921   5.959
 4096SOL    HW113187   4.545   5.827   5.985
 4096SOL    HW213188   4.569   5.984   6.022
 4097SOL     OW13189   3.403   4.454   5.637
 4097SOL    HW113190   3.392   4.459   5.538
 4097SOL    HW213191   3.317   4.425   5.679
 4098SOL     OW13192   0.619   2.684   1.797
 4098SOL    HW113193   0.611   2.634   1.710
 4098SOL    HW213194   0.702   2.741   1.794
 4099SOL     OW13195   2.812   5.006   1.551
 4099SOL    HW113196   2.778   5.082   1.606
 4099SOL    HW213197   2.764   5.004   1.464
 4100SOL     OW13198   6.848   5.472   4.666
 4100SOL    HW113199   6.840   5.405   4.591
 4100SOL    HW213200   6.935   5.520   4.659
 4101SOL     OW13201   6.398   1.396   0.319
 4101SOL    HW113202   6.418   1.444   0.234
 4101SOL    HW213203   6.475   1.335   0.342
 4102SOL     OW13204   6.125   0.652   0.929
 4102SOL    HW113205   6.218   0.616   0.920
 4102SOL    HW213206   6.120   0.742   0.886
 4103SOL     OW13207   0.194   0.955   0.264
 4103SOL    HW113208   0.146   0.911   0.340
 4103SOL    HW213209   0.144   1.037   0.235
 4104SOL     OW13210   0.554   4.611   2.198
 4104SOL    HW113211   0.512   4.628   2.287
 4104SOL    HW213212   0.564   4.697   2.148
 4105SOL     OW13213   4.499   0.089   1.733
 4105SOL    HW113214   4.474   0.060   1.640
 4105SOL    HW213215   4.459   0.179   1.751
 4106SOL     OW13216   6.794   2.560   3.719
 4106SOL    HW113217   6.819   2.633   3.655
 4106SOL    HW213218   6.697   2.537   3.707
 4107SOL     OW13219   1.330   6.114   1.481
 4107SOL    HW113220   1.430   6.104   1.487
 4107SOL    HW213221   1.290   6.098   1.571
 4108SOL     OW13222   6.461   4.571   5.348
 4108SOL    HW113223   6.489   4.497   5.287
 4108SOL    HW213224   6.378   4.544   5.398
 4109SOL     OW13225   5.594   6.822   5.267
 4109SOL    HW113226   5.632   6.761   5.198
 4109SOL    HW213227   5.521   6.877   5.226
 4110SOL     OW13228   4.190   3.710   6.187
 4110SOL    HW113229   4.194   3.807   6.211
 4110SOL    HW213230   4.233   3.656   6.260
 4111SOL     OW13231   3.847   3.346   6.579
 4111SOL    HW113232   3.830   3.434   6.533
 4111SOL    HW213233   3.814   3.272   6.522
 4112SOL     OW13234   4.924   0.082   5.164
 4112SOL    HW113235   4.858   0.080   5.239
 4112SOL    HW213236   4.912   0.166   5.111
 4113SOL     OW13237   4.809   6.543   4.696
 4113SOL    HW113238   4.818   6.445   4.677
 4113SOL    HW213239   4.803   6.593   4.610
 4114SOL     OW13240   3.309   2.124   4.370
 4114SOL    HW113241   3.372   2.050   4.390
 4114SOL    HW213242   3.272   2.162   4.455
 4115SOL     OW13243   3.740   5.127   2.611
 4115SOL    HW113244   3.805   5.185   2.661
 4115SOL    HW213245   3.762   5.128   2.514
 4116SOL     OW13246   3.813   2.110   1.804
 4116SOL    HW113247   3.833   2.188   1.746
 4116SOL    HW213248   3.756   2.139   1.881
 4117SOL     OW13249   0.961   4.730   2.175
 4117SOL    HW113250   0.944   4.659   2.243
 4117SOL    HW213251   0.966   4.689   2.084
 4118SOL     OW13252   2.689   6.643   0.499
 4118SOL    HW113253   2.643   6.725   0.466
 4118SOL    HW213254   2.731   6.595   0.421
 4119SOL     OW13255   3.453   1.720   3.722
 4119SOL    HW113256   3.390   1.642   3.718
 4119SOL    HW213257   3.410   1.799   3.678
 4120SOL     OW13258   3.898   0.017   0.607
 4120SOL    HW113259   3.922   6.956   0.661
 4120SOL    HW213260   3.896   7.013   0.510
 4121SOL     OW13261   6.241   1.000   5.145
 4121SOL    HW113262   6.317   0.962   5.197
 4121SOL    HW213263   6.171   0.930   5.130
 4122SOL     OW13264   0.640   5.539   5.258
 4122SOL    HW113265   0.713   5.587   5.306
 4122SOL    HW213266   0.573   5.504   5.324
 4123SOL     OW13267   4.147   4.845   6.159
 4123SOL    HW113268   4.075   4.906   6.128
 4123SOL    HW213269   4.180   4.790   6.082
 4124SOL     OW13270   5.494   5.101   6.559
 4124SOL    HW113271   5.583   5.145   6.547
 4124SOL    HW213272   5.506   5.012   6.603
 4125SOL     OW13273   4.558   1.719   2.611
 4125SOL    HW113274   4.635   1.764   2.656
 4125SOL    HW213275   4.500   1.676   2.680
 4126SOL     OW13276   1.279   3.410   3.979
 4126SOL    HW113277   1.370   3.371   3.992
 4126SOL    HW213278   1.212   3.358   4.032
 4127SOL     OW13279   4.376   4.694   4.524
 4127SOL    HW113280   4.372   4.700   4.624
 4127SOL    HW213281   4.457   4.743   4.492
 4128SOL     OW13282   1.367   3.083   2.075
 4128SOL    HW113283   1.362   3.119   1.982
 4128SOL    HW213284   1.301   3.132   2.133
 4129SOL     OW13285   4.566   1.879   6.613
 4129SOL    HW113286   4.573   1.787   6.651
 4129SOL    HW213287   4.549   1.945   6.686
 4130SOL     OW13288   6.684   2.589   5.499
 4130SOL    HW113289   6.738   2.611   5.581
 4130SOL    HW213290   6.664   2.491   5.499
 4131SOL     OW13291   1.585   6.857   3.034
 4131SOL    HW113292   1.670   6.858   2.982
 4131SOL    HW213293   1.519   6.797   2.988
 4132SOL     OW13294   5.065   4.419   3.540
 4132SOL    HW113295   5.122   4.337   3.550
 4132SOL    HW213296   4.969   4.392   3.539
 4133SOL     OW13297   3.055   0.206   1.362
 4133SOL    HW113298   3.142   0.199   1.312
 4133SOL    HW213299   3.022   0.115   1.386
 4134SOL     OW13300   2.593   3.104   6.985
 4134SOL    HW113301   2.535   3.138   0.039
 4134SOL    HW213302   2.666   3.048   0.003
 4135SOL     OW13303   1.482   1.502   3.129
 4135SOL    HW113304   1.523   1.449   3.055
 4135SOL    HW213305   1.533   1.587   3.141
 4136SOL     OW13306   1.299   2.418   2.852
 4136SOL    HW113307   1.368   2.471   2.803
 4136SOL    HW213308   1.231   2.384   2.787
 4137SOL     OW13309   1.152   4.589   0.547
 4137SOL    HW113310   1.248   4.611   0.561
 4137SOL    HW213311   1.097   4.673   0.556
 4138SOL     OW13312   3.968   5.167   3.111
 4138SOL    HW113313   3.915   5.084   3.092
 4138SOL    HW213314   3.946   5.237   3.043
 4139SOL     OW13315   2.345   2.379   5.083
 4139SOL    HW113316   2.398   2.372   4.998
 4139SOL    HW213317   2.254   2.341   5.069
 4140SOL     OW13318   2.858   0.852   5.679
 4140SOL    HW113319   2.956   0.830   5.683
 4140SOL    HW213320   2.813   0.818   5.761
 4141SOL     OW13321   5.914   6.547   1.615
 4141SOL    HW113322   5.903   6.458   1.570
 4141SOL    HW213323   5.943   6.533   1.710
 4142SOL     OW13324   6.241   5.714   0.885
 4142SOL    HW113325   6.174   5.673   0.823
 4142SOL    HW213326   6.314   5.648   0.903
 4143SOL     OW13327   0.167   2.853   0.730
 4143SOL    HW113328   0.227   2.913   0.783
 4143SOL    HW213329   0.167   2.761   0.770
 4144SOL     OW13330   5.038   4.164   5.926
 4144SOL    HW113331   5.009   4.186   6.019
 4144SOL    HW213332   5.043   4.249   5.872
 4145SOL     OW13333   6.584   5.971   0.864
 4145SOL    HW113334   6.599   5.909   0.941
 4145SOL    HW213335   6.627   6.059   0.884
 4146SOL     OW13336   6.484   0.990   5.305
 4146SOL    HW113337   6.527   1.080   5.307
 4146SOL    HW213338   6.554   0.920   5.294
 4147SOL     OW13339   4.697   3.513   5.566
 4147SOL    HW113340   4.728   3.442   5.630
 4147SOL    HW213341   4.685   3.473   5.475
 4148SOL     OW13342   0.861   0.725   5.206
 4148SOL    HW113343   0.857   0.807   5.264
 4148SOL    HW213344   0.943   0.730   5.149
 4149SOL     OW13345   0.079   2.660   0.440
 4149SOL    HW113346   0.092   2.711   0.356
 4149SOL    HW213347   0.168   2.644   0.483
 4150SOL     OW13348   0.531   1.001   5.477
 4150SOL    HW113349   0.457   1.028   5.539
 4150SOL    HW213350   0.495   0.986   5.385
 4151SOL     OW13351   3.820   6.101   5.909
 4151SOL    HW113352   3.899   6.152   5.946
 4151SOL    HW213353   3.780   6.045   5.982
 4152SOL     OW13354   2.951   6.130   1.508
 4152SOL    HW113355   2.925   6.144   1.412
 4152SOL    HW213356   2.949   6.033   1.530
 4153SOL     OW13357   4.134   4.491   6.774
 4153SOL    HW113358   4.188   4.558   6.826
 4153SOL    HW213359   4.169   4.487   6.680
 4154SOL     OW13360   0.504   4.851   4.589
 4154SOL    HW113361   0.594   4.809   4.593
 4154SOL    HW213362   0.433   4.780   4.586
 4155SOL     OW13363   6.931   1.564   2.235
 4155SOL    HW113364   6.835   1.536   2.242
 4155SOL    HW213365   6.941   1.658   2.268
 4156SOL     OW13366   5.214   6.549   4.864
 4156SOL    HW113367   5.232   6.452   4.883
 4156SOL    HW213368   5.127   6.576   4.906
 4157SOL     OW13369   4.181   6.265   4.262
 4157SOL    HW113370   4.268   6.218   4.279
 4157SOL    HW213371   4.140   6.229   4.178
 4158SOL     OW13372   1.425   4.630   3.048
 4158SOL    HW113373   1.413   4.632   3.148
 4158SOL    HW213374   1.377   4.707   3.007
 4159SOL     OW13375   2.197   3.196   4.371
 4159SOL    HW113376   2.193   3.228   4.465
 4159SOL    HW213377   2.236   3.104   4.369
 4160SOL     OW13378   6.145   0.859   0.777
 4160SOL    HW113379   6.237   0.892   0.799
 4160SOL    HW213380   6.102   0.920   0.711
 4161SOL     OW13381   0.844   0.643   0.003
 4161SOL    HW113382   0.936   0.606   0.017
 4161SOL    HW213383   0.848   0.743   0.002
 4162SOL     OW13384   6.138   6.452   5.715
 4162SOL    HW113385   6.144   6.550   5.734
 4162SOL    HW213386   6.079   6.437   5.636
 4163SOL     OW13387   6.206   6.965   3.069
 4163SOL    HW113388   6.128   6.986   3.129
 4163SOL    HW213389   6.291   6.988   3.117
 4164SOL     OW13390   1.422   6.651   0.012
 4164SOL    HW113391   1.435   6.690   6.941
 4164SOL    HW213392   1.509   6.619   0.048
 4165SOL     OW13393   4.301   0.132   6.812
 4165SOL    HW113394   4.354   0.171   6.737
 4165SOL    HW213395   4.358   0.127   6.894
 4166SOL     OW13396   5.896   3.974   0.995
 4166SOL    HW113397   5.864   4.051   0.940
 4166SOL    HW213398   5.913   3.896   0.935
 4167SOL     OW13399   1.209   4.042   1.054
 4167SOL    HW113400   1.288   4.097   1.081
 4167SOL    HW213401   1.215   4.023   0.956
 4168SOL     OW13402   6.779   5.125   1.167
 4168SOL    HW113403   6.803   5.030   1.144
 4168SOL    HW213404   6.861   5.175   1.193
 4169SOL     OW13405   5.845   4.173   4.006
 4169SOL    HW113406   5.925   4.114   3.996
 4169SOL    HW213407   5.872   4.269   4.000
 4170SOL     OW13408   3.137   4.069   5.003
 4170SOL    HW113409   3.128   4.161   5.042
 4170SOL    HW213410   3.084   4.063   4.918
 4171SOL     OW13411   5.019   4.980   1.635
 4171SOL    HW113412   4.960   4.906   1.669
 4171SOL    HW213413   4.987   5.067   1.673
 4172SOL     OW13414   0.393   1.720   6.113
 4172SOL    HW113415   0.314   1.781   6.105
 4172SOL    HW213416   0.369   1.643   6.172
 4173SOL     OW13417   5.412   3.497   5.398
 4173SOL    HW113418   5.362   3.563   5.341
 4173SOL    HW213419   5.484   3.454   5.344
 4174SOL     OW13420   5.329   0.820   3.479
 4174SOL    HW113421   5.328   0.893   3.411
 4174SOL    HW213422   5.374   0.852   3.563
 4175SOL     OW13423   2.156   5.923   4.549
 4175SOL    HW113424   2.204   5.860   4.609
 4175SOL    HW213425   2.063   5.890   4.533
 4176SOL     OW13426   2.731   6.799   1.823
 4176SOL    HW113427   2.798   6.798   1.897
 4176SOL    HW213428   2.664   6.726   1.838
 4177SOL     OW13429   6.644   4.451   4.629
 4177SOL    HW113430   6.625   4.445   4.531
 4177SOL    HW213431   6.669   4.545   4.652
 4178SOL     OW13432   4.245   1.416   4.144
 4178SOL    HW113433   4.260   1.349   4.217
 4178SOL    HW213434   4.167   1.387   4.088
 4179SOL     OW13435   5.094   2.353   3.488
 4179SOL    HW113436   5.156   2.349   3.409
 4179SOL    HW213437   5.033   2.431   3.479
 4180SOL     OW13438   5.595   3.623   1.413
 4180SOL    HW113439   5.554   3.564   1.344
 4180SOL    HW213440   5.550   3.607   1.501
 4181SOL     OW13441   2.148   1.934   6.667
 4181SOL    HW113442   2.189   1.954   6.756
 4181SOL    HW213443   2.127   1.836   6.662
 4182SOL     OW13444   0.382   6.441   2.878
 4182SOL    HW113445   0.396   6.362   2.819
 4182SOL    HW213446   0.395   6.525   2.825
 4183SOL     OW13447   4.370   0.203   0.498
 4183SOL    HW113448   4.357   0.163   0.407
 4183SOL    HW213449   4.462   0.180   0.531
 4184SOL     OW13450   4.861   5.373   1.550
 4184SOL    HW113451   4.901   5.463   1.533
 4184SOL    HW213452   4.762   5.379   1.542
 4185SOL     OW13453   1.293   5.863   2.195
 4185SOL    HW113454   1.349   5.942   2.218
 4185SOL    HW213455   1.203   5.872   2.238
 4186SOL     OW13456   1.924   4.819   0.920
 4186SOL    HW113457   1.962   4.727   0.926
 4186SOL    HW213458   1.826   4.817   0.944
 4187SOL     OW13459   3.366   4.127   5.896
 4187SOL    HW113460   3.400   4.052   5.953
 4187SOL    HW213461   3.428   4.205   5.902
 4188SOL     OW13462   5.218   6.836   4.116
 4188SOL    HW113463   5.141   6.826   4.178
 4188SOL    HW213464   5.299   6.792   4.156
 4189SOL     OW13465   3.293   0.830   5.102
 4189SOL    HW113466   3.360   0.862   5.169
 4189SOL    HW213467   3.286   0.730   5.107
 4190SOL     OW13468   0.839   0.293   0.029
 4190SOL    HW113469   0.888   0.302   6.963
 4190SOL    HW213470   0.819   0.196   0.046
 4191SOL     OW13471   5.578   3.688   3.023
 4191SOL    HW113472   5.542   3.614   2.968
 4191SOL    HW213473   5.557   3.776   2.979
 4192SOL     OW13474   0.161   0.454   3.272
 4192SOL    HW113475   0.157   0.431   3.369
 4192SOL    HW213476   0.244   0.415   3.232
 4193SOL     OW13477   2.473   6.781   2.305
 4193SOL    HW113478   2.408   6.798   2.379
 4193SOL    HW213479   2.562   6.757   2.344
 4194SOL     OW13480   6.192   1.168   5.643
 4194SOL    HW113481   6.174   1.265   5.652
 4194SOL    HW213482   6.266   1.142   5.706
 4195SOL     OW13483   3.880   0.996   1.494
 4195SOL    HW113484   3.895   1.081   1.545
 4195SOL    HW213485   3.884   1.015   1.396
 4196SOL     OW13486   5.872   2.306   3.664
 4196SOL    HW113487   5.798   2.312   3.732
 4196SOL    HW213488   5.919   2.394   3.659
 4197SOL     OW13489   5.010   5.380   5.265
 4197SOL    HW113490   5.042   5.287   5.280
 4197SOL    HW213491   4.911   5.380   5.253
 4198SOL     OW13492   5.247   3.062   6.536
 4198SOL    HW113493   5.214   3.001   6.464
 4198SOL    HW213494   5.345   3.047   6.550
 4199SOL     OW13495   1.981   3.846   6.442
 4199SOL    HW113496   1.897   3.831   6.494
 4199SOL    HW213497   1.957   3.866   6.346
 4200SOL     OW13498   3.483   6.486   5.254
 4200SOL    HW113499   3.477   6.401   5.200
 4200SOL    HW213500   3.478   6.564   5.192
 4201SOL     OW13501   5.634   5.947   4.124
 4201SOL    HW113502   5.581   5.870   4.089
 4201SOL    HW213503   5.668   5.926   4.215
 4202SOL     OW13504   4.241   5.986   5.697
 4202SOL    HW113505   4.313   6.024   5.755
 4202SOL    HW213506   4.282   5.929   5.626
 4203SOL     OW13507   4.749   5.545   1.842
 4203SOL    HW113508   4.825   5.525   1.903
 4203SOL    HW213509   4.687   5.466   1.839
 4204SOL     OW13510   3.461   3.167   2.163
 4204SOL    HW113511   3.517   3.102   2.214
 4204SOL    HW213512   3.379   3.189   2.217
 4205SOL     OW13513   3.743   5.351   4.373
 4205SOL    HW113514   3.804   5.349   4.294
 4205SOL    HW213515   3.658   5.303   4.350
 4206SOL     OW13516   5.811   0.587   5.489
 4206SOL    HW113517   5.786   0.541   5.404
 4206SOL    HW213518   5.840   0.681   5.468
 4207SOL     OW13519   2.572   1.441   1.751
 4207SOL    HW113520   2.646   1.488   1.703
 4207SOL    HW213521   2.589   1.342   1.749
 4208SOL     OW13522   1.605   2.767   5.965
 4208SOL    HW113523   1.573   2.720   6.048
 4208SOL    HW213524   1.662   2.846   5.992
 4209SOL     OW13525   1.093   1.113   5.042
 4209SOL    HW113526   1.097   1.168   5.126
 4209SOL    HW213527   0.998   1.105   5.012
 4210SOL     OW13528   2.875   3.610   1.846
 4210SOL    HW113529   2.947   3.585   1.781
 4210SOL    HW213530   2.793   3.558   1.826
 4211SOL     OW13531   4.119   5.718   5.298
 4211SOL    HW113532   4.165   5.641   5.341
 4211SOL    HW213533   4.181   5.796   5.293
 4212SOL     OW13534   5.845   2.118   2.279
 4212SOL    HW113535   5.779   2.060   2.326
 4212SOL    HW213536   5.816   2.132   2.184
 4213SOL     OW13537   2.206   1.160   2.891
 4213SOL    HW113538   2.189   1.065   2.865
 4213SOL    HW213539   2.305   1.178   2.891
 4214SOL     OW13540   0.623   4.203   5.793
 4214SOL    HW113541   0.591   4.288   5.835
 4214SOL    HW213542   0.697   4.223   5.730
 4215SOL     OW13543   6.430   5.485   4.526
 4215SOL    HW113544   6.429   5.468   4.427
 4215SOL    HW213545   6.509   5.541   4.549
 4216SOL     OW13546   1.768   1.739   2.512
 4216SOL    HW113547   1.697   1.678   2.478
 4216SOL    HW213548   1.836   1.687   2.564
 4217SOL     OW13549   5.947   0.058   2.479
 4217SOL    HW113550   5.944   7.000   2.542
 4217SOL    HW213551   5.916   0.029   2.389
 4218SOL     OW13552   4.683   6.873   1.179
 4218SOL    HW113553   4.764   6.927   1.200
 4218SOL    HW213554   4.625   6.922   1.114
 4219SOL     OW13555   2.721   5.487   4.945
 4219SOL    HW113556   2.814   5.455   4.964
 4219SOL    HW213557   2.668   5.487   5.030
 4220SOL     OW13558   6.406   2.568   3.195
 4220SOL    HW113559   6.420   2.651   3.140
 4220SOL    HW213560   6.475   2.564   3.267
 4221SOL     OW13561   5.912   5.642   6.483
 4221SOL    HW113562   5.966   5.559   6.469
 4221SOL    HW213563   5.825   5.633   6.434
 4222SOL     OW13564   6.172   2.453   2.347
 4222SOL    HW113565   6.251   2.414   2.393
 4222SOL    HW213566   6.140   2.390   2.275
 4223SOL     OW13567   2.908   3.600   4.225
 4223SOL    HW113568   2.889   3.678   4.165
 4223SOL    HW213569   2.945   3.525   4.171
 4224SOL     OW13570   5.023   2.882   3.503
 4224SOL    HW113571   5.097   2.889   3.570
 4224SOL    HW213572   4.982   2.791   3.508
 4225SOL     OW13573   4.876   0.500   5.630
 4225SOL    HW113574   4.884   0.533   5.536
 4225SOL    HW213575   4.893   0.402   5.633
 4226SOL     OW13576   1.137   0.544   3.321
 4226SOL    HW113577   1.222   0.495   3.303
 4226SOL    HW213578   1.142   0.588   3.411
 4227SOL     OW13579   3.312   4.735   6.942
 4227SOL    HW113580   3.318   4.789   0.006
 4227SOL    HW213581   3.264   4.787   6.872
 4228SOL     OW13582   6.671   4.468   3.144
 4228SOL    HW113583   6.687   4.560   3.180
 4228SOL    HW213584   6.631   4.474   3.053
 4229SOL     OW13585   4.270   4.957   5.781
 4229SOL    HW113586   4.230   5.041   5.818
 4229SOL    HW213587   4.327   4.914   5.851
 4230SOL     OW13588   2.290   0.823   4.680
 4230SOL    HW113589   2.268   0.887   4.754
 4230SOL    HW213590   2.327   0.739   4.719
 4231SOL     OW13591   5.360   6.685   4.697
 4231SOL    HW113592   5.302   6.638   4.763
 4231SOL    HW213593   5.380   6.777   4.730
 4232SOL     OW13594   0.352   4.630   1.790
 4232SOL    HW113595   0.267   4.660   1.833
 4232SOL    HW213596   0.414   4.708   1.780
 4233SOL     OW13597   6.867   0.058   0.091
 4233SOL    HW113598   6.783   0.033   0.139
 4233SOL    HW213599   6.917   0.127   0.145
 4234SOL     OW13600   1.053   0.517   5.791
 4234SOL    HW113601   1.039   0.418   5.793
 4234SOL    HW213602   0.978   0.560   5.741
 4235SOL     OW13603   6.476   3.851   5.054
 4235SOL    HW113604   6.407   3.869   5.124
 4235SOL    HW213605   6.556   3.908   5.071
 4236SOL     OW13606   0.182   3.415   3.006
 4236SOL    HW113607   0.104   3.429   2.945
 4236SOL    HW213608   0.210   3.320   3.003
 4237SOL     OW13609   6.215   4.582   3.911
 4237SOL    HW113610   6.186   4.573   3.816
 4237SOL    HW213611   6.248   4.674   3.927
 4238SOL     OW13612   4.285   5.052   3.949
 4238SOL    HW113613   4.234   5.077   3.867
 4238SOL    HW213614   4.372   5.010   3.923
 4239SOL     OW13615   5.523   0.381   4.023
 4239SOL    HW113616   5.435   0.379   4.071
 4239SOL    HW213617   5.522   0.315   3.948
 4240SOL     OW13618   2.029   6.594   6.652
 4240SOL    HW113619   2.127   6.591   6.636
 4240SOL    HW213620   2.010   6.578   6.749
 4241SOL     OW13621   5.237   0.486   0.668
 4241SOL    HW113622   5.168   0.466   0.598
 4241SOL    HW213623   5.209   0.447   0.755
 4242SOL     OW13624   1.906   6.938   3.300
 4242SOL    HW113625   1.812   6.907   3.318
 4242SOL    HW213626   1.948   6.966   3.386
 4243SOL     OW13627   0.780   3.802   3.406
 4243SOL    HW113628   0.729   3.740   3.466
 4243SOL    HW213629   0.835   3.749   3.343
 4244SOL     OW13630   4.489   5.481   1.111
 4244SOL    HW113631   4.466   5.551   1.043
 4244SOL    HW213632   4.571   5.433   1.082
 4245SOL     OW13633   0.135   1.784   6.670
 4245SOL    HW113634   0.062   1.833   6.622
 4245SOL    HW213635   0.218   1.840   6.671
 4246SOL     OW13636   5.984   3.001   3.569
 4246SOL    HW113637   5.992   3.019   3.471
 4246SOL    HW213638   5.895   3.034   3.601
 4247SOL     OW13639   2.391   5.228   4.843
 4247SOL    HW113640   2.457   5.161   4.877
 4247SOL    HW213641   2.437   5.295   4.784
 4248SOL     OW13642   1.287   0.923   3.253
 4248SOL    HW113643   1.225   0.993   3.218
 4248SOL    HW213644   1.303   0.939   3.350
 4249SOL     OW13645   6.522   1.304   3.104
 4249SOL    HW113646   6.433   1.286   3.145
 4249SOL    HW213647   6.555   1.394   3.132
 4250SOL     OW13648   0.272   6.030   3.648
 4250SOL    HW113649   0.284   5.994   3.741
 4250SOL    HW213650   0.174   6.038   3.628
 4251SOL     OW13651   6.203   2.806   6.940
 4251SOL    HW113652   6.271   2.789   7.011
 4251SOL    HW213653   6.245   2.799   6.850
 4252SOL     OW13654   5.635   6.068   6.310
 4252SOL    HW113655   5.668   6.080   6.404
 4252SOL    HW213656   5.587   6.150   6.281
 4253SOL     OW13657   4.014   6.104   2.325
 4253SOL    HW113658   4.041   6.041   2.252
 4253SOL    HW213659   3.916   6.122   2.319
 4254SOL     OW13660   1.891   4.645   1.853
 4254SOL    HW113661   1.980   4.680   1.826
 4254SOL    HW213662   1.833   4.720   1.885
 4255SOL     OW13663   0.343   3.985   4.231
 4255SOL    HW113664   0.372   3.890   4.216
 4255SOL    HW213665   0.418   4.047   4.208
 4256SOL     OW13666   1.343   5.869   1.915
 4256SOL    HW113667   1.315   5.865   1.819
 4256SOL    HW213668   1.263   5.886   1.973
 4257SOL     OW13669   5.811   0.986   4.411
 4257SOL    HW113670   5.902   1.028   4.415
 4257SOL    HW213671   5.758   1.013   4.491
 4258SOL     OW13672   3.329   5.971   1.551
 4258SOL    HW113673   3.279   5.963   1.464
 4258SOL    HW213674   3.427   5.973   1.533
 4259SOL     OW13675   1.752   6.280   1.061
 4259SOL    HW113676   1.836   6.229   1.079
 4259SOL    HW213677   1.722   6.263   0.967
 4260SOL     OW13678   5.472   6.745   4.165
 4260SOL    HW113679   5.529   6.775   4.089
 4260SOL    HW213680   5.524   6.751   4.250
 4261SOL     OW13681   1.379   0.152   2.822
 4261SOL    HW113682   1.466   0.185   2.858
 4261SOL    HW213683   1.310   0.224   2.830
 4262SOL     OW13684   1.365   4.272   5.843
 4262SOL    HW113685   1.351   4.369   5.863
 4262SOL    HW213686   1.420   4.231   5.916
 4263SOL     OW13687   2.542   1.545   3.383
 4263SOL    HW113688   2.608   1.599   3.434
 4263SOL    HW213689   2.579   1.525   3.292
 4264SOL     OW13690   5.896   1.730   3.968
 4264SOL    HW113691   5.985   1.685   3.976
 4264SOL    HW213692   5.828   1.679   4.020
 4265SOL     OW13693   3.577   1.013   0.665
 4265SOL    HW113694   3.547   0.993   0.759
 4265SOL    HW213695   3.636   1.093   0.666
 4266SOL     OW13696   1.097   0.166   0.095
 4266SOL    HW113697   1.036   0.089   0.075
 4266SOL    HW213698   1.048   0.234   0.150
 4267SOL     OW13699   1.821   3.749   3.863
 4267SOL    HW113700   1.769   3.819   3.913
 4267SOL    HW213701   1.883   3.793   3.798
 4268SOL     OW13702   2.008   5.435   6.864
 4268SOL    HW113703   1.991   5.418   6.961
 4268SOL    HW213704   2.082   5.375   6.832
 4269SOL     OW13705   2.943   1.151   3.678
 4269SOL    HW113706   2.921   1.222   3.611
 4269SOL    HW213707   3.040   1.130   3.675
 4270SOL     OW13708   3.122   2.888   1.962
 4270SOL    HW113709   3.201   2.944   1.937
 4270SOL    HW213710   3.153   2.803   2.004
 4271SOL     OW13711   6.873   0.811   0.164
 4271SOL    HW113712   6.854   0.747   0.238
 4271SOL    HW213713   6.819   0.894   0.177
 4272SOL     OW13714   6.796   3.217   5.140
 4272SOL    HW113715   6.863   3.236   5.212
 4272SOL    HW213716   6.778   3.119   5.136
 4273SOL     OW13717   5.091   6.324   5.158
 4273SOL    HW113718   5.000   6.320   5.116
 4273SOL    HW213719   5.082   6.324   5.257
 4274SOL     OW13720   1.063   0.220   2.068
 4274SOL    HW113721   1.153   0.204   2.027
 4274SOL    HW213722   1.073   0.274   2.151
 4275SOL     OW13723   0.547   1.952   3.975
 4275SOL    HW113724   0.593   2.039   3.992
 4275SOL    HW213725   0.584   1.882   4.037
 4276SOL     OW13726   2.806   5.342   3.744
 4276SOL    HW113727   2.803   5.246   3.772
 4276SOL    HW213728   2.896   5.363   3.707
 4277SOL     OW13729   0.050   4.165   2.909
 4277SOL    HW113730   6.995   4.109   2.874
 4277SOL    HW213731   0.137   4.130   2.875
 4278SOL     OW13732   0.606   6.975   3.333
 4278SOL    HW113733   0.638   0.050   3.329
 4278SOL    HW213734   0.524   6.970   3.392
 4279SOL     OW13735   1.358   1.175   2.474
 4279SOL    HW113736   1.429   1.212   2.414
 4279SOL    HW213737   1.306   1.106   2.425
 4280SOL     OW13738   6.210   6.759   5.886
 4280SOL    HW113739   6.113   6.768   5.908
 4280SOL    HW213740   6.222   6.756   5.786
 4281SOL     OW13741   5.053   4.953   3.584
 4281SOL    HW113742   5.152   4.963   3.588
 4281SOL    HW213743   5.025   4.872   3.636
 4282SOL     OW13744   2.872   4.957   1.034
 4282SOL    HW113745   2.856   5.046   0.992
 4282SOL    HW213746   2.971   4.940   1.039
 4283SOL     OW13747   4.629   1.269   3.711
 4283SOL    HW113748   4.648   1.317   3.626
 4283SOL    HW213749   4.634   1.333   3.787
 4284SOL     OW13750   4.786   5.975   0.025
 4284SOL    HW113751   4.754   6.023   6.963
 4284SOL    HW213752   4.714   5.978   0.095
 4285SOL     OW13753   2.802   0.902   6.061
 4285SOL    HW113754   2.768   0.989   6.099
 4285SOL    HW213755   2.890   0.918   6.017
 4286SOL     OW13756   5.986   0.061   6.373
 4286SOL    HW113757   6.060   0.128   6.370
 4286SOL    HW213758   6.024   6.989   6.378
 4287SOL     OW13759   4.867   1.297   6.150
 4287SOL    HW113760   4.768   1.300   6.133
 4287SOL    HW213761   4.916   1.302   6.063
 4288SOL     OW13762   0.565   6.196   3.053
 4288SOL    HW113763   0.621   6.186   2.971
 4288SOL    HW213764   0.589   6.126   3.120
 4289SOL     OW13765   1.499   2.570   6.126
 4289SOL    HW113766   1.449   2.494   6.084
 4289SOL    HW213767   1.503   2.557   6.225
 4290SOL     OW13768   0.491   6.737   4.635
 4290SOL    HW113769   0.392   6.744   4.650
 4290SOL    HW213770   0.530   6.672   4.701
 4291SOL     OW13771   4.872   3.302   6.376
 4291SOL    HW113772   4.834   3.273   6.288
 4291SOL    HW213773   4.932   3.381   6.362
 4292SOL     OW13774   6.168   3.223   6.956
 4292SOL    HW113775   6.205   3.237   6.864
 4292SOL    HW213776   6.102   3.147   6.954
 4293SOL     OW13777   3.684   4.080   6.423
 4293SOL    HW113778   3.693   4.026   6.339
 4293SOL    HW213779   3.731   4.168   6.412
 4294SOL     OW13780   2.087   1.538   6.279
 4294SOL    HW113781   2.141   1.478   6.338
 4294SOL    HW213782   2.124   1.538   6.187
 4295SOL     OW13783   4.633   6.600   2.941
 4295SOL    HW113784   4.537   6.594   2.912
 4295SOL    HW213785   4.653   6.527   3.006
 4296SOL     OW13786   3.189   6.993   0.612
 4296SOL    HW113787   3.226   6.986   0.705
 4296SOL    HW213788   3.212   0.063   0.574
 4297SOL     OW13789   6.586   6.694   2.511
 4297SOL    HW113790   6.643   6.715   2.432
 4297SOL    HW213791   6.621   6.742   2.591
 4298SOL     OW13792   3.474   6.528   2.021
 4298SOL    HW113793   3.434   6.492   2.105
 4298SOL    HW213794   3.415   6.507   1.944
 4299SOL     OW13795   1.350   3.131   0.318
 4299SOL    HW113796   1.271   3.071   0.303
 4299SOL    HW213797   1.337   3.183   0.402
 4300SOL     OW13798   2.755   6.997   0.481
 4300SOL    HW113799   2.663   6.972   0.511
 4300SOL    HW213800   2.820   6.927   0.512
 4301SOL     OW13801   3.648   0.281   1.464
 4301SOL    HW113802   3.660   0.370   1.508
 4301SOL    HW213803   3.703   0.213   1.513
 4302SOL     OW13804   6.262   0.437   0.223
 4302SOL    HW113805   6.272   0.381   0.141
 4302SOL    HW213806   6.219   0.383   0.295
 4303SOL     OW13807   0.052   4.737   3.566
 4303SOL    HW113808   6.985   4.787   3.563
 4303SOL    HW213809   0.109   4.766   3.489
 4304SOL     OW13810   3.682   3.999   2.094
 4304SOL    HW113811   3.643   3.973   2.006
 4304SOL    HW213812   3.624   3.963   2.168
 4305SOL     OW13813   0.643   6.786   5.585
 4305SOL    HW113814   0.737   6.766   5.555
 4305SOL    HW213815   0.642   6.873   5.635
 4306SOL     OW13816   5.030   4.683   5.071
 4306SOL    HW113817   5.030   4.596   5.021
 4306SOL    HW213818   5.113   4.734   5.049
 4307SOL     OW13819   5.534   3.202   5.450
 4307SOL    HW113820   5.506   3.172   5.542
 4307SOL    HW213821   5.465   3.173   5.384
 4308SOL     OW13822   5.555   5.260   1.497
 4308SOL    HW113823   5.578   5.178   1.444
 4308SOL    HW213824   5.461   5.288   1.475
 4309SOL     OW13825   1.478   2.967   0.581
 4309SOL    HW113826   1.458   3.065   0.581
 4309SOL    HW213827   1.451   2.927   0.668
 4310SOL     OW13828   1.232   2.687   2.151
 4310SOL    HW113829   1.150   2.738   2.124
 4310SOL    HW213830   1.307   2.707   2.088
 4311SOL     OW13831   1.117   6.530   2.079
 4311SOL    HW113832   1.083   6.550   2.171
 4311SOL    HW213833   1.096   6.435   2.056
 4312SOL     OW13834   1.386   5.432   3.201
 4312SOL    HW113835   1.333   5.509   3.165
 4312SOL    HW213836   1.377   5.428   3.300
 4313SOL     OW13837   3.368   2.373   0.142
 4313SOL    HW113838   3.305   2.410   0.073
 4313SOL    HW213839   3.447   2.333   0.096
 4314SOL     OW13840   5.952   2.269   4.999
 4314SOL    HW113841   5.962   2.216   5.083
 4314SOL    HW213842   5.930   2.207   4.923
 4315SOL     OW13843   1.704   1.319   3.436
 4315SOL    HW113844   1.774   1.296   3.502
 4315SOL    HW213845   1.744   1.370   3.360
 4316SOL     OW13846   5.427   0.041   2.703
 4316SOL    HW113847   5.356   0.028   2.772
 4316SOL    HW213848   5.436   6.979   2.647
 4317SOL     OW13849   4.853   0.880   5.688
 4317SOL    HW113850   4.812   0.864   5.598
 4317SOL    HW213851   4.952   0.867   5.683
 4318SOL     OW13852   0.809   1.058   4.258
 4318SOL    HW113853   0.823   0.968   4.215
 4318SOL    HW213854   0.881   1.074   4.326
 4319SOL     OW13855   2.193   1.858   1.206
 4319SOL    HW113856   2.279   1.880   1.252
 4319SOL    HW213857   2.117   1.890   1.263
 4320SOL     OW13858   3.978   5.783   1.041
 4320SOL    HW113859   3.907   5.845   1.075
 4320SOL    HW213860   3.941   5.731   0.964
 4321SOL     OW13861   0.061   5.132   3.370
 4321SOL    HW113862   0.088   5.068   3.442
 4321SOL    HW213863   0.047   5.082   3.285
 4322SOL     OW13864   6.718   3.377   5.642
 4322SOL    HW113865   6.725   3.435   5.723
 4322SOL    HW213866   6.654   3.417   5.577
 4323SOL     OW13867   4.359   5.140   7.008
 4323SOL    HW113868   4.442   5.103   0.029
 4323SOL    HW213869   4.299   5.176   0.060
 4324SOL     OW13870   6.854   3.995   5.510
 4324SOL    HW113871   6.783   3.928   5.530
 4324SOL    HW213872   6.854   4.066   5.581
 4325SOL     OW13873   2.815   1.650   2.188
 4325SOL    HW113874   2.809   1.750   2.184
 4325SOL    HW213875   2.725   1.610   2.171
 4326SOL     OW13876   6.014   3.305   2.123
 4326SOL    HW113877   6.035   3.224   2.178
 4326SOL    HW213878   5.964   3.371   2.178
 4327SOL     OW13879   4.105   5.784   3.367
 4327SOL    HW113880   4.173   5.757   3.300
 4327SOL    HW213881   4.062   5.703   3.406
 4328SOL     OW13882   5.899   4.404   4.914
 4328SOL    HW113883   5.897   4.466   4.835
 4328SOL    HW213884   5.965   4.439   4.981
 4329SOL     OW13885   6.131   3.550   5.398
 4329SOL    HW113886   6.031   3.551   5.406
 4329SOL    HW213887   6.169   3.476   5.453
 4330SOL     OW13888   2.046   6.621   4.335
 4330SOL    HW113889   2.109   6.544   4.326
 4330SOL    HW213890   2.060   6.665   4.424
 4331SOL     OW13891   0.041   0.442   1.260
 4331SOL    HW113892   0.005   0.370   1.201
 4331SOL    HW213893   0.140   0.433   1.268
 4332SOL     OW13894   6.223   3.618   2.849
 4332SOL    HW113895   6.174   3.536   2.821
 4332SOL    HW213896   6.221   3.625   2.949
 4333SOL     OW13897   4.407   1.822   4.842
 4333SOL    HW113898   4.426   1.802   4.747
 4333SOL    HW213899   4.321   1.778   4.870
 4334SOL     OW13900   1.275   2.633   2.598
 4334SOL    HW113901   1.303   2.690   2.521
 4334SOL    HW213902   1.346   2.636   2.669
 4335SOL     OW13903   3.665   2.977   1.629
 4335SOL    HW113904   3.729   3.029   1.686
 4335SOL    HW213905   3.574   3.018   1.636
 4336SOL     OW13906   2.050   4.656   5.345
 4336SOL    HW113907   1.971   4.692   5.296
 4336SOL    HW213908   2.102   4.731   5.386
 4337SOL     OW13909   1.529   5.398   1.461
 4337SOL    HW113910   1.611   5.443   1.425
 4337SOL    HW213911   1.471   5.465   1.507
 4338SOL     OW13912   5.812   0.471   6.241
 4338SOL    HW113913   5.765   0.435   6.322
 4338SOL    HW213914   5.745   0.499   6.173
 4339SOL     OW13915   3.453   2.719   6.347
 4339SOL    HW113916   3.443   2.818   6.362
 4339SOL    HW213917   3.383   2.688   6.282
 4340SOL     OW13918   5.737   3.157   1.046
 4340SOL    HW113919   5.667   3.214   1.002
 4340SOL    HW213920   5.738   3.067   1.004
 4341SOL     OW13921   1.512   5.219   1.782
 4341SOL    HW113922   1.453   5.299   1.791
 4341SOL    HW213923   1.518   5.172   1.871
 4342SOL     OW13924   5.247   3.778   3.010
 4342SOL    HW113925   5.188   3.786   2.929
 4342SOL    HW213926   5.317   3.849   3.007
 4343SOL     OW13927   3.112   6.272   5.584
 4343SOL    HW113928   3.101   6.178   5.615
 4343SOL    HW213929   3.164   6.324   5.651
 4344SOL     OW13930   1.167   3.070   3.232
 4344SOL    HW113931   1.127   3.006   3.166
 4344SOL    HW213932   1.198   3.152   3.185
 4345SOL     OW13933   2.907   3.565   3.692
 4345SOL    HW113934   2.975   3.545   3.621
 4345SOL    HW213935   2.915   3.498   3.766
 4346SOL     OW13936   2.323   2.696   2.269
 4346SOL    HW113937   2.409   2.649   2.249
 4346SOL    HW213938   2.296   2.752   2.191
 4347SOL     OW13939   6.511   5.802   2.257
 4347SOL    HW113940   6.536   5.848   2.171
 4347SOL    HW213941   6.429   5.845   2.295
 4348SOL     OW13942   0.624   5.876   4.506
 4348SOL    HW113943   0.567   5.957   4.494
 4348SOL    HW213944   0.717   5.896   4.476
 4349SOL     OW13945   6.929   3.432   3.615
 4349SOL    HW113946   6.885   3.467   3.697
 4349SOL    HW213947   6.977   3.346   3.637
 4350SOL     OW13948   5.159   2.189   4.860
 4350SOL    HW113949   5.228   2.227   4.921
 4350SOL    HW213950   5.204   2.135   4.788
 4351SOL     OW13951   1.238   6.227   1.225
 4351SOL    HW113952   1.286   6.219   1.312
 4351SOL    HW213953   1.304   6.218   1.150
 4352SOL     OW13954   6.056   3.729   1.762
 4352SOL    HW113955   5.984   3.773   1.816
 4352SOL    HW213956   6.064   3.633   1.788
 4353SOL     OW13957   2.913   4.124   0.217
 4353SOL    HW113958   2.953   4.082   0.135
 4353SOL    HW213959   2.814   4.111   0.216
 4354SOL     OW13960   0.711   1.438   6.005
 4354SOL    HW113961   0.623   1.474   5.973
 4354SOL    HW213962   0.701   1.400   6.097
 4355SOL     OW13963   1.375   6.767   2.901
 4355SOL    HW113964   1.342   6.676   2.927
 4355SOL    HW213965   1.337   6.836   2.962
 4356SOL     OW13966   4.103   3.327   5.276
 4356SOL    HW113967   4.068   3.320   5.369
 4356SOL    HW213968   4.163   3.406   5.268
 4357SOL     OW13969   0.051   1.576   1.076
 4357SOL    HW113970   0.081   1.579   1.172
 4357SOL    HW213971   0.128   1.547   1.019
 4358SOL     OW13972   6.854   0.062   0.461
 4358SOL    HW113973   6.908   0.085   0.380
 4358SOL    HW213974   6.899   0.096   0.543
 4359SOL     OW13975   1.506   0.783   6.433
 4359SOL    HW113976   1.468   0.871   6.405
 4359SOL    HW213977   1.533   0.730   6.353
 4360SOL     OW13978   0.747   2.578   3.980
 4360SOL    HW113979   0.665   2.592   4.034
 4360SOL    HW213980   0.811   2.653   3.997
 4361SOL     OW13981   2.070   3.138   1.500
 4361SOL    HW113982   2.038   3.085   1.579
 4361SOL    HW213983   2.167   3.157   1.510
 4362SOL     OW13984   0.308   5.952   3.913
 4362SOL    HW113985   0.286   6.023   3.980
 4362SOL    HW213986   0.379   5.892   3.949
 4363SOL     OW13987   4.491   1.243   1.663
 4363SOL    HW113988   4.428   1.317   1.638
 4363SOL    HW213989   4.467   1.209   1.755
 4364SOL     OW13990   3.171   3.641   2.782
 4364SOL    HW113991   3.245   3.575   2.770
 4364SOL    HW213992   3.156   3.657   2.880
 4365SOL     OW13993   3.258   1.465   1.868
 4365SOL    HW113994   3.347   1.425   1.845
 4365SOL    HW213995   3.243   1.458   1.967
 4366SOL     OW13996   6.268   6.200   6.622
 4366SOL    HW113997   6.349   6.227   6.673
 4366SOL    HW213998   6.237   6.110   6.652
 4367SOL     OW13999   3.189   5.153   3.260
 4367SOL    HW114000   3.109   5.147   3.199
 4367SOL    HW214001   3.218   5.061   3.286
 4368SOL     OW14002   4.161   5.498   2.864
 4368SOL    HW114003   4.167   5.510   2.765
 4368SOL    HW214004   4.252   5.478   2.901
 4369SOL     OW14005   5.094   5.885   3.527
 4369SOL    HW114006   5.064   5.799   3.486
 4369SOL    HW214007   5.075   5.883   3.626
 4370SOL     OW14008   3.428   3.966   1.374
 4370SOL    HW114009   3.351   3.931   1.320
 4370SOL    HW214010   3.453   3.899   1.443
 4371SOL     OW14011   2.069   1.361   2.428
 4371SOL    HW114012   1.986   1.341   2.376
 4371SOL    HW214013   2.149   1.352   2.369
 4372SOL     OW14014   2.113   3.317   4.166
 4372SOL    HW114015   2.173   3.270   4.231
 4372SOL    HW214016   2.104   3.262   4.083
 4373SOL     OW14017   4.195   1.275   6.173
 4373SOL    HW114018   4.183   1.340   6.098
 4373SOL    HW214019   4.225   1.324   6.255
 4374SOL     OW14020   1.973   1.922   1.366
 4374SOL    HW114021   1.972   1.849   1.434
 4374SOL    HW214022   1.946   2.008   1.410
 4375SOL     OW14023   3.769   6.439   2.910
 4375SOL    HW114024   3.736   6.479   2.995
 4375SOL    HW214025   3.727   6.486   2.832
 4376SOL     OW14026   6.467   0.024   1.822
 4376SOL    HW114027   6.521   0.103   1.794
 4376SOL    HW214028   6.485   6.967   1.760
 4377SOL     OW14029   6.350   5.154   0.595
 4377SOL    HW114030   6.382   5.156   0.500
 4377SOL    HW214031   6.252   5.171   0.597
 4378SOL     OW14032   1.011   4.527   2.528
 4378SOL    HW114033   1.072   4.495   2.600
 4378SOL    HW214034   0.924   4.555   2.568
 4379SOL     OW14035   2.369   0.943   2.471
 4379SOL    HW114036   2.465   0.919   2.454
 4379SOL    HW214037   2.330   0.983   2.389
 4380SOL     OW14038   2.338   5.923   5.049
 4380SOL    HW114039   2.412   5.980   5.085
 4380SOL    HW214040   2.369   5.828   5.045
 4381SOL     OW14041   2.293   4.503   4.362
 4381SOL    HW114042   2.316   4.438   4.434
 4381SOL    HW214043   2.215   4.468   4.310
 4382SOL     OW14044   6.099   4.191   5.740
 4382SOL    HW114045   6.005   4.160   5.732
 4382SOL    HW214046   6.147   4.134   5.807
 4383SOL     OW14047   0.347   1.611   5.348
 4383SOL    HW114048   0.430   1.555   5.353
 4383SOL    HW214049   0.283   1.582   5.420
 4384SOL     OW14050   5.118   1.232   0.038
 4384SOL    HW114051   5.098   1.158   0.102
 4384SOL    HW214052   5.215   1.252   0.040
 4385SOL     OW14053   0.310   2.468   4.196
 4385SOL    HW114054   0.303   2.485   4.294
 4385SOL    HW214055   0.219   2.467   4.155
 4386SOL     OW14056   1.190   3.460   6.340
 4386SOL    HW114057   1.102   3.451   6.294
 4386SOL    HW214058   1.264   3.458   6.272
 4387SOL     OW14059   0.275   1.977   2.051
 4387SOL    HW114060   0.329   1.972   1.967
 4387SOL    HW214061   0.225   2.063   2.053
 4388SOL     OW14062   4.504   1.410   6.311
 4388SOL    HW114063   4.444   1.390   6.389
 4388SOL    HW214064   4.542   1.325   6.275
 4389SOL     OW14065   5.477   2.663   0.477
 4389SOL    HW114066   5.497   2.565   0.480
 4389SOL    HW214067   5.399   2.683   0.535
 4390SOL     OW14068   4.143   2.209   2.129
 4390SOL    HW114069   4.181   2.129   2.175
 4390SOL    HW214070   4.198   2.289   2.152
 4391SOL     OW14071   1.647   5.970   6.089
 4391SOL    HW114072   1.720   5.911   6.121
 4391SOL    HW214073   1.598   5.926   6.014
 4392SOL     OW14074   5.912   4.383   5.276
 4392SOL    HW114075   5.955   4.299   5.308
 4392SOL    HW214076   5.974   4.431   5.213
 4393SOL     OW14077   4.689   6.269   2.654
 4393SOL    HW114078   4.738   6.292   2.738
 4393SOL    HW214079   4.636   6.348   2.622
 4394SOL     OW14080   6.497   5.441   3.145
 4394SOL    HW114081   6.485   5.499   3.226
 4394SOL    HW214082   6.528   5.496   3.068
 4395SOL     OW14083   3.845   2.033   1.283
 4395SOL    HW114084   3.757   2.021   1.328
 4395SOL    HW214085   3.853   2.126   1.248
 4396SOL     OW14086   2.450   1.811   3.710
 4396SOL    HW114087   2.534   1.856   3.739
 4396SOL    HW214088   2.374   1.837   3.770
 4397SOL     OW14089   0.080   1.409   4.116
 4397SOL    HW114090   0.135   1.452   4.188
 4397SOL    HW214091   0.106   1.447   4.027
 4398SOL     OW14092   1.050   4.546   5.054
 4398SOL    HW114093   1.054   4.602   5.136
 4398SOL    HW214094   1.088   4.597   4.977
 4399SOL     OW14095   2.256   0.964   1.642
 4399SOL    HW114096   2.247   0.912   1.727
 4399SOL    HW214097   2.342   0.937   1.597
 4400SOL     OW14098   1.988   6.883   4.751
 4400SOL    HW114099   1.947   6.949   4.688
 4400SOL    HW214100   2.032   6.931   4.826
 4401SOL     OW14101   5.367   6.020   6.176
 4401SOL    HW114102   5.435   5.994   6.245
 4401SOL    HW214103   5.276   5.988   6.205
 4402SOL     OW14104   1.875   6.104   3.015
 4402SOL    HW114105   1.792   6.136   2.969
 4402SOL    HW214106   1.865   6.008   3.039
 4403SOL     OW14107   0.203   7.011   3.294
 4403SOL    HW114108   0.222   0.037   3.381
 4403SOL    HW214109   0.104   7.003   3.281
 4404SOL     OW14110   1.278   3.877   5.285
 4404SOL    HW114111   1.364   3.889   5.335
 4404SOL    HW214112   1.208   3.937   5.324
 4405SOL     OW14113   3.238   4.548   0.108
 4405SOL    HW114114   3.140   4.534   0.119
 4405SOL    HW214115   3.255   4.621   0.042
 4406SOL     OW14116   5.404   4.777   1.234
 4406SOL    HW114117   5.431   4.777   1.138
 4406SOL    HW214118   5.347   4.697   1.252
 4407SOL     OW14119   0.224   5.154   1.054
 4407SOL    HW114120   0.175   5.240   1.069
 4407SOL    HW214121   0.312   5.174   1.012
 4408SOL     OW14122   5.031   0.995   0.474
 4408SOL    HW114123   5.028   0.897   0.489
 4408SOL    HW214124   5.093   1.038   0.540
 4409SOL     OW14125   3.777   0.835   1.738
 4409SOL    HW114126   3.818   0.899   1.672
 4409SOL    HW214127   3.850   0.788   1.788
 4410SOL     OW14128   2.268   4.695   6.985
 4410SOL    HW114129   2.306   4.605   6.965
 4410SOL    HW214130   2.180   4.684   0.012
 4411SOL     OW14131   4.119   3.453   3.257
 4411SOL    HW114132   4.172   3.406   3.328
 4411SOL    HW214133   4.085   3.540   3.293
 4412SOL     OW14134   3.482   1.789   4.336
 4412SOL    HW114135   3.494   1.880   4.377
 4412SOL    HW214136   3.393   1.752   4.363
 4413SOL     OW14137   4.916   5.806   4.918
 4413SOL    HW114138   4.976   5.764   4.986
 4413SOL    HW214139   4.971   5.857   4.852
 4414SOL     OW14140   4.379   5.138   2.100
 4414SOL    HW114141   4.334   5.172   2.018
 4414SOL    HW214142   4.312   5.127   2.173
 4415SOL     OW14143   4.096   3.397   6.704
 4415SOL    HW114144   4.110   3.478   6.761
 4415SOL    HW214145   4.002   3.397   6.670
 4416SOL     OW14146   2.609   1.003   4.294
 4416SOL    HW114147   2.581   1.069   4.364
 4416SOL    HW214148   2.702   0.971   4.313
 4417SOL     OW14149   6.648   4.185   2.501
 4417SOL    HW114150   6.613   4.272   2.536
 4417SOL    HW214151   6.579   4.113   2.516
 4418SOL     OW14152   4.907   0.004   4.215
 4418SOL    HW114153   4.893   6.983   4.305
 4418SOL    HW214154   4.989   0.063   4.218
 4419SOL     OW14155   5.572   5.709   0.627
 4419SOL    HW114156   5.545   5.768   0.551
 4419SOL    HW214157   5.668   5.684   0.618
 4420SOL     OW14158   5.095   2.011   0.600
 4420SOL    HW114159   5.068   2.081   0.666
 4420SOL    HW214160   5.018   1.949   0.585
 4421SOL     OW14161   2.006   0.890   3.333
 4421SOL    HW114162   1.993   0.792   3.317
 4421SOL    HW214163   2.104   0.908   3.346
 4422SOL     OW14164   2.594   3.549   5.637
 4422SOL    HW114165   2.543   3.582   5.716
 4422SOL    HW214166   2.689   3.581   5.642
 4423SOL     OW14167   1.382   2.709   5.494
 4423SOL    HW114168   1.347   2.617   5.480
 4423SOL    HW214169   1.397   2.725   5.591
 4424SOL     OW14170   5.804   6.576   3.570
 4424SOL    HW114171   5.880   6.512   3.583
 4424SOL    HW214172   5.720   6.525   3.550
 4425SOL     OW14173   3.583   5.724   5.950
 4425SOL    HW114174   3.549   5.701   6.042
 4425SOL    HW214175   3.601   5.640   5.899
 4426SOL     OW14176   6.390   1.821   4.396
 4426SOL    HW114177   6.359   1.788   4.486
 4426SOL    HW214178   6.473   1.876   4.408
 4427SOL     OW14179   0.057   6.944   2.676
 4427SOL    HW114180   0.138   6.990   2.713
 4427SOL    HW214181   7.013   7.013   2.641
 4428SOL     OW14182   2.883   5.597   3.055
 4428SOL    HW114183   2.959   5.573   2.994
 4428SOL    HW214184   2.812   5.527   3.048
 4429SOL     OW14185   2.931   0.505   4.050
 4429SOL    HW114186   2.895   0.532   4.139
 4429SOL    HW214187   2.856   0.485   3.988
 4430SOL     OW14188   5.183   3.195   3.767
 4430SOL    HW114189   5.169   3.096   3.758
 4430SOL    HW214190   5.108   3.234   3.821
 4431SOL     OW14191   1.541   1.737   1.944
 4431SOL    HW114192   1.595   1.820   1.931
 4431SOL    HW214193   1.460   1.759   2.000
 4432SOL     OW14194   3.351   4.020   3.251
 4432SOL    HW114195   3.396   4.086   3.191
 4432SOL    HW214196   3.253   4.018   3.230
 4433SOL     OW14197   6.297   0.769   4.641
 4433SOL    HW114198   6.226   0.709   4.678
 4433SOL    HW214199   6.276   0.864   4.666
 4434SOL     OW14200   4.958   1.501   3.834
 4434SOL    HW114201   5.030   1.509   3.902
 4434SOL    HW214202   4.890   1.573   3.848
 4435SOL     OW14203   4.209   3.824   0.880
 4435SOL    HW114204   4.183   3.737   0.840
 4435SOL    HW214205   4.163   3.835   0.969
 4436SOL     OW14206   3.141   2.357   0.515
 4436SOL    HW114207   3.231   2.395   0.533
 4436SOL    HW214208   3.106   2.313   0.598
 4437SOL     OW14209   5.087   1.852   3.682
 4437SOL    HW114210   5.065   1.797   3.602
 4437SOL    HW214211   5.167   1.814   3.728
 4438SOL     OW14212   4.093   1.638   6.460
 4438SOL    HW114213   4.009   1.614   6.411
 4438SOL    HW214214   4.070   1.689   6.543
 4439SOL     OW14215   0.346   5.367   1.462
 4439SOL    HW114216   0.393   5.355   1.375
 4439SOL    HW214217   0.318   5.278   1.498
 4440SOL     OW14218   1.683   5.014   6.989
 4440SOL    HW114219   1.757   5.041   6.928
 4440SOL    HW214220   1.680   4.915   6.997
 4441SOL     OW14221   6.664   1.416   1.915
 4441SOL    HW114222   6.610   1.379   1.839
 4441SOL    HW214223   6.618   1.496   1.953
 4442SOL     OW14224   3.360   6.322   3.923
 4442SOL    HW114225   3.383   6.225   3.933
 4442SOL    HW214226   3.334   6.359   4.012
 4443SOL     OW14227   0.745   2.838   0.235
 4443SOL    HW114228   0.701   2.914   0.189
 4443SOL    HW214229   0.838   2.827   0.201
 4444SOL     OW14230   3.755   5.729   6.504
 4444SOL    HW114231   3.705   5.779   6.575
 4444SOL    HW214232   3.704   5.647   6.479
 4445SOL     OW14233   6.819   0.394   0.472
 4445SOL    HW114234   6.841   0.309   0.520
 4445SOL    HW214235   6.745   0.378   0.407
 4446SOL     OW14236   5.375   1.415   1.713
 4446SOL    HW114237   5.397   1.334   1.767
 4446SOL    HW214238   5.459   1.458   1.681
 4447SOL     OW14239   5.497   3.641   6.068
 4447SOL    HW114240   5.464   3.677   6.156
 4447SOL    HW214241   5.484   3.710   5.997
 4448SOL     OW14242   3.043   3.541   0.891
 4448SOL    HW114243   3.097   3.461   0.864
 4448SOL    HW214244   3.101   3.622   0.892
 4449SOL     OW14245   4.584   0.364   6.147
 4449SOL    HW114246   4.501   0.399   6.189
 4449SOL    HW214247   4.560   0.295   6.078
 4450SOL     OW14248   3.944   3.040   4.303
 4450SOL    HW114249   3.914   3.025   4.397
 4450SOL    HW214250   4.021   3.105   4.302
 4451SOL     OW14251   5.912   3.996   2.927
 4451SOL    HW114252   5.889   3.958   3.016
 4451SOL    HW214253   5.960   4.083   2.940
 4452SOL     OW14254   5.430   6.477   5.168
 4452SOL    HW114255   5.360   6.544   5.193
 4452SOL    HW214256   5.391   6.412   5.103
 4453SOL     OW14257   6.708   2.650   0.390
 4453SOL    HW114258   6.631   2.698   0.433
 4453SOL    HW214259   6.688   2.552   0.387
 4454SOL     OW14260   4.779   2.543   0.355
 4454SOL    HW114261   4.694   2.539   0.304
 4454SOL    HW214262   4.836   2.464   0.331
 4455SOL     OW14263   3.322   0.119   6.642
 4455SOL    HW114264   3.355   0.171   6.563
 4455SOL    HW214265   3.368   0.152   6.725
 4456SOL     OW14266   2.373   5.201   2.370
 4456SOL    HW114267   2.454   5.180   2.316
 4456SOL    HW214268   2.375   5.297   2.398
 4457SOL     OW14269   4.151   2.274   0.183
 4457SOL    HW114270   4.219   2.275   0.256
 4457SOL    HW214271   4.180   2.337   0.110
 4458SOL     OW14272   1.595   4.053   6.713
 4458SOL    HW114273   1.600   3.954   6.727
 4458SOL    HW214274   1.503   4.085   6.735
 4459SOL     OW14275   5.374   0.260   3.483
 4459SOL    HW114276   5.399   0.355   3.466
 4459SOL    HW214277   5.456   0.203   3.488
 4460SOL     OW14278   2.783   2.890   5.756
 4460SOL    HW114279   2.876   2.891   5.719
 4460SOL    HW214280   2.727   2.828   5.701
 4461SOL     OW14281   1.202   0.585   2.625
 4461SOL    HW114282   1.292   0.577   2.584
 4461SOL    HW214283   1.133   0.549   2.563
 4462SOL     OW14284   0.042   3.546   1.283
 4462SOL    HW114285   0.107   3.616   1.314
 4462SOL    HW214286   6.979   3.590   1.248
 4463SOL     OW14287   2.679   2.874   6.599
 4463SOL    HW114288   2.756   2.837   6.650
 4463SOL    HW214289   2.594   2.850   6.645
 4464SOL     OW14290   6.146   5.281   6.917
 4464SOL    HW114291   6.244   5.275   6.934
 4464SOL    HW214292   6.129   5.345   6.842
 4465SOL     OW14293   2.453   5.953   3.354
 4465SOL    HW114294   2.417   5.946   3.447
 4465SOL    HW214295   2.418   5.876   3.299
 4466SOL     OW14296   1.500   0.253   2.454
 4466SOL    HW114297   1.565   0.264   2.379
 4466SOL    HW214298   1.498   0.337   2.508
 4467SOL     OW14299   1.077   6.121   3.634
 4467SOL    HW114300   1.126   6.186   3.692
 4467SOL    HW214301   1.072   6.033   3.679
 4468SOL     OW14302   1.087   2.085   6.881
 4468SOL    HW114303   1.051   2.178   6.871
 4468SOL    HW214304   1.179   2.088   6.920
 4469SOL     OW14305   3.600   0.422   0.974
 4469SOL    HW114306   3.519   0.468   1.010
 4469SOL    HW214307   3.637   0.474   0.897
 4470SOL     OW14308   6.138   3.781   1.498
 4470SOL    HW114309   6.101   3.759   1.588
 4470SOL    HW214310   6.078   3.745   1.427
 4471SOL     OW14311   0.498   2.226   0.354
 4471SOL    HW114312   0.595   2.213   0.372
 4471SOL    HW214313   0.449   2.243   0.439
 4472SOL     OW14314   1.908   3.151   4.238
 4472SOL    HW114315   1.972   3.228   4.237
 4472SOL    HW214316   1.863   3.147   4.328
 4473SOL     OW14317   6.838   1.829   3.899
 4473SOL    HW114318   6.828   1.927   3.881
 4473SOL    HW214319   6.821   1.778   3.815
 4474SOL     OW14320   2.959   1.201   1.910
 4474SOL    HW114321   3.022   1.221   1.986
 4474SOL    HW214322   2.997   1.239   1.825
 4475SOL     OW14323   1.876   4.012   2.381
 4475SOL    HW114324   1.866   4.067   2.299
 4475SOL    HW214325   1.813   4.044   2.451
 4476SOL     OW14326   5.157   6.441   3.792
 4476SOL    HW114327   5.151   6.342   3.781
 4476SOL    HW214328   5.066   6.477   3.815
 4477SOL     OW14329   1.930   0.036   5.622
 4477SOL    HW114330   2.023   0.039   5.587
 4477SOL    HW214331   1.931   0.002   5.716
 4478SOL     OW14332   2.714   5.879   2.415
 4478SOL    HW114333   2.761   5.791   2.409
 4478SOL    HW214334   2.691   5.911   2.323
 4479SOL     OW14335   0.727   0.769   0.710
 4479SOL    HW114336   0.634   0.761   0.674
 4479SOL    HW214337   0.734   0.720   0.796
 4480SOL     OW14338   2.058   3.734   4.921
 4480SOL    HW114339   2.116   3.769   4.994
 4480SOL    HW214340   2.000   3.661   4.957
 4481SOL     OW14341   2.571   6.775   5.192
 4481SOL    HW114342   2.538   6.687   5.160
 4481SOL    HW214343   2.632   6.815   5.124
 4482SOL     OW14344   0.555   4.122   4.130
 4482SOL    HW114345   0.548   4.217   4.160
 4482SOL    HW214346   0.502   4.109   4.046
 4483SOL     OW14347   6.008   3.482   1.320
 4483SOL    HW114348   6.008   3.403   1.259
 4483SOL    HW214349   6.097   3.488   1.367
 4484SOL     OW14350   3.043   2.131   5.260
 4484SOL    HW114351   2.971   2.180   5.309
 4484SOL    HW214352   3.088   2.194   5.196
 4485SOL     OW14353   5.116   2.316   5.840
 4485SOL    HW114354   5.059   2.396   5.861
 4485SOL    HW214355   5.082   2.271   5.758
 4486SOL     OW14356   5.779   3.676   4.404
 4486SOL    HW114357   5.756   3.773   4.396
 4486SOL    HW214358   5.695   3.621   4.396
 4487SOL     OW14359   2.353   3.287   6.669
 4487SOL    HW114360   2.388   3.363   6.723
 4487SOL    HW214361   2.284   3.320   6.604
 4488SOL     OW14362   5.635   2.720   5.251
 4488SOL    HW114363   5.623   2.738   5.349
 4488SOL    HW214364   5.569   2.651   5.221
 4489SOL     OW14365   5.101   6.319   4.471
 4489SOL    HW114366   5.169   6.257   4.432
 4489SOL    HW214367   5.069   6.382   4.400
 4490SOL     OW14368   5.763   2.409   2.153
 4490SOL    HW114369   5.822   2.489   2.144
 4490SOL    HW214370   5.752   2.387   2.250
 4491SOL     OW14371   0.756   2.875   3.622
 4491SOL    HW114372   0.757   2.877   3.522
 4491SOL    HW214373   0.700   2.799   3.653
 4492SOL     OW14374   5.497   3.773   0.895
 4492SOL    HW114375   5.566   3.720   0.944
 4492SOL    HW214376   5.469   3.851   0.952
 4493SOL     OW14377   4.609   5.359   5.676
 4493SOL    HW114378   4.603   5.268   5.635
 4493SOL    HW214379   4.677   5.413   5.627
 4494SOL     OW14380   0.168   1.879   6.162
 4494SOL    HW114381   0.183   1.974   6.192
 4494SOL    HW214382   0.108   1.879   6.082
 4495SOL     OW14383   4.919   6.416   3.510
 4495SOL    HW114384   4.845   6.416   3.577
 4495SOL    HW214385   5.007   6.426   3.556
 4496SOL     OW14386   4.881   5.810   0.699
 4496SOL    HW114387   4.888   5.772   0.606
 4496SOL    HW214388   4.785   5.812   0.726
 4497SOL     OW14389   4.678   0.265   0.163
 4497SOL    HW114390   4.632   0.176   0.162
 4497SOL    HW214391   4.698   0.293   0.069
 4498SOL     OW14392   0.524   3.117   6.220
 4498SOL    HW114393   0.540   3.106   6.318
 4498SOL    HW214394   0.464   3.043   6.188
 4499SOL     OW14395   0.113   3.711   4.092
 4499SOL    HW114396   0.201   3.702   4.047
 4499SOL    HW214397   0.048   3.646   4.051
 4500SOL     OW14398   3.087   3.414   4.133
 4500SOL    HW114399   3.072   3.343   4.202
 4500SOL    HW214400   3.133   3.375   4.054
 4501SOL     OW14401   0.401   3.418   6.223
 4501SOL    HW114402   0.354   3.339   6.183
 4501SOL    HW214403   0.402   3.493   6.157
 4502SOL     OW14404   1.977   1.985   6.927
 4502SOL    HW114405   1.964   2.071   6.878
 4502SOL    HW214406   2.006   2.004   0.000
 4503SOL     OW14407   2.822   0.391   2.694
 4503SOL    HW114408   2.842   0.489   2.693
 4503SOL    HW214409   2.898   0.342   2.650
 4504SOL     OW14410   5.998   1.944   5.229
 4504SOL    HW114411   6.017   2.041   5.240
 4504SOL    HW214412   6.084   1.896   5.210
 4505SOL     OW14413   6.581   5.714   3.752
 4505SOL    HW114414   6.540   5.624   3.735
 4505SOL    HW214415   6.566   5.740   3.848
 4506SOL     OW14416   4.843   2.324   4.666
 4506SOL    HW114417   4.929   2.374   4.678
 4506SOL    HW214418   4.772   2.365   4.724
 4507SOL     OW14419   5.030   4.217   1.770
 4507SOL    HW114420   4.984   4.251   1.852
 4507SOL    HW214421   5.129   4.230   1.779
 4508SOL     OW14422   0.849   5.017   6.012
 4508SOL    HW114423   0.888   4.925   6.015
 4508SOL    HW214424   0.756   5.013   5.977
 4509SOL     OW14425   5.443   2.850   3.900
 4509SOL    HW114426   5.484   2.878   3.814
 4509SOL    HW214427   5.512   2.851   3.972
 4510SOL     OW14428   5.373   6.472   5.608
 4510SOL    HW114429   5.333   6.411   5.540
 4510SOL    HW214430   5.468   6.492   5.582
 4511SOL     OW14431   6.881   3.448   6.534
 4511SOL    HW114432   6.972   3.491   6.542
 4511SOL    HW214433   6.849   3.456   6.440
 4512SOL     OW14434   2.206   6.405   6.103
 4512SOL    HW114435   2.122   6.421   6.155
 4512SOL    HW214436   2.184   6.395   6.006
 4513SOL     OW14437   5.155   6.461   0.559
 4513SOL    HW114438   5.187   6.420   0.473
 4513SOL    HW214439   5.233   6.500   0.608
 4514SOL     OW14440   4.627   1.087   4.836
 4514SOL    HW114441   4.625   0.987   4.842
 4514SOL    HW214442   4.714   1.121   4.871
 4515SOL     OW14443   6.788   4.171   5.711
 4515SOL    HW114444   6.749   4.161   5.802
 4515SOL    HW214445   6.721   4.214   5.651
 4516SOL     OW14446   1.577   1.242   6.278
 4516SOL    HW114447   1.648   1.204   6.337
 4516SOL    HW214448   1.519   1.304   6.331
 4517SOL     OW14449   2.368   0.418   6.911
 4517SOL    HW114450   2.270   0.425   6.898
 4517SOL    HW214451   2.397   0.481   6.983
 4518SOL     OW14452   6.650   1.201   3.428
 4518SOL    HW114453   6.744   1.229   3.449
 4518SOL    HW214454   6.648   1.157   3.338
 4519SOL     OW14455   5.795   0.484   1.533
 4519SOL    HW114456   5.696   0.492   1.531
 4519SOL    HW214457   5.827   0.448   1.445
 4520SOL     OW14458   5.432   5.727   3.330
 4520SOL    HW114459   5.404   5.765   3.418
 4520SOL    HW214460   5.363   5.661   3.298
 4521SOL     OW14461   4.888   2.084   4.572
 4521SOL    HW114462   4.860   2.170   4.616
 4521SOL    HW214463   4.944   2.031   4.634
 4522SOL     OW14464   5.662   0.002   3.781
 4522SOL    HW114465   5.697   6.994   3.692
 4522SOL    HW214466   5.658   0.102   3.786
 4523SOL     OW14467   1.159   4.347   6.916
 4523SOL    HW114468   1.258   4.356   6.909
 4523SOL    HW214469   1.118   4.436   6.935
 4524SOL     OW14470   5.146   2.600   5.347
 4524SOL    HW114471   5.171   2.580   5.442
 4524SOL    HW214472   5.226   2.589   5.288
 4525SOL     OW14473   6.314   1.520   3.283
 4525SOL    HW114474   6.341   1.587   3.213
 4525SOL    HW214475   6.309   1.429   3.241
 4526SOL     OW14476   4.779   0.830   0.746
 4526SOL    HW114477   4.734   0.883   0.674
 4526SOL    HW214478   4.774   0.879   0.833
 4527SOL     OW14479   4.103   1.180   3.838
 4527SOL    HW114480   4.155   1.128   3.770
 4527SOL    HW214481   4.120   1.142   3.929
 4528SOL     OW14482   4.888   6.640   6.822
 4528SOL    HW114483   4.863   6.599   6.910
 4528SOL    HW214484   4.976   6.686   6.830
 4529SOL     OW14485   3.571   1.298   3.811
 4529SOL    HW114486   3.560   1.208   3.769
 4529SOL    HW214487   3.521   1.299   3.898
 4530SOL     OW14488   0.137   3.224   5.703
 4530SOL    HW114489   0.131   3.136   5.656
 4530SOL    HW214490   0.209   3.279   5.663
 4531SOL     OW14491   0.305   3.368   3.553
 4531SOL    HW114492   0.351   3.333   3.471
 4531SOL    HW214493   0.322   3.306   3.629
 4532SOL     OW14494   0.465   0.949   2.272
 4532SOL    HW114495   0.396   1.005   2.225
 4532SOL    HW214496   0.534   0.920   2.207
 4533SOL     OW14497   1.200   0.374   2.815
 4533SOL    HW114498   1.192   0.450   2.880
 4533SOL    HW214499   1.226   0.410   2.725
 4534SOL     OW14500   5.904   3.631   4.057
 4534SOL    HW114501   5.916   3.563   3.984
 4534SOL    HW214502   5.963   3.607   4.135
 4535SOL     OW14503   4.534   1.995   2.806
 4535SOL    HW114504   4.457   1.972   2.746
 4535SOL    HW214505   4.534   1.934   2.885
 4536SOL     OW14506   4.532   2.365   4.344
 4536SOL    HW114507   4.472   2.313   4.284
 4536SOL    HW214508   4.578   2.302   4.408
 4537SOL     OW14509   3.822   3.260   5.864
 4537SOL    HW114510   3.860   3.249   5.772
 4537SOL    HW214511   3.765   3.180   5.886
 4538SOL     OW14512   2.728   1.222   4.135
 4538SOL    HW114513   2.669   1.145   4.157
 4538SOL    HW214514   2.764   1.262   4.220
 4539SOL     OW14515   2.451   1.463   4.269
 4539SOL    HW114516   2.373   1.404   4.251
 4539SOL    HW214517   2.472   1.517   4.187
 4540SOL     OW14518   3.286   3.219   4.300
 4540SOL    HW114519   3.235   3.155   4.243
 4540SOL    HW214520   3.330   3.170   4.375
 4541SOL     OW14521   5.735   1.393   6.983
 4541SOL    HW114522   5.774   1.309   6.944
 4541SOL    HW214523   5.716   1.458   6.909
 4542SOL     OW14524   5.910   6.772   1.985
 4542SOL    HW114525   5.828   6.791   1.931
 4542SOL    HW214526   5.942   6.679   1.967
 4543SOL     OW14527   4.766   2.169   0.314
 4543SOL    HW114528   4.861   2.192   0.293
 4543SOL    HW214529   4.736   2.222   0.393
 4544SOL     OW14530   2.822   6.676   5.659
 4544SOL    HW114531   2.746   6.693   5.596
 4544SOL    HW214532   2.869   6.592   5.632
 4545SOL     OW14533   5.489   2.467   4.781
 4545SOL    HW114534   5.465   2.431   4.691
 4545SOL    HW214535   5.478   2.396   4.850
 4546SOL     OW14536   1.300   1.093   6.419
 4546SOL    HW114537   1.212   1.050   6.441
 4546SOL    HW214538   1.320   1.163   6.487
 4547SOL     OW14539   6.586   2.757   2.902
 4547SOL    HW114540   6.546   2.822   2.966
 4547SOL    HW214541   6.662   2.709   2.946
 4548SOL     OW14542   1.480   4.599   4.728
 4548SOL    HW114543   1.527   4.686   4.712
 4548SOL    HW214544   1.494   4.570   4.823
 4549SOL     OW14545   6.284   3.575   2.357
 4549SOL    HW114546   6.355   3.644   2.340
 4549SOL    HW214547   6.203   3.620   2.396
 4550SOL     OW14548   0.864   6.083   2.839
 4550SOL    HW114549   0.887   6.021   2.764
 4550SOL    HW214550   0.782   6.134   2.815
 4551SOL     OW14551   0.172   2.334   5.106
 4551SOL    HW114552   0.087   2.379   5.131
 4551SOL    HW214553   0.246   2.366   5.166
 4552SOL     OW14554   6.915   2.700   6.429
 4552SOL    HW114555   6.925   2.798   6.408
 4552SOL    HW214556   6.912   2.649   6.343
 4553SOL     OW14557   3.857   4.230   0.594
 4553SOL    HW114558   3.831   4.326   0.597
 4553SOL    HW214559   3.906   4.205   0.677
 4554SOL     OW14560   3.965   1.276   1.551
 4554SOL    HW114561   3.873   1.277   1.512
 4554SOL    HW214562   3.965   1.327   1.637
 4555SOL     OW14563   3.279   1.837   5.625
 4555SOL    HW114564   3.298   1.859   5.721
 4555SOL    HW214565   3.226   1.752   5.622
 4556SOL     OW14566   4.581   2.260   3.437
 4556SOL    HW114567   4.621   2.218   3.356
 4556SOL    HW214568   4.493   2.218   3.458
 4557SOL     OW14569   5.162   6.858   5.387
 4557SOL    HW114570   5.195   6.951   5.377
 4557SOL    HW214571   5.065   6.860   5.413
 4558SOL     OW14572   6.633   3.899   5.904
 4558SOL    HW114573   6.570   3.964   5.862
 4558SOL    HW214574   6.631   3.813   5.854
 4559SOL     OW14575   1.275   4.644   0.816
 4559SOL    HW114576   1.248   4.719   0.875
 4559SOL    HW214577   1.294   4.562   0.871
 4560SOL     OW14578   5.430   4.760   3.420
 4560SOL    HW114579   5.461   4.827   3.352
 4560SOL    HW214580   5.350   4.711   3.385
 4561SOL     OW14581   3.098   0.821   1.119
 4561SOL    HW114582   3.145   0.799   1.033
 4561SOL    HW214583   3.166   0.850   1.187
 4562SOL     OW14584   2.875   5.716   4.776
 4562SOL    HW114585   2.920   5.645   4.721
 4562SOL    HW214586   2.914   5.716   4.869
 4563SOL     OW14587   6.815   3.708   0.117
 4563SOL    HW114588   6.778   3.730   0.027
 4563SOL    HW214589   6.915   3.708   0.112
 4564SOL     OW14590   0.751   6.234   0.954
 4564SOL    HW114591   0.833   6.289   0.973
 4564SOL    HW214592   0.756   6.149   1.005
 4565SOL     OW14593   0.028   1.478   5.311
 4565SOL    HW114594   6.962   1.498   5.264
 4565SOL    HW214595   0.102   1.472   5.245
 4566SOL     OW14596   6.435   0.903   0.846
 4566SOL    HW114597   6.520   0.954   0.849
 4566SOL    HW214598   6.397   0.897   0.938
 4567SOL     OW14599   0.869   0.922   7.001
 4567SOL    HW114600   0.963   0.956   6.993
 4567SOL    HW214601   0.829   0.954   0.067
 4568SOL     OW14602   1.328   4.359   5.453
 4568SOL    HW114603   1.389   4.281   5.447
 4568SOL    HW214604   1.381   4.444   5.448
 4569SOL     OW14605   1.869   1.397   2.921
 4569SOL    HW114606   1.943   1.456   2.887
 4569SOL    HW214607   1.893   1.301   2.907
 4570SOL     OW14608   0.527   4.827   3.165
 4570SOL    HW114609   0.513   4.762   3.091
 4570SOL    HW214610   0.590   4.788   3.232
 4571SOL     OW14611   3.856   3.556   5.513
 4571SOL    HW114612   3.825   3.475   5.463
 4571SOL    HW214613   3.777   3.610   5.542
 4572SOL     OW14614   0.940   6.235   6.045
 4572SOL    HW114615   0.849   6.229   6.004
 4572SOL    HW214616   0.931   6.241   6.145
 4573SOL     OW14617   6.255   5.925   0.473
 4573SOL    HW114618   6.288   5.935   0.567
 4573SOL    HW214619   6.162   5.888   0.474
 4574SOL     OW14620   6.706   4.049   0.965
 4574SOL    HW114621   6.632   4.059   1.032
 4574SOL    HW214622   6.781   4.111   0.989
 4575SOL     OW14623   6.733   1.647   6.799
 4575SOL    HW114624   6.776   1.735   6.778
 4575SOL    HW214625   6.641   1.645   6.759
 4576SOL     OW14626   2.530   6.320   6.562
 4576SOL    HW114627   2.454   6.345   6.623
 4576SOL    HW214628   2.496   6.309   6.469
 4577SOL     OW14629   0.239   2.885   3.365
 4577SOL    HW114630   0.242   2.808   3.301
 4577SOL    HW214631   0.286   2.860   3.450
 4578SOL     OW14632   0.389   3.438   3.949
 4578SOL    HW114633   0.355   3.371   4.015
 4578SOL    HW214634   0.452   3.501   3.994
 4579SOL     OW14635   5.145   1.549   3.100
 4579SOL    HW114636   5.214   1.479   3.117
 4579SOL    HW214637   5.141   1.569   3.002
 4580SOL     OW14638   5.505   5.351   0.151
 4580SOL    HW114639   5.449   5.311   0.079
 4580SOL    HW214640   5.554   5.430   0.114
 4581SOL     OW14641   3.104   5.403   3.363
 4581SOL    HW114642   3.157   5.484   3.336
 4581SOL    HW214643   3.141   5.322   3.317
 4582SOL     OW14644   6.081   6.770   4.650
 4582SOL    HW114645   6.079   6.671   4.659
 4582SOL    HW214646   6.030   6.812   4.725
 4583SOL     OW14647   2.691   1.241   4.772
 4583SOL    HW114648   2.611   1.262   4.829
 4583SOL    HW214649   2.670   1.164   4.712
 4584SOL     OW14650   0.442   5.456   5.393
 4584SOL    HW114651   0.419   5.358   5.397
 4584SOL    HW214652   0.361   5.510   5.416
 4585SOL     OW14653   2.566   6.594   3.271
 4585SOL    HW114654   2.619   6.593   3.355
 4585SOL    HW214655   2.610   6.536   3.202
 4586SOL     OW14656   3.570   5.265   0.570
 4586SOL    HW114657   3.573   5.210   0.486
 4586SOL    HW214658   3.494   5.234   0.627
 4587SOL     OW14659   4.338   3.194   1.753
 4587SOL    HW114660   4.420   3.165   1.803
 4587SOL    HW214661   4.257   3.152   1.794
 4588SOL     OW14662   3.676   3.835   5.313
 4588SOL    HW114663   3.602   3.773   5.335
 4588SOL    HW214664   3.756   3.815   5.369
 4589SOL     OW14665   5.993   1.502   2.098
 4589SOL    HW114666   5.924   1.523   2.029
 4589SOL    HW214667   6.078   1.474   2.053
 4590SOL     OW14668   4.267   6.131   2.388
 4590SOL    HW114669   4.183   6.168   2.348
 4590SOL    HW214670   4.259   6.031   2.395
 4591SOL     OW14671   0.480   5.764   5.091
 4591SOL    HW114672   0.545   5.829   5.051
 4591SOL    HW214673   0.518   5.726   5.175
 4592SOL     OW14674   3.929   2.632   1.555
 4592SOL    HW114675   4.023   2.658   1.578
 4592SOL    HW214676   3.867   2.670   1.623
 4593SOL     OW14677   4.125   5.915   4.124
 4593SOL    HW114678   4.218   5.898   4.091
 4593SOL    HW214679   4.088   5.831   4.163
 4594SOL     OW14680   3.596   2.213   1.034
 4594SOL    HW114681   3.565   2.126   0.996
 4594SOL    HW214682   3.573   2.216   1.131
 4595SOL     OW14683   3.625   3.095   5.629
 4595SOL    HW114684   3.623   3.032   5.551
 4595SOL    HW214685   3.622   3.043   5.714
 4596SOL     OW14686   6.387   6.564   2.084
 4596SOL    HW114687   6.336   6.482   2.056
 4596SOL    HW214688   6.409   6.558   2.181
 4597SOL     OW14689   4.833   4.595   0.096
 4597SOL    HW114690   4.770   4.657   0.142
 4597SOL    HW214691   4.809   4.588   7.019
 4598SOL     OW14692   1.516   5.666   6.830
 4598SOL    HW114693   1.554   5.725   6.759
 4598SOL    HW214694   1.461   5.594   6.789
 4599SOL     OW14695   1.986   4.386   0.819
 4599SOL    HW114696   1.977   4.445   0.900
 4599SOL    HW214697   2.082   4.377   0.795
 4600SOL     OW14698   2.213   6.123   5.885
 4600SOL    HW114699   2.299   6.072   5.895
 4600SOL    HW214700   2.144   6.084   5.946
 4601SOL     OW14701   1.453   0.694   5.390
 4601SOL    HW114702   1.416   0.733   5.306
 4601SOL    HW214703   1.380   0.686   5.458
 4602SOL     OW14704   0.921   5.908   0.462
 4602SOL    HW114705   0.971   5.949   0.386
 4602SOL    HW214706   0.944   5.955   0.547
 4603SOL     OW14707   4.029   6.718   0.995
 4603SOL    HW114708   3.946   6.744   1.044
 4603SOL    HW214709   4.078   6.648   1.047
 4604SOL     OW14710   4.896   0.883   1.534
 4604SOL    HW114711   4.937   0.973   1.546
 4604SOL    HW214712   4.938   0.819   1.599
 4605SOL     OW14713   5.082   0.958   2.975
 4605SOL    HW114714   5.021   0.942   3.052
 4605SOL    HW214715   5.090   0.874   2.921
 4606SOL     OW14716   0.286   0.072   1.740
 4606SOL    HW114717   0.210   0.088   1.802
 4606SOL    HW214718   0.269   7.009   1.687
 4607SOL     OW14719   2.705   3.129   0.276
 4607SOL    HW114720   2.769   3.198   0.309
 4607SOL    HW214721   2.755   3.050   0.240
 4608SOL     OW14722   1.638   5.442   3.827
 4608SOL    HW114723   1.593   5.431   3.915
 4608SOL    HW214724   1.579   5.493   3.765
 4609SOL     OW14725   3.910   5.563   5.844
 4609SOL    HW114726   3.913   5.552   5.745
 4609SOL    HW214727   3.960   5.646   5.870
 4610SOL     OW14728   6.498   2.729   0.553
 4610SOL    HW114729   6.538   2.686   0.634
 4610SOL    HW214730   6.415   2.778   0.580
 4611SOL     OW14731   5.922   5.487   6.022
 4611SOL    HW114732   5.977   5.569   6.035
 4611SOL    HW214733   5.881   5.487   5.931
 4612SOL     OW14734   1.179   6.378   0.780
 4612SOL    HW114735   1.129   6.303   0.737
 4612SOL    HW214736   1.186   6.455   0.717
 4613SOL     OW14737   2.750   5.262   2.447
 4613SOL    HW114738   2.815   5.334   2.470
 4613SOL    HW214739   2.664   5.277   2.494
 4614SOL     OW14740   1.113   4.029   5.423
 4614SOL    HW114741   1.082   4.016   5.516
 4614SOL    HW214742   1.073   4.114   5.386
 4615SOL     OW14743   1.963   0.482   0.187
 4615SOL    HW114744   1.872   0.523   0.189
 4615SOL    HW214745   1.962   0.397   0.239
 4616SOL     OW14746   6.197   0.232   6.303
 4616SOL    HW114747   6.172   0.314   6.252
 4616SOL    HW214748   6.230   0.162   6.240
 4617SOL     OW14749   1.178   2.381   2.498
 4617SOL    HW114750   1.150   2.383   2.402
 4617SOL    HW214751   1.223   2.468   2.521
 4618SOL     OW14752   1.837   2.380   5.528
 4618SOL    HW114753   1.931   2.410   5.511
 4618SOL    HW214754   1.774   2.455   5.512
 4619SOL     OW14755   3.997   6.525   3.359
 4619SOL    HW114756   4.069   6.512   3.428
 4619SOL    HW214757   3.976   6.438   3.315
 4620SOL     OW14758   3.149   4.347   6.867
 4620SOL    HW114759   3.240   4.305   6.871
 4620SOL    HW214760   3.080   4.276   6.856
 4621SOL     OW14761   5.493   1.632   3.487
 4621SOL    HW114762   5.407   1.681   3.472
 4621SOL    HW214763   5.474   1.534   3.492
 4622SOL     OW14764   0.878   3.216   0.890
 4622SOL    HW114765   0.966   3.226   0.936
 4622SOL    HW214766   0.890   3.228   0.791
 4623SOL     OW14767   0.068   5.692   0.970
 4623SOL    HW114768   0.063   5.680   1.070
 4623SOL    HW214769   0.164   5.699   0.942
 4624SOL     OW14770   5.078   6.716   3.032
 4624SOL    HW114771   4.998   6.672   3.073
 4624SOL    HW214772   5.088   6.808   3.069
 4625SOL     OW14773   1.969   4.837   6.936
 4625SOL    HW114774   2.029   4.870   6.863
 4625SOL    HW214775   1.914   4.760   6.901
 4626SOL     OW14776   6.088   5.337   1.746
 4626SOL    HW114777   6.170   5.380   1.708
 4626SOL    HW214778   6.092   5.238   1.730
 4627SOL     OW14779   3.538   6.083   4.265
 4627SOL    HW114780   3.577   6.119   4.350
 4627SOL    HW214781   3.488   5.998   4.285
 4628SOL     OW14782   5.956   4.374   3.389
 4628SOL    HW114783   5.933   4.375   3.486
 4628SOL    HW214784   6.035   4.315   3.374
 4629SOL     OW14785   1.839   4.900   5.626
 4629SOL    HW114786   1.774   4.965   5.665
 4629SOL    HW214787   1.886   4.943   5.549
 4630SOL     OW14788   3.651   5.704   3.183
 4630SOL    HW114789   3.604   5.696   3.095
 4630SOL    HW214790   3.739   5.751   3.170
 4631SOL     OW14791   2.329   6.705   3.464
 4631SOL    HW114792   2.359   6.659   3.380
 4631SOL    HW214793   2.409   6.729   3.519
 4632SOL     OW14794   4.674   4.521   3.414
 4632SOL    HW114795   4.712   4.433   3.442
 4632SOL    HW214796   4.574   4.515   3.414
 4633SOL     OW14797   5.852   1.977   3.530
 4633SOL    HW114798   5.758   1.974   3.565
 4633SOL    HW214799   5.913   2.005   3.604
 4634SOL     OW14800   2.436   4.409   6.353
 4634SOL    HW114801   2.439   4.320   6.399
 4634SOL    HW214802   2.523   4.425   6.307
 4635SOL     OW14803   5.900   2.991   2.072
 4635SOL    HW114804   5.910   3.074   2.018
 4635SOL    HW214805   5.844   2.925   2.022
 4636SOL     OW14806   1.939   5.341   0.093
 4636SOL    HW114807   1.865   5.313   0.155
 4636SOL    HW214808   1.986   5.260   0.059
 4637SOL     OW14809   2.176   0.991   0.411
 4637SOL    HW114810   2.208   1.004   0.505
 4637SOL    HW214811   2.088   1.036   0.399
 4638SOL     OW14812   3.567   3.122   6.221
 4638SOL    HW114813   3.504   3.052   6.188
 4638SOL    HW214814   3.527   3.170   6.299
 4639SOL     OW14815   2.048   4.865   4.910
 4639SOL    HW114816   2.106   4.797   4.955
 4639SOL    HW214817   1.993   4.821   4.839
 4640SOL     OW14818   5.182   5.538   3.212
 4640SOL    HW114819   5.151   5.457   3.263
 4640SOL    HW214820   5.187   5.516   3.115
 4641SOL     OW14821   2.992   6.095   4.003
 4641SOL    HW114822   2.966   6.177   3.951
 4641SOL    HW214823   3.047   6.035   3.945
 4642SOL     OW14824   0.929   6.754   5.613
 4642SOL    HW114825   1.011   6.701   5.590
 4642SOL    HW214826   0.917   6.756   5.712
 4643SOL     OW14827   5.729   2.492   1.078
 4643SOL    HW114828   5.820   2.461   1.107
 4643SOL    HW214829   5.716   2.587   1.104
 4644SOL     OW14830   1.572   5.088   4.583
 4644SOL    HW114831   1.517   5.135   4.513
 4644SOL    HW214832   1.520   5.086   4.668
 4645SOL     OW14833   1.505   0.147   4.335
 4645SOL    HW114834   1.487   0.107   4.425
 4645SOL    HW214835   1.596   0.188   4.335
 4646SOL     OW14836   2.523   6.176   3.196
 4646SOL    HW114837   2.530   6.089   3.245
 4646SOL    HW214838   2.428   6.191   3.167
 4647SOL     OW14839   0.855   6.545   3.136
 4647SOL    HW114840   0.860   6.643   3.156
 4647SOL    HW214841   0.760   6.515   3.142
 4648SOL     OW14842   4.409   0.537   1.214
 4648SOL    HW114843   4.399   0.437   1.216
 4648SOL    HW214844   4.327   0.579   1.176
 4649SOL     OW14845   5.068   6.726   6.461
 4649SOL    HW114846   5.093   6.716   6.364
 4649SOL    HW214847   5.058   6.636   6.502
 4650SOL     OW14848   4.144   6.074   3.846
 4650SOL    HW114849   4.101   6.024   3.922
 4650SOL    HW214850   4.093   6.057   3.762
 4651SOL     OW14851   6.962   1.531   0.814
 4651SOL    HW114852   6.992   1.544   0.908
 4651SOL    HW214853   6.929   1.618   0.777
 4652SOL     OW14854   0.579   0.737   4.037
 4652SOL    HW114855   0.521   0.674   4.089
 4652SOL    HW214856   0.603   0.696   3.950
 4653SOL     OW14857   6.383   5.453   6.632
 4653SOL    HW114858   6.323   5.531   6.647
 4653SOL    HW214859   6.332   5.368   6.646
 4654SOL     OW14860   0.231   0.031   7.002
 4654SOL    HW114861   0.314   6.998   0.000
 4654SOL    HW214862   0.212   0.030   6.904
 4655SOL     OW14863   6.565   5.160   2.051
 4655SOL    HW114864   6.593   5.205   1.967
 4655SOL    HW214865   6.625   5.082   2.069
 4656SOL     OW14866   0.989   6.895   3.797
 4656SOL    HW114867   0.966   6.799   3.807
 4656SOL    HW214868   1.057   6.921   3.866
 4657SOL     OW14869   4.788   6.944   1.612
 4657SOL    HW114870   4.722   6.913   1.680
 4657SOL    HW214871   4.777   0.022   1.596
 4658SOL     OW14872   3.585   1.280   2.225
 4658SOL    HW114873   3.617   1.328   2.307
 4658SOL    HW214874   3.647   1.300   2.149
 4659SOL     OW14875   2.434   3.736   5.862
 4659SOL    HW114876   2.391   3.810   5.811
 4659SOL    HW214877   2.518   3.770   5.905
 4660SOL     OW14878   1.006   2.702   5.164
 4660SOL    HW114879   1.031   2.606   5.157
 4660SOL    HW214880   1.069   2.748   5.227
 4661SOL     OW14881   3.958   4.245   5.712
 4661SOL    HW114882   3.900   4.164   5.710
 4661SOL    HW214883   3.904   4.325   5.685
 4662SOL     OW14884   4.972   0.586   5.111
 4662SOL    HW114885   5.052   0.562   5.056
 4662SOL    HW214886   4.919   0.657   5.064
 4663SOL     OW14887   0.562   1.302   2.204
 4663SOL    HW114888   0.557   1.399   2.179
 4663SOL    HW214889   0.600   1.250   2.128
 4664SOL     OW14890   2.249   2.442   0.360
 4664SOL    HW114891   2.331   2.415   0.410
 4664SOL    HW214892   2.173   2.452   0.425
 4665SOL     OW14893   4.213   6.886   0.628
 4665SOL    HW114894   4.304   6.919   0.651
 4665SOL    HW214895   4.205   6.790   0.656
 4666SOL     OW14896   1.765   1.754   0.512
 4666SOL    HW114897   1.699   1.807   0.565
 4666SOL    HW214898   1.837   1.720   0.573
 4667SOL     OW14899   6.322   4.283   1.049
 4667SOL    HW114900   6.381   4.333   0.986
 4667SOL    HW214901   6.249   4.238   0.999
 4668SOL     OW14902   6.898   2.549   3.288
 4668SOL    HW114903   6.978   2.565   3.346
 4668SOL    HW214904   6.896   2.454   3.258
 4669SOL     OW14905   3.226   6.800   0.409
 4669SOL    HW114906   3.249   6.871   0.476
 4669SOL    HW214907   3.235   6.710   0.452
 4670SOL     OW14908   3.559   1.470   5.066
 4670SOL    HW114909   3.609   1.548   5.103
 4670SOL    HW214910   3.493   1.502   4.999
 4671SOL     OW14911   6.623   2.555   2.339
 4671SOL    HW114912   6.691   2.499   2.293
 4671SOL    HW214913   6.624   2.535   2.437
 4672SOL     OW14914   2.501   4.720   6.220
 4672SOL    HW114915   2.514   4.763   6.130
 4672SOL    HW214916   2.442   4.778   6.276
 4673SOL     OW14917   5.033   6.871   0.762
 4673SOL    HW114918   5.121   6.910   0.734
 4673SOL    HW214919   4.972   6.865   0.684
 4674SOL     OW14920   5.182   6.480   6.868
 4674SOL    HW114921   5.256   6.517   6.812
 4674SOL    HW214922   5.131   6.555   6.910
 4675SOL     OW14923   0.726   3.101   6.799
 4675SOL    HW114924   0.685   3.187   6.768
 4675SOL    HW214925   0.816   3.119   6.838
 4676SOL     OW14926   6.770   6.075   3.746
 4676SOL    HW114927   6.706   6.045   3.676
 4676SOL    HW214928   6.751   6.026   3.832
 4677SOL     OW14929   2.715   2.240   1.211
 4677SOL    HW114930   2.639   2.247   1.276
 4677SOL    HW214931   2.786   2.181   1.250
 4678SOL     OW14932   2.193   4.440   2.937
 4678SOL    HW114933   2.230   4.442   2.844
 4678SOL    HW214934   2.194   4.347   2.971
 4679SOL     OW14935   4.177   0.290   1.553
 4679SOL    HW114936   4.205   0.372   1.504
 4679SOL    HW214937   4.108   0.241   1.500
 4680SOL     OW14938   3.689   1.102   6.360
 4680SOL    HW114939   3.594   1.072   6.350
 4680SOL    HW214940   3.728   1.063   6.443
 4681SOL     OW14941   5.035   4.710   0.463
 4681SOL    HW114942   5.100   4.783   0.483
 4681SOL    HW214943   5.081   4.638   0.411
 4682SOL     OW14944   4.545   4.699   5.680
 4682SOL    HW114945   4.539   4.608   5.642
 4682SOL    HW214946   4.472   4.756   5.643
 4683SOL     OW14947   6.002   5.502   2.761
 4683SOL    HW114948   6.049   5.416   2.744
 4683SOL    HW214949   5.930   5.515   2.693
 4684SOL     OW14950   4.905   6.867   5.451
 4684SOL    HW114951   4.943   6.879   5.543
 4684SOL    HW214952   4.870   6.774   5.441
 4685SOL     OW14953   2.247   4.560   6.494
 4685SOL    HW114954   2.295   4.486   6.449
 4685SOL    HW214955   2.149   4.555   6.473
 4686SOL     OW14956   4.151   5.806   6.933
 4686SOL    HW114957   4.208   5.788   7.013
 4686SOL    HW214958   4.170   5.737   6.863
 4687SOL     OW14959   4.696   2.846   4.191
 4687SOL    HW114960   4.689   2.773   4.260
 4687SOL    HW214961   4.635   2.921   4.216
 4688SOL     OW14962   6.112   2.710   4.895
 4688SOL    HW114963   6.134   2.808   4.891
 4688SOL    HW214964   6.186   2.661   4.939
 4689SOL     OW14965   5.686   1.061   0.756
 4689SOL    HW114966   5.687   1.155   0.721
 4689SOL    HW214967   5.593   1.037   0.784
 4690SOL     OW14968   2.383   0.521   0.767
 4690SOL    HW114969   2.298   0.537   0.716
 4690SOL    HW214970   2.449   0.477   0.707
 4691SOL     OW14971   3.299   3.831   0.507
 4691SOL    HW114972   3.314   3.926   0.536
 4691SOL    HW214973   3.360   3.771   0.558
 4692SOL     OW14974   5.621   5.053   3.054
 4692SOL    HW114975   5.618   4.960   3.017
 4692SOL    HW214976   5.675   5.111   2.994
 4693SOL     OW14977   1.272   0.460   3.785
 4693SOL    HW114978   1.269   0.363   3.761
 4693SOL    HW214979   1.199   0.480   3.851
 4694SOL     OW14980   2.081   1.696   0.001
 4694SOL    HW114981   2.138   1.754   6.963
 4694SOL    HW214982   2.137   1.620   0.036
 4695SOL     OW14983   1.088   5.181   0.703
 4695SOL    HW114984   1.052   5.105   0.758
 4695SOL    HW214985   1.078   5.266   0.754
 4696SOL     OW14986   0.386   5.899   5.906
 4696SOL    HW114987   0.353   5.989   5.934
 4696SOL    HW214988   0.379   5.835   5.982
 4697SOL     OW14989   1.002   3.851   2.325
 4697SOL    HW114990   0.931   3.785   2.349
 4697SOL    HW214991   0.998   3.871   2.227
 4698SOL     OW14992   4.629   6.378   3.108
 4698SOL    HW114993   4.529   6.371   3.111
 4698SOL    HW214994   4.669   6.288   3.092
 4699SOL     OW14995   0.580   6.444   2.585
 4699SOL    HW114996   0.517   6.516   2.613
 4699SOL    HW214997   0.570   6.427   2.487
 4700SOL     OW14998   6.060   2.321   2.132
 4700SOL    HW114999   6.099   2.268   2.056
 4700SOL    HW215000   5.965   2.295   2.146
 4701SOL     OW15001   3.571   2.104   0.334
 4701SOL    HW115002   3.584   2.145   0.424
 4701SOL    HW215003   3.573   2.175   0.264
 4702SOL     OW15004   4.526   4.806   0.354
 4702SOL    HW115005   4.505   4.733   0.418
 4702SOL    HW215006   4.619   4.795   0.320
 4703SOL     OW15007   1.245   6.574   3.045
 4703SOL    HW115008   1.196   6.490   3.066
 4703SOL    HW215009   1.257   6.628   3.129
 4704SOL     OW15010   6.245   5.697   6.630
 4704SOL    HW115011   6.198   5.782   6.604
 4704SOL    HW215012   6.178   5.628   6.654
 4705SOL     OW15013   3.828   2.434   0.950
 4705SOL    HW115014   3.793   2.379   0.874
 4705SOL    HW215015   3.927   2.440   0.943
 4706SOL     OW15016   1.724   0.592   0.618
 4706SOL    HW115017   1.710   0.636   0.529
 4706SOL    HW215018   1.741   0.661   0.687
 4707SOL     OW15019   0.946   6.317   1.679
 4707SOL    HW115020   0.875   6.361   1.623
 4707SOL    HW215021   1.008   6.386   1.715
 4708SOL     OW15022   1.429   1.731   5.786
 4708SOL    HW115023   1.526   1.754   5.780
 4708SOL    HW215024   1.382   1.761   5.703
 4709SOL     OW15025   4.725   5.416   5.158
 4709SOL    HW115026   4.750   5.502   5.202
 4709SOL    HW215027   4.674   5.435   5.074
 4710SOL     OW15028   5.527   6.843   6.276
 4710SOL    HW115029   5.579   6.924   6.303
 4710SOL    HW215030   5.454   6.826   6.343
 4711SOL     OW15031   6.644   1.472   2.287
 4711SOL    HW115032   6.577   1.426   2.229
 4711SOL    HW215033   6.598   1.542   2.341
 4712SOL     OW15034   3.295   4.970   6.740
 4712SOL    HW115035   3.337   5.017   6.662
 4712SOL    HW215036   3.341   4.995   6.824
 4713SOL     OW15037   3.990   5.163   0.920
 4713SOL    HW115038   3.939   5.165   0.834
 4713SOL    HW215039   4.015   5.256   0.946
 4714SOL     OW15040   0.424   1.263   5.937
 4714SOL    HW115041   0.325   1.270   5.935
 4714SOL    HW215042   0.464   1.352   5.916
 4715SOL     OW15043   5.872   3.359   1.701
 4715SOL    HW115044   5.931   3.286   1.667
 4715SOL    HW215045   5.861   3.428   1.629
 4716SOL     OW15046   4.399   6.539   5.678
 4716SOL    HW115047   4.438   6.447   5.665
 4716SOL    HW215048   4.343   6.562   5.599
 4717SOL     OW15049   1.029   5.853   4.896
 4717SOL    HW115050   1.026   5.759   4.930
 4717SOL    HW215051   1.033   5.916   4.974
 4718SOL     OW15052   5.262   2.247   1.096
 4718SOL    HW115053   5.325   2.317   1.130
 4718SOL    HW215054   5.205   2.213   1.171
 4719SOL     OW15055   5.012   3.747   2.336
 4719SOL    HW115056   4.989   3.775   2.429
 4719SOL    HW215057   4.995   3.649   2.325
 4720SOL     OW15058   1.813   5.091   6.062
 4720SOL    HW115059   1.797   5.058   5.969
 4720SOL    HW215060   1.846   5.186   6.058
 4721SOL     OW15061   6.458   2.032   1.770
 4721SOL    HW115062   6.453   2.095   1.692
 4721SOL    HW215063   6.519   2.071   1.839
 4722SOL     OW15064   1.120   6.224   6.590
 4722SOL    HW115065   1.157   6.146   6.539
 4722SOL    HW215066   1.185   6.252   6.660
 4723SOL     OW15067   3.007   3.408   5.214
 4723SOL    HW115068   2.933   3.407   5.281
 4723SOL    HW215069   2.973   3.372   5.127
 4724SOL     OW15070   0.038   7.018   4.436
 4724SOL    HW115071   6.974   0.034   4.478
 4724SOL    HW215072   0.083   6.956   4.500
 4725SOL     OW15073   6.450   5.079   0.337
 4725SOL    HW115074   6.352   5.064   0.324
 4725SOL    HW215075   6.501   4.995   0.316
 4726SOL     OW15076   1.364   3.521   6.134
 4726SOL    HW115077   1.379   3.462   6.054
 4726SOL    HW215078   1.346   3.614   6.103
 4727SOL     OW15079   0.417   6.185   1.303
 4727SOL    HW115080   0.444   6.127   1.226
 4727SOL    HW215081   0.342   6.141   1.352
 4728SOL     OW15082   6.656   0.464   2.583
 4728SOL    HW115083   6.662   0.486   2.681
 4728SOL    HW215084   6.580   0.513   2.542
 4729SOL     OW15085   4.824   0.812   0.287
 4729SOL    HW115086   4.911   0.791   0.331
 4729SOL    HW215087   4.799   0.907   0.304
 4730SOL     OW15088   3.395   5.846   5.288
 4730SOL    HW115089   3.490   5.818   5.293
 4730SOL    HW215090   3.388   5.944   5.305
 4731SOL     OW15091   3.043   0.932   0.533
 4731SOL    HW115092   3.105   1.009   0.544
 4731SOL    HW215093   3.004   0.933   0.441
 4732SOL     OW15094   0.567   3.172   5.201
 4732SOL    HW115095   0.550   3.269   5.187
 4732SOL    HW215096   0.664   3.153   5.186
 4733SOL     OW15097   1.192   3.664   3.448
 4733SOL    HW115098   1.211   3.623   3.359
 4733SOL    HW215099   1.102   3.633   3.480
 4734SOL     OW15100   4.708   3.039   0.631
 4734SOL    HW115101   4.723   3.111   0.700
 4734SOL    HW215102   4.628   3.063   0.576
 4735SOL     OW15103   6.722   5.686   4.184
 4735SOL    HW115104   6.650   5.657   4.121
 4735SOL    HW215105   6.683   5.749   4.252
 4736SOL     OW15106   5.435   1.902   5.619
 4736SOL    HW115107   5.505   1.957   5.574
 4736SOL    HW215108   5.475   1.816   5.651
 4737SOL     OW15109   2.782   4.256   0.644
 4737SOL    HW115110   2.766   4.317   0.721
 4737SOL    HW215111   2.699   4.203   0.625
 4738SOL     OW15112   2.887   6.266   3.177
 4738SOL    HW115113   2.928   6.266   3.086
 4738SOL    HW215114   2.888   6.173   3.214
 4739SOL     OW15115   4.947   1.423   3.314
 4739SOL    HW115116   5.037   1.387   3.341
 4739SOL    HW215117   4.947   1.440   3.216
 4740SOL     OW15118   0.244   0.312   0.643
 4740SOL    HW115119   0.181   0.352   0.709
 4740SOL    HW215120   0.291   0.384   0.592
 4741SOL     OW15121   4.580   3.407   1.347
 4741SOL    HW115122   4.613   3.495   1.312
 4741SOL    HW215123   4.573   3.412   1.447
 4742SOL     OW15124   2.749   6.321   1.587
 4742SOL    HW115125   2.803   6.237   1.587
 4742SOL    HW215126   2.807   6.398   1.563
 4743SOL     OW15127   1.686   2.601   5.490
 4743SOL    HW115128   1.605   2.613   5.548
 4743SOL    HW215129   1.668   2.639   5.400
 4744SOL     OW15130   2.627   3.400   5.909
 4744SOL    HW115131   2.581   3.317   5.877
 4744SOL    HW215132   2.674   3.444   5.832
 4745SOL     OW15133   2.170   5.435   5.290
 4745SOL    HW115134   2.214   5.407   5.205
 4745SOL    HW215135   2.228   5.412   5.368
 4746SOL     OW15136   6.339   5.943   2.408
 4746SOL    HW115137   6.309   5.848   2.423
 4746SOL    HW215138   6.266   6.005   2.437
 4747SOL     OW15139   1.754   3.735   6.577
 4747SOL    HW115140   1.751   3.660   6.511
 4747SOL    HW215141   1.661   3.754   6.610
 4748SOL     OW15142   1.384   5.245   0.940
 4748SOL    HW115143   1.423   5.291   0.860
 4748SOL    HW215144   1.442   5.168   0.966
 4749SOL     OW15145   3.140   6.325   5.328
 4749SOL    HW115146   3.172   6.420   5.325
 4749SOL    HW215147   3.100   6.306   5.418
 4750SOL     OW15148   0.261   3.013   4.314
 4750SOL    HW115149   0.255   3.084   4.244
 4750SOL    HW215150   0.358   2.990   4.330
 4751SOL     OW15151   2.574   2.799   6.963
 4751SOL    HW115152   2.484   2.806   7.006
 4751SOL    HW215153   2.570   2.736   6.885
 4752SOL     OW15154   2.964   0.056   0.097
 4752SOL    HW115155   3.002   7.000   0.149
 4752SOL    HW215156   2.870   0.074   0.127
 4753SOL     OW15157   5.128   7.014   4.412
 4753SOL    HW115158   5.176   0.080   4.429
 4753SOL    HW215159   5.180   6.939   4.452
 4754SOL     OW15160   5.884   0.293   5.412
 4754SOL    HW115161   5.926   0.261   5.496
 4754SOL    HW215162   5.877   0.393   5.414
 4755SOL     OW15163   2.898   0.617   0.759
 4755SOL    HW115164   2.831   0.670   0.707
 4755SOL    HW215165   2.990   0.649   0.737
 4756SOL     OW15166   5.882   2.759   1.239
 4756SOL    HW115167   5.902   2.688   1.307
 4756SOL    HW215168   5.782   2.769   1.231
 4757SOL     OW15169   1.385   2.257   2.199
 4757SOL    HW115170   1.443   2.314   2.140
 4757SOL    HW215171   1.440   2.214   2.269
 4758SOL     OW15172   3.070   6.197   4.808
 4758SOL    HW115173   3.046   6.262   4.736
 4758SOL    HW215174   3.073   6.104   4.769
 4759SOL     OW15175   5.685   5.438   4.482
 4759SOL    HW115176   5.784   5.436   4.497
 4759SOL    HW215177   5.647   5.348   4.504
 4760SOL     OW15178   3.556   1.981   0.890
 4760SOL    HW115179   3.597   1.938   0.810
 4760SOL    HW215180   3.461   2.004   0.870
 4761SOL     OW15181   0.737   6.810   6.604
 4761SOL    HW115182   0.663   6.750   6.636
 4761SOL    HW215183   0.718   6.838   6.510
 4762SOL     OW15184   2.345   5.273   2.836
 4762SOL    HW115185   2.413   5.219   2.884
 4762SOL    HW215186   2.315   5.349   2.894
 4763SOL     OW15187   6.010   6.019   3.636
 4763SOL    HW115188   6.080   6.001   3.706
 4763SOL    HW215189   6.055   6.032   3.547
 4764SOL     OW15190   4.856   4.192   5.623
 4764SOL    HW115191   4.835   4.125   5.694
 4764SOL    HW215192   4.909   4.148   5.551
 4765SOL     OW15193   5.077   0.293   4.725
 4765SOL    HW115194   5.007   0.313   4.656
 4765SOL    HW215195   5.138   0.221   4.691
 4766SOL     OW15196   4.655   0.390   3.745
 4766SOL    HW115197   4.706   0.473   3.719
 4766SOL    HW215198   4.581   0.376   3.679
 4767SOL     OW15199   3.725   5.420   6.028
 4767SOL    HW115200   3.672   5.470   6.096
 4767SOL    HW215201   3.788   5.484   5.983
 4768SOL     OW15202   4.386   1.966   5.079
 4768SOL    HW115203   4.392   2.065   5.063
 4768SOL    HW215204   4.376   1.918   4.992
 4769SOL     OW15205   4.514   5.097   0.871
 4769SOL    HW115206   4.422   5.128   0.847
 4769SOL    HW215207   4.509   5.038   0.952
 4770SOL     OW15208   0.932   0.110   4.061
 4770SOL    HW115209   0.843   0.065   4.066
 4770SOL    HW215210   0.937   0.168   3.980
 4771SOL     OW15211   3.613   5.215   5.649
 4771SOL    HW115212   3.518   5.237   5.667
 4771SOL    HW215213   3.638   5.245   5.557
 4772SOL     OW15214   2.607   5.825   1.722
 4772SOL    HW115215   2.571   5.896   1.662
 4772SOL    HW215216   2.531   5.769   1.756
 4773SOL     OW15217   6.443   5.491   4.891
 4773SOL    HW115218   6.410   5.499   4.985
 4773SOL    HW215219   6.487   5.577   4.864
 4774SOL     OW15220   0.999   2.561   1.625
 4774SOL    HW115221   0.928   2.624   1.658
 4774SOL    HW215222   0.965   2.467   1.630
 4775SOL     OW15223   5.165   6.892   2.549
 4775SOL    HW115224   5.103   6.884   2.627
 4775SOL    HW215225   5.156   6.811   2.491
 4776SOL     OW15226   1.196   6.725   4.572
 4776SOL    HW115227   1.262   6.785   4.525
 4776SOL    HW215228   1.135   6.781   4.629
 4777SOL     OW15229   2.912   4.639   1.618
 4777SOL    HW115230   2.913   4.592   1.706
 4777SOL    HW215231   2.818   4.644   1.583
 4778SOL     OW15232   5.629   2.527   2.427
 4778SOL    HW115233   5.683   2.592   2.375
 4778SOL    HW215234   5.689   2.455   2.463
 4779SOL     OW15235   6.409   6.329   2.453
 4779SOL    HW115236   6.463   6.286   2.380
 4779SOL    HW215237   6.378   6.419   2.423
 4780SOL     OW15238   0.110   0.592   0.394
 4780SOL    HW115239   0.011   0.582   0.383
 4780SOL    HW215240   0.129   0.655   0.469
 4781SOL     OW15241   2.905   6.548   1.464
 4781SOL    HW115242   2.852   6.622   1.506
 4781SOL    HW215243   2.968   6.586   1.396
 4782SOL     OW15244   4.779   6.120   0.733
 4782SOL    HW115245   4.864   6.096   0.687
 4782SOL    HW215246   4.701   6.089   0.678
 4783SOL     OW15247   4.403   4.285   6.751
 4783SOL    HW115248   4.330   4.349   6.773
 4783SOL    HW215249   4.491   4.322   6.781
 4784SOL     OW15250   6.326   4.062   6.438
 4784SOL    HW115251   6.242   4.100   6.400
 4784SOL    HW215252   6.404   4.118   6.409
 4785SOL     OW15253   6.242   5.681   1.714
 4785SOL    HW115254   6.315   5.748   1.702
 4785SOL    HW215255   6.210   5.650   1.624
 4786SOL     OW15256   2.634   2.276   1.534
 4786SOL    HW115257   2.681   2.188   1.524
 4786SOL    HW215258   2.601   2.285   1.628
 4787SOL     OW15259   3.031   2.220   3.334
 4787SOL    HW115260   2.999   2.145   3.276
 4787SOL    HW215261   2.983   2.217   3.422
 4788SOL     OW15262   1.107   5.099   5.955
 4788SOL    HW115263   1.020   5.070   5.995
 4788SOL    HW215264   1.136   5.184   5.998
 4789SOL     OW15265   5.626   1.174   0.187
 4789SOL    HW115266   5.697   1.142   0.123
 4789SOL    HW215267   5.600   1.099   0.248
 4790SOL     OW15268   0.324   2.950   6.099
 4790SOL    HW115269   0.345   2.959   6.002
 4790SOL    HW215270   0.235   2.905   6.110
 4791SOL     OW15271   6.234   1.974   1.470
 4791SOL    HW115272   6.256   1.889   1.422
 4791SOL    HW215273   6.191   1.953   1.558
 4792SOL     OW15274   2.010   3.218   2.698
 4792SOL    HW115275   2.029   3.289   2.767
 4792SOL    HW215276   2.035   3.252   2.608
 4793SOL     OW15277   1.670   2.574   5.805
 4793SOL    HW115278   1.765   2.575   5.836
 4793SOL    HW215279   1.618   2.644   5.854
 4794SOL     OW15280   4.729   0.602   3.095
 4794SOL    HW115281   4.661   0.645   3.035
 4794SOL    HW215282   4.802   0.562   3.039
 4795SOL     OW15283   6.384   1.682   2.796
 4795SOL    HW115284   6.399   1.778   2.772
 4795SOL    HW215285   6.450   1.625   2.749
 4796SOL     OW15286   5.191   2.059   6.517
 4796SOL    HW115287   5.135   2.024   6.442
 4796SOL    HW215288   5.151   2.034   6.605
 4797SOL     OW15289   1.589   6.306   5.700
 4797SOL    HW115290   1.634   6.389   5.666
 4797SOL    HW215291   1.659   6.241   5.731
 4798SOL     OW15292   0.458   2.839   4.994
 4798SOL    HW115293   0.487   2.877   4.906
 4798SOL    HW215294   0.358   2.837   4.998
 4799SOL     OW15295   4.865   2.021   6.478
 4799SOL    HW115296   4.766   2.006   6.483
 4799SOL    HW215297   4.913   1.939   6.507
 4800SOL     OW15298   2.461   3.251   5.754
 4800SOL    HW115299   2.463   3.281   5.659
 4800SOL    HW215300   2.376   3.202   5.772
 4801SOL     OW15301   2.851   2.493   1.173
 4801SOL    HW115302   2.797   2.410   1.189
 4801SOL    HW215303   2.862   2.543   1.258
 4802SOL     OW15304   1.084   6.217   2.110
 4802SOL    HW115305   1.138   6.223   2.026
 4802SOL    HW215306   1.139   6.250   2.187
 4803SOL     OW15307   1.344   6.257   0.962
 4803SOL    HW115308   1.404   6.322   1.009
 4803SOL    HW215309   1.285   6.307   0.899
 4804SOL     OW15310   4.897   5.661   6.463
 4804SOL    HW115311   4.902   5.760   6.478
 4804SOL    HW215312   4.979   5.630   6.416
 4805SOL     OW15313   5.917   0.428   1.265
 4805SOL    HW115314   5.940   0.331   1.279
 4805SOL    HW215315   5.995   0.475   1.225
 4806SOL     OW15316   0.888   4.308   3.051
 4806SOL    HW115317   0.901   4.243   2.976
 4806SOL    HW215318   0.953   4.383   3.042
 4807SOL     OW15319   1.194   4.819   0.301
 4807SOL    HW115320   1.111   4.790   0.350
 4807SOL    HW215321   1.272   4.811   0.363
 4808SOL     OW15322   6.255   3.596   6.810
 4808SOL    HW115323   6.307   3.646   6.741
 4808SOL    HW215324   6.310   3.586   6.893
 4809SOL     OW15325   3.607   4.077   6.878
 4809SOL    HW115326   3.613   4.031   6.789
 4809SOL    HW215327   3.584   4.173   6.864
 4810SOL     OW15328   1.131   4.991   2.073
 4810SOL    HW115329   1.069   4.927   2.116
 4810SOL    HW215330   1.122   5.081   2.115
 4811SOL     OW15331   1.806   4.938   2.032
 4811SOL    HW115332   1.746   5.017   2.018
 4811SOL    HW215333   1.755   4.854   2.018
 4812SOL     OW15334   0.070   5.102   5.116
 4812SOL    HW115335   7.000   5.136   5.089
 4812SOL    HW215336   0.065   5.064   5.209
 4813SOL     OW15337   5.503   1.908   0.810
 4813SOL    HW115338   5.461   1.929   0.722
 4813SOL    HW215339   5.592   1.866   0.795
 4814SOL     OW15340   5.745   4.128   0.465
 4814SOL    HW115341   5.723   4.096   0.373
 4814SOL    HW215342   5.762   4.050   0.525
 4815SOL     OW15343   5.957   4.327   3.095
 4815SOL    HW115344   5.951   4.335   3.195
 4815SOL    HW215345   5.879   4.373   3.053
 4816SOL     OW15346   0.521   5.428   2.214
 4816SOL    HW115347   0.491   5.378   2.295
 4816SOL    HW215348   0.470   5.514   2.207
 4817SOL     OW15349   1.395   2.027   6.349
 4817SOL    HW115350   1.316   1.968   6.333
 4817SOL    HW215351   1.478   1.983   6.315
 4818SOL     OW15352   0.960   0.574   4.906
 4818SOL    HW115353   1.022   0.497   4.922
 4818SOL    HW215354   0.875   0.560   4.957
 4819SOL     OW15355   1.221   2.497   0.124
 4819SOL    HW115356   1.199   2.593   0.143
 4819SOL    HW215357   1.269   2.491   0.036
 4820SOL     OW15358   6.794   2.720   1.068
 4820SOL    HW115359   6.849   2.690   0.991
 4820SOL    HW215360   6.735   2.795   1.040
 4821SOL     OW15361   1.424   6.102   2.281
 4821SOL    HW115362   1.473   6.028   2.327
 4821SOL    HW215363   1.487   6.177   2.263
 4822SOL     OW15364   1.337   3.299   4.875
 4822SOL    HW115365   1.381   3.282   4.964
 4822SOL    HW215366   1.407   3.299   4.803
 4823SOL     OW15367   1.544   1.524   4.370
 4823SOL    HW115368   1.546   1.460   4.293
 4823SOL    HW215369   1.585   1.611   4.342
 4824SOL     OW15370   4.623   2.133   5.155
 4824SOL    HW115371   4.635   2.042   5.115
 4824SOL    HW215372   4.569   2.189   5.093
 4825SOL     OW15373   1.553   2.555   4.530
 4825SOL    HW115374   1.550   2.582   4.434
 4825SOL    HW215375   1.585   2.632   4.585
 4826SOL     OW15376   5.450   0.778   0.161
 4826SOL    HW115377   5.417   0.832   0.083
 4826SOL    HW215378   5.523   0.717   0.131
 4827SOL     OW15379   6.312   1.913   0.487
 4827SOL    HW115380   6.242   1.880   0.424
 4827SOL    HW215381   6.362   1.988   0.445
 4828SOL     OW15382   5.141   1.310   0.819
 4828SOL    HW115383   5.186   1.374   0.882
 4828SOL    HW215384   5.057   1.352   0.784
 4829SOL     OW15385   3.701   0.436   5.894
 4829SOL    HW115386   3.701   0.531   5.865
 4829SOL    HW215387   3.623   0.388   5.852
 4830SOL     OW15388   3.501   5.757   3.896
 4830SOL    HW115389   3.511   5.757   3.797
 4830SOL    HW215390   3.413   5.798   3.921
 4831SOL     OW15391   1.729   4.565   5.605
 4831SOL    HW115392   1.748   4.495   5.536
 4831SOL    HW215393   1.675   4.639   5.564
 4832SOL     OW15394   3.532   3.986   3.575
 4832SOL    HW115395   3.486   4.039   3.646
 4832SOL    HW215396   3.467   3.967   3.501
 4833SOL     OW15397   6.048   1.618   3.068
 4833SOL    HW115398   6.036   1.586   3.162
 4833SOL    HW215399   5.959   1.623   3.023
 4834SOL     OW15400   2.626   5.768   2.060
 4834SOL    HW115401   2.711   5.720   2.081
 4834SOL    HW215402   2.632   5.862   2.093
 4835SOL     OW15403   5.766   3.105   5.888
 4835SOL    HW115404   5.808   3.168   5.953
 4835SOL    HW215405   5.822   3.101   5.805
 4836SOL     OW15406   5.101   1.910   4.668
 4836SOL    HW115407   5.187   1.915   4.719
 4836SOL    HW215408   5.120   1.902   4.570
 4837SOL     OW15409   0.276   3.048   3.031
 4837SOL    HW115410   0.368   3.011   3.020
 4837SOL    HW215411   0.209   2.977   3.010
 4838SOL     OW15412   2.362   6.105   0.345
 4838SOL    HW115413   2.424   6.181   0.364
 4838SOL    HW215414   2.341   6.102   0.248
 4839SOL     OW15415   1.091   3.640   6.900
 4839SOL    HW115416   1.150   3.631   6.981
 4839SOL    HW215417   1.093   3.554   6.848
 4840SOL     OW15418   6.553   4.682   5.971
 4840SOL    HW115419   6.516   4.614   6.035
 4840SOL    HW215420   6.577   4.637   5.885
 4841SOL     OW15421   2.540   4.847   3.248
 4841SOL    HW115422   2.617   4.789   3.223
 4841SOL    HW215423   2.458   4.792   3.259
 4842SOL     OW15424   2.607   4.893   3.524
 4842SOL    HW115425   2.563   4.898   3.434
 4842SOL    HW215426   2.681   4.825   3.521
 4843SOL     OW15427   6.769   2.619   1.777
 4843SOL    HW115428   6.826   2.572   1.709
 4843SOL    HW215429   6.741   2.553   1.847
 4844SOL     OW15430   0.267   4.096   5.453
 4844SOL    HW115431   0.350   4.041   5.443
 4844SOL    HW215432   0.195   4.058   5.394
 4845SOL     OW15433   4.716   5.213   6.535
 4845SOL    HW115434   4.648   5.193   6.606
 4845SOL    HW215435   4.702   5.152   6.457
 4846SOL     OW15436   0.217   1.872   3.559
 4846SOL    HW115437   0.223   1.932   3.479
 4846SOL    HW215438   0.210   1.777   3.529
 4847SOL     OW15439   2.216   1.666   5.873
 4847SOL    HW115440   2.139   1.727   5.853
 4847SOL    HW215441   2.298   1.721   5.892
 4848SOL     OW15442   2.900   0.990   4.902
 4848SOL    HW115443   2.808   1.024   4.923
 4848SOL    HW215444   2.910   0.897   4.939
 4849SOL     OW15445   1.736   5.809   1.390
 4849SOL    HW115446   1.673   5.818   1.468
 4849SOL    HW215447   1.811   5.875   1.400
 4850SOL     OW15448   5.171   1.070   1.361
 4850SOL    HW115449   5.141   1.075   1.456
 4850SOL    HW215450   5.258   1.021   1.355
 4851SOL     OW15451   3.090   5.408   5.751
 4851SOL    HW115452   3.020   5.442   5.814
 4851SOL    HW215453   3.156   5.481   5.733
 4852SOL     OW15454   2.717   5.832   5.052
 4852SOL    HW115455   2.665   5.847   5.136
 4852SOL    HW215456   2.742   5.735   5.045
 4853SOL     OW15457   3.965   1.328   3.088
 4853SOL    HW115458   3.982   1.367   3.179
 4853SOL    HW215459   3.974   1.400   3.019
 4854SOL     OW15460   4.939   0.248   1.904
 4854SOL    HW115461   4.911   0.325   1.847
 4854SOL    HW215462   4.868   0.178   1.902
 4855SOL     OW15463   6.308   3.654   5.199
 4855SOL    HW115464   6.305   3.612   5.108
 4855SOL    HW215465   6.254   3.599   5.262
 4856SOL     OW15466   1.204   2.938   2.841
 4856SOL    HW115467   1.150   2.860   2.872
 4856SOL    HW215468   1.283   2.950   2.901
 4857SOL     OW15469   2.824   1.929   3.535
 4857SOL    HW115470   2.877   1.885   3.463
 4857SOL    HW215471   2.767   2.000   3.495
 4858SOL     OW15472   6.903   6.481   4.953
 4858SOL    HW115473   6.937   6.391   4.923
 4858SOL    HW215474   6.808   6.492   4.922
 4859SOL     OW15475   0.797   5.123   1.657
 4859SOL    HW115476   0.735   5.129   1.735
 4859SOL    HW215477   0.825   5.215   1.630
 4860SOL     OW15478   4.203   4.611   0.302
 4860SOL    HW115479   4.144   4.531   0.291
 4860SOL    HW215480   4.291   4.582   0.340
 4861SOL     OW15481   6.018   5.405   6.446
 4861SOL    HW115482   5.958   5.326   6.434
 4861SOL    HW215483   6.083   5.409   6.371
 4862SOL     OW15484   2.441   4.452   4.899
 4862SOL    HW115485   2.479   4.469   4.808
 4862SOL    HW215486   2.492   4.505   4.967
 4863SOL     OW15487   4.888   3.244   2.589
 4863SOL    HW115488   4.938   3.286   2.513
 4863SOL    HW215489   4.828   3.172   2.554
 4864SOL     OW15490   3.658   1.702   1.848
 4864SOL    HW115491   3.619   1.674   1.936
 4864SOL    HW215492   3.585   1.738   1.790
 4865SOL     OW15493   2.875   6.079   4.957
 4865SOL    HW115494   2.847   6.038   4.870
 4865SOL    HW215495   2.969   6.114   4.948
 4866SOL     OW15496   5.796   4.469   1.014
 4866SOL    HW115497   5.895   4.486   1.015
 4866SOL    HW215498   5.759   4.484   1.105
 4867SOL     OW15499   4.626   5.697   3.836
 4867SOL    HW115500   4.652   5.773   3.776
 4867SOL    HW215501   4.638   5.610   3.787
 4868SOL     OW15502   0.072   5.306   1.782
 4868SOL    HW115503   0.036   5.380   1.725
 4868SOL    HW215504   0.081   5.339   1.876
 4869SOL     OW15505   0.432   2.641   0.820
 4869SOL    HW115506   0.463   2.701   0.895
 4869SOL    HW215507   0.403   2.553   0.858
 4870SOL     OW15508   5.259   5.171   1.566
 4870SOL    HW115509   5.344   5.123   1.585
 4870SOL    HW215510   5.182   5.108   1.576
 4871SOL     OW15511   0.137   1.008   4.358
 4871SOL    HW115512   0.149   0.934   4.424
 4871SOL    HW215513   0.168   0.978   4.268
 4872SOL     OW15514   0.672   6.193   4.097
 4872SOL    HW115515   0.706   6.283   4.070
 4872SOL    HW215516   0.699   6.174   4.191
 4873SOL     OW15517   0.055   4.866   4.032
 4873SOL    HW115518   0.125   4.901   4.093
 4873SOL    HW215519   0.093   4.855   3.940
 4874SOL     OW15520   5.906   3.649   2.203
 4874SOL    HW115521   5.937   3.651   2.299
 4874SOL    HW215522   5.958   3.715   2.150
 4875SOL     OW15523   5.393   2.771   0.994
 4875SOL    HW115524   5.354   2.824   0.919
 4875SOL    HW215525   5.320   2.733   1.051
 4876SOL     OW15526   6.356   0.424   4.654
 4876SOL    HW115527   6.397   0.363   4.586
 4876SOL    HW215528   6.379   0.392   4.746
 4877SOL     OW15529   6.480   1.569   0.713
 4877SOL    HW115530   6.498   1.479   0.752
 4877SOL    HW215531   6.544   1.587   0.639
 4878SOL     OW15532   6.581   2.146   2.335
 4878SOL    HW115533   6.627   2.126   2.248
 4878SOL    HW215534   6.638   2.115   2.410
 4879SOL     OW15535   4.109   5.101   3.611
 4879SOL    HW115536   4.009   5.097   3.611
 4879SOL    HW215537   4.145   5.008   3.611
 4880SOL     OW15538   5.324   2.676   6.511
 4880SOL    HW115539   5.243   2.625   6.544
 4880SOL    HW215540   5.351   2.640   6.422
 4881SOL     OW15541   2.133   5.947   0.169
 4881SOL    HW115542   2.164   6.037   0.138
 4881SOL    HW215543   2.078   5.957   0.252
 4882SOL     OW15544   6.190   1.396   5.027
 4882SOL    HW115545   6.192   1.395   4.927
 4882SOL    HW215546   6.263   1.337   5.062
 4883SOL     OW15547   5.176   4.603   2.431
 4883SOL    HW115548   5.131   4.583   2.518
 4883SOL    HW215549   5.271   4.571   2.435
 4884SOL     OW15550   4.239   0.140   0.727
 4884SOL    HW115551   4.282   0.164   0.639
 4884SOL    HW215552   4.209   0.045   0.724
 4885SOL     OW15553   2.984   6.222   2.680
 4885SOL    HW115554   2.904   6.184   2.634
 4885SOL    HW215555   2.971   6.320   2.693
 4886SOL     OW15556   0.267   5.881   6.324
 4886SOL    HW115557   0.246   5.963   6.271
 4886SOL    HW215558   0.327   5.905   6.401
 4887SOL     OW15559   0.222   1.355   2.648
 4887SOL    HW115560   0.294   1.352   2.579
 4887SOL    HW215561   0.159   1.430   2.627
 4888SOL     OW15562   1.866   6.339   3.757
 4888SOL    HW115563   1.922   6.361   3.837
 4888SOL    HW215564   1.923   6.341   3.675
 4889SOL     OW15565   0.607   1.999   6.786
 4889SOL    HW115566   0.665   2.078   6.767
 4889SOL    HW215567   0.641   1.920   6.735
 4890SOL     OW15568   0.610   1.818   4.664
 4890SOL    HW115569   0.531   1.775   4.708
 4890SOL    HW215570   0.634   1.767   4.582
 4891SOL     OW15571   1.132   5.710   6.775
 4891SOL    HW115572   1.182   5.794   6.753
 4891SOL    HW215573   1.034   5.728   6.772
 4892SOL     OW15574   2.435   6.027   2.419
 4892SOL    HW115575   2.497   5.949   2.411
 4892SOL    HW215576   2.393   6.045   2.330
 4893SOL     OW15577   6.506   4.513   6.440
 4893SOL    HW115578   6.561   4.490   6.360
 4893SOL    HW215579   6.417   4.467   6.434
 4894SOL     OW15580   2.731   0.436   1.992
 4894SOL    HW115581   2.717   0.337   2.000
 4894SOL    HW215582   2.649   0.478   1.955
 4895SOL     OW15583   0.152   4.441   1.263
 4895SOL    HW115584   0.132   4.472   1.356
 4895SOL    HW215585   0.132   4.515   1.198
 4896SOL     OW15586   2.474   5.465   3.024
 4896SOL    HW115587   2.518   5.437   3.109
 4896SOL    HW215588   2.539   5.516   2.967
 4897SOL     OW15589   2.570   5.075   6.058
 4897SOL    HW115590   2.588   5.019   6.139
 4897SOL    HW215591   2.496   5.139   6.078
 4898SOL     OW15592   6.001   1.589   5.036
 4898SOL    HW115593   5.929   1.521   5.019
 4898SOL    HW215594   6.086   1.542   5.059
 4899SOL     OW15595   6.556   4.444   2.583
 4899SOL    HW115596   6.532   4.484   2.671
 4899SOL    HW215597   6.590   4.515   2.522
 4900SOL     OW15598   1.709   5.972   5.615
 4900SOL    HW115599   1.766   6.046   5.580
 4900SOL    HW215600   1.750   5.935   5.698
 4901SOL     OW15601   2.147   6.637   5.348
 4901SOL    HW115602   2.183   6.691   5.272
 4901SOL    HW215603   2.139   6.541   5.319
 4902SOL     OW15604   2.394   2.318   4.342
 4902SOL    HW115605   2.320   2.375   4.306
 4902SOL    HW215606   2.406   2.238   4.284
 4903SOL     OW15607   3.565   6.412   6.735
 4903SOL    HW115608   3.521   6.348   6.799
 4903SOL    HW215609   3.539   6.388   6.642
 4904SOL     OW15610   2.011   0.159   4.111
 4904SOL    HW115611   2.111   0.151   4.110
 4904SOL    HW215612   1.980   0.193   4.022
 4905SOL     OW15613   4.456   2.402   2.444
 4905SOL    HW115614   4.512   2.476   2.482
 4905SOL    HW215615   4.476   2.317   2.491
 4906SOL     OW15616   3.560   0.688   6.473
 4906SOL    HW115617   3.577   0.780   6.507
 4906SOL    HW215618   3.612   0.673   6.389
 4907SOL     OW15619   3.882   6.208   2.833
 4907SOL    HW115620   3.839   6.295   2.857
 4907SOL    HW215621   3.953   6.224   2.765
 4908SOL     OW15622   3.764   5.228   0.068
 4908SOL    HW115623   3.679   5.273   0.042
 4908SOL    HW215624   3.753   5.129   0.058
 4909SOL     OW15625   6.194   6.933   6.495
 4909SOL    HW115626   6.152   6.986   6.569
 4909SOL    HW215627   6.291   6.956   6.489
 4910SOL     OW15628   5.554   0.154   5.176
 4910SOL    HW115629   5.637   0.151   5.120
 4910SOL    HW215630   5.497   0.075   5.156
 4911SOL     OW15631   6.797   2.627   5.805
 4911SOL    HW115632   6.741   2.640   5.887
 4911SOL    HW215633   6.791   2.532   5.774
 4912SOL     OW15634   5.243   1.850   1.304
 4912SOL    HW115635   5.312   1.923   1.310
 4912SOL    HW215636   5.165   1.883   1.252
 4913SOL     OW15637   3.777   3.585   3.729
 4913SOL    HW115638   3.774   3.648   3.651
 4913SOL    HW215639   3.719   3.506   3.710
 4914SOL     OW15640   3.835   0.828   5.005
 4914SOL    HW115641   3.739   0.798   5.002
 4914SOL    HW215642   3.890   0.770   4.945
 4915SOL     OW15643   4.588   0.520   4.675
 4915SOL    HW115644   4.563   0.424   4.657
 4915SOL    HW215645   4.508   0.569   4.711
 4916SOL     OW15646   1.758   1.748   2.945
 4916SOL    HW115647   1.798   1.657   2.935
 4916SOL    HW215648   1.674   1.754   2.890
 4917SOL     OW15649   1.703   3.938   0.203
 4917SOL    HW115650   1.766   4.008   0.171
 4917SOL    HW215651   1.661   3.893   0.125
 4918SOL     OW15652   3.165   0.335   2.753
 4918SOL    HW115653   3.249   0.282   2.738
 4918SOL    HW215654   3.106   0.327   2.673
 4919SOL     OW15655   2.383   2.222   2.001
 4919SOL    HW115656   2.455   2.236   2.069
 4919SOL    HW215657   2.297   2.202   2.048
 4920SOL     OW15658   4.171   0.405   6.806
 4920SOL    HW115659   4.214   0.317   6.822
 4920SOL    HW215660   4.074   0.400   6.832
 4921SOL     OW15661   2.297   4.288   1.224
 4921SOL    HW115662   2.365   4.357   1.249
 4921SOL    HW215663   2.258   4.249   1.307
 4922SOL     OW15664   1.081   3.527   4.951
 4922SOL    HW115665   1.119   3.475   4.875
 4922SOL    HW215666   1.154   3.552   5.014
 4923SOL     OW15667   4.556   0.969   1.127
 4923SOL    HW115668   4.609   1.021   1.194
 4923SOL    HW215669   4.459   0.969   1.155
 4924SOL     OW15670   2.202   2.917   5.435
 4924SOL    HW115671   2.135   2.966   5.490
 4924SOL    HW215672   2.290   2.965   5.438
 4925SOL     OW15673   6.210   6.347   0.680
 4925SOL    HW115674   6.216   6.297   0.594
 4925SOL    HW215675   6.265   6.300   0.749
 4926SOL     OW15676   5.407   2.946   1.497
 4926SOL    HW115677   5.380   3.015   1.564
 4926SOL    HW215678   5.333   2.933   1.432
 4927SOL     OW15679   4.070   3.455   3.733
 4927SOL    HW115680   3.977   3.486   3.754
 4927SOL    HW215681   4.121   3.440   3.818
 4928SOL     OW15682   0.370   6.989   6.534
 4928SOL    HW115683   0.297   6.983   6.467
 4928SOL    HW215684   0.333   0.003   6.621
 4929SOL     OW15685   0.882   4.190   5.227
 4929SOL    HW115686   0.974   4.227   5.240
 4929SOL    HW215687   0.822   4.261   5.190
 4930SOL     OW15688   6.495   0.289   1.171
 4930SOL    HW115689   6.527   0.337   1.253
 4930SOL    HW215690   6.521   0.342   1.090
 4931SOL     OW15691   0.685   6.651   0.681
 4931SOL    HW115692   0.738   6.702   0.613
 4931SOL    HW215693   0.596   6.694   0.693
 4932SOL     OW15694   2.398   3.174   1.738
 4932SOL    HW115695   2.368   3.181   1.643
 4932SOL    HW215696   2.404   3.265   1.778
 4933SOL     OW15697   2.149   0.489   4.537
 4933SOL    HW115698   2.163   0.401   4.492
 4933SOL    HW215699   2.055   0.520   4.523
 4934SOL     OW15700   1.318   5.125   3.995
 4934SOL    HW115701   1.225   5.135   4.030
 4934SOL    HW215702   1.372   5.070   4.060
 4935SOL     OW15703   1.582   0.753   6.969
 4935SOL    HW115704   1.488   0.726   6.947
 4935SOL    HW215705   1.589   0.852   6.967
 4936SOL     OW15706   1.852   5.699   2.037
 4936SOL    HW115707   1.904   5.710   2.123
 4936SOL    HW215708   1.915   5.705   1.960
 4937SOL     OW15709   0.460   3.985   5.772
 4937SOL    HW115710   0.396   3.970   5.847
 4937SOL    HW215711   0.514   4.068   5.790
 4938SOL     OW15712   3.468   5.013   1.665
 4938SOL    HW115713   3.552   4.959   1.659
 4938SOL    HW215714   3.435   5.014   1.759
 4939SOL     OW15715   1.260   2.022   3.021
 4939SOL    HW115716   1.317   2.063   3.092
 4939SOL    HW215717   1.169   2.064   3.023
 4940SOL     OW15718   6.555   1.804   5.247
 4940SOL    HW115719   6.648   1.777   5.270
 4940SOL    HW215720   6.536   1.894   5.286
 4941SOL     OW15721   3.985   2.692   5.366
 4941SOL    HW115722   4.037   2.776   5.377
 4941SOL    HW215723   4.025   2.637   5.292
 4942SOL     OW15724   5.171   3.046   4.272
 4942SOL    HW115725   5.223   2.961   4.261
 4942SOL    HW215726   5.203   3.095   4.352
 4943SOL     OW15727   5.325   3.770   6.288
 4943SOL    HW115728   5.412   3.815   6.305
 4943SOL    HW215729   5.262   3.836   6.246
 4944SOL     OW15730   2.425   4.017   1.464
 4944SOL    HW115731   2.341   4.070   1.469
 4944SOL    HW215732   2.503   4.079   1.459
 4945SOL     OW15733   1.139   0.108   4.594
 4945SOL    HW115734   1.159   0.072   4.685
 4945SOL    HW215735   1.215   0.086   4.532
 4946SOL     OW15736   1.004   5.102   0.100
 4946SOL    HW115737   0.906   5.122   0.102
 4946SOL    HW215738   1.055   5.187   0.106
 4947SOL     OW15739   2.668   1.161   1.728
 4947SOL    HW115740   2.735   1.150   1.802
 4947SOL    HW215741   2.689   1.095   1.655
 4948SOL     OW15742   1.938   2.717   3.185
 4948SOL    HW115743   1.935   2.748   3.090
 4948SOL    HW215744   1.961   2.620   3.188
 4949SOL     OW15745   0.202   3.737   4.762
 4949SOL    HW115746   0.234   3.808   4.699
 4949SOL    HW215747   0.255   3.654   4.749
 4950SOL     OW15748   2.046   4.279   5.546
 4950SOL    HW115749   2.090   4.365   5.570
 4950SOL    HW215750   1.953   4.278   5.582
 4951SOL     OW15751   6.398   6.611   4.462
 4951SOL    HW115752   6.459   6.649   4.393
 4951SOL    HW215753   6.439   6.529   4.502
 4952SOL     OW15754   0.974   6.544   6.239
 4952SOL    HW115755   1.019   6.613   6.296
 4952SOL    HW215756   0.912   6.589   6.175
 4953SOL     OW15757   1.474   6.980   3.494
 4953SOL    HW115758   1.447   6.971   3.589
 4953SOL    HW215759   1.559   6.929   3.479
 4954SOL     OW15760   2.716   3.598   6.597
 4954SOL    HW115761   2.677   3.686   6.623
 4954SOL    HW215762   2.715   3.589   6.497
 4955SOL     OW15763   3.207   6.370   0.265
 4955SOL    HW115764   3.127   6.392   0.321
 4955SOL    HW215765   3.289   6.403   0.310
 4956SOL     OW15766   2.511   0.169   5.314
 4956SOL    HW115767   2.604   0.181   5.279
 4956SOL    HW215768   2.455   0.248   5.289
 4957SOL     OW15769   5.265   3.283   0.731
 4957SOL    HW115770   5.166   3.294   0.723
 4957SOL    HW215771   5.302   3.242   0.648
 4958SOL     OW15772   1.987   5.787   6.061
 4958SOL    HW115773   2.004   5.880   6.095
 4958SOL    HW215774   1.977   5.725   6.138
 4959SOL     OW15775   6.125   1.576   1.554
 4959SOL    HW115776   6.061   1.652   1.538
 4959SOL    HW215777   6.193   1.574   1.481
 4960SOL     OW15778   4.299   4.729   3.930
 4960SOL    HW115779   4.378   4.785   3.954
 4960SOL    HW215780   4.244   4.712   4.012
 4961SOL     OW15781   2.573   0.529   6.085
 4961SOL    HW115782   2.667   0.496   6.072
 4961SOL    HW215783   2.513   0.488   6.017
 4962SOL     OW15784   5.585   2.765   1.179
 4962SOL    HW115785   5.497   2.778   1.132
 4962SOL    HW215786   5.568   2.733   1.272
 4963SOL     OW15787   1.273   5.054   0.570
 4963SOL    HW115788   1.207   5.099   0.632
 4963SOL    HW215789   1.272   5.101   0.482
 4964SOL     OW15790   2.428   0.521   4.548
 4964SOL    HW115791   2.329   0.506   4.540
 4964SOL    HW215792   2.454   0.602   4.496
 4965SOL     OW15793   1.079   6.672   2.807
 4965SOL    HW115794   1.103   6.617   2.887
 4965SOL    HW215795   0.996   6.634   2.765
 4966SOL     OW15796   2.990   6.568   5.268
 4966SOL    HW115797   2.982   6.471   5.246
 4966SOL    HW215798   3.085   6.588   5.292
 4967SOL     OW15799   2.780   5.293   5.716
 4967SOL    HW115800   2.854   5.311   5.781
 4967SOL    HW215801   2.694   5.284   5.765
 4968SOL     OW15802   0.196   1.052   3.570
 4968SOL    HW115803   0.291   1.080   3.556
 4968SOL    HW215804   0.158   1.100   3.649
 4969SOL     OW15805   1.165   5.893   2.581
 4969SOL    HW115806   1.256   5.913   2.616
 4969SOL    HW215807   1.143   5.797   2.598
 4970SOL     OW15808   2.312   1.590   1.254
 4970SOL    HW115809   2.370   1.603   1.335
 4970SOL    HW215810   2.280   1.679   1.222
 4971SOL     OW15811   6.436   5.923   3.122
 4971SOL    HW115812   6.508   5.881   3.066
 4971SOL    HW215813   6.478   5.987   3.187
 4972SOL     OW15814   0.871   4.148   0.435
 4972SOL    HW115815   0.826   4.064   0.465
 4972SOL    HW215816   0.819   4.188   0.360
 4973SOL     OW15817   0.750   0.299   1.610
 4973SOL    HW115818   0.812   0.233   1.651
 4973SOL    HW215819   0.766   0.302   1.511
 4974SOL     OW15820   6.059   5.149   0.618
 4974SOL    HW115821   6.049   5.182   0.712
 4974SOL    HW215822   6.044   5.050   0.616
 4975SOL     OW15823   5.424   3.877   0.161
 4975SOL    HW115824   5.404   3.787   0.200
 4975SOL    HW215825   5.365   3.946   0.204
 4976SOL     OW15826   1.265   1.215   4.815
 4976SOL    HW115827   1.214   1.150   4.871
 4976SOL    HW215828   1.276   1.301   4.865
 4977SOL     OW15829   4.515   5.119   6.759
 4977SOL    HW115830   4.481   5.131   6.852
 4977SOL    HW215831   4.439   5.095   6.698
 4978SOL     OW15832   5.313   4.871   4.341
 4978SOL    HW115833   5.309   4.941   4.269
 4978SOL    HW215834   5.225   4.825   4.348
 4979SOL     OW15835   6.831   6.421   6.292
 4979SOL    HW115836   6.800   6.504   6.244
 4979SOL    HW215837   6.774   6.406   6.373
 4980SOL     OW15838   5.767   5.237   2.892
 4980SOL    HW115839   5.711   5.319   2.879
 4980SOL    HW215840   5.851   5.262   2.940
 4981SOL     OW15841   3.812   5.486   2.496
 4981SOL    HW115842   3.790   5.582   2.484
 4981SOL    HW215843   3.827   5.444   2.407
 4982SOL     OW15844   3.051   2.208   6.061
 4982SOL    HW115845   3.042   2.275   6.133
 4982SOL    HW215846   3.112   2.243   5.989
 4983SOL     OW15847   5.660   3.900   5.146
 4983SOL    HW115848   5.742   3.947   5.113
 4983SOL    HW215849   5.585   3.915   5.082
 4984SOL     OW15850   4.889   3.842   2.938
 4984SOL    HW115851   4.980   3.852   2.899
 4984SOL    HW215852   4.882   3.755   2.987
 4985SOL     OW15853   5.889   6.772   3.399
 4985SOL    HW115854   5.881   6.724   3.311
 4985SOL    HW215855   5.871   6.707   3.473
 4986SOL     OW15856   6.770   4.935   0.538
 4986SOL    HW115857   6.702   4.876   0.496
 4986SOL    HW215858   6.735   4.969   0.625
 4987SOL     OW15859   1.199   6.291   2.324
 4987SOL    HW115860   1.270   6.225   2.346
 4987SOL    HW215861   1.187   6.353   2.402
 4988SOL     OW15862   6.081   0.980   2.502
 4988SOL    HW115863   6.104   1.067   2.458
 4988SOL    HW215864   6.016   0.996   2.576
 4989SOL     OW15865   5.146   6.952   1.225
 4989SOL    HW115866   5.059   6.959   1.275
 4989SOL    HW215867   5.178   0.024   1.201
 4990SOL     OW15868   3.168   2.006   6.425
 4990SOL    HW115869   3.155   1.907   6.413
 4990SOL    HW215870   3.185   2.026   6.521
 4991SOL     OW15871   6.504   5.146   3.901
 4991SOL    HW115872   6.543   5.237   3.913
 4991SOL    HW215873   6.571   5.086   3.857
 4992SOL     OW15874   5.280   0.718   2.186
 4992SOL    HW115875   5.369   0.760   2.204
 4992SOL    HW215876   5.212   0.790   2.174
 4993SOL     OW15877   3.846   6.290   4.682
 4993SOL    HW115878   3.908   6.255   4.612
 4993SOL    HW215879   3.830   6.219   4.751
 4994SOL     OW15880   2.231   6.415   4.338
 4994SOL    HW115881   2.241   6.344   4.267
 4994SOL    HW215882   2.220   6.371   4.427
 4995SOL     OW15883   0.626   1.683   5.718
 4995SOL    HW115884   0.678   1.620   5.660
 4995SOL    HW215885   0.683   1.716   5.793
 4996SOL     OW15886   7.011   0.730   2.619
 4996SOL    HW115887   6.962   0.696   2.539
 4996SOL    HW215888   0.084   0.758   2.592
 4997SOL     OW15889   4.277   2.425   1.840
 4997SOL    HW115890   4.234   2.345   1.797
 4997SOL    HW215891   4.308   2.401   1.932
 4998SOL     OW15892   1.718   3.734   4.601
 4998SOL    HW115893   1.725   3.657   4.538
 4998SOL    HW215894   1.636   3.787   4.579
 4999SOL     OW15895   0.105   3.268   4.627
 4999SOL    HW115896   0.029   3.310   4.676
 4999SOL    HW215897   0.158   3.210   4.690
 5000SOL     OW15898   2.933   0.191   3.347
 5000SOL    HW115899   2.890   0.171   3.435
 5000SOL    HW215900   2.922   0.288   3.326
 5001SOL     OW15901   1.079   5.455   2.067
 5001SOL    HW115902   1.171   5.475   2.101
 5001SOL    HW215903   1.033   5.540   2.043
 5002SOL     OW15904   0.445   4.390   2.114
 5002SOL    HW115905   0.505   4.310   2.124
 5002SOL    HW215906   0.495   4.472   2.144
 5003SOL     OW15907   3.397   6.133   3.031
 5003SOL    HW115908   3.352   6.116   3.119
 5003SOL    HW215909   3.453   6.054   3.007
 5004SOL     OW15910   2.340   4.596   5.910
 5004SOL    HW115911   2.403   4.665   5.946
 5004SOL    HW215912   2.251   4.637   5.892
 5005SOL     OW15913   3.197   3.247   6.578
 5005SOL    HW115914   3.138   3.247   6.497
 5005SOL    HW215915   3.171   3.323   6.638
 5006SOL     OW15916   5.385   0.793   1.666
 5006SOL    HW115917   5.364   0.753   1.756
 5006SOL    HW215918   5.358   0.729   1.594
 5007SOL     OW15919   0.276   6.919   1.476
 5007SOL    HW115920   0.208   6.929   1.548
 5007SOL    HW215921   0.231   6.925   1.387
 5008SOL     OW15922   6.244   6.104   1.714
 5008SOL    HW115923   6.263   6.201   1.699
 5008SOL    HW215924   6.208   6.091   1.806
 5009SOL     OW15925   0.438   2.463   6.761
 5009SOL    HW115926   0.342   2.437   6.749
 5009SOL    HW215927   0.474   2.419   6.843
 5010SOL     OW15928   4.146   2.730   0.628
 5010SOL    HW115929   4.056   2.699   0.657
 5010SOL    HW215930   4.203   2.651   0.606
 5011SOL     OW15931   1.735   4.442   1.225
 5011SOL    HW115932   1.702   4.526   1.268
 5011SOL    HW215933   1.665   4.371   1.232
 5012SOL     OW15934   6.462   2.741   4.667
 5012SOL    HW115935   6.539   2.758   4.606
 5012SOL    HW215936   6.389   2.806   4.647
 5013SOL     OW15937   5.383   1.773   6.267
 5013SOL    HW115938   5.468   1.721   6.261
 5013SOL    HW215939   5.400   1.862   6.309
 5014SOL     OW15940   5.939   4.274   0.619
 5014SOL    HW115941   5.897   4.209   0.556
 5014SOL    HW215942   6.029   4.301   0.584
 5015SOL     OW15943   4.924   1.181   5.412
 5015SOL    HW115944   4.954   1.086   5.417
 5015SOL    HW215945   4.968   1.226   5.335
 5016SOL     OW15946   1.850   3.065   5.571
 5016SOL    HW115947   1.863   2.967   5.561
 5016SOL    HW215948   1.937   3.107   5.599
 5017SOL     OW15949   1.991   2.861   1.373
 5017SOL    HW115950   2.008   2.954   1.406
 5017SOL    HW215951   1.893   2.844   1.369
 5018SOL     OW15952   0.765   4.605   2.700
 5018SOL    HW115953   0.724   4.534   2.757
 5018SOL    HW215954   0.695   4.674   2.678
 5019SOL     OW15955   1.853   5.815   5.813
 5019SOL    HW115956   1.894   5.739   5.764
 5019SOL    HW215957   1.891   5.821   5.905
 5020SOL     OW15958   5.901   6.799   6.264
 5020SOL    HW115959   5.821   6.817   6.206
 5020SOL    HW215960   5.966   6.743   6.213
 5021SOL     OW15961   0.856   1.335   0.245
 5021SOL    HW115962   0.844   1.412   0.307
 5021SOL    HW215963   0.792   1.262   0.269
 5022SOL     OW15964   1.961   2.434   1.188
 5022SOL    HW115965   2.005   2.516   1.152
 5022SOL    HW215966   1.966   2.361   1.120
 5023SOL     OW15967   0.492   3.845   1.485
 5023SOL    HW115968   0.402   3.801   1.487
 5023SOL    HW215969   0.535   3.827   1.396
 5024SOL     OW15970   6.502   5.743   1.368
 5024SOL    HW115971   6.413   5.760   1.409
 5024SOL    HW215972   6.554   5.828   1.363
 5025SOL     OW15973   4.050   2.067   3.614
 5025SOL    HW115974   3.955   2.099   3.618
 5025SOL    HW215975   4.104   2.127   3.555
 5026SOL     OW15976   6.643   6.359   5.683
 5026SOL    HW115977   6.681   6.270   5.656
 5026SOL    HW215978   6.602   6.351   5.774
 5027SOL     OW15979   6.260   6.658   1.160
 5027SOL    HW115980   6.316   6.625   1.084
 5027SOL    HW215981   6.185   6.594   1.177
 5028SOL     OW15982   0.594   1.790   2.911
 5028SOL    HW115983   0.659   1.715   2.921
 5028SOL    HW215984   0.628   1.855   2.842
 5029SOL     OW15985   5.964   2.929   2.344
 5029SOL    HW115986   5.988   2.834   2.365
 5029SOL    HW215987   5.952   2.940   2.245
 5030SOL     OW15988   0.216   6.358   6.853
 5030SOL    HW115989   0.167   6.279   6.816
 5030SOL    HW215990   0.215   6.432   6.786
 5031SOL     OW15991   6.452   1.240   6.019
 5031SOL    HW115992   6.543   1.280   6.009
 5031SOL    HW215993   6.455   1.167   6.087
 5032SOL     OW15994   2.347   2.462   5.856
 5032SOL    HW115995   2.442   2.470   5.888
 5032SOL    HW215996   2.290   2.526   5.907
 5033SOL     OW15997   2.310   6.726   6.157
 5033SOL    HW115998   2.226   6.675   6.173
 5033SOL    HW215999   2.295   6.793   6.084
 5034SOL     OW16000   6.025   0.001   3.272
 5034SOL    HW116001   5.969   6.941   3.293
 5034SOL    HW216002   5.968   0.083   3.270
 5035SOL     OW16003   6.881   3.733   5.979
 5035SOL    HW116004   6.827   3.778   5.908
 5035SOL    HW216005   6.870   3.634   5.971
 5036SOL     OW16006   0.156   4.965   6.697
 5036SOL    HW116007   0.088   5.022   6.744
 5036SOL    HW216008   0.113   4.880   6.668
 5037SOL     OW16009   5.129   4.573   1.657
 5037SOL    HW116010   5.144   4.563   1.755
 5037SOL    HW216011   5.041   4.533   1.632
 5038SOL     OW16012   3.068   3.776   5.592
 5038SOL    HW116013   3.049   3.814   5.502
 5038SOL    HW216014   3.151   3.720   5.588
 5039SOL     OW16015   2.071   3.939   5.860
 5039SOL    HW116016   2.028   3.854   5.893
 5039SOL    HW216017   2.000   4.003   5.830
 5040SOL     OW16018   1.264   6.411   6.222
 5040SOL    HW116019   1.220   6.330   6.260
 5040SOL    HW216020   1.288   6.396   6.127
 5041SOL     OW16021   1.005   1.780   2.216
 5041SOL    HW116022   1.085   1.800   2.272
 5041SOL    HW216023   0.968   1.691   2.242
 5042SOL     OW16024   6.541   3.641   0.425
 5042SOL    HW116025   6.624   3.696   0.417
 5042SOL    HW216026   6.484   3.653   0.343
 5043SOL     OW16027   3.575   6.937   6.456
 5043SOL    HW116028   3.668   6.947   6.420
 5043SOL    HW216029   3.580   6.914   6.553
 5044SOL     OW16030   0.564   6.104   0.658
 5044SOL    HW116031   0.510   6.112   0.574
 5044SOL    HW216032   0.615   6.189   0.673
 5045SOL     OW16033   6.251   6.399   6.399
 5045SOL    HW116034   6.296   6.359   6.478
 5045SOL    HW216035   6.208   6.486   6.425
 5046SOL     OW16036   3.309   4.068   2.579
 5046SOL    HW116037   3.319   4.099   2.484
 5046SOL    HW216038   3.291   3.970   2.580
 5047SOL     OW16039   1.083   3.952   2.553
 5047SOL    HW116040   1.052   3.883   2.618
 5047SOL    HW216041   1.068   3.920   2.460
 5048SOL     OW16042   0.990   1.410   2.717
 5048SOL    HW116043   0.932   1.485   2.685
 5048SOL    HW216044   1.082   1.421   2.679
 5049SOL     OW16045   5.428   1.979   6.786
 5049SOL    HW116046   5.484   2.062   6.794
 5049SOL    HW216047   5.332   2.002   6.803
 5050SOL     OW16048   2.041   0.875   1.435
 5050SOL    HW116049   2.107   0.925   1.491
 5050SOL    HW216050   1.963   0.933   1.415
 5051SOL     OW16051   4.290   4.097   1.296
 5051SOL    HW116052   4.219   4.162   1.270
 5051SOL    HW216053   4.363   4.144   1.345
 5052SOL     OW16054   2.457   1.302   5.834
 5052SOL    HW116055   2.419   1.330   5.746
 5052SOL    HW216056   2.395   1.236   5.877
 5053SOL     OW16057   1.622   3.914   3.956
 5053SOL    HW116058   1.601   3.948   3.864
 5053SOL    HW216059   1.557   3.844   3.981
 5054SOL     OW16060   3.490   5.018   4.146
 5054SOL    HW116061   3.551   4.943   4.174
 5054SOL    HW216062   3.433   4.989   4.070
 5055SOL     OW16063   1.433   2.351   5.349
 5055SOL    HW116064   1.456   2.262   5.389
 5055SOL    HW216065   1.516   2.393   5.312
 5056SOL     OW16066   5.548   4.048   6.971
 5056SOL    HW116067   5.631   4.077   7.017
 5056SOL    HW216068   5.496   3.987   0.012
 5057SOL     OW16069   0.510   6.548   3.616
 5057SOL    HW116070   0.500   6.624   3.680
 5057SOL    HW216071   0.595   6.558   3.564
 5058SOL     OW16072   3.339   4.246   5.236
 5058SOL    HW116073   3.240   4.256   5.225
 5058SOL    HW216074   3.375   4.188   5.162
 5059SOL     OW16075   6.872   0.659   2.957
 5059SOL    HW116076   6.926   0.596   2.901
 5059SOL    HW216077   6.932   0.702   3.025
 5060SOL     OW16078   0.407   1.829   5.671
 5060SOL    HW116079   0.491   1.777   5.682
 5060SOL    HW216080   0.428   1.918   5.632
 5061SOL     OW16081   4.603   3.157   1.251
 5061SOL    HW116082   4.545   3.151   1.169
 5061SOL    HW216083   4.592   3.248   1.292
 5062SOL     OW16084   6.263   0.122   2.868
 5062SOL    HW116085   6.163   0.127   2.864
 5062SOL    HW216086   6.292   0.092   2.959
 5063SOL     OW16087   1.046   6.572   2.348
 5063SOL    HW116088   1.127   6.616   2.386
 5063SOL    HW216089   1.011   6.505   2.413
 5064SOL     OW16090   5.253   3.670   0.770
 5064SOL    HW116091   5.330   3.727   0.798
 5064SOL    HW216092   5.277   3.619   0.687
 5065SOL     OW16093   2.536   0.954   4.848
 5065SOL    HW116094   2.531   0.856   4.829
 5065SOL    HW216095   2.506   0.971   4.942
 5066SOL     OW16096   5.235   4.245   2.443
 5066SOL    HW116097   5.254   4.154   2.480
 5066SOL    HW216098   5.277   4.254   2.353
 5067SOL     OW16099   4.699   1.308   1.463
 5067SOL    HW116100   4.788   1.338   1.498
 5067SOL    HW216101   4.645   1.268   1.537
 5068SOL     OW16102   2.609   3.698   0.911
 5068SOL    HW116103   2.668   3.618   0.897
 5068SOL    HW216104   2.641   3.774   0.855
 5069SOL     OW16105   1.661   4.036   5.248
 5069SOL    HW116106   1.573   4.057   5.205
 5069SOL    HW216107   1.676   3.937   5.246
 5070SOL     OW16108   5.098   4.239   4.481
 5070SOL    HW116109   5.134   4.147   4.491
 5070SOL    HW216110   5.025   4.255   4.548
 5071SOL     OW16111   4.605   2.137   4.519
 5071SOL    HW116112   4.524   2.078   4.516
 5071SOL    HW216113   4.686   2.080   4.536
 5072SOL     OW16114   1.016   6.974   0.954
 5072SOL    HW116115   1.023   6.884   0.998
 5072SOL    HW216116   0.981   0.020   1.021
 5073SOL     OW16117   0.277   6.245   2.693
 5073SOL    HW116118   0.233   6.328   2.658
 5073SOL    HW216119   0.222   6.207   2.768
 5074SOL     OW16120   2.881   3.247   0.431
 5074SOL    HW116121   2.827   3.308   0.490
 5074SOL    HW216122   2.927   3.301   0.361
 5075SOL     OW16123   1.142   1.863   6.381
 5075SOL    HW116124   1.085   1.908   6.450
 5075SOL    HW216125   1.159   1.768   6.410
 5076SOL     OW16126   3.861   0.564   0.535
 5076SOL    HW116127   3.876   0.663   0.537
 5076SOL    HW216128   3.940   0.517   0.574
 5077SOL     OW16129   0.564   3.450   5.178
 5077SOL    HW116130   0.503   3.501   5.118
 5077SOL    HW216131   0.657   3.485   5.167
 5078SOL     OW16132   1.243   1.518   3.664
 5078SOL    HW116133   1.267   1.524   3.761
 5078SOL    HW216134   1.326   1.506   3.610
 5079SOL     OW16135   2.173   3.629   5.633
 5079SOL    HW116136   2.197   3.650   5.728
 5079SOL    HW216137   2.245   3.572   5.593
 5080SOL     OW16138   6.332   6.572   6.020
 5080SOL    HW116139   6.421   6.531   5.998
 5080SOL    HW216140   6.316   6.649   5.959
 5081SOL     OW16141   3.616   3.083   4.296
 5081SOL    HW116142   3.537   3.108   4.239
 5081SOL    HW216143   3.681   3.030   4.241
 5082SOL     OW16144   5.128   5.945   6.311
 5082SOL    HW116145   5.081   5.952   6.400
 5082SOL    HW216146   5.073   5.990   6.241
 5083SOL     OW16147   2.420   0.330   3.111
 5083SOL    HW116148   2.512   0.326   3.072
 5083SOL    HW216149   2.425   0.319   3.210
 5084SOL     OW16150   0.721   4.859   4.263
 5084SOL    HW116151   0.780   4.940   4.261
 5084SOL    HW216152   0.737   4.807   4.347
 5085SOL     OW16153   4.679   3.444   6.520
 5085SOL    HW116154   4.719   3.382   6.452
 5085SOL    HW216155   4.617   3.392   6.579
 5086SOL     OW16156   0.057   5.926   3.460
 5086SOL    HW116157   0.083   5.875   3.542
 5086SOL    HW216158   0.022   5.862   3.391
 5087SOL     OW16159   0.242   5.641   3.266
 5087SOL    HW116160   0.253   5.543   3.248
 5087SOL    HW216161   0.192   5.653   3.352
 5088SOL     OW16162   5.578   1.784   4.572
 5088SOL    HW116163   5.636   1.851   4.525
 5088SOL    HW216164   5.623   1.753   4.655
 5089SOL     OW16165   5.301   3.063   3.344
 5089SOL    HW116166   5.279   2.978   3.298
 5089SOL    HW216167   5.390   3.097   3.313
 5090SOL     OW16168   1.710   3.226   2.996
 5090SOL    HW116169   1.673   3.245   3.087
 5090SOL    HW216170   1.744   3.132   2.992
 5091SOL     OW16171   1.543   6.453   2.502
 5091SOL    HW116172   1.503   6.491   2.419
 5091SOL    HW216173   1.503   6.499   2.582
 5092SOL     OW16174   3.195   3.137   1.481
 5092SOL    HW116175   3.149   3.110   1.566
 5092SOL    HW216176   3.175   3.069   1.410
 5093SOL     OW16177   3.104   1.416   1.369
 5093SOL    HW116178   3.197   1.433   1.402
 5093SOL    HW216179   3.109   1.368   1.281
 5094SOL     OW16180   1.294   6.457   4.961
 5094SOL    HW116181   1.222   6.515   4.997
 5094SOL    HW216182   1.297   6.464   4.861
 5095SOL     OW16183   0.321   2.390   4.821
 5095SOL    HW116184   0.303   2.354   4.913
 5095SOL    HW216185   0.406   2.444   4.823
 5096SOL     OW16186   4.290   3.533   0.750
 5096SOL    HW116187   4.275   3.450   0.697
 5096SOL    HW216188   4.266   3.516   0.846
 5097SOL     OW16189   1.815   0.337   6.916
 5097SOL    HW116190   1.783   0.418   6.866
 5097SOL    HW216191   1.739   0.299   6.969
 5098SOL     OW16192   1.506   0.526   1.056
 5098SOL    HW116193   1.576   0.586   1.094
 5098SOL    HW216194   1.443   0.498   1.128
 5099SOL     OW16195   0.746   6.795   6.297
 5099SOL    HW116196   0.828   6.837   6.336
 5099SOL    HW216197   0.720   6.715   6.352
 5100SOL     OW16198   4.409   6.371   4.902
 5100SOL    HW116199   4.389   6.323   4.817
 5100SOL    HW216200   4.327   6.373   4.959
 5101SOL     OW16201   4.196   6.810   0.260
 5101SOL    HW116202   4.131   6.737   0.284
 5101SOL    HW216203   4.167   6.895   0.304
 5102SOL     OW16204   6.356   0.298   4.959
 5102SOL    HW116205   6.296   0.231   4.915
 5102SOL    HW216206   6.311   0.336   5.039
 5103SOL     OW16207   0.349   0.614   3.834
 5103SOL    HW116208   0.384   0.565   3.755
 5103SOL    HW216209   0.267   0.666   3.808
 5104SOL     OW16210   2.474   6.487   2.376
 5104SOL    HW116211   2.410   6.555   2.341
 5104SOL    HW216212   2.429   6.430   2.445
 5105SOL     OW16213   3.858   2.787   0.113
 5105SOL    HW116214   3.840   2.884   0.126
 5105SOL    HW216215   3.905   2.751   0.194
 5106SOL     OW16216   3.723   0.539   1.553
 5106SOL    HW116217   3.690   0.620   1.503
 5106SOL    HW216218   3.779   0.569   1.630
 5107SOL     OW16219   4.332   0.834   0.574
 5107SOL    HW116220   4.378   0.782   0.646
 5107SOL    HW216221   4.375   0.814   0.486
 5108SOL     OW16222   3.153   4.021   3.573
 5108SOL    HW116223   3.214   4.065   3.640
 5108SOL    HW216224   3.095   3.955   3.619
 5109SOL     OW16225   1.046   1.067   0.559
 5109SOL    HW116226   1.138   1.056   0.597
 5109SOL    HW216227   1.041   1.022   0.470
 5110SOL     OW16228   0.812   0.503   6.688
 5110SOL    HW116229   0.832   0.578   6.624
 5110SOL    HW216230   0.718   0.512   6.721
 5111SOL     OW16231   1.538   0.679   5.770
 5111SOL    HW116232   1.513   0.765   5.725
 5111SOL    HW216233   1.475   0.607   5.743
 5112SOL     OW16234   0.930   0.144   2.741
 5112SOL    HW116235   0.976   0.068   2.786
 5112SOL    HW216236   0.904   0.212   2.809
 5113SOL     OW16237   2.357   0.158   2.074
 5113SOL    HW116238   2.400   0.094   2.138
 5113SOL    HW216239   2.266   0.124   2.050
 5114SOL     OW16240   3.665   2.611   0.040
 5114SOL    HW116241   3.575   2.626   0.080
 5114SOL    HW216242   3.723   2.690   0.058
 5115SOL     OW16243   2.265   4.876   4.719
 5115SOL    HW116244   2.203   4.909   4.790
 5115SOL    HW216245   2.215   4.865   4.633
 5116SOL     OW16246   5.334   6.101   6.619
 5116SOL    HW116247   5.332   6.030   6.689
 5116SOL    HW216248   5.247   6.150   6.619
 5117SOL     OW16249   2.008   5.138   4.687
 5117SOL    HW116250   1.963   5.125   4.775
 5117SOL    HW216251   1.975   5.068   4.623
 5118SOL     OW16252   4.506   6.743   0.794
 5118SOL    HW116253   4.544   6.685   0.723
 5118SOL    HW216254   4.499   6.838   0.761
 5119SOL     OW16255   5.125   1.140   1.907
 5119SOL    HW116256   5.126   1.107   2.001
 5119SOL    HW216257   5.115   1.240   1.908
 5120SOL     OW16258   4.943   1.238   3.692
 5120SOL    HW116259   4.949   1.329   3.733
 5120SOL    HW216260   4.847   1.217   3.674
 5121SOL     OW16261   2.509   2.447   6.998
 5121SOL    HW116262   2.608   2.460   7.006
 5121SOL    HW216263   2.485   2.354   0.005
 5122SOL     OW16264   3.395   0.443   3.911
 5122SOL    HW116265   3.303   0.481   3.907
 5122SOL    HW216266   3.391   0.349   3.945
 5123SOL     OW16267   5.872   3.314   4.365
 5123SOL    HW116268   5.810   3.340   4.291
 5123SOL    HW216269   5.820   3.293   4.447
 5124SOL     OW16270   2.651   5.184   5.236
 5124SOL    HW116271   2.708   5.123   5.292
 5124SOL    HW216272   2.571   5.133   5.203
 5125SOL     OW16273   6.286   2.951   4.333
 5125SOL    HW116274   6.275   2.966   4.431
 5125SOL    HW216275   6.215   3.003   4.283
 5126SOL     OW16276   6.335   5.541   6.047
 5126SOL    HW116277   6.396   5.599   6.100
 5126SOL    HW216278   6.249   5.589   6.030
 5127SOL     OW16279   0.107   3.563   0.116
 5127SOL    HW116280   0.134   3.659   0.113
 5127SOL    HW216281   0.030   3.548   0.054
 5128SOL     OW16282   6.963   6.651   0.263
 5128SOL    HW116283   0.014   6.584   0.283
 5128SOL    HW216284   7.002   6.724   0.206
 5129SOL     OW16285   4.742   0.565   2.366
 5129SOL    HW116286   4.742   0.465   2.360
 5129SOL    HW216287   4.835   0.597   2.384
 5130SOL     OW16288   1.422   5.948   4.329
 5130SOL    HW116289   1.411   5.991   4.418
 5130SOL    HW216290   1.371   5.999   4.260
 5131SOL     OW16291   3.072   4.958   3.603
 5131SOL    HW116292   3.028   4.876   3.641
 5131SOL    HW216293   3.147   4.930   3.544
 5132SOL     OW16294   3.198   1.615   5.878
 5132SOL    HW116295   3.226   1.520   5.895
 5132SOL    HW216296   3.272   1.676   5.906
 5133SOL     OW16297   2.691   5.683   6.078
 5133SOL    HW116298   2.751   5.737   6.019
 5133SOL    HW216299   2.736   5.597   6.101
 5134SOL     OW16300   6.798   0.046   2.577
 5134SOL    HW116301   6.841   6.978   2.597
 5134SOL    HW216302   6.866   0.110   2.542
 5135SOL     OW16303   5.981   3.756   3.660
 5135SOL    HW116304   5.957   3.797   3.748
 5135SOL    HW216305   6.050   3.684   3.674
 5136SOL     OW16306   5.959   0.460   5.844
 5136SOL    HW116307   5.986   0.382   5.787
 5136SOL    HW216308   5.965   0.544   5.791
 5137SOL     OW16309   5.388   3.187   4.945
 5137SOL    HW116310   5.416   3.097   4.980
 5137SOL    HW216311   5.426   3.259   5.004
 5138SOL     OW16312   4.006   3.764   3.997
 5138SOL    HW116313   3.963   3.803   3.916
 5138SOL    HW216314   4.035   3.837   4.058
 5139SOL     OW16315   0.976   6.750   4.774
 5139SOL    HW116316   0.932   6.751   4.684
 5139SOL    HW216317   0.986   6.844   4.807
 5140SOL     OW16318   3.256   1.974   5.397
 5140SOL    HW116319   3.168   1.995   5.356
 5140SOL    HW216320   3.244   1.910   5.473
 5141SOL     OW16321   6.818   3.731   1.582
 5141SOL    HW116322   6.789   3.804   1.520
 5141SOL    HW216323   6.830   3.647   1.530
 5142SOL     OW16324   5.548   6.733   5.801
 5142SOL    HW116325   5.535   6.767   5.708
 5142SOL    HW216326   5.495   6.648   5.813
 5143SOL     OW16327   0.924   4.003   4.985
 5143SOL    HW116328   0.874   3.920   5.011
 5143SOL    HW216329   0.874   4.083   5.016
 5144SOL     OW16330   1.779   4.032   5.856
 5144SOL    HW116331   1.788   4.006   5.760
 5144SOL    HW216332   1.720   3.967   5.904
 5145SOL     OW16333   3.896   6.631   6.031
 5145SOL    HW116334   3.815   6.606   5.979
 5145SOL    HW216335   3.878   6.621   6.129
 5146SOL     OW16336   3.702   3.788   4.891
 5146SOL    HW116337   3.744   3.875   4.920
 5146SOL    HW216338   3.720   3.718   4.960
 5147SOL     OW16339   5.940   5.066   3.466
 5147SOL    HW116340   6.005   5.119   3.520
 5147SOL    HW216341   5.928   5.108   3.376
 5148SOL     OW16342   0.694   0.880   2.078
 5148SOL    HW116343   0.765   0.950   2.069
 5148SOL    HW216344   0.640   0.876   1.994
 5149SOL     OW16345   5.950   5.314   4.643
 5149SOL    HW116346   5.882   5.242   4.655
 5149SOL    HW216347   6.042   5.276   4.655
 5150SOL     OW16348   2.188   4.080   4.025
 5150SOL    HW116349   2.162   4.010   4.091
 5150SOL    HW216350   2.192   4.041   3.933
 5151SOL     OW16351   6.497   3.905   1.725
 5151SOL    HW116352   6.475   3.818   1.680
 5151SOL    HW216353   6.595   3.906   1.748
 5152SOL     OW16354   1.851   5.775   6.455
 5152SOL    HW116355   1.765   5.733   6.425
 5152SOL    HW216356   1.879   5.736   6.543
 5153SOL     OW16357   0.759   2.205   0.508
 5153SOL    HW116358   0.811   2.129   0.470
 5153SOL    HW216359   0.816   2.287   0.512
 5154SOL     OW16360   1.230   2.698   6.505
 5154SOL    HW116361   1.184   2.785   6.489
 5154SOL    HW216362   1.327   2.706   6.479
 5155SOL     OW16363   4.360   1.331   0.985
 5155SOL    HW116364   4.285   1.394   0.967
 5155SOL    HW216365   4.388   1.339   1.080
 5156SOL     OW16366   5.667   4.423   4.667
 5156SOL    HW116367   5.658   4.431   4.766
 5156SOL    HW216368   5.762   4.440   4.640
 5157SOL     OW16369   3.332   2.067   2.254
 5157SOL    HW116370   3.406   2.122   2.215
 5157SOL    HW216371   3.261   2.053   2.185
 5158SOL     OW16372   3.390   2.468   0.590
 5158SOL    HW116373   3.458   2.536   0.565
 5158SOL    HW216374   3.400   2.444   0.687
 5159SOL     OW16375   6.065   4.160   6.367
 5159SOL    HW116376   6.026   4.083   6.417
 5159SOL    HW216377   6.005   4.239   6.375
 5160SOL     OW16378   0.001   5.651   3.469
 5160SOL    HW116379   6.944   5.671   3.408
 5160SOL    HW216380   7.006   5.562   3.512
 5161SOL     OW16381   1.277   3.255   0.053
 5161SOL    HW116382   1.337   3.210   0.120
 5161SOL    HW216383   1.281   3.354   0.065
 5162SOL     OW16384   1.126   5.229   2.249
 5162SOL    HW116385   1.081   5.243   2.337
 5162SOL    HW216386   1.074   5.276   2.177
 5163SOL     OW16387   3.897   6.800   0.762
 5163SOL    HW116388   3.807   6.795   0.804
 5163SOL    HW216389   3.963   6.747   0.816
 5164SOL     OW16390   3.272   3.060   6.751
 5164SOL    HW116391   3.315   3.004   6.679
 5164SOL    HW216392   3.201   3.116   6.710
 5165SOL     OW16393   1.093   4.454   6.615
 5165SOL    HW116394   1.169   4.391   6.599
 5165SOL    HW216395   1.007   4.403   6.615
 5166SOL     OW16396   1.408   5.255   2.636
 5166SOL    HW116397   1.367   5.246   2.546
 5166SOL    HW216398   1.384   5.175   2.692
 5167SOL     OW16399   6.597   4.263   4.825
 5167SOL    HW116400   6.624   4.335   4.761
 5167SOL    HW216401   6.677   4.229   4.873
 5168SOL     OW16402   5.056   2.465   3.076
 5168SOL    HW116403   4.963   2.463   3.113
 5168SOL    HW216404   5.052   2.448   2.977
 5169SOL     OW16405   4.375   2.063   3.400
 5169SOL    HW116406   4.313   2.126   3.446
 5169SOL    HW216407   4.351   1.969   3.424
 5170SOL     OW16408   1.361   3.490   5.319
 5170SOL    HW116409   1.283   3.509   5.379
 5170SOL    HW216410   1.444   3.529   5.360
 5171SOL     OW16411   0.008   4.677   5.379
 5171SOL    HW116412   6.946   4.635   5.340
 5171SOL    HW216413   7.013   4.693   5.477
 5172SOL     OW16414   1.064   4.379   3.473
 5172SOL    HW116415   0.994   4.335   3.417
 5172SOL    HW216416   1.155   4.360   3.436
 5173SOL     OW16417   4.209   4.670   5.947
 5173SOL    HW116418   4.177   4.606   6.017
 5173SOL    HW216419   4.181   4.639   5.857
 5174SOL     OW16420   2.298   5.942   4.031
 5174SOL    HW116421   2.295   5.842   4.039
 5174SOL    HW216422   2.280   5.984   4.120
 5175SOL     OW16423   2.782   3.835   7.012
 5175SOL    HW116424   2.810   3.928   6.989
 5175SOL    HW216425   2.733   3.795   6.934
 5176SOL     OW16426   5.026   4.475   6.808
 5176SOL    HW116427   5.095   4.546   6.810
 5176SOL    HW216428   4.935   4.516   6.819
 5177SOL     OW16429   4.452   6.754   1.414
 5177SOL    HW116430   4.551   6.746   1.410
 5177SOL    HW216431   4.410   6.684   1.356
 5178SOL     OW16432   1.212   4.493   2.226
 5178SOL    HW116433   1.212   4.393   2.226
 5178SOL    HW216434   1.145   4.526   2.293
 5179SOL     OW16435   4.731   4.378   4.101
 5179SOL    HW116436   4.822   4.404   4.136
 5179SOL    HW216437   4.661   4.409   4.166
 5180SOL     OW16438   3.670   0.867   1.127
 5180SOL    HW116439   3.657   0.942   1.192
 5180SOL    HW216440   3.744   0.807   1.160
 5181SOL     OW16441   6.221   6.933   1.251
 5181SOL    HW116442   6.310   6.978   1.259
 5181SOL    HW216443   6.235   6.838   1.221
 5182SOL     OW16444   4.240   4.684   2.085
 5182SOL    HW116445   4.166   4.705   2.149
 5182SOL    HW216446   4.217   4.600   2.035
 5183SOL     OW16447   4.225   2.000   2.292
 5183SOL    HW116448   4.292   2.053   2.343
 5183SOL    HW216449   4.218   1.908   2.330
 5184SOL     OW16450   2.070   1.573   2.850
 5184SOL    HW116451   2.107   1.556   2.941
 5184SOL    HW216452   2.087   1.668   2.824
 5185SOL     OW16453   5.393   0.560   2.498
 5185SOL    HW116454   5.431   0.553   2.406
 5185SOL    HW216455   5.432   0.489   2.556
 5186SOL     OW16456   6.389   3.099   5.835
 5186SOL    HW116457   6.403   3.184   5.786
 5186SOL    HW216458   6.420   3.109   5.930
 5187SOL     OW16459   1.220   5.332   5.305
 5187SOL    HW116460   1.209   5.412   5.247
 5187SOL    HW216461   1.191   5.250   5.254
 5188SOL     OW16462   6.035   5.674   1.917
 5188SOL    HW116463   6.101   5.692   1.844
 5188SOL    HW216464   6.015   5.576   1.921
 5189SOL     OW16465   5.045   5.744   0.371
 5189SOL    HW116466   4.960   5.710   0.331
 5189SOL    HW216467   5.061   5.697   0.458
 5190SOL     OW16468   1.225   3.573   3.183
 5190SOL    HW116469   1.257   3.479   3.166
 5190SOL    HW216470   1.238   3.627   3.100
 5191SOL     OW16471   3.553   6.057   2.733
 5191SOL    HW116472   3.598   6.049   2.644
 5191SOL    HW216473   3.598   6.129   2.786
 5192SOL     OW16474   1.483   5.938   1.092
 5192SOL    HW116475   1.405   5.908   1.147
 5192SOL    HW216476   1.535   6.007   1.142
 5193SOL     OW16477   4.554   5.959   5.218
 5193SOL    HW116478   4.540   6.049   5.176
 5193SOL    HW216479   4.642   5.958   5.266
 5194SOL     OW16480   3.498   2.456   6.844
 5194SOL    HW116481   3.558   2.479   6.921
 5194SOL    HW216482   3.486   2.537   6.786
 5195SOL     OW16483   0.200   0.727   4.226
 5195SOL    HW116484   0.205   0.638   4.182
 5195SOL    HW216485   0.244   0.723   4.316
 5196SOL     OW16486   4.560   6.836   2.398
 5196SOL    HW116487   4.526   6.930   2.402
 5196SOL    HW216488   4.526   6.785   2.477
 5197SOL     OW16489   1.458   3.652   6.375
 5197SOL    HW116490   1.418   3.606   6.296
 5197SOL    HW216491   1.436   3.601   6.459
 5198SOL     OW16492   4.213   5.383   3.375
 5198SOL    HW116493   4.277   5.437   3.429
 5198SOL    HW216494   4.125   5.429   3.371
 5199SOL     OW16495   0.814   5.431   0.323
 5199SOL    HW116496   0.841   5.526   0.339
 5199SOL    HW216497   0.814   5.382   0.411
 5200SOL     OW16498   6.984   3.632   4.917
 5200SOL    HW116499   7.010   3.708   4.858
 5200SOL    HW216500   0.018   3.551   4.892
 5201SOL     OW16501   0.872   6.923   3.418
 5201SOL    HW116502   0.786   6.933   3.367
 5201SOL    HW216503   0.940   6.878   3.360
 5202SOL     OW16504   5.913   2.852   6.364
 5202SOL    HW116505   5.873   2.929   6.316
 5202SOL    HW216506   5.841   2.801   6.411
 5203SOL     OW16507   1.870   1.743   6.862
 5203SOL    HW116508   1.891   1.681   6.938
 5203SOL    HW216509   1.922   1.828   6.873
 5204SOL     OW16510   4.174   5.248   0.160
 5204SOL    HW116511   4.118   5.331   0.158
 5204SOL    HW216512   4.230   5.247   0.243
 5205SOL     OW16513   2.165   6.855   0.837
 5205SOL    HW116514   2.195   6.761   0.855
 5205SOL    HW216515   2.243   6.910   0.807
 5206SOL     OW16516   0.453   3.907   5.507
 5206SOL    HW116517   0.386   3.834   5.515
 5206SOL    HW216518   0.455   3.960   5.593
 5207SOL     OW16519   0.986   5.463   4.420
 5207SOL    HW116520   0.894   5.428   4.403
 5207SOL    HW216521   1.001   5.544   4.363
 5208SOL     OW16522   3.910   1.888   0.059
 5208SOL    HW116523   3.906   1.800   0.013
 5208SOL    HW216524   3.838   1.893   0.129
 5209SOL     OW16525   5.836   5.745   3.976
 5209SOL    HW116526   5.912   5.765   4.037
 5209SOL    HW216527   5.779   5.827   3.966
 5210SOL     OW16528   5.897   2.766   5.745
 5210SOL    HW116529   5.871   2.708   5.822
 5210SOL    HW216530   5.989   2.741   5.714
 5211SOL     OW16531   3.624   2.835   4.770
 5211SOL    HW116532   3.627   2.910   4.704
 5211SOL    HW216533   3.712   2.787   4.770
 5212SOL     OW16534   6.284   1.693   0.848
 5212SOL    HW116535   6.215   1.623   0.868
 5212SOL    HW216536   6.352   1.656   0.785
 5213SOL     OW16537   5.059   4.094   6.426
 5213SOL    HW116538   5.152   4.090   6.461
 5213SOL    HW216539   4.995   4.063   6.497
 5214SOL     OW16540   5.180   1.627   6.725
 5214SOL    HW116541   5.219   1.669   6.806
 5214SOL    HW216542   5.251   1.614   6.656
 5215SOL     OW16543   5.565   5.550   3.602
 5215SOL    HW116544   5.527   5.641   3.585
 5215SOL    HW216545   5.662   5.558   3.623
 5216SOL     OW16546   4.059   5.905   2.111
 5216SOL    HW116547   3.961   5.925   2.114
 5216SOL    HW216548   4.099   5.945   2.028
 5217SOL     OW16549   3.824   5.589   4.057
 5217SOL    HW116550   3.832   5.520   3.986
 5217SOL    HW216551   3.727   5.613   4.070
 5218SOL     OW16552   1.136   0.614   3.593
 5218SOL    HW116553   1.043   0.578   3.601
 5218SOL    HW216554   1.195   0.568   3.659
 5219SOL     OW16555   3.480   0.457   6.076
 5219SOL    HW116556   3.555   0.436   6.014
 5219SOL    HW216557   3.437   0.372   6.106
 5220SOL     OW16558   1.823   5.556   2.884
 5220SOL    HW116559   1.766   5.509   2.816
 5220SOL    HW216560   1.870   5.488   2.940
 5221SOL     OW16561   5.448   2.120   4.157
 5221SOL    HW116562   5.436   2.131   4.058
 5221SOL    HW216563   5.368   2.074   4.195
 5222SOL     OW16564   2.319   0.157   4.064
 5222SOL    HW116565   2.376   0.076   4.051
 5222SOL    HW216566   2.321   0.212   3.981
 5223SOL     OW16567   5.433   0.506   1.039
 5223SOL    HW116568   5.370   0.430   1.052
 5223SOL    HW216569   5.521   0.484   1.080
 5224SOL     OW16570   1.133   1.907   3.838
 5224SOL    HW116571   1.224   1.906   3.878
 5224SOL    HW216572   1.122   1.829   3.776
 5225SOL     OW16573   6.496   0.037   2.752
 5225SOL    HW116574   6.401   0.059   2.776
 5225SOL    HW216575   6.512   0.059   2.656
 5226SOL     OW16576   0.930   5.552   5.026
 5226SOL    HW116577   0.849   5.587   4.979
 5226SOL    HW216578   0.910   5.462   5.064
 5227SOL     OW16579   1.447   4.433   3.431
 5227SOL    HW116580   1.485   4.341   3.422
 5227SOL    HW216581   1.414   4.446   3.525
 5228SOL     OW16582   6.696   2.438   1.144
 5228SOL    HW116583   6.616   2.428   1.202
 5228SOL    HW216584   6.737   2.529   1.159
 5229SOL     OW16585   1.317   3.966   0.409
 5229SOL    HW116586   1.235   3.911   0.427
 5229SOL    HW216587   1.398   3.916   0.440
 5230SOL     OW16588   0.010   6.403   1.411
 5230SOL    HW116589   0.028   6.344   1.333
 5230SOL    HW216590   0.041   6.496   1.390
 5231SOL     OW16591   3.907   3.858   4.277
 5231SOL    HW116592   3.878   3.910   4.197
 5231SOL    HW216593   3.904   3.760   4.257
 5232SOL     OW16594   3.182   2.365   5.841
 5232SOL    HW116595   3.240   2.383   5.762
 5232SOL    HW216596   3.092   2.407   5.826
 5233SOL     OW16597   6.168   6.998   1.564
 5233SOL    HW116598   6.077   0.016   1.580
 5233SOL    HW216599   6.169   6.951   1.476
 5234SOL     OW16600   2.822   0.369   6.555
 5234SOL    HW116601   2.839   0.467   6.566
 5234SOL    HW216602   2.779   0.333   6.638
 5235SOL     OW16603   1.986   3.104   1.135
 5235SOL    HW116604   2.060   3.078   1.073
 5235SOL    HW216605   1.920   3.029   1.142
 5236SOL     OW16606   5.649   3.553   2.163
 5236SOL    HW116607   5.652   3.456   2.137
 5236SOL    HW216608   5.741   3.591   2.161
 5237SOL     OW16609   2.735   0.711   5.438
 5237SOL    HW116610   2.799   0.717   5.515
 5237SOL    HW216611   2.784   0.726   5.353
 5238SOL     OW16612   1.620   4.884   0.353
 5238SOL    HW116613   1.699   4.909   0.296
 5238SOL    HW216614   1.586   4.965   0.400
 5239SOL     OW16615   4.102   3.476   4.016
 5239SOL    HW116616   4.072   3.571   4.025
 5239SOL    HW216617   4.139   3.444   4.104
 5240SOL     OW16618   2.724   1.423   6.171
 5240SOL    HW116619   2.680   1.469   6.093
 5240SOL    HW216620   2.822   1.417   6.155
 5241SOL     OW16621   1.313   5.754   6.273
 5241SOL    HW116622   1.232   5.762   6.217
 5241SOL    HW216623   1.311   5.668   6.324
 5242SOL     OW16624   6.610   6.470   6.003
 5242SOL    HW116625   6.585   6.493   6.097
 5242SOL    HW216626   6.567   6.383   5.977
 5243SOL     OW16627   1.157   6.046   1.687
 5243SOL    HW116628   1.085   6.020   1.622
 5243SOL    HW216629   1.121   6.115   1.750
 5244SOL     OW16630   3.829   4.181   5.968
 5244SOL    HW116631   3.751   4.118   5.970
 5244SOL    HW216632   3.796   4.275   5.958
 5245SOL     OW16633   4.037   4.405   0.282
 5245SOL    HW116634   4.002   4.335   0.220
 5245SOL    HW216635   4.045   4.368   0.374
 5246SOL     OW16636   5.752   4.470   3.006
 5246SOL    HW116637   5.681   4.415   2.963
 5246SOL    HW216638   5.713   4.524   3.080
 5247SOL     OW16639   1.238   6.141   0.592
 5247SOL    HW116640   1.275   6.053   0.563
 5247SOL    HW216641   1.285   6.215   0.544
 5248SOL     OW16642   6.050   0.819   5.077
 5248SOL    HW116643   5.970   0.842   5.021
 5248SOL    HW216644   6.071   0.722   5.065
 5249SOL     OW16645   1.008   4.886   5.503
 5249SOL    HW116646   0.968   4.947   5.571
 5249SOL    HW216647   0.982   4.917   5.411
 5250SOL     OW16648   6.998   1.108   5.712
 5250SOL    HW116649   6.917   1.164   5.732
 5250SOL    HW216650   0.022   1.141   5.629
 5251SOL     OW16651   0.840   3.158   1.325
 5251SOL    HW116652   0.873   3.116   1.410
 5251SOL    HW216653   0.817   3.086   1.259
 5252SOL     OW16654   2.010   5.566   1.201
 5252SOL    HW116655   2.028   5.664   1.210
 5252SOL    HW216656   1.930   5.551   1.143
 5253SOL     OW16657   5.933   4.116   5.392
 5253SOL    HW116658   5.934   4.174   5.474
 5253SOL    HW216659   5.851   4.058   5.394
 5254SOL     OW16660   5.907   1.210   3.540
 5254SOL    HW116661   6.002   1.209   3.508
 5254SOL    HW216662   5.871   1.116   3.539
 5255SOL     OW16663   4.618   0.482   5.821
 5255SOL    HW116664   4.547   0.440   5.877
 5255SOL    HW216665   4.703   0.487   5.873
 5256SOL     OW16666   4.528   1.013   3.096
 5256SOL    HW116667   4.578   1.066   3.164
 5256SOL    HW216668   4.464   0.951   3.143
 5257SOL     OW16669   4.335   0.310   1.782
 5257SOL    HW116670   4.262   0.355   1.833
 5257SOL    HW216671   4.310   0.306   1.685
 5258SOL     OW16672   5.281   4.234   1.895
 5258SOL    HW116673   5.302   4.235   1.993
 5258SOL    HW216674   5.287   4.140   1.861
 5259SOL     OW16675   4.426   6.561   1.154
 5259SOL    HW116676   4.448   6.474   1.199
 5259SOL    HW216677   4.503   6.589   1.096
 5260SOL     OW16678   5.918   3.670   1.133
 5260SOL    HW116679   5.999   3.706   1.086
 5260SOL    HW216680   5.947   3.616   1.212
 5261SOL     OW16681   1.730   2.971   6.136
 5261SOL    HW116682   1.649   3.029   6.123
 5261SOL    HW216683   1.808   3.013   6.090
 5262SOL     OW16684   3.360   0.640   2.667
 5262SOL    HW116685   3.416   0.557   2.668
 5262SOL    HW216686   3.417   0.719   2.645
 5263SOL     OW16687   1.002   1.178   5.526
 5263SOL    HW116688   0.984   1.241   5.602
 5263SOL    HW216689   0.924   1.117   5.514
 5264SOL     OW16690   6.809   0.018   2.273
 5264SOL    HW116691   6.720   0.037   2.232
 5264SOL    HW216692   6.878   0.078   2.232
 5265SOL     OW16693   4.939   4.274   2.825
 5265SOL    HW116694   4.840   4.266   2.814
 5265SOL    HW216695   4.959   4.315   2.914
 5266SOL     OW16696   2.844   0.594   2.188
 5266SOL    HW116697   2.779   0.611   2.262
 5266SOL    HW216698   2.801   0.538   2.117
 5267SOL     OW16699   4.693   4.933   6.048
 5267SOL    HW116700   4.621   4.863   6.051
 5267SOL    HW216701   4.756   4.919   6.124
 5268SOL     OW16702   5.985   5.801   6.233
 5268SOL    HW116703   5.961   5.742   6.309
 5268SOL    HW216704   6.064   5.858   6.259
 5269SOL     OW16705   2.605   6.432   4.436
 5269SOL    HW116706   2.700   6.404   4.455
 5269SOL    HW216707   2.603   6.529   4.414
 5270SOL     OW16708   4.705   1.689   1.740
 5270SOL    HW116709   4.733   1.697   1.644
 5270SOL    HW216710   4.774   1.636   1.790
 5271SOL     OW16711   4.501   5.192   4.800
 5271SOL    HW116712   4.554   5.107   4.801
 5271SOL    HW216713   4.442   5.193   4.719
 5272SOL     OW16714   1.951   5.673   3.470
 5272SOL    HW116715   2.023   5.617   3.512
 5272SOL    HW216716   1.927   5.748   3.532
 5273SOL     OW16717   0.303   3.603   3.744
 5273SOL    HW116718   0.291   3.563   3.653
 5273SOL    HW216719   0.339   3.534   3.806
 5274SOL     OW16720   5.899   5.134   2.445
 5274SOL    HW116721   5.835   5.203   2.410
 5274SOL    HW216722   5.899   5.055   2.384
 5275SOL     OW16723   3.451   1.336   6.073
 5275SOL    HW116724   3.403   1.353   6.159
 5275SOL    HW216725   3.385   1.328   5.999
 5276SOL     OW16726   1.022   6.713   1.063
 5276SOL    HW116727   1.048   6.626   1.105
 5276SOL    HW216728   0.981   6.695   0.973
 5277SOL     OW16729   1.256   2.571   3.290
 5277SOL    HW116730   1.347   2.613   3.291
 5277SOL    HW216731   1.188   2.640   3.263
 5278SOL     OW16732   5.145   6.587   4.277
 5278SOL    HW116733   5.215   6.588   4.206
 5278SOL    HW216734   5.065   6.537   4.244
 5279SOL     OW16735   1.556   5.397   6.586
 5279SOL    HW116736   1.487   5.464   6.610
 5279SOL    HW216737   1.540   5.313   6.638
 5280SOL     OW16738   2.726   5.592   5.604
 5280SOL    HW116739   2.746   5.498   5.629
 5280SOL    HW216740   2.811   5.641   5.585
 5281SOL     OW16741   1.338   0.772   3.654
 5281SOL    HW116742   1.251   0.736   3.620
 5281SOL    HW216743   1.404   0.779   3.579
 5282SOL     OW16744   1.659   1.071   2.685
 5282SOL    HW116745   1.737   1.030   2.733
 5282SOL    HW216746   1.577   1.061   2.742
 5283SOL     OW16747   3.017   0.277   2.538
 5283SOL    HW116748   2.957   0.254   2.461
 5283SOL    HW216749   3.111   0.286   2.506
 5284SOL     OW16750   4.807   2.978   2.545
 5284SOL    HW116751   4.731   2.915   2.561
 5284SOL    HW216752   4.829   2.980   2.448
 5285SOL     OW16753   1.478   3.693   4.116
 5285SOL    HW116754   1.454   3.690   4.019
 5285SOL    HW216755   1.409   3.644   4.169
 5286SOL     OW16756   6.547   3.753   1.224
 5286SOL    HW116757   6.470   3.809   1.253
 5286SOL    HW216758   6.533   3.723   1.129
 5287SOL     OW16759   2.493   6.033   1.534
 5287SOL    HW116760   2.466   6.109   1.593
 5287SOL    HW216761   2.486   6.060   1.438
 5288SOL     OW16762   3.837   1.024   2.378
 5288SOL    HW116763   3.822   1.091   2.450
 5288SOL    HW216764   3.888   1.066   2.303
 5289SOL     OW16765   1.589   5.753   5.906
 5289SOL    HW116766   1.684   5.733   5.884
 5289SOL    HW216767   1.540   5.777   5.821
 5290SOL     OW16768   0.971   4.764   6.085
 5290SOL    HW116769   1.043   4.709   6.042
 5290SOL    HW216770   0.938   4.718   6.167
 5291SOL     OW16771   3.101   4.937   6.427
 5291SOL    HW116772   3.175   5.003   6.439
 5291SOL    HW216773   3.022   4.966   6.481
 5292SOL     OW16774   6.153   4.811   6.633
 5292SOL    HW116775   6.097   4.777   6.557
 5292SOL    HW216776   6.134   4.908   6.646
 5293SOL     OW16777   1.551   0.059   4.879
 5293SOL    HW116778   1.502   0.144   4.864
 5293SOL    HW216779   1.492   7.002   4.856
 5294SOL     OW16780   5.772   3.085   4.864
 5294SOL    HW116781   5.709   3.060   4.938
 5294SOL    HW216782   5.775   3.010   4.798
 5295SOL     OW16783   4.291   0.684   2.966
 5295SOL    HW116784   4.307   0.588   2.940
 5295SOL    HW216785   4.374   0.723   3.005
 5296SOL     OW16786   3.082   5.172   0.017
 5296SOL    HW116787   2.995   5.190   6.992
 5296SOL    HW216788   3.106   5.075   0.006
 5297SOL     OW16789   1.706   3.038   0.693
 5297SOL    HW116790   1.635   3.018   0.625
 5297SOL    HW216791   1.776   3.096   0.653
 5298SOL     OW16792   0.831   6.247   0.228
 5298SOL    HW116793   0.812   6.259   0.130
 5298SOL    HW216794   0.895   6.318   0.258
 5299SOL     OW16795   2.469   3.520   0.496
 5299SOL    HW116796   2.399   3.498   0.429
 5299SOL    HW216797   2.441   3.488   0.586
 5300SOL     OW16798   1.110   5.685   0.882
 5300SOL    HW116799   1.137   5.649   0.972
 5300SOL    HW216800   1.115   5.784   0.883
 5301SOL     OW16801   3.469   2.182   6.380
 5301SOL    HW116802   3.533   2.178   6.456
 5301SOL    HW216803   3.490   2.260   6.322
 5302SOL     OW16804   5.799   5.609   3.745
 5302SOL    HW116805   5.837   5.681   3.687
 5302SOL    HW216806   5.797   5.640   3.840
 5303SOL     OW16807   0.399   5.562   4.134
 5303SOL    HW116808   0.332   5.626   4.097
 5303SOL    HW216809   0.479   5.613   4.166
 5304SOL     OW16810   5.396   1.101   0.360
 5304SOL    HW116811   5.434   1.193   0.369
 5304SOL    HW216812   5.415   1.049   0.444
 5305SOL     OW16813   0.741   4.832   2.923
 5305SOL    HW116814   0.789   4.778   2.854
 5305SOL    HW216815   0.645   4.803   2.928
 5306SOL     OW16816   1.311   4.186   4.681
 5306SOL    HW116817   1.303   4.088   4.698
 5306SOL    HW216818   1.392   4.221   4.728
 5307SOL     OW16819   4.344   1.952   0.260
 5307SOL    HW116820   4.287   1.975   0.181
 5307SOL    HW216821   4.288   1.953   0.343
 5308SOL     OW16822   0.888   5.115   3.726
 5308SOL    HW116823   0.894   5.016   3.711
 5308SOL    HW216824   0.885   5.134   3.824
 5309SOL     OW16825   4.200   4.723   1.573
 5309SOL    HW116826   4.159   4.808   1.538
 5309SOL    HW216827   4.212   4.730   1.672
 5310SOL     OW16828   6.425   3.917   2.005
 5310SOL    HW116829   6.472   3.833   2.030
 5310SOL    HW216830   6.409   3.918   1.906
 5311SOL     OW16831   6.715   5.703   6.803
 5311SOL    HW116832   6.672   5.619   6.836
 5311SOL    HW216833   6.645   5.762   6.764
 5312SOL     OW16834   6.891   5.115   1.687
 5312SOL    HW116835   6.965   5.182   1.684
 5312SOL    HW216836   6.883   5.070   1.599
 5313SOL     OW16837   1.686   3.724   5.946
 5313SOL    HW116838   1.651   3.726   5.852
 5313SOL    HW216839   1.629   3.784   6.003
 5314SOL     OW16840   2.982   6.593   0.627
 5314SOL    HW116841   2.967   6.690   0.608
 5314SOL    HW216842   2.905   6.539   0.592
 5315SOL     OW16843   5.057   3.584   1.866
 5315SOL    HW116844   4.986   3.553   1.802
 5315SOL    HW216845   5.133   3.519   1.866
 5316SOL     OW16846   0.885   3.710   4.367
 5316SOL    HW116847   0.953   3.666   4.307
 5316SOL    HW216848   0.834   3.778   4.315
 5317SOL     OW16849   6.193   0.222   4.389
 5317SOL    HW116850   6.166   0.210   4.484
 5317SOL    HW216851   6.286   0.259   4.385
 5318SOL     OW16852   0.549   3.102   6.496
 5318SOL    HW116853   0.483   3.060   6.558
 5318SOL    HW216854   0.640   3.065   6.514
 5319SOL     OW16855   3.515   6.512   0.130
 5319SOL    HW116856   3.493   6.476   0.220
 5319SOL    HW216857   3.582   6.453   0.085
 5320SOL     OW16858   5.185   4.928   0.491
 5320SOL    HW116859   5.169   4.900   0.586
 5320SOL    HW216860   5.255   4.999   0.490
 5321SOL     OW16861   1.069   5.084   4.534
 5321SOL    HW116862   1.079   5.158   4.601
 5321SOL    HW216863   1.146   5.086   4.470
 5322SOL     OW16864   4.994   6.235   6.140
 5322SOL    HW116865   5.091   6.258   6.147
 5322SOL    HW216866   4.941   6.295   6.200
 5323SOL     OW16867   4.076   1.800   6.677
 5323SOL    HW116868   4.161   1.780   6.725
 5323SOL    HW216869   4.072   1.897   6.655
 5324SOL     OW16870   3.761   2.343   0.676
 5324SOL    HW116871   3.779   2.337   0.578
 5324SOL    HW216872   3.716   2.259   0.708
 5325SOL     OW16873   4.582   0.743   4.452
 5325SOL    HW116874   4.618   0.715   4.541
 5325SOL    HW216875   4.497   0.795   4.465
 5326SOL     OW16876   6.904   4.975   2.961
 5326SOL    HW116877   6.884   5.063   3.004
 5326SOL    HW216878   6.822   4.918   2.962
 5327SOL     OW16879   5.738   3.197   5.297
 5327SOL    HW116880   5.761   3.281   5.247
 5327SOL    HW216881   5.671   3.218   5.368
 5328SOL     OW16882   4.340   3.094   5.351
 5328SOL    HW116883   4.370   3.188   5.369
 5328SOL    HW216884   4.419   3.039   5.327
 5329SOL     OW16885   0.211   4.658   0.385
 5329SOL    HW116886   0.217   4.757   0.374
 5329SOL    HW216887   0.291   4.625   0.434
 5330SOL     OW16888   3.533   4.353   5.876
 5330SOL    HW116889   3.465   4.413   5.834
 5330SOL    HW216890   3.623   4.396   5.870
 5331SOL     OW16891   5.185   1.376   0.489
 5331SOL    HW116892   5.280   1.345   0.484
 5331SOL    HW216893   5.132   1.311   0.543
 5332SOL     OW16894   0.765   3.610   1.188
 5332SOL    HW116895   0.681   3.648   1.227
 5332SOL    HW216896   0.806   3.676   1.125
 5333SOL     OW16897   0.880   0.542   3.589
 5333SOL    HW116898   0.884   0.588   3.500
 5333SOL    HW216899   0.809   0.473   3.588
 5334SOL     OW16900   3.820   0.142   4.595
 5334SOL    HW116901   3.827   0.241   4.604
 5334SOL    HW216902   3.909   0.105   4.565
 5335SOL     OW16903   6.395   5.499   2.572
 5335SOL    HW116904   6.425   5.467   2.483
 5335SOL    HW216905   6.312   5.554   2.562
 5336SOL     OW16906   2.419   2.108   3.008
 5336SOL    HW116907   2.407   2.121   3.106
 5336SOL    HW216908   2.355   2.167   2.959
 5337SOL     OW16909   5.288   4.440   1.345
 5337SOL    HW116910   5.319   4.492   1.425
 5337SOL    HW216911   5.230   4.364   1.375
 5338SOL     OW16912   5.854   1.973   6.179
 5338SOL    HW116913   5.915   2.051   6.161
 5338SOL    HW216914   5.772   1.982   6.124
 5339SOL     OW16915   6.718   2.014   4.148
 5339SOL    HW116916   6.804   1.980   4.110
 5339SOL    HW216917   6.735   2.102   4.193
 5340SOL     OW16918   5.634   2.930   0.918
 5340SOL    HW116919   5.597   2.862   0.982
 5340SOL    HW216920   5.587   2.922   0.831
 5341SOL     OW16921   3.289   3.668   6.511
 5341SOL    HW116922   3.350   3.663   6.431
 5341SOL    HW216923   3.195   3.653   6.481
 5342SOL     OW16924   3.115   0.133   3.656
 5342SOL    HW116925   3.082   0.089   3.573
 5342SOL    HW216926   3.181   0.073   3.702
 5343SOL     OW16927   4.063   3.779   4.777
 5343SOL    HW116928   4.043   3.759   4.681
 5343SOL    HW216929   4.060   3.878   4.792
 5344SOL     OW16930   2.365   2.211   2.347
 5344SOL    HW116931   2.368   2.180   2.442
 5344SOL    HW216932   2.439   2.167   2.295
 5345SOL     OW16933   3.733   6.612   1.243
 5345SOL    HW116934   3.708   6.705   1.274
 5345SOL    HW216935   3.690   6.594   1.155
 5346SOL     OW16936   3.131   5.655   4.425
 5346SOL    HW116937   3.070   5.734   4.435
 5346SOL    HW216938   3.099   5.598   4.350
 5347SOL     OW16939   0.649   2.590   1.526
 5347SOL    HW116940   0.550   2.601   1.519
 5347SOL    HW216941   0.695   2.670   1.488
 5348SOL     OW16942   6.631   2.046   0.968
 5348SOL    HW116943   6.655   2.122   1.028
 5348SOL    HW216944   6.697   1.972   0.979
 5349SOL     OW16945   2.030   2.876   0.372
 5349SOL    HW116946   2.022   2.964   0.324
 5349SOL    HW216947   1.939   2.844   0.398
 5350SOL     OW16948   1.583   0.021   5.280
 5350SOL    HW116949   1.595   6.945   5.308
 5350SOL    HW216950   1.498   0.029   5.228
 5351SOL     OW16951   6.888   5.135   2.576
 5351SOL    HW116952   6.964   5.082   2.614
 5351SOL    HW216953   6.820   5.152   2.647
 5352SOL     OW16954   2.779   4.684   3.472
 5352SOL    HW116955   2.739   4.594   3.458
 5352SOL    HW216956   2.854   4.698   3.406
 5353SOL     OW16957   4.085   4.734   3.759
 5353SOL    HW116958   4.007   4.750   3.819
 5353SOL    HW216959   4.167   4.721   3.814
 5354SOL     OW16960   2.596   5.509   1.987
 5354SOL    HW116961   2.549   5.596   1.974
 5354SOL    HW216962   2.588   5.480   2.082
 5355SOL     OW16963   6.552   4.028   3.978
 5355SOL    HW116964   6.608   3.994   3.903
 5355SOL    HW216965   6.506   4.112   3.951
 5356SOL     OW16966   5.830   4.555   1.782
 5356SOL    HW116967   5.848   4.629   1.717
 5356SOL    HW216968   5.917   4.516   1.812
 5357SOL     OW16969   3.961   6.137   0.982
 5357SOL    HW116970   3.882   6.195   0.969
 5357SOL    HW216971   4.045   6.192   0.978
 5358SOL     OW16972   4.497   1.468   0.162
 5358SOL    HW116973   4.574   1.414   0.129
 5358SOL    HW216974   4.530   1.546   0.214
 5359SOL     OW16975   1.019   1.413   5.690
 5359SOL    HW116976   1.041   1.464   5.607
 5359SOL    HW216977   1.079   1.443   5.765
 5360SOL     OW16978   3.650   6.823   4.926
 5360SOL    HW116979   3.697   6.742   4.960
 5360SOL    HW216980   3.642   6.818   4.827
 5361SOL     OW16981   2.687   1.154   5.786
 5361SOL    HW116982   2.593   1.187   5.777
 5361SOL    HW216983   2.713   1.152   5.882
 5362SOL     OW16984   6.726   5.826   3.362
 5362SOL    HW116985   6.770   5.783   3.283
 5362SOL    HW216986   6.774   5.910   3.385
 5363SOL     OW16987   0.071   0.799   7.017
 5363SOL    HW116988   7.017   0.796   0.064
 5363SOL    HW216989   0.033   0.822   6.927
 5364SOL     OW16990   0.059   6.521   1.938
 5364SOL    HW116991   0.095   6.499   1.848
 5364SOL    HW216992   0.059   6.439   1.995
 5365SOL     OW16993   3.753   3.402   0.051
 5365SOL    HW116994   3.789   3.340   7.001
 5365SOL    HW216995   3.763   3.497   0.021
 5366SOL     OW16996   5.009   5.944   2.003
 5366SOL    HW116997   5.085   6.002   1.974
 5366SOL    HW216998   5.035   5.895   2.087
 5367SOL     OW16999   0.747   6.733   1.131
 5367SOL    HW117000   0.845   6.748   1.119
 5367SOL    HW217001   0.722   6.645   1.092
 5368SOL     OW17002   5.402   6.805   2.572
 5368SOL    HW117003   5.318   6.859   2.569
 5368SOL    HW217004   5.451   6.814   2.485
 5369SOL     OW17005   2.632   0.178   1.967
 5369SOL    HW117006   2.662   0.115   2.038
 5369SOL    HW217007   2.533   0.189   1.971
 5370SOL     OW17008   4.440   2.857   1.715
 5370SOL    HW117009   4.343   2.873   1.700
 5370SOL    HW217010   4.479   2.933   1.768
 5371SOL     OW17011   0.899   3.733   4.987
 5371SOL    HW117012   0.964   3.660   4.967
 5371SOL    HW217013   0.839   3.747   4.909
 5372SOL     OW17014   2.034   6.377   4.024
 5372SOL    HW117015   2.114   6.326   4.054
 5372SOL    HW217016   2.063   6.457   3.971
 5373SOL     OW17017   3.669   6.925   4.650
 5373SOL    HW117018   3.759   6.968   4.648
 5373SOL    HW217019   3.680   6.826   4.640
 5374SOL     OW17020   1.432   4.402   6.937
 5374SOL    HW117021   1.504   4.336   6.916
 5374SOL    HW217022   1.438   4.480   6.875
 5375SOL     OW17023   0.952   4.970   5.255
 5375SOL    HW117024   1.014   4.992   5.179
 5375SOL    HW217025   0.858   4.963   5.220
 5376SOL     OW17026   1.734   2.895   1.288
 5376SOL    HW117027   1.711   2.953   1.367
 5376SOL    HW217028   1.666   2.822   1.280
 5377SOL     OW17029   0.325   6.535   2.212
 5377SOL    HW117030   0.282   6.545   2.302
 5377SOL    HW217031   0.286   6.602   2.149
 5378SOL     OW17032   6.648   0.201   1.754
 5378SOL    HW117033   6.716   0.187   1.682
 5378SOL    HW217034   6.682   0.270   1.819
 5379SOL     OW17035   1.409   4.695   5.191
 5379SOL    HW117036   1.434   4.678   5.286
 5379SOL    HW217037   1.311   4.710   5.184
 5380SOL     OW17038   2.061   1.194   2.645
 5380SOL    HW117039   2.077   1.258   2.571
 5380SOL    HW217040   2.113   1.222   2.726
 5381SOL     OW17041   6.555   4.821   1.956
 5381SOL    HW117042   6.541   4.740   2.014
 5381SOL    HW217043   6.618   4.883   2.002
 5382SOL     OW17044   3.186   1.046   2.389
 5382SOL    HW117045   3.249   0.969   2.379
 5382SOL    HW217046   3.130   1.034   2.472
 5383SOL     OW17047   2.473   2.225   5.672
 5383SOL    HW117048   2.459   2.294   5.743
 5383SOL    HW217049   2.384   2.195   5.637
 5384SOL     OW17050   6.110   6.841   5.125
 5384SOL    HW117051   6.173   6.817   5.051
 5384SOL    HW217052   6.159   6.841   5.212
 5385SOL     OW17053   3.481   3.347   4.104
 5385SOL    HW117054   3.386   3.348   4.134
 5385SOL    HW217055   3.488   3.307   4.013
 5386SOL     OW17056   4.842   0.859   4.357
 5386SOL    HW117057   4.865   0.943   4.407
 5386SOL    HW217058   4.748   0.864   4.324
 5387SOL     OW17059   2.330   0.061   3.435
 5387SOL    HW117060   2.425   0.082   3.416
 5387SOL    HW217061   2.316   6.982   3.435
 5388SOL     OW17062   0.069   0.922   3.979
 5388SOL    HW117063   0.116   1.005   4.010
 5388SOL    HW217064   0.115   0.886   3.898
 5389SOL     OW17065   4.715   1.023   2.872
 5389SOL    HW117066   4.649   1.039   2.945
 5389SOL    HW217067   4.801   1.070   2.893
 5390SOL     OW17068   4.793   4.071   3.058
 5390SOL    HW117069   4.758   4.126   2.982
 5390SOL    HW217070   4.810   3.977   3.026
 5391SOL     OW17071   2.443   1.947   0.795
 5391SOL    HW117072   2.502   1.995   0.860
 5391SOL    HW217073   2.497   1.916   0.717
 5392SOL     OW17074   5.438   3.262   0.935
 5392SOL    HW117075   5.375   3.273   0.858
 5392SOL    HW217076   5.388   3.221   1.012
 5393SOL     OW17077   4.676   6.990   6.710
 5393SOL    HW117078   4.619   6.956   6.784
 5393SOL    HW217079   4.679   6.922   6.636
 5394SOL     OW17080   6.612   4.615   0.055
 5394SOL    HW117081   6.708   4.597   0.079
 5394SOL    HW217082   6.595   4.714   0.059
 5395SOL     OW17083   5.120   1.399   1.236
 5395SOL    HW117084   5.151   1.407   1.331
 5395SOL    HW217085   5.160   1.317   1.195
 5396SOL     OW17086   4.327   4.526   1.862
 5396SOL    HW117087   4.395   4.577   1.809
 5396SOL    HW217088   4.362   4.434   1.881
 5397SOL     OW17089   0.644   2.866   1.477
 5397SOL    HW117090   0.719   2.867   1.412
 5397SOL    HW217091   0.646   2.950   1.531
 5398SOL     OW17092   3.531   2.100   3.609
 5398SOL    HW117093   3.545   2.021   3.549
 5398SOL    HW217094   3.473   2.167   3.563
 5399SOL     OW17095   2.962   5.769   0.760
 5399SOL    HW117096   2.869   5.742   0.738
 5399SOL    HW217097   2.997   5.830   0.689
 5400SOL     OW17098   2.454   4.023   0.061
 5400SOL    HW117099   2.402   4.054   7.001
 5400SOL    HW217100   2.416   3.936   0.092
 5401SOL     OW17101   6.344   3.907   1.285
 5401SOL    HW117102   6.272   3.948   1.230
 5401SOL    HW217103   6.310   3.892   1.378
 5402SOL     OW17104   2.839   5.004   1.984
 5402SOL    HW117105   2.880   4.951   1.910
 5402SOL    HW217106   2.890   5.088   1.997
 5403SOL     OW17107   5.777   3.069   6.238
 5403SOL    HW117108   5.811   3.160   6.263
 5403SOL    HW217109   5.681   3.075   6.211
 5404SOL     OW17110   0.824   0.624   2.023
 5404SOL    HW117111   0.764   0.557   1.978
 5404SOL    HW217112   0.773   0.708   2.040
 5405SOL     OW17113   6.046   6.125   0.184
 5405SOL    HW117114   6.105   6.160   0.112
 5405SOL    HW217115   6.082   6.151   0.273
 5406SOL     OW17116   2.736   0.016   6.531
 5406SOL    HW117117   2.708   0.069   6.612
 5406SOL    HW217118   2.818   6.983   6.553
 5407SOL     OW17119   4.302   2.480   1.388
 5407SOL    HW117120   4.360   2.559   1.408
 5407SOL    HW217121   4.356   2.396   1.399
 5408SOL     OW17122   3.461   1.064   5.817
 5408SOL    HW117123   3.515   1.077   5.900
 5408SOL    HW217124   3.369   1.032   5.842
 5409SOL     OW17125   5.738   1.955   3.998
 5409SOL    HW117126   5.803   1.879   4.004
 5409SOL    HW217127   5.787   2.042   4.006
 5410SOL     OW17128   1.606   3.317   0.342
 5410SOL    HW117129   1.630   3.343   0.436
 5410SOL    HW217130   1.552   3.233   0.344
 5411SOL     OW17131   6.216   5.087   5.616
 5411SOL    HW117132   6.167   5.170   5.644
 5411SOL    HW217133   6.301   5.080   5.667
 5412SOL     OW17134   4.485   0.463   0.275
 5412SOL    HW117135   4.522   0.370   0.263
 5412SOL    HW217136   4.549   0.529   0.235
 5413SOL     OW17137   0.347   0.438   1.198
 5413SOL    HW117138   0.378   0.353   1.153
 5413SOL    HW217139   0.374   0.516   1.142
 5414SOL     OW17140   6.533   2.930   5.504
 5414SOL    HW117141   6.557   2.851   5.448
 5414SOL    HW217142   6.509   3.007   5.445
 5415SOL     OW17143   1.348   6.507   1.798
 5415SOL    HW117144   1.353   6.603   1.824
 5415SOL    HW217145   1.437   6.463   1.815
 5416SOL     OW17146   3.635   4.896   6.454
 5416SOL    HW117147   3.606   4.968   6.516
 5416SOL    HW217148   3.685   4.936   6.377
 5417SOL     OW17149   4.053   7.012   4.601
 5417SOL    HW117150   4.023   6.923   4.633
 5417SOL    HW217151   4.151   0.002   4.619
 5418SOL     OW17152   4.678   0.121   4.488
 5418SOL    HW117153   4.706   0.196   4.428
 5418SOL    HW217154   4.757   0.063   4.509
 5419SOL     OW17155   2.830   5.605   0.454
 5419SOL    HW117156   2.916   5.653   0.438
 5419SOL    HW217157   2.777   5.654   0.524
 5420SOL     OW17158   1.406   2.815   1.978
 5420SOL    HW117159   1.504   2.835   1.972
 5420SOL    HW217160   1.358   2.894   2.016
 5421SOL     OW17161   2.092   4.211   3.057
 5421SOL    HW117162   1.999   4.181   3.034
 5421SOL    HW217163   2.148   4.131   3.076
 5422SOL     OW17164   0.892   5.719   5.793
 5422SOL    HW117165   0.908   5.800   5.738
 5422SOL    HW217166   0.969   5.655   5.782
 5423SOL     OW17167   5.498   3.517   6.837
 5423SOL    HW117168   5.478   3.441   6.776
 5423SOL    HW217169   5.497   3.485   6.932
 5424SOL     OW17170   5.715   3.268   3.867
 5424SOL    HW117171   5.726   3.234   3.961
 5424SOL    HW217172   5.620   3.297   3.854
 5425SOL     OW17173   4.902   1.652   4.123
 5425SOL    HW117174   4.868   1.561   4.149
 5425SOL    HW217175   5.001   1.647   4.108
 5426SOL     OW17176   6.853   5.629   3.825
 5426SOL    HW117177   6.757   5.637   3.796
 5426SOL    HW217178   6.889   5.541   3.794
 5427SOL     OW17179   5.164   5.023   1.095
 5427SOL    HW117180   5.239   5.086   1.110
 5427SOL    HW217181   5.096   5.064   1.035
 5428SOL     OW17182   7.017   0.323   1.764
 5428SOL    HW117183   0.056   0.400   1.740
 5428SOL    HW217184   0.053   0.245   1.791
 5429SOL     OW17185   1.255   1.214   5.704
 5429SOL    HW117186   1.174   1.270   5.689
 5429SOL    HW217187   1.267   1.151   5.627
 5430SOL     OW17188   1.193   2.812   5.327
 5430SOL    HW117189   1.206   2.908   5.303
 5430SOL    HW217190   1.225   2.796   5.421
 5431SOL     OW17191   3.570   5.521   6.457
 5431SOL    HW117192   3.594   5.532   6.553
 5431SOL    HW217193   3.585   5.426   6.430
 5432SOL     OW17194   4.089   6.310   6.285
 5432SOL    HW117195   4.100   6.243   6.211
 5432SOL    HW217196   4.081   6.261   6.372
 5433SOL     OW17197   6.946   1.261   3.477
 5433SOL    HW117198   6.986   1.291   3.390
 5433SOL    HW217199   7.019   1.239   3.541
 5434SOL     OW17200   3.825   0.775   4.668
 5434SOL    HW117201   3.821   0.677   4.686
 5434SOL    HW217202   3.747   0.820   4.712
 5435SOL     OW17203   5.838   1.614   1.302
 5435SOL    HW117204   5.923   1.633   1.254
 5435SOL    HW217205   5.847   1.642   1.398
 5436SOL     OW17206   5.422   3.952   4.795
 5436SOL    HW117207   5.435   3.928   4.698
 5436SOL    HW217208   5.449   3.874   4.852
 5437SOL     OW17209   2.233   5.121   5.285
 5437SOL    HW117210   2.296   5.070   5.226
 5437SOL    HW217211   2.279   5.140   5.372
 5438SOL     OW17212   5.926   3.795   2.751
 5438SOL    HW117213   5.900   3.872   2.808
 5438SOL    HW217214   6.012   3.755   2.784
 5439SOL     OW17215   6.909   2.414   0.534
 5439SOL    HW117216   6.961   2.476   0.475
 5439SOL    HW217217   6.841   2.366   0.479
 5440SOL     OW17218   0.352   0.299   2.648
 5440SOL    HW117219   0.358   0.381   2.590
 5440SOL    HW217220   0.434   0.292   2.704
 5441SOL     OW17221   4.840   3.028   3.374
 5441SOL    HW117222   4.825   2.994   3.281
 5441SOL    HW217223   4.914   2.977   3.416
 5442SOL     OW17224   3.368   6.625   3.174
 5442SOL    HW117225   3.457   6.659   3.205
 5442SOL    HW217226   3.350   6.536   3.216
 5443SOL     OW17227   2.613   6.562   3.720
 5443SOL    HW117228   2.615   6.524   3.628
 5443SOL    HW217229   2.594   6.659   3.716
 5444SOL     OW17230   0.710   0.330   3.585
 5444SOL    HW117231   0.702   0.318   3.486
 5444SOL    HW217232   0.687   0.243   3.630
 5445SOL     OW17233   6.214   4.353   4.046
 5445SOL    HW117234   6.221   4.440   3.996
 5445SOL    HW217235   6.279   4.288   4.008
 5446SOL     OW17236   5.613   5.212   5.108
 5446SOL    HW117237   5.637   5.247   5.199
 5446SOL    HW217238   5.693   5.218   5.048
 5447SOL     OW17239   1.530   1.847   0.932
 5447SOL    HW117240   1.465   1.777   0.903
 5447SOL    HW217241   1.606   1.850   0.868
 5448SOL     OW17242   5.791   3.663   4.920
 5448SOL    HW117243   5.819   3.643   4.826
 5448SOL    HW217244   5.870   3.696   4.972
 5449SOL     OW17245   1.281   1.735   7.012
 5449SOL    HW117246   1.320   1.688   6.932
 5449SOL    HW217247   1.355   1.762   0.054
 5450SOL     OW17248   2.218   0.880   1.928
 5450SOL    HW117249   2.311   0.912   1.941
 5450SOL    HW217250   2.211   0.785   1.958
 5451SOL     OW17251   1.773   5.273   3.384
 5451SOL    HW117252   1.871   5.255   3.399
 5451SOL    HW217253   1.735   5.202   3.324
 5452SOL     OW17254   2.059   3.926   0.054
 5452SOL    HW117255   2.141   3.910   7.019
 5452SOL    HW217256   2.026   3.840   0.091
 5453SOL     OW17257   5.090   4.247   1.420
 5453SOL    HW117258   5.142   4.163   1.436
 5453SOL    HW217259   5.024   4.260   1.493
 5454SOL     OW17260   6.278   4.242   5.544
 5454SOL    HW117261   6.273   4.342   5.543
 5454SOL    HW217262   6.221   4.206   5.618
 5455SOL     OW17263   6.296   2.366   1.879
 5455SOL    HW117264   6.229   2.302   1.843
 5455SOL    HW217265   6.339   2.327   1.960
 5456SOL     OW17266   2.712   0.117   0.228
 5456SOL    HW117267   2.638   0.069   0.181
 5456SOL    HW217268   2.720   0.082   0.321
 5457SOL     OW17269   0.290   2.448   0.961
 5457SOL    HW117270   0.192   2.465   0.955
 5457SOL    HW217271   0.306   2.360   1.006
 5458SOL     OW17272   0.214   4.200   0.150
 5458SOL    HW117273   0.144   4.153   0.203
 5458SOL    HW217274   0.215   4.297   0.175
 5459SOL     OW17275   2.605   4.223   6.616
 5459SOL    HW117276   2.530   4.195   6.556
 5459SOL    HW217277   2.692   4.194   6.577
 5460SOL     OW17278   3.753   6.987   3.347
 5460SOL    HW117279   3.842   6.979   3.302
 5460SOL    HW217280   3.742   0.060   3.382
 5461SOL     OW17281   0.203   0.592   5.733
 5461SOL    HW117282   0.253   0.601   5.819
 5461SOL    HW217283   0.109   0.563   5.752
 5462SOL     OW17284   0.132   6.605   1.254
 5462SOL    HW117285   0.203   6.547   1.214
 5462SOL    HW217286   0.057   6.617   1.189
 5463SOL     OW17287   0.136   1.441   0.635
 5463SOL    HW117288   0.165   1.488   0.552
 5463SOL    HW217289   0.065   1.494   0.681
 5464SOL     OW17290   0.234   0.803   4.516
 5464SOL    HW117291   0.310   0.739   4.522
 5464SOL    HW217292   0.159   0.772   4.575
 5465SOL     OW17293   4.709   0.343   4.319
 5465SOL    HW117294   4.735   0.439   4.303
 5465SOL    HW217295   4.660   0.308   4.239
 5466SOL     OW17296   5.414   3.042   4.697
 5466SOL    HW117297   5.413   2.952   4.740
 5466SOL    HW217298   5.385   3.111   4.764
 5467SOL     OW17299   4.887   3.918   3.739
 5467SOL    HW117300   4.851   3.865   3.662
 5467SOL    HW217301   4.886   3.862   3.822
 5468SOL     OW17302   6.524   2.525   3.666
 5468SOL    HW117303   6.447   2.472   3.701
 5468SOL    HW217304   6.494   2.617   3.643
 5469SOL     OW17305   2.881   5.786   5.896
 5469SOL    HW117306   2.979   5.802   5.908
 5469SOL    HW217307   2.841   5.862   5.845
 5470SOL     OW17308   3.303   5.581   3.234
 5470SOL    HW117309   3.350   5.619   3.314
 5470SOL    HW217310   3.345   5.494   3.208
 5471SOL     OW17311   5.666   6.960   2.443
 5471SOL    HW117312   5.707   6.904   2.370
 5471SOL    HW217313   5.733   6.974   2.515
 5472SOL     OW17314   3.686   3.898   6.237
 5472SOL    HW117315   3.645   3.815   6.275
 5472SOL    HW217316   3.774   3.875   6.196
 5473SOL     OW17317   0.560   2.932   2.389
 5473SOL    HW117318   0.601   2.879   2.314
 5473SOL    HW217319   0.573   2.883   2.475
 5474SOL     OW17320   1.044   4.663   3.996
 5474SOL    HW117321   1.032   4.763   3.996
 5474SOL    HW217322   1.110   4.637   3.926
 5475SOL     OW17323   2.365   2.850   1.004
 5475SOL    HW117324   2.300   2.777   1.025
 5475SOL    HW217325   2.451   2.810   0.972
 5476SOL     OW17326   2.439   4.475   5.672
 5476SOL    HW117327   2.392   4.389   5.656
 5476SOL    HW217328   2.409   4.514   5.759
 5477SOL     OW17329   2.004   4.703   2.839
 5477SOL    HW117330   2.095   4.689   2.877
 5477SOL    HW217331   1.952   4.618   2.844
 5478SOL     OW17332   3.330   5.863   4.748
 5478SOL    HW117333   3.234   5.886   4.735
 5478SOL    HW217334   3.355   5.788   4.687
 5479SOL     OW17335   5.436   1.547   5.997
 5479SOL    HW117336   5.440   1.527   6.095
 5479SOL    HW217337   5.500   1.621   5.976
 5480SOL     OW17338   5.721   4.756   3.394
 5480SOL    HW117339   5.819   4.760   3.416
 5480SOL    HW217340   5.668   4.794   3.469
 5481SOL     OW17341   4.211   1.762   4.020
 5481SOL    HW117342   4.214   1.678   3.966
 5481SOL    HW217343   4.244   1.838   3.964
 5482SOL     OW17344   3.631   4.323   1.783
 5482SOL    HW117345   3.608   4.418   1.806
 5482SOL    HW217346   3.550   4.266   1.797
 5483SOL     OW17347   7.014   1.569   5.574
 5483SOL    HW117348   0.078   1.580   5.627
 5483SOL    HW217349   0.015   1.524   5.487
 5484SOL     OW17350   4.002   1.413   4.005
 5484SOL    HW117351   3.967   1.396   3.912
 5484SOL    HW217352   3.984   1.508   4.030
 5485SOL     OW17353   3.802   0.066   4.908
 5485SOL    HW117354   3.900   0.065   4.887
 5485SOL    HW217355   3.776   7.000   4.952
 5486SOL     OW17356   2.236   6.147   5.393
 5486SOL    HW117357   2.332   6.122   5.406
 5486SOL    HW217358   2.193   6.080   5.331
 5487SOL     OW17359   4.891   2.385   6.973
 5487SOL    HW117360   4.792   2.395   6.980
 5487SOL    HW217361   4.926   2.339   0.034
 5488SOL     OW17362   6.221   0.515   1.222
 5488SOL    HW117363   6.242   0.553   1.132
 5488SOL    HW217364   6.255   0.420   1.227
 5489SOL     OW17365   0.247   4.728   1.420
 5489SOL    HW117366   0.299   4.647   1.445
 5489SOL    HW217367   0.243   4.736   1.320
 5490SOL     OW17368   3.465   0.412   2.285
 5490SOL    HW117369   3.421   0.337   2.236
 5490SOL    HW217370   3.417   0.498   2.265
 5491SOL     OW17371   1.134   2.962   0.243
 5491SOL    HW117372   1.135   2.863   0.246
 5491SOL    HW217373   1.089   2.993   0.159
 5492SOL     OW17374   0.872   3.844   6.408
 5492SOL    HW117375   0.818   3.764   6.433
 5492SOL    HW217376   0.818   3.927   6.420
 5493SOL     OW17377   3.403   4.071   3.796
 5493SOL    HW117378   3.477   4.009   3.824
 5493SOL    HW217379   3.356   4.106   3.877
 5494SOL     OW17380   0.824   3.962   5.764
 5494SOL    HW117381   0.757   3.892   5.788
 5494SOL    HW217382   0.777   4.048   5.743
 5495SOL     OW17383   5.648   1.349   0.612
 5495SOL    HW117384   5.642   1.419   0.683
 5495SOL    HW217385   5.731   1.364   0.557
 5496SOL     OW17386   4.047   0.865   3.529
 5496SOL    HW117387   4.113   0.911   3.588
 5496SOL    HW217388   3.958   0.910   3.537
 5497SOL     OW17389   6.908   0.845   5.031
 5497SOL    HW117390   6.938   0.926   5.080
 5497SOL    HW217391   6.866   0.872   4.944
 5498SOL     OW17392   6.847   5.387   1.478
 5498SOL    HW117393   6.898   5.312   1.434
 5498SOL    HW217394   6.911   5.453   1.517
 5499SOL     OW17395   0.940   0.696   4.661
 5499SOL    HW117396   0.912   0.637   4.586
 5499SOL    HW217397   0.932   0.647   4.748
 5500SOL     OW17398   0.634   0.509   7.000
 5500SOL    HW117399   0.668   0.419   0.007
 5500SOL    HW217400   0.708   0.575   7.005
 5501SOL     OW17401   3.516   1.532   6.407
 5501SOL    HW117402   3.531   1.548   6.505
 5501SOL    HW217403   3.558   1.606   6.355
 5502SOL     OW17404   4.788   3.752   0.238
 5502SOL    HW117405   4.866   3.777   0.180
 5502SOL    HW217406   4.749   3.666   0.206
 5503SOL     OW17407   6.901   4.210   0.975
 5503SOL    HW117408   6.844   4.285   0.942
 5503SOL    HW217409   6.921   4.223   1.072
 5504SOL     OW17410   4.734   1.589   5.260
 5504SOL    HW117411   4.766   1.662   5.321
 5504SOL    HW217412   4.654   1.621   5.210
 5505SOL     OW17413   2.005   5.254   4.018
 5505SOL    HW117414   2.005   5.248   4.118
 5505SOL    HW217415   2.049   5.174   3.980
 5506SOL     OW17416   0.590   3.673   0.585
 5506SOL    HW117417   0.600   3.670   0.685
 5506SOL    HW217418   0.645   3.601   0.544
 5507SOL     OW17419   4.304   1.012   5.039
 5507SOL    HW117420   4.259   1.098   5.063
 5507SOL    HW217421   4.325   0.960   5.122
 5508SOL     OW17422   1.515   1.245   0.651
 5508SOL    HW117423   1.478   1.319   0.594
 5508SOL    HW217424   1.612   1.232   0.630
 5509SOL     OW17425   0.078   6.131   6.776
 5509SOL    HW117426   0.014   6.058   6.799
 5509SOL    HW217427   0.051   6.172   6.688
 5510SOL     OW17428   4.554   5.453   6.710
 5510SOL    HW117429   4.561   5.353   6.712
 5510SOL    HW217430   4.559   5.485   6.616
 5511SOL     OW17431   0.671   0.008   4.114
 5511SOL    HW117432   0.682   0.076   4.186
 5511SOL    HW217433   0.574   0.001   4.090
 5512SOL     OW17434   5.034   2.206   0.762
 5512SOL    HW117435   4.950   2.259   0.750
 5512SOL    HW217436   5.020   2.136   0.831
 5513SOL     OW17437   3.802   5.157   5.889
 5513SOL    HW117438   3.753   5.181   5.806
 5513SOL    HW217439   3.804   5.235   5.951
 5514SOL     OW17440   3.503   0.545   4.840
 5514SOL    HW117441   3.522   0.450   4.862
 5514SOL    HW217442   3.419   0.551   4.787
 5515SOL     OW17443   0.899   5.674   1.609
 5515SOL    HW117444   0.831   5.703   1.676
 5515SOL    HW217445   0.940   5.754   1.565
 5516SOL     OW17446   1.914   2.781   5.497
 5516SOL    HW117447   1.989   2.731   5.541
 5516SOL    HW217448   1.830   2.726   5.502
 5517SOL     OW17449   2.134   3.706   2.107
 5517SOL    HW117450   2.165   3.663   2.192
 5517SOL    HW217451   2.166   3.652   2.029
 5518SOL     OW17452   5.849   5.555   6.805
 5518SOL    HW117453   5.820   5.634   6.859
 5518SOL    HW217454   5.777   5.530   6.740
 5519SOL     OW17455   5.530   3.177   3.279
 5519SOL    HW117456   5.543   3.264   3.326
 5519SOL    HW217457   5.546   3.189   3.181
 5520SOL     OW17458   6.185   6.799   2.291
 5520SOL    HW117459   6.267   6.851   2.315
 5520SOL    HW217460   6.124   6.794   2.370
 5521SOL     OW17461   4.588   6.424   2.271
 5521SOL    HW117462   4.659   6.476   2.223
 5521SOL    HW217463   4.578   6.460   2.364
 5522SOL     OW17464   6.124   4.875   0.634
 5522SOL    HW117465   6.047   4.824   0.595
 5522SOL    HW217466   6.157   4.827   0.715
 5523SOL     OW17467   3.870   1.619   1.730
 5523SOL    HW117468   3.913   1.548   1.786
 5523SOL    HW217469   3.794   1.661   1.782
 5524SOL     OW17470   4.248   0.214   4.527
 5524SOL    HW117471   4.197   0.253   4.451
 5524SOL    HW217472   4.303   0.137   4.494
 5525SOL     OW17473   0.587   2.476   0.264
 5525SOL    HW117474   0.684   2.451   0.260
 5525SOL    HW217475   0.532   2.393   0.267
 5526SOL     OW17476   5.164   5.212   2.799
 5526SOL    HW117477   5.229   5.138   2.816
 5526SOL    HW217478   5.142   5.258   2.885
 5527SOL     OW17479   4.879   3.570   3.692
 5527SOL    HW117480   4.827   3.615   3.765
 5527SOL    HW217481   4.817   3.512   3.638
 5528SOL     OW17482   1.724   0.888   0.776
 5528SOL    HW117483   1.707   0.956   0.704
 5528SOL    HW217484   1.810   0.841   0.757
 5529SOL     OW17485   3.443   6.724   5.093
 5529SOL    HW117486   3.374   6.791   5.064
 5529SOL    HW217487   3.534   6.763   5.082
 5530SOL     OW17488   6.185   1.976   0.904
 5530SOL    HW117489   6.194   1.892   0.851
 5530SOL    HW217490   6.264   2.035   0.887
 5531SOL     OW17491   3.693   3.394   1.830
 5531SOL    HW117492   3.626   3.375   1.758
 5531SOL    HW217493   3.730   3.487   1.818
 5532SOL     OW17494   1.157   3.429   1.212
 5532SOL    HW117495   1.197   3.410   1.122
 5532SOL    HW217496   1.103   3.513   1.208
 5533SOL     OW17497   3.915   1.842   3.044
 5533SOL    HW117498   3.915   1.888   3.133
 5533SOL    HW217499   3.920   1.911   2.972
 5534SOL     OW17500   0.865   1.912   6.904
 5534SOL    HW117501   0.780   1.963   6.891
 5534SOL    HW217502   0.943   1.974   6.893
 5535SOL     OW17503   1.249   1.077   2.973
 5535SOL    HW117504   1.348   1.062   2.981
 5535SOL    HW217505   1.230   1.174   2.979
 5536SOL     OW17506   3.910   0.512   4.131
 5536SOL    HW117507   3.913   0.581   4.204
 5536SOL    HW217508   3.817   0.504   4.097
 5537SOL     OW17509   3.267   1.317   2.573
 5537SOL    HW117510   3.195   1.273   2.625
 5537SOL    HW217511   3.302   1.395   2.623
 5538SOL     OW17512   3.843   5.750   4.947
 5538SOL    HW117513   3.935   5.721   4.919
 5538SOL    HW217514   3.851   5.817   5.021
 5539SOL     OW17515   1.382   4.355   1.872
 5539SOL    HW117516   1.476   4.380   1.895
 5539SOL    HW217517   1.322   4.434   1.885
 5540SOL     OW17518   4.758   4.742   4.116
 5540SOL    HW117519   4.675   4.730   4.170
 5540SOL    HW217520   4.835   4.697   4.162
 5541SOL     OW17521   4.829   0.210   6.675
 5541SOL    HW117522   4.896   0.189   6.604
 5541SOL    HW217523   4.785   0.126   6.705
 5542SOL     OW17524   4.394   3.496   5.908
 5542SOL    HW117525   4.416   3.435   5.984
 5542SOL    HW217526   4.417   3.452   5.822
 5543SOL     OW17527   4.435   3.703   6.706
 5543SOL    HW117528   4.511   3.692   6.642
 5543SOL    HW217529   4.426   3.799   6.730
 5544SOL     OW17530   5.103   5.381   6.873
 5544SOL    HW117531   5.176   5.325   6.834
 5544SOL    HW217532   5.030   5.392   6.804
 5545SOL     OW17533   4.559   0.617   2.705
 5545SOL    HW117534   4.605   0.542   2.657
 5545SOL    HW217535   4.474   0.640   2.658
 5546SOL     OW17536   0.298   4.659   4.536
 5546SOL    HW117537   0.231   4.732   4.549
 5546SOL    HW217538   0.309   4.608   4.621
 5547SOL     OW17539   3.242   6.843   5.744
 5547SOL    HW117540   3.173   6.886   5.686
 5547SOL    HW217541   3.307   6.912   5.775
 5548SOL     OW17542   6.130   2.729   5.580
 5548SOL    HW117543   6.136   2.743   5.482
 5548SOL    HW217544   6.206   2.775   5.626
 5549SOL     OW17545   4.317   4.805   0.099
 5549SOL    HW117546   4.380   4.876   0.130
 5549SOL    HW217547   4.290   4.749   0.177
 5550SOL     OW17548   2.966   5.456   2.524
 5550SOL    HW117549   3.050   5.424   2.480
 5550SOL    HW217550   2.985   5.477   2.620
 5551SOL     OW17551   1.748   0.935   2.979
 5551SOL    HW117552   1.779   0.959   3.071
 5551SOL    HW217553   1.815   0.966   2.912
 5552SOL     OW17554   0.058   1.128   0.020
 5552SOL    HW117555   0.002   1.048   0.041
 5552SOL    HW217556   0.008   1.189   6.978
 5553SOL     OW17557   3.988   6.593   0.308
 5553SOL    HW117558   3.959   6.551   0.394
 5553SOL    HW217559   3.929   6.561   0.234
 5554SOL     OW17560   2.450   1.797   5.960
 5554SOL    HW117561   2.503   1.829   5.882
 5554SOL    HW217562   2.452   1.866   6.032
 5555SOL     OW17563   0.900   4.837   3.717
 5555SOL    HW117564   0.957   4.819   3.797
 5555SOL    HW217565   0.946   4.803   3.635
 5556SOL     OW17566   0.512   2.692   4.103
 5556SOL    HW117567   0.569   2.677   4.183
 5556SOL    HW217568   0.419   2.658   4.120
 5557SOL     OW17569   3.223   4.932   4.012
 5557SOL    HW117570   3.152   4.873   4.050
 5557SOL    HW217571   3.201   5.028   4.032
 5558SOL     OW17572   5.024   3.248   5.336
 5558SOL    HW117573   4.987   3.332   5.296
 5558SOL    HW217574   4.982   3.169   5.291
 5559SOL     OW17575   2.713   6.820   2.424
 5559SOL    HW117576   2.695   6.876   2.505
 5559SOL    HW217577   2.791   6.760   2.440
 5560SOL     OW17578   0.451   6.664   2.772
 5560SOL    HW117579   0.544   6.637   2.799
 5560SOL    HW217580   0.442   6.763   2.781
 5561SOL     OW17581   2.394   2.080   4.228
 5561SOL    HW117582   2.343   2.101   4.144
 5561SOL    HW217583   2.464   2.011   4.208
 5562SOL     OW17584   1.710   1.812   6.647
 5562SOL    HW117585   1.737   1.802   6.743
 5562SOL    HW217586   1.777   1.870   6.601
 5563SOL     OW17587   4.330   6.319   2.576
 5563SOL    HW117588   4.326   6.236   2.521
 5563SOL    HW217589   4.313   6.297   2.672
 5564SOL     OW17590   5.073   2.426   1.322
 5564SOL    HW117591   5.168   2.457   1.333
 5564SOL    HW217592   5.071   2.329   1.299
 5565SOL     OW17593   4.795   2.076   5.902
 5565SOL    HW117594   4.773   1.980   5.885
 5565SOL    HW217595   4.883   2.082   5.948
 5566SOL     OW17596   0.920   5.785   1.124
 5566SOL    HW117597   0.934   5.686   1.125
 5566SOL    HW217598   0.976   5.827   1.195
 5567SOL     OW17599   0.705   4.929   0.707
 5567SOL    HW117600   0.778   4.884   0.758
 5567SOL    HW217601   0.716   4.910   0.609
 5568SOL     OW17602   4.461   2.750   1.441
 5568SOL    HW117603   4.542   2.711   1.484
 5568SOL    HW217604   4.460   2.849   1.456
 5569SOL     OW17605   4.071   2.067   1.909
 5569SOL    HW117606   3.973   2.071   1.889
 5569SOL    HW217607   4.093   2.133   1.980
 5570SOL     OW17608   6.194   4.786   4.910
 5570SOL    HW117609   6.201   4.703   4.856
 5570SOL    HW217610   6.172   4.763   5.005
 5571SOL     OW17611   0.385   6.448   0.604
 5571SOL    HW117612   0.470   6.417   0.561
 5571SOL    HW217613   0.310   6.389   0.575
 5572SOL     OW17614   3.030   2.489   6.244
 5572SOL    HW117615   2.954   2.447   6.293
 5572SOL    HW217616   2.994   2.552   6.174
 5573SOL     OW17617   1.175   2.721   0.372
 5573SOL    HW117618   1.175   2.795   0.439
 5573SOL    HW217619   1.139   2.638   0.414
 5574SOL     OW17620   6.714   0.763   4.432
 5574SOL    HW117621   6.744   0.831   4.365
 5574SOL    HW217622   6.614   0.761   4.436
 5575SOL     OW17623   1.536   0.840   1.639
 5575SOL    HW117624   1.512   0.784   1.560
 5575SOL    HW217625   1.634   0.834   1.656
 5576SOL     OW17626   6.364   5.316   1.633
 5576SOL    HW117627   6.388   5.222   1.606
 5576SOL    HW217628   6.357   5.321   1.733
 5577SOL     OW17629   2.278   3.487   5.216
 5577SOL    HW117630   2.314   3.492   5.123
 5577SOL    HW217631   2.311   3.566   5.269
 5578SOL     OW17632   3.269   2.965   0.267
 5578SOL    HW117633   3.298   2.945   0.173
 5578SOL    HW217634   3.181   2.920   0.285
 5579SOL     OW17635   5.382   4.195   6.043
 5579SOL    HW117636   5.450   4.241   6.100
 5579SOL    HW217637   5.300   4.253   6.036
 5580SOL     OW17638   4.398   1.654   0.802
 5580SOL    HW117639   4.463   1.582   0.779
 5580SOL    HW217640   4.408   1.679   0.898
 5581SOL     OW17641   2.758   0.453   0.428
 5581SOL    HW117642   2.785   0.411   0.341
 5581SOL    HW217643   2.749   0.552   0.415
 5582SOL     OW17644   3.544   3.799   4.360
 5582SOL    HW117645   3.569   3.753   4.446
 5582SOL    HW217646   3.588   3.889   4.357
 5583SOL     OW17647   4.260   6.928   2.708
 5583SOL    HW117648   4.187   6.955   2.646
 5583SOL    HW217649   4.309   7.009   2.740
 5584SOL     OW17650   5.221   4.227   3.658
 5584SOL    HW117651   5.158   4.194   3.729
 5584SOL    HW217652   5.308   4.253   3.701
 5585SOL     OW17653   5.622   0.277   3.767
 5585SOL    HW117654   5.564   0.355   3.744
 5585SOL    HW217655   5.718   0.302   3.755
 5586SOL     OW17656   1.529   1.649   6.514
 5586SOL    HW117657   1.581   1.699   6.583
 5586SOL    HW217658   1.564   1.672   6.423
 5587SOL     OW17659   3.410   0.192   2.682
 5587SOL    HW117660   3.392   0.102   2.722
 5587SOL    HW217661   3.507   0.214   2.690
 5588SOL     OW17662   1.716   6.485   4.857
 5588SOL    HW117663   1.744   6.553   4.925
 5588SOL    HW217664   1.685   6.531   4.774
 5589SOL     OW17665   5.070   3.231   5.595
 5589SOL    HW117666   5.054   3.256   5.500
 5589SOL    HW217667   5.066   3.132   5.605
 5590SOL     OW17668   6.489   5.635   3.335
 5590SOL    HW117669   6.412   5.675   3.385
 5590SOL    HW217670   6.560   5.705   3.323
 5591SOL     OW17671   5.913   0.539   0.275
 5591SOL    HW117672   5.946   0.609   0.212
 5591SOL    HW217673   5.921   0.574   0.369
 5592SOL     OW17674   1.909   3.377   3.798
 5592SOL    HW117675   1.861   3.364   3.885
 5592SOL    HW217676   1.969   3.298   3.782
 5593SOL     OW17677   0.403   2.292   5.659
 5593SOL    HW117678   0.308   2.322   5.669
 5593SOL    HW217679   0.464   2.363   5.695
 5594SOL     OW17680   2.317   0.986   0.023
 5594SOL    HW117681   2.326   1.061   6.978
 5594SOL    HW217682   2.257   0.915   7.004
 5595SOL     OW17683   6.310   0.600   6.114
 5595SOL    HW117684   6.328   0.601   6.015
 5595SOL    HW217685   6.220   0.562   6.132
 5596SOL     OW17686   5.797   0.497   2.326
 5596SOL    HW117687   5.871   0.447   2.370
 5596SOL    HW217688   5.753   0.439   2.258
 5597SOL     OW17689   5.392   2.330   5.875
 5597SOL    HW117690   5.423   2.342   5.969
 5597SOL    HW217691   5.293   2.343   5.870
 5598SOL     OW17692   4.905   2.057   4.294
 5598SOL    HW117693   4.850   1.981   4.259
 5598SOL    HW217694   4.906   2.055   4.393
 5599SOL     OW17695   5.689   3.927   1.683
 5599SOL    HW117696   5.631   4.006   1.703
 5599SOL    HW217697   5.689   3.908   1.585
 5600SOL     OW17698   2.174   0.204   3.050
 5600SOL    HW117699   2.219   0.228   3.136
 5600SOL    HW217700   2.219   0.251   2.974
 5601SOL     OW17701   5.468   3.063   5.900
 5601SOL    HW117702   5.564   3.085   5.883
 5601SOL    HW217703   5.409   3.129   5.852
 5602SOL     OW17704   0.247   1.512   3.210
 5602SOL    HW117705   0.182   1.436   3.216
 5602SOL    HW217706   0.229   1.564   3.127
 5603SOL     OW17707   4.455   2.644   5.184
 5603SOL    HW117708   4.372   2.616   5.138
 5603SOL    HW217709   4.534   2.627   5.125
 5604SOL     OW17710   0.675   0.164   4.522
 5604SOL    HW117711   0.683   0.177   4.423
 5604SOL    HW217712   0.655   0.068   4.541
 5605SOL     OW17713   0.922   6.837   4.483
 5605SOL    HW117714   0.825   6.858   4.474
 5605SOL    HW217715   0.971   6.867   4.401
 5606SOL     OW17716   4.765   1.425   0.137
 5606SOL    HW117717   4.799   1.466   0.053
 5606SOL    HW217718   4.842   1.401   0.196
 5607SOL     OW17719   5.876   2.716   3.207
 5607SOL    HW117720   5.850   2.623   3.230
 5607SOL    HW217721   5.947   2.715   3.137
 5608SOL     OW17722   6.079   0.307   3.331
 5608SOL    HW117723   6.045   0.328   3.240
 5608SOL    HW217724   6.152   0.370   3.356
 5609SOL     OW17725   4.891   6.559   0.049
 5609SOL    HW117726   4.888   6.655   0.076
 5609SOL    HW217727   4.952   6.509   0.109
 5610SOL     OW17728   5.802   3.917   6.768
 5610SOL    HW117729   5.734   3.847   6.746
 5610SOL    HW217730   5.847   3.947   6.685
 5611SOL     OW17731   0.515   4.840   1.753
 5611SOL    HW117732   0.570   4.788   1.688
 5611SOL    HW217733   0.485   4.925   1.710
 5612SOL     OW17734   3.015   2.713   6.987
 5612SOL    HW117735   2.986   2.759   6.903
 5612SOL    HW217736   3.004   2.775   0.045
 5613SOL     OW17737   0.226   5.363   4.714
 5613SOL    HW117738   0.192   5.335   4.624
 5613SOL    HW217739   0.177   5.445   4.743
 5614SOL     OW17740   5.905   1.711   4.572
 5614SOL    HW117741   5.972   1.678   4.638
 5614SOL    HW217742   5.936   1.797   4.532
 5615SOL     OW17743   0.239   1.852   2.621
 5615SOL    HW117744   0.223   1.783   2.550
 5615SOL    HW217745   0.259   1.806   2.708
 5616SOL     OW17746   1.931   1.877   4.358
 5616SOL    HW117747   1.907   1.869   4.262
 5616SOL    HW217748   2.022   1.918   4.368
 5617SOL     OW17749   1.895   5.334   4.939
 5617SOL    HW117750   1.957   5.395   4.890
 5617SOL    HW217751   1.942   5.250   4.964
 5618SOL     OW17752   6.861   5.156   3.848
 5618SOL    HW117753   6.923   5.221   3.804
 5618SOL    HW217754   6.853   5.179   3.946
 5619SOL     OW17755   3.157   3.072   3.625
 5619SOL    HW117756   3.227   3.136   3.596
 5619SOL    HW217757   3.199   2.998   3.678
 5620SOL     OW17758   4.162   3.649   5.905
 5620SOL    HW117759   4.235   3.581   5.890
 5620SOL    HW217760   4.176   3.694   5.993
 5621SOL     OW17761   1.780   3.074   5.849
 5621SOL    HW117762   1.803   3.034   5.760
 5621SOL    HW217763   1.846   3.044   5.917
 5622SOL     OW17764   4.249   5.763   4.797
 5622SOL    HW117765   4.348   5.752   4.788
 5622SOL    HW217766   4.213   5.692   4.857
 5623SOL     OW17767   4.680   6.458   4.160
 5623SOL    HW117768   4.683   6.424   4.066
 5623SOL    HW217769   4.694   6.557   4.160
 5624SOL     OW17770   0.519   5.262   3.665
 5624SOL    HW117771   0.615   5.262   3.639
 5624SOL    HW217772   0.464   5.300   3.590
 5625SOL     OW17773   0.928   5.737   4.684
 5625SOL    HW117774   0.969   5.789   4.609
 5625SOL    HW217775   0.955   5.779   4.771
 5626SOL     OW17776   2.042   4.468   4.233
 5626SOL    HW117777   2.044   4.368   4.232
 5626SOL    HW217778   2.082   4.504   4.149
 5627SOL     OW17779   0.942   5.974   6.346
 5627SOL    HW117780   0.909   5.955   6.253
 5627SOL    HW217781   0.869   6.018   6.399
 5628SOL     OW17782   2.723   3.380   0.608
 5628SOL    HW117783   2.625   3.375   0.594
 5628SOL    HW217784   2.749   3.473   0.633
 5629SOL     OW17785   4.019   3.585   1.062
 5629SOL    HW117786   3.984   3.667   1.017
 5629SOL    HW217787   3.994   3.585   1.158
 5630SOL     OW17788   1.739   4.140   6.355
 5630SOL    HW117789   1.804   4.102   6.290
 5630SOL    HW217790   1.645   4.122   6.324
 5631SOL     OW17791   4.789   1.034   2.017
 5631SOL    HW117792   4.825   0.946   1.988
 5631SOL    HW217793   4.717   1.020   2.085
 5632SOL     OW17794   5.101   1.058   5.993
 5632SOL    HW117795   5.191   1.063   6.035
 5632SOL    HW217796   5.031   1.050   6.065
 5633SOL     OW17797   0.407   5.101   4.569
 5633SOL    HW117798   0.442   5.008   4.581
 5633SOL    HW217799   0.447   5.161   4.638
 5634SOL     OW17800   2.539   5.142   5.552
 5634SOL    HW117801   2.631   5.147   5.513
 5634SOL    HW217802   2.538   5.185   5.642
 5635SOL     OW17803   3.105   6.965   6.694
 5635SOL    HW117804   3.072   0.021   6.750
 5635SOL    HW217805   3.196   6.987   6.659
 5636SOL     OW17806   5.639   1.320   5.630
 5636SOL    HW117807   5.590   1.291   5.547
 5636SOL    HW217808   5.631   1.249   5.699
 5637SOL     OW17809   5.874   6.307   4.412
 5637SOL    HW117810   5.787   6.345   4.380
 5637SOL    HW217811   5.946   6.375   4.402
 5638SOL     OW17812   5.105   6.276   1.721
 5638SOL    HW117813   5.125   6.372   1.741
 5638SOL    HW217814   5.117   6.259   1.624
 5639SOL     OW17815   1.862   0.231   1.701
 5639SOL    HW117816   1.933   0.301   1.711
 5639SOL    HW217817   1.858   0.201   1.606
 5640SOL     OW17818   2.524   6.740   2.888
 5640SOL    HW117819   2.485   6.802   2.820
 5640SOL    HW217820   2.485   6.762   2.978
 5641SOL     OW17821   0.535   4.502   5.625
 5641SOL    HW117822   0.560   4.433   5.557
 5641SOL    HW217823   0.535   4.461   5.716
 5642SOL     OW17824   0.487   5.123   6.191
 5642SOL    HW117825   0.491   5.195   6.122
 5642SOL    HW217826   0.580   5.104   6.224
 5643SOL     OW17827   3.593   1.229   4.699
 5643SOL    HW117828   3.677   1.282   4.690
 5643SOL    HW217829   3.514   1.288   4.686
 5644SOL     OW17830   5.242   1.884   4.424
 5644SOL    HW117831   5.206   1.950   4.357
 5644SOL    HW217832   5.331   1.916   4.457
 5645SOL     OW17833   5.809   4.202   2.740
 5645SOL    HW117834   5.837   4.128   2.801
 5645SOL    HW217835   5.710   4.213   2.745
 5646SOL     OW17836   1.205   5.513   3.964
 5646SOL    HW117837   1.263   5.517   4.045
 5646SOL    HW217838   1.137   5.586   3.968
 5647SOL     OW17839   6.675   6.052   6.624
 5647SOL    HW117840   6.680   6.136   6.678
 5647SOL    HW217841   6.639   5.978   6.681
 5648SOL     OW17842   1.872   1.075   3.198
 5648SOL    HW117843   1.931   1.005   3.239
 5648SOL    HW217844   1.920   1.163   3.196
 5649SOL     OW17845   1.411   0.294   4.905
 5649SOL    HW117846   1.473   0.359   4.862
 5649SOL    HW217847   1.316   0.318   4.884
 5650SOL     OW17848   0.127   4.674   1.137
 5650SOL    HW117849   0.138   4.756   1.081
 5650SOL    HW217850   0.057   4.690   1.207
 5651SOL     OW17851   0.381   1.886   1.382
 5651SOL    HW117852   0.370   1.891   1.481
 5651SOL    HW217853   0.295   1.854   1.341
 5652SOL     OW17854   4.902   6.084   2.593
 5652SOL    HW117855   4.837   6.148   2.634
 5652SOL    HW217856   4.859   6.040   2.513
 5653SOL     OW17857   0.121   6.598   6.690
 5653SOL    HW117858   0.029   6.580   6.726
 5653SOL    HW217859   0.115   6.665   6.616
 5654SOL     OW17860   0.661   0.433   6.238
 5654SOL    HW117861   0.564   0.413   6.251
 5654SOL    HW217862   0.675   0.532   6.241
 5655SOL     OW17863   0.877   3.006   4.498
 5655SOL    HW117864   0.954   2.951   4.529
 5655SOL    HW217865   0.792   2.953   4.507
 5656SOL     OW17866   3.149   4.980   0.983
 5656SOL    HW117867   3.130   5.013   1.076
 5656SOL    HW217868   3.245   4.996   0.961
 5657SOL     OW17869   4.717   6.743   1.415
 5657SOL    HW117870   4.702   6.788   1.327
 5657SOL    HW217871   4.761   6.807   1.478
 5658SOL     OW17872   2.598   6.873   6.124
 5658SOL    HW117873   2.631   6.939   6.191
 5658SOL    HW217874   2.536   6.808   6.169
 5659SOL     OW17875   3.043   3.166   3.122
 5659SOL    HW117876   3.003   3.235   3.183
 5659SOL    HW217877   2.987   3.083   3.125
 5660SOL     OW17878   5.552   0.675   6.914
 5660SOL    HW117879   5.612   0.626   6.977
 5660SOL    HW217880   5.518   0.612   6.844
 5661SOL     OW17881   6.976   5.133   5.653
 5661SOL    HW117882   0.049   5.102   5.633
 5661SOL    HW217883   6.980   5.220   5.702
 5662SOL     OW17884   2.338   5.042   4.208
 5662SOL    HW117885   2.252   5.000   4.237
 5662SOL    HW217886   2.330   5.141   4.214
 5663SOL     OW17887   1.302   4.068   6.813
 5663SOL    HW117888   1.272   3.980   6.777
 5663SOL    HW217889   1.240   4.098   6.885
 5664SOL     OW17890   0.265   3.844   3.592
 5664SOL    HW117891   0.171   3.813   3.579
 5664SOL    HW217892   0.305   3.799   3.671
 5665SOL     OW17893   1.665   1.420   6.753
 5665SOL    HW117894   1.727   1.456   6.823
 5665SOL    HW217895   1.714   1.414   6.666
 5666SOL     OW17896   4.865   5.971   1.163
 5666SOL    HW117897   4.947   5.962   1.220
 5666SOL    HW217898   4.889   5.955   1.067
 5667SOL     OW17899   0.635   4.769   3.637
 5667SOL    HW117900   0.705   4.827   3.678
 5667SOL    HW217901   0.557   4.826   3.610
 5668SOL     OW17902   5.684   2.080   6.552
 5668SOL    HW117903   5.775   2.039   6.552
 5668SOL    HW217904   5.690   2.174   6.520
 5669SOL     OW17905   0.485   3.880   6.277
 5669SOL    HW117906   0.541   3.871   6.195
 5669SOL    HW217907   0.441   3.792   6.298
 5670SOL     OW17908   6.995   3.158   3.727
 5670SOL    HW117909   7.003   3.146   3.826
 5670SOL    HW217910   6.899   3.173   3.703
 5671SOL     OW17911   1.213   6.984   6.467
 5671SOL    HW117912   1.141   0.022   6.429
 5671SOL    HW217913   1.283   0.022   6.510
 5672SOL     OW17914   4.436   4.807   6.212
 5672SOL    HW117915   4.452   4.748   6.133
 5672SOL    HW217916   4.351   4.780   6.257
 5673SOL     OW17917   0.683   0.004   1.696
 5673SOL    HW117918   0.730   6.963   1.759
 5673SOL    HW217919   0.588   6.995   1.686
 5674SOL     OW17920   6.983   3.813   2.044
 5674SOL    HW117921   6.936   3.848   1.962
 5674SOL    HW217922   6.953   3.865   2.124
 5675SOL     OW17923   4.108   2.445   5.689
 5675SOL    HW117924   4.084   2.443   5.786
 5675SOL    HW217925   4.142   2.536   5.665
 5676SOL     OW17926   2.268   1.248   1.841
 5676SOL    HW117927   2.173   1.255   1.872
 5676SOL    HW217928   2.290   1.326   1.783
 5677SOL     OW17929   0.841   2.060   3.387
 5677SOL    HW117930   0.886   1.971   3.394
 5677SOL    HW217931   0.874   2.107   3.305
 5678SOL     OW17932   3.427   6.617   2.885
 5678SOL    HW117933   3.415   6.673   2.803
 5678SOL    HW217934   3.374   6.656   2.960
 5679SOL     OW17935   1.774   6.877   4.406
 5679SOL    HW117936   1.688   6.902   4.451
 5679SOL    HW217937   1.837   6.955   4.410
 5680SOL     OW17938   1.706   5.632   0.519
 5680SOL    HW117939   1.715   5.691   0.599
 5680SOL    HW217940   1.623   5.576   0.527
 5681SOL     OW17941   1.441   3.453   6.589
 5681SOL    HW117942   1.346   3.423   6.581
 5681SOL    HW217943   1.497   3.402   6.524
 5682SOL     OW17944   2.421   4.183   5.922
 5682SOL    HW117945   2.401   4.090   5.891
 5682SOL    HW217946   2.353   4.211   5.989
 5683SOL     OW17947   4.556   2.082   6.394
 5683SOL    HW117948   4.539   2.037   6.482
 5683SOL    HW217949   4.603   2.018   6.332
 5684SOL     OW17950   4.117   3.482   4.756
 5684SOL    HW117951   4.132   3.572   4.795
 5684SOL    HW217952   4.139   3.412   4.824
 5685SOL     OW17953   1.073   4.462   1.508
 5685SOL    HW117954   1.024   4.548   1.493
 5685SOL    HW217955   1.011   4.385   1.497
 5686SOL     OW17956   3.335   0.686   0.082
 5686SOL    HW117957   3.428   0.719   0.093
 5686SOL    HW217958   3.336   0.598   0.035
 5687SOL     OW17959   6.417   3.842   4.795
 5687SOL    HW117960   6.433   3.859   4.893
 5687SOL    HW217961   6.328   3.879   4.769
 5688SOL     OW17962   6.228   1.653   0.381
 5688SOL    HW117963   6.310   1.708   0.400
 5688SOL    HW217964   6.234   1.567   0.431
 5689SOL     OW17965   4.128   1.181   0.180
 5689SOL    HW117966   4.074   1.260   0.208
 5689SOL    HW217967   4.224   1.196   0.205
 5690SOL     OW17968   2.925   6.353   0.931
 5690SOL    HW117969   2.851   6.388   0.874
 5690SOL    HW217970   3.001   6.418   0.930
 5691SOL     OW17971   3.171   6.242   2.289
 5691SOL    HW117972   3.202   6.182   2.215
 5691SOL    HW217973   3.088   6.204   2.330
 5692SOL     OW17974   6.860   2.142   5.964
 5692SOL    HW117975   6.815   2.125   6.052
 5692SOL    HW217976   6.916   2.063   5.939
 5693SOL     OW17977   5.346   2.985   2.056
 5693SOL    HW117978   5.270   3.037   2.096
 5693SOL    HW217979   5.376   3.029   1.971
 5694SOL     OW17980   0.647   0.944   3.596
 5694SOL    HW117981   0.563   0.962   3.646
 5694SOL    HW217982   0.719   1.006   3.628
 5695SOL     OW17983   1.310   2.340   3.120
 5695SOL    HW117984   1.305   2.429   3.164
 5695SOL    HW217985   1.317   2.352   3.021
 5696SOL     OW17986   1.839   0.250   3.376
 5696SOL    HW117987   1.777   0.199   3.436
 5696SOL    HW217988   1.815   0.232   3.281
 5697SOL     OW17989   6.070   1.788   1.100
 5697SOL    HW117990   5.981   1.775   1.057
 5697SOL    HW217991   6.105   1.879   1.077
 5698SOL     OW17992   0.479   2.266   2.379
 5698SOL    HW117993   0.554   2.316   2.422
 5698SOL    HW217994   0.445   2.317   2.300
 5699SOL     OW17995   6.637   2.009   3.542
 5699SOL    HW117996   6.618   2.029   3.446
 5699SOL    HW217997   6.735   1.992   3.554
 5700SOL     OW17998   6.729   6.049   4.936
 5700SOL    HW117999   6.735   5.972   4.999
 5700SOL    HW218000   6.645   6.043   4.884
 5701SOL     OW18001   1.097   5.680   3.546
 5701SOL    HW118002   1.163   5.605   3.541
 5701SOL    HW218003   1.086   5.721   3.456
 5702SOL     OW18004   1.909   6.996   5.894
 5702SOL    HW118005   1.910   0.070   5.928
 5702SOL    HW218006   1.863   6.938   5.960
 5703SOL     OW18007   4.904   4.378   0.595
 5703SOL    HW118008   4.964   4.337   0.527
 5703SOL    HW218009   4.956   4.442   0.652
 5704SOL     OW18010   4.168   5.582   2.440
 5704SOL    HW118011   4.085   5.573   2.385
 5704SOL    HW218012   4.224   5.500   2.428
 5705SOL     OW18013   5.943   1.171   0.083
 5705SOL    HW118014   5.995   1.254   0.103
 5705SOL    HW218015   5.950   1.150   7.006
 5706SOL     OW18016   1.490   1.550   0.633
 5706SOL    HW118017   1.410   1.590   0.679
 5706SOL    HW218018   1.532   1.618   0.573
 5707SOL     OW18019   0.851   0.015   0.083
 5707SOL    HW118020   0.810   7.012   7.014
 5707SOL    HW218021   0.809   6.978   0.154
 5708SOL     OW18022   5.477   6.825   1.636
 5708SOL    HW118023   5.483   6.726   1.647
 5708SOL    HW218024   5.457   6.847   1.541
 5709SOL     OW18025   0.999   6.394   3.650
 5709SOL    HW118026   1.000   6.444   3.563
 5709SOL    HW218027   0.920   6.332   3.652
 5710SOL     OW18028   2.429   3.348   5.494
 5710SOL    HW118029   2.473   3.430   5.531
 5710SOL    HW218030   2.378   3.373   5.411
 5711SOL     OW18031   5.295   0.406   3.166
 5711SOL    HW118032   5.364   0.335   3.181
 5711SOL    HW218033   5.320   0.488   3.219
 5712SOL     OW18034   0.540   6.538   5.722
 5712SOL    HW118035   0.566   6.626   5.682
 5712SOL    HW218036   0.464   6.499   5.669
 5713SOL     OW18037   1.487   2.108   1.050
 5713SOL    HW118038   1.495   2.027   0.993
 5713SOL    HW218039   1.520   2.087   1.142
 5714SOL     OW18040   1.214   6.776   0.198
 5714SOL    HW118041   1.145   6.770   0.126
 5714SOL    HW218042   1.305   6.760   0.158
 5715SOL     OW18043   1.404   5.766   3.468
 5715SOL    HW118044   1.360   5.849   3.502
 5715SOL    HW218045   1.413   5.771   3.368
 5716SOL     OW18046   1.146   3.618   5.461
 5716SOL    HW118047   1.063   3.643   5.412
 5716SOL    HW218048   1.165   3.686   5.532
 5717SOL     OW18049   1.333   5.624   0.074
 5717SOL    HW118050   1.404   5.556   0.060
 5717SOL    HW218051   1.361   5.711   0.033
 5718SOL     OW18052   1.476   4.187   6.298
 5718SOL    HW118053   1.407   4.238   6.348
 5718SOL    HW218054   1.488   4.097   6.340
 5719SOL     OW18055   2.438   1.359   6.186
 5719SOL    HW118056   2.534   1.384   6.170
 5719SOL    HW218057   2.428   1.260   6.179
 5720SOL     OW18058   0.584   4.666   5.058
 5720SOL    HW118059   0.605   4.623   4.970
 5720SOL    HW218060   0.500   4.626   5.094
 5721SOL     OW18061   0.790   3.913   0.529
 5721SOL    HW118062   0.722   3.869   0.470
 5721SOL    HW218063   0.761   3.904   0.625
 5722SOL     OW18064   5.498   1.813   5.339
 5722SOL    HW118065   5.542   1.724   5.327
 5722SOL    HW218066   5.407   1.800   5.378
 5723SOL     OW18067   4.293   3.879   0.314
 5723SOL    HW118068   4.253   3.875   0.222
 5723SOL    HW218069   4.374   3.820   0.317
 5724SOL     OW18070   3.997   2.244   5.246
 5724SOL    HW118071   4.058   2.322   5.239
 5724SOL    HW218072   4.028   2.171   5.185
 5725SOL     OW18073   5.113   6.104   3.370
 5725SOL    HW118074   5.107   6.023   3.430
 5725SOL    HW218075   5.206   6.111   3.334
 5726SOL     OW18076   6.426   3.199   3.469
 5726SOL    HW118077   6.355   3.164   3.531
 5726SOL    HW218078   6.493   3.127   3.451
 5727SOL     OW18079   6.589   3.553   3.258
 5727SOL    HW118080   6.591   3.653   3.259
 5727SOL    HW218081   6.612   3.520   3.166
 5728SOL     OW18082   4.808   1.628   6.078
 5728SOL    HW118083   4.877   1.582   6.022
 5728SOL    HW218084   4.800   1.580   6.166
 5729SOL     OW18085   1.331   1.665   0.846
 5729SOL    HW118086   1.253   1.716   0.810
 5729SOL    HW218087   1.298   1.592   0.905
 5730SOL     OW18088   4.281   5.509   5.377
 5730SOL    HW118089   4.325   5.507   5.466
 5730SOL    HW218090   4.339   5.463   5.310
 5731SOL     OW18091   2.228   6.543   3.888
 5731SOL    HW118092   2.200   6.638   3.904
 5731SOL    HW218093   2.319   6.528   3.926
 5732SOL     OW18094   6.579   4.405   5.178
 5732SOL    HW118095   6.513   4.426   5.106
 5732SOL    HW218096   6.606   4.309   5.172
 5733SOL     OW18097   3.493   0.735   5.549
 5733SOL    HW118098   3.549   0.718   5.630
 5733SOL    HW218099   3.470   0.832   5.543
 5734SOL     OW18100   1.366   6.527   6.437
 5734SOL    HW118101   1.315   6.496   6.356
 5734SOL    HW218102   1.424   6.453   6.470
 5735SOL     OW18103   3.255   1.628   2.437
 5735SOL    HW118104   3.297   1.538   2.426
 5735SOL    HW218105   3.296   1.692   2.371
 5736SOL     OW18106   5.296   4.606   0.396
 5736SOL    HW118107   5.355   4.675   0.438
 5736SOL    HW218108   5.352   4.529   0.366
 5737SOL     OW18109   5.605   6.443   0.660
 5737SOL    HW118110   5.692   6.456   0.707
 5737SOL    HW218111   5.580   6.346   0.662
 5738SOL     OW18112   3.576   1.567   6.675
 5738SOL    HW118113   3.613   1.658   6.694
 5738SOL    HW218114   3.642   1.497   6.704
 5739SOL     OW18115   1.256   6.862   5.697
 5739SOL    HW118116   1.244   6.852   5.796
 5739SOL    HW218117   1.345   6.825   5.670
 5740SOL     OW18118   4.351   3.647   1.316
 5740SOL    HW118119   4.412   3.633   1.238
 5740SOL    HW218120   4.404   3.679   1.395
 5741SOL     OW18121   0.078   3.949   4.235
 5741SOL    HW118122   0.176   3.957   4.255
 5741SOL    HW218123   0.060   3.863   4.187
 5742SOL     OW18124   4.631   6.840   3.355
 5742SOL    HW118125   4.661   6.796   3.439
 5742SOL    HW218126   4.699   6.827   3.283
 5743SOL     OW18127   3.481   5.652   5.521
 5743SOL    HW118128   3.438   5.647   5.430
 5743SOL    HW218129   3.503   5.747   5.542
 5744SOL     OW18130   5.667   1.218   2.514
 5744SOL    HW118131   5.589   1.244   2.457
 5744SOL    HW218132   5.664   1.120   2.532
 5745SOL     OW18133   2.575   0.730   4.116
 5745SOL    HW118134   2.490   0.777   4.092
 5745SOL    HW218135   2.653   0.788   4.094
 5746SOL     OW18136   4.814   6.703   2.058
 5746SOL    HW118137   4.895   6.734   2.107
 5746SOL    HW218138   4.737   6.763   2.079
 5747SOL     OW18139   0.815   5.449   1.862
 5747SOL    HW118140   0.866   5.536   1.868
 5747SOL    HW218141   0.789   5.420   1.954
 5748SOL     OW18142   2.050   0.104   0.929
 5748SOL    HW118143   1.994   0.144   0.857
 5748SOL    HW218144   2.058   0.005   0.914
 5749SOL     OW18145   1.697   6.455   5.363
 5749SOL    HW118146   1.727   6.533   5.308
 5749SOL    HW218147   1.738   6.371   5.326
 5750SOL     OW18148   6.137   6.013   5.696
 5750SOL    HW118149   6.161   5.916   5.685
 5750SOL    HW218150   6.049   6.020   5.743
 5751SOL     OW18151   2.295   2.747   5.186
 5751SOL    HW118152   2.300   2.723   5.090
 5751SOL    HW218153   2.339   2.836   5.201
 5752SOL     OW18154   5.444   0.173   0.559
 5752SOL    HW118155   5.434   0.271   0.545
 5752SOL    HW218156   5.441   0.126   0.471
 5753SOL     OW18157   2.956   3.868   4.528
 5753SOL    HW118158   2.882   3.933   4.510
 5753SOL    HW218159   3.044   3.916   4.525
 5754SOL     OW18160   1.080   5.719   1.380
 5754SOL    HW118161   1.134   5.636   1.369
 5754SOL    HW218162   0.983   5.696   1.376
 5755SOL     OW18163   1.685   2.027   5.988
 5755SOL    HW118164   1.674   1.997   5.893
 5755SOL    HW218165   1.764   2.088   5.994
 5756SOL     OW18166   0.352   0.599   2.757
 5756SOL    HW118167   0.331   0.645   2.671
 5756SOL    HW218168   0.448   0.571   2.758
 5757SOL     OW18169   0.599   5.602   4.345
 5757SOL    HW118170   0.609   5.674   4.413
 5757SOL    HW218171   0.630   5.515   4.384
 5758SOL     OW18172   2.438   1.414   2.890
 5758SOL    HW118173   2.365   1.438   2.954
 5758SOL    HW218174   2.494   1.341   2.929
 5759SOL     OW18175   4.761   1.045   0.373
 5759SOL    HW118176   4.694   1.042   0.447
 5759SOL    HW218177   4.852   1.059   0.411
 5760SOL     OW18178   6.416   2.264   1.216
 5760SOL    HW118179   6.464   2.178   1.232
 5760SOL    HW218180   6.338   2.248   1.156
 5761SOL     OW18181   5.842   5.210   5.840
 5761SOL    HW118182   5.838   5.166   5.929
 5761SOL    HW218183   5.802   5.302   5.845
 5762SOL     OW18184   4.616   4.532   0.863
 5762SOL    HW118185   4.595   4.625   0.834
 5762SOL    HW218186   4.648   4.533   0.958
 5763SOL     OW18187   5.883   6.154   1.218
 5763SOL    HW118188   5.853   6.111   1.303
 5763SOL    HW218189   5.803   6.185   1.166
 5764SOL     OW18190   4.519   5.045   4.387
 5764SOL    HW118191   4.544   4.956   4.424
 5764SOL    HW218192   4.596   5.082   4.334
 5765SOL     OW18193   5.993   3.524   0.339
 5765SOL    HW118194   5.995   3.424   0.336
 5765SOL    HW218195   6.061   3.557   0.404
 5766SOL     OW18196   1.514   2.023   5.138
 5766SOL    HW118197   1.528   1.932   5.099
 5766SOL    HW218198   1.549   2.092   5.075
 5767SOL     OW18199   2.621   0.397   0.694
 5767SOL    HW118200   2.662   0.441   0.614
 5767SOL    HW218201   2.685   0.401   0.771
 5768SOL     OW18202   0.417   6.986   3.529
 5768SOL    HW118203   0.397   0.059   3.499
 5768SOL    HW218204   0.338   6.950   3.579
 5769SOL     OW18205   2.637   5.649   4.684
 5769SOL    HW118206   2.716   5.690   4.731
 5769SOL    HW218207   2.634   5.551   4.703
 5770SOL     OW18208   6.814   6.791   6.566
 5770SOL    HW118209   6.811   6.887   6.591
 5770SOL    HW218210   6.787   6.735   6.644
 5771SOL     OW18211   1.311   6.964   4.229
 5771SOL    HW118212   1.381   7.018   4.276
 5771SOL    HW218213   1.354   6.893   4.174
 5772SOL     OW18214   5.462   0.999   0.861
 5772SOL    HW118215   5.509   1.027   0.945
 5772SOL    HW218216   5.364   1.017   0.869
 5773SOL     OW18217   4.485   1.109   3.570
 5773SOL    HW118218   4.530   1.021   3.554
 5773SOL    HW218219   4.542   1.164   3.631
 5774SOL     OW18220   3.105   0.325   4.459
 5774SOL    HW118221   3.034   0.291   4.521
 5774SOL    HW218222   3.095   0.282   4.369
 5775SOL     OW18223   1.108   0.369   2.294
 5775SOL    HW118224   1.049   0.442   2.329
 5775SOL    HW218225   1.130   0.306   2.368
 5776SOL     OW18226   0.517   6.748   3.775
 5776SOL    HW118227   0.430   6.760   3.822
 5776SOL    HW218228   0.573   6.830   3.785
 5777SOL     OW18229   0.566   0.592   4.896
 5777SOL    HW118230   0.467   0.598   4.905
 5777SOL    HW218231   0.594   0.497   4.909
 5778SOL     OW18232   1.706   0.395   0.407
 5778SOL    HW118233   1.726   0.434   0.497
 5778SOL    HW218234   1.670   0.466   0.347
 5779SOL     OW18235   4.771   2.830   0.793
 5779SOL    HW118236   4.767   2.740   0.749
 5779SOL    HW218237   4.728   2.898   0.733
 5780SOL     OW18238   6.224   5.915   3.867
 5780SOL    HW118239   6.229   5.929   3.966
 5780SOL    HW218240   6.199   5.820   3.848
 5781SOL     OW18241   0.074   4.835   4.682
 5781SOL    HW118242   0.053   4.931   4.701
 5781SOL    HW218243   0.123   4.796   4.760
 5782SOL     OW18244   2.043   1.806   0.594
 5782SOL    HW118245   2.105   1.736   0.559
 5782SOL    HW218246   2.034   1.796   0.693
 5783SOL     OW18247   1.114   0.799   1.592
 5783SOL    HW118248   1.170   0.850   1.526
 5783SOL    HW218249   1.150   0.707   1.603
 5784SOL     OW18250   0.242   6.715   5.578
 5784SOL    HW118251   0.295   6.631   5.563
 5784SOL    HW218252   0.148   6.690   5.602
 5785SOL     OW18253   2.409   2.064   0.463
 5785SOL    HW118254   2.328   2.026   0.418
 5785SOL    HW218255   2.413   2.162   0.447
 5786SOL     OW18256   0.402   3.685   0.357
 5786SOL    HW118257   0.446   3.685   0.446
 5786SOL    HW218258   0.324   3.748   0.359
 5787SOL     OW18259   2.458   1.367   4.709
 5787SOL    HW118260   2.383   1.433   4.701
 5787SOL    HW218261   2.522   1.381   4.633
 5788SOL     OW18262   2.736   1.599   1.602
 5788SOL    HW118263   2.740   1.699   1.613
 5788SOL    HW218264   2.829   1.563   1.594
 5789SOL     OW18265   3.436   4.894   0.185
 5789SOL    HW118266   3.505   4.831   0.221
 5789SOL    HW218267   3.359   4.899   0.249
 5790SOL     OW18268   1.518   4.279   4.831
 5790SOL    HW118269   1.486   4.366   4.868
 5790SOL    HW218270   1.591   4.294   4.765
 5791SOL     OW18271   4.062   1.116   2.237
 5791SOL    HW118272   4.143   1.058   2.225
 5791SOL    HW218273   4.070   1.198   2.181
 5792SOL     OW18274   6.343   3.144   2.412
 5792SOL    HW118275   6.350   3.049   2.440
 5792SOL    HW218276   6.379   3.154   2.319
 5793SOL     OW18277   5.299   1.033   3.886
 5793SOL    HW118278   5.239   0.954   3.873
 5793SOL    HW218279   5.299   1.058   3.983
 5794SOL     OW18280   2.843   1.332   0.335
 5794SOL    HW118281   2.830   1.233   0.342
 5794SOL    HW218282   2.759   1.374   0.299
 5795SOL     OW18283   6.708   6.630   0.365
 5795SOL    HW118284   6.691   6.717   0.411
 5795SOL    HW218285   6.787   6.639   0.305
 5796SOL     OW18286   3.945   1.699   6.907
 5796SOL    HW118287   3.978   1.744   6.824
 5796SOL    HW218288   4.019   1.644   6.946
 5797SOL     OW18289   4.827   2.679   6.185
 5797SOL    HW118290   4.741   2.663   6.234
 5797SOL    HW218291   4.833   2.616   6.108
 5798SOL     OW18292   0.890   4.617   5.333
 5798SOL    HW118293   0.815   4.684   5.338
 5798SOL    HW218294   0.937   4.613   5.421
 5799SOL     OW18295   0.106   0.496   2.353
 5799SOL    HW118296   0.147   0.497   2.262
 5799SOL    HW218297   0.037   0.568   2.359
 5800SOL     OW18298   6.221   6.356   1.949
 5800SOL    HW118299   6.283   6.359   1.871
 5800SOL    HW218300   6.216   6.262   1.985
 5801SOL     OW18301   1.837   2.384   3.076
 5801SOL    HW118302   1.837   2.292   3.115
 5801SOL    HW218303   1.924   2.429   3.097
 5802SOL     OW18304   1.360   4.685   1.766
 5802SOL    HW118305   1.457   4.701   1.782
 5802SOL    HW218306   1.311   4.772   1.765
 5803SOL     OW18307   2.390   4.782   2.470
 5803SOL    HW118308   2.365   4.771   2.374
 5803SOL    HW218309   2.325   4.730   2.527
 5804SOL     OW18310   0.480   5.003   4.133
 5804SOL    HW118311   0.554   4.941   4.160
 5804SOL    HW218312   0.477   5.008   4.034
 5805SOL     OW18313   2.590   3.896   6.549
 5805SOL    HW118314   2.500   3.907   6.507
 5805SOL    HW218315   2.658   3.948   6.496
 5806SOL     OW18316   6.760   5.962   5.379
 5806SOL    HW118317   6.667   5.925   5.383
 5806SOL    HW218318   6.821   5.894   5.336
 5807SOL     OW18319   0.592   3.684   2.415
 5807SOL    HW118320   0.554   3.739   2.490
 5807SOL    HW218321   0.554   3.592   2.419
 5808SOL     OW18322   5.692   5.469   4.853
 5808SOL    HW118323   5.696   5.432   4.761
 5808SOL    HW218324   5.597   5.474   4.884
 5809SOL     OW18325   5.774   1.421   4.977
 5809SOL    HW118326   5.781   1.356   4.901
 5809SOL    HW218327   5.697   1.483   4.962
 5810SOL     OW18328   3.506   1.769   4.674
 5810SOL    HW118329   3.589   1.758   4.728
 5810SOL    HW218330   3.490   1.867   4.658
 5811SOL     OW18331   3.113   0.745   5.643
 5811SOL    HW118332   3.081   0.676   5.708
 5811SOL    HW218333   3.161   0.700   5.568
 5812SOL     OW18334   6.583   2.347   4.231
 5812SOL    HW118335   6.605   2.314   4.139
 5812SOL    HW218336   6.644   2.304   4.298
 5813SOL     OW18337   1.975   1.747   0.877
 5813SOL    HW118338   2.054   1.804   0.899
 5813SOL    HW218339   1.931   1.717   0.962
 5814SOL     OW18340   6.304   4.562   1.472
 5814SOL    HW118341   6.226   4.498   1.469
 5814SOL    HW218342   6.272   4.652   1.498
 5815SOL     OW18343   4.262   2.149   4.620
 5815SOL    HW118344   4.309   2.067   4.586
 5815SOL    HW218345   4.330   2.214   4.653
 5816SOL     OW18346   4.395   5.425   6.984
 5816SOL    HW118347   4.370   5.332   7.009
 5816SOL    HW218348   4.461   5.422   6.908
 5817SOL     OW18349   5.576   3.867   6.270
 5817SOL    HW118350   5.555   3.941   6.334
 5817SOL    HW218351   5.628   3.903   6.193
 5818SOL     OW18352   6.556   5.730   4.837
 5818SOL    HW118353   6.600   5.733   4.926
 5818SOL    HW218354   6.479   5.795   4.836
 5819SOL     OW18355   4.107   6.614   6.874
 5819SOL    HW118356   4.075   6.692   6.928
 5819SOL    HW218357   4.136   6.647   6.783
 5820SOL     OW18358   3.910   5.769   3.837
 5820SOL    HW118359   3.883   5.701   3.904
 5820SOL    HW218360   3.906   5.860   3.879
 5821SOL     OW18361   0.125   6.901   1.247
 5821SOL    HW118362   0.039   6.927   1.291
 5821SOL    HW218363   0.132   6.801   1.243
 5822SOL     OW18364   0.886   2.378   2.280
 5822SOL    HW118365   0.821   2.410   2.211
 5822SOL    HW218366   0.979   2.385   2.245
 5823SOL     OW18367   1.659   1.051   5.617
 5823SOL    HW118368   1.575   0.997   5.627
 5823SOL    HW218369   1.638   1.148   5.628
 5824SOL     OW18370   6.683   5.163   2.775
 5824SOL    HW118371   6.759   5.195   2.830
 5824SOL    HW218372   6.599   5.166   2.829
 5825SOL     OW18373   2.082   2.006   5.723
 5825SOL    HW118374   2.069   2.096   5.765
 5825SOL    HW218375   2.177   1.997   5.693
 5826SOL     OW18376   0.217   5.007   5.587
 5826SOL    HW118377   0.150   4.963   5.527
 5826SOL    HW218378   0.270   4.938   5.635
 5827SOL     OW18379   1.936   4.726   4.700
 5827SOL    HW118380   1.950   4.773   4.613
 5827SOL    HW218381   1.973   4.633   4.694
 5828SOL     OW18382   6.554   2.620   1.400
 5828SOL    HW118383   6.559   2.719   1.386
 5828SOL    HW218384   6.524   2.577   1.315
 5829SOL     OW18385   1.947   0.590   3.234
 5829SOL    HW118386   1.917   0.537   3.155
 5829SOL    HW218387   1.945   0.533   3.316
 5830SOL     OW18388   5.161   0.115   5.330
 5830SOL    HW118389   5.101   0.089   5.255
 5830SOL    HW218390   5.110   0.168   5.397
 5831SOL     OW18391   0.003   1.091   5.179
 5831SOL    HW118392   6.946   1.113   5.120
 5831SOL    HW218393   0.070   1.165   5.175
 5832SOL     OW18394   3.175   4.821   6.191
 5832SOL    HW118395   3.250   4.772   6.235
 5832SOL    HW218396   3.122   4.871   6.259
 5833SOL     OW18397   3.990   3.817   4.521
 5833SOL    HW118398   3.982   3.828   4.422
 5833SOL    HW218399   3.901   3.833   4.564
 5834SOL     OW18400   6.960   3.485   6.905
 5834SOL    HW118401   6.924   3.394   6.883
 5834SOL    HW218402   6.895   3.554   6.875
 5835SOL     OW18403   4.870   3.061   4.005
 5835SOL    HW118404   4.836   3.022   3.920
 5835SOL    HW218405   4.925   2.992   4.054
 5836SOL     OW18406   2.695   6.967   2.837
 5836SOL    HW118407   2.655   6.887   2.883
 5836SOL    HW218408   2.760   7.012   2.897
 5837SOL     OW18409   3.913   4.600   5.682
 5837SOL    HW118410   3.844   4.616   5.612
 5837SOL    HW218411   4.000   4.643   5.654
 5838SOL     OW18412   3.498   2.704   6.692
 5838SOL    HW118413   3.468   2.794   6.727
 5838SOL    HW218414   3.494   2.705   6.592
 5839SOL     OW18415   0.470   2.036   2.540
 5839SOL    HW118416   0.478   1.955   2.483
 5839SOL    HW218417   0.500   2.116   2.489
 5840SOL     OW18418   0.963   5.567   6.200
 5840SOL    HW118419   0.864   5.580   6.201
 5840SOL    HW218420   1.006   5.637   6.143
 5841SOL     OW18421   5.164   1.617   2.831
 5841SOL    HW118422   5.171   1.716   2.823
 5841SOL    HW218423   5.111   1.581   2.754
 5842SOL     OW18424   4.445   3.031   1.480
 5842SOL    HW118425   4.478   3.079   1.399
 5842SOL    HW218426   4.497   3.061   1.560
 5843SOL     OW18427   2.134   3.948   2.823
 5843SOL    HW118428   2.039   3.921   2.839
 5843SOL    HW218429   2.187   3.935   2.907
 5844SOL     OW18430   1.735   6.415   6.410
 5844SOL    HW118431   1.655   6.361   6.387
 5844SOL    HW218432   1.707   6.500   6.455
 5845SOL     OW18433   0.490   0.634   2.081
 5845SOL    HW118434   0.500   0.715   2.024
 5845SOL    HW218435   0.511   0.657   2.176
 5846SOL     OW18436   0.339   2.222   3.959
 5846SOL    HW118437   0.331   2.260   4.051
 5846SOL    HW218438   0.427   2.246   3.920
 5847SOL     OW18439   2.273   2.421   1.390
 5847SOL    HW118440   2.356   2.468   1.362
 5847SOL    HW218441   2.219   2.397   1.309
 5848SOL     OW18442   2.246   5.078   3.355
 5848SOL    HW118443   2.262   5.115   3.264
 5848SOL    HW218444   2.332   5.073   3.405
 5849SOL     OW18445   0.192   0.312   6.590
 5849SOL    HW118446   0.258   0.371   6.637
 5849SOL    HW218447   0.221   0.298   6.496
 5850SOL     OW18448   0.135   3.169   1.788
 5850SOL    HW118449   0.051   3.118   1.774
 5850SOL    HW218450   0.117   3.248   1.846
 5851SOL     OW18451   5.614   3.842   3.322
 5851SOL    HW118452   5.593   3.744   3.318
 5851SOL    HW218453   5.670   3.868   3.244
 5852SOL     OW18454   6.476   6.114   3.322
 5852SOL    HW118455   6.511   6.083   3.411
 5852SOL    HW218456   6.460   6.213   3.325
 5853SOL     OW18457   3.600   5.923   4.591
 5853SOL    HW118458   3.548   6.005   4.613
 5853SOL    HW218459   3.692   5.930   4.630
 5854SOL     OW18460   5.702   4.767   6.017
 5854SOL    HW118461   5.609   4.752   5.983
 5854SOL    HW218462   5.757   4.811   5.946
 5855SOL     OW18463   6.934   1.191   4.292
 5855SOL    HW118464   0.001   1.162   4.252
 5855SOL    HW218465   6.924   1.151   4.383
 5856SOL     OW18466   1.692   5.869   4.242
 5856SOL    HW118467   1.671   5.801   4.172
 5856SOL    HW218468   1.607   5.902   4.284
 5857SOL     OW18469   6.109   2.463   5.594
 5857SOL    HW118470   6.159   2.427   5.514
 5857SOL    HW218471   6.122   2.562   5.600
 5858SOL     OW18472   2.087   2.475   2.248
 5858SOL    HW118473   2.122   2.565   2.222
 5858SOL    HW218474   2.114   2.408   2.179
 5859SOL     OW18475   5.502   5.929   2.131
 5859SOL    HW118476   5.466   6.021   2.117
 5859SOL    HW218477   5.496   5.878   2.045
 5860SOL     OW18478   1.597   4.357   1.585
 5860SOL    HW118479   1.554   4.274   1.618
 5860SOL    HW218480   1.530   4.409   1.531
 5861SOL     OW18481   4.605   1.496   4.612
 5861SOL    HW118482   4.690   1.444   4.624
 5861SOL    HW218483   4.530   1.450   4.659
 5862SOL     OW18484   5.148   5.002   2.050
 5862SOL    HW118485   5.222   5.053   2.094
 5862SOL    HW218486   5.169   4.990   1.953
 5863SOL     OW18487   3.319   1.074   4.831
 5863SOL    HW118488   3.327   1.054   4.733
 5863SOL    HW218489   3.250   1.144   4.845
 5864SOL     OW18490   3.958   3.779   1.702
 5864SOL    HW118491   4.024   3.848   1.732
 5864SOL    HW218492   3.924   3.729   1.781
 5865SOL     OW18493   6.114   0.542   5.044
 5865SOL    HW118494   6.168   0.564   5.126
 5865SOL    HW218495   6.023   0.513   5.071
 5866SOL     OW18496   4.176   4.831   1.005
 5866SOL    HW118497   4.201   4.738   0.980
 5866SOL    HW218498   4.217   4.895   0.939
 5867SOL     OW18499   1.035   4.143   0.666
 5867SOL    HW118500   1.041   4.235   0.706
 5867SOL    HW218501   0.993   4.149   0.575
 5868SOL     OW18502   0.262   1.095   4.971
 5868SOL    HW118503   0.232   1.049   4.888
 5868SOL    HW218504   0.328   1.166   4.949
 5869SOL     OW18505   2.532   6.303   4.179
 5869SOL    HW118506   2.568   6.327   4.269
 5869SOL    HW218507   2.579   6.357   4.109
 5870SOL     OW18508   5.265   6.280   4.914
 5870SOL    HW118509   5.304   6.189   4.904
 5870SOL    HW218510   5.184   6.275   4.972
 5871SOL     OW18511   3.923   3.110   1.126
 5871SOL    HW118512   3.945   3.151   1.037
 5871SOL    HW218513   3.999   3.127   1.189
 5872SOL     OW18514   3.802   5.648   1.275
 5872SOL    HW118515   3.703   5.651   1.294
 5872SOL    HW218516   3.846   5.728   1.316
 5873SOL     OW18517   2.941   2.090   1.289
 5873SOL    HW118518   2.952   2.065   1.386
 5873SOL    HW218519   2.985   2.178   1.272
 5874SOL     OW18520   3.637   4.370   0.227
 5874SOL    HW118521   3.569   4.335   0.163
 5874SOL    HW218522   3.635   4.316   0.311
 5875SOL     OW18523   3.999   1.258   6.734
 5875SOL    HW118524   4.090   1.268   6.775
 5875SOL    HW218525   3.952   1.347   6.736
 5876SOL     OW18526   3.222   3.259   0.296
 5876SOL    HW118527   3.194   3.165   0.277
 5876SOL    HW218528   3.155   3.322   0.257
 5877SOL     OW18529   0.111   0.085   0.541
 5877SOL    HW118530   0.144   0.048   0.628
 5877SOL    HW218531   0.149   0.176   0.528
 5878SOL     OW18532   5.455   5.246   3.787
 5878SOL    HW118533   5.405   5.162   3.806
 5878SOL    HW218534   5.552   5.233   3.806
 5879SOL     OW18535   1.938   3.339   6.140
 5879SOL    HW118536   1.962   3.270   6.208
 5879SOL    HW218537   1.846   3.374   6.159
 5880SOL     OW18538   4.814   4.616   6.840
 5880SOL    HW118539   4.723   4.653   6.859
 5880SOL    HW218540   4.837   4.631   6.744
 5881SOL     OW18541   1.576   6.970   1.787
 5881SOL    HW118542   1.676   6.966   1.793
 5881SOL    HW218543   1.536   6.923   1.865
 5882SOL     OW18544   1.006   6.565   5.962
 5882SOL    HW118545   0.910   6.547   5.941
 5882SOL    HW218546   1.034   6.511   6.041
 5883SOL     OW18547   0.861   1.429   7.018
 5883SOL    HW118548   0.933   1.375   6.976
 5883SOL    HW218549   0.841   1.392   0.089
 5884SOL     OW18550   4.908   1.150   4.840
 5884SOL    HW118551   4.906   1.247   4.864
 5884SOL    HW218552   4.986   1.132   4.779
 5885SOL     OW18553   0.430   5.728   2.489
 5885SOL    HW118554   0.356   5.778   2.534
 5885SOL    HW218555   0.400   5.698   2.398
 5886SOL     OW18556   1.353   1.953   4.014
 5886SOL    HW118557   1.439   2.003   4.022
 5886SOL    HW218558   1.310   1.945   4.104
 5887SOL     OW18559   2.277   2.225   1.554
 5887SOL    HW118560   2.276   2.301   1.488
 5887SOL    HW218561   2.325   2.254   1.637
 5888SOL     OW18562   2.275   6.920   1.428
 5888SOL    HW118563   2.256   7.012   1.461
 5888SOL    HW218564   2.289   6.922   1.329
 5889SOL     OW18565   6.022   1.748   6.194
 5889SOL    HW118566   6.015   1.718   6.289
 5889SOL    HW218567   5.953   1.818   6.176
 5890SOL     OW18568   2.103   6.970   2.981
 5890SOL    HW118569   2.066   6.911   3.053
 5890SOL    HW218570   2.146   0.030   3.023
 5891SOL     OW18571   2.642   4.285   0.931
 5891SOL    HW118572   2.702   4.213   0.965
 5891SOL    HW218573   2.601   4.256   0.844
 5892SOL     OW18574   0.414   5.302   1.985
 5892SOL    HW118575   0.350   5.367   1.944
 5892SOL    HW218576   0.487   5.351   2.031
 5893SOL     OW18577   2.290   4.924   1.964
 5893SOL    HW118578   2.211   4.945   2.021
 5893SOL    HW218579   2.338   5.009   1.941
 5894SOL     OW18580   0.593   5.743   5.624
 5894SOL    HW118581   0.593   5.716   5.720
 5894SOL    HW218582   0.526   5.816   5.610
 5895SOL     OW18583   6.119   3.931   3.475
 5895SOL    HW118584   6.073   4.017   3.453
 5895SOL    HW218585   6.173   3.942   3.558
 5896SOL     OW18586   4.591   1.388   0.675
 5896SOL    HW118587   4.613   1.295   0.703
 5896SOL    HW218588   4.676   1.438   0.655
 5897SOL     OW18589   4.321   0.740   0.975
 5897SOL    HW118590   4.384   0.717   0.901
 5897SOL    HW218591   4.342   0.831   1.010
 5898SOL     OW18592   2.624   0.930   5.256
 5898SOL    HW118593   2.666   0.874   5.184
 5898SOL    HW218594   2.618   0.876   5.340
 5899SOL     OW18595   5.588   6.210   6.655
 5899SOL    HW118596   5.494   6.206   6.622
 5899SOL    HW218597   5.636   6.127   6.626
 5900SOL     OW18598   6.988   4.894   2.692
 5900SOL    HW118599   7.004   4.799   2.665
 5900SOL    HW218600   6.988   4.901   2.791
 5901SOL     OW18601   2.722   1.287   0.615
 5901SOL    HW118602   2.788   1.361   0.621
 5901SOL    HW218603   2.763   1.203   0.651
 5902SOL     OW18604   5.414   3.842   5.859
 5902SOL    HW118605   5.464   3.794   5.788
 5902SOL    HW218606   5.324   3.801   5.871
 5903SOL     OW18607   4.628   3.863   6.958
 5903SOL    HW118608   4.672   3.785   6.913
 5903SOL    HW218609   4.641   3.856   0.037
 5904SOL     OW18610   0.977   4.403   1.151
 5904SOL    HW118611   0.879   4.389   1.145
 5904SOL    HW218612   1.021   4.317   1.177
 5905SOL     OW18613   6.322   0.687   3.641
 5905SOL    HW118614   6.377   0.703   3.559
 5905SOL    HW218615   6.367   0.617   3.698
 5906SOL     OW18616   4.879   1.760   4.762
 5906SOL    HW118617   4.964   1.808   4.738
 5906SOL    HW218618   4.897   1.696   4.836
 5907SOL     OW18619   1.255   6.584   0.506
 5907SOL    HW118620   1.347   6.620   0.524
 5907SOL    HW218621   1.259   6.518   0.431
 5908SOL     OW18622   6.843   3.588   0.371
 5908SOL    HW118623   6.939   3.584   0.397
 5908SOL    HW218624   6.833   3.643   0.288
 5909SOL     OW18625   6.203   5.129   6.329
 5909SOL    HW118626   6.259   5.148   6.410
 5909SOL    HW218627   6.261   5.121   6.249
 5910SOL     OW18628   0.717   4.668   1.233
 5910SOL    HW118629   0.803   4.686   1.185
 5910SOL    HW218630   0.701   4.741   1.300
 5911SOL     OW18631   6.090   5.076   6.760
 5911SOL    HW118632   6.029   5.006   6.797
 5911SOL    HW218633   6.118   5.138   6.833
 5912SOL     OW18634   5.862   3.404   6.894
 5912SOL    HW118635   5.827   3.314   6.921
 5912SOL    HW218636   5.798   3.475   6.924
 5913SOL     OW18637   3.114   2.894   6.384
 5913SOL    HW118638   3.036   2.835   6.366
 5913SOL    HW218639   3.085   2.989   6.389
 5914SOL     OW18640   2.909   5.504   5.915
 5914SOL    HW118641   2.862   5.483   6.001
 5914SOL    HW218642   2.882   5.595   5.883
 5915SOL     OW18643   6.082   4.186   1.945
 5915SOL    HW118644   5.982   4.182   1.937
 5915SOL    HW218645   6.123   4.131   1.873
 5916SOL     OW18646   4.554   6.008   5.699
 5916SOL    HW118647   4.559   5.963   5.788
 5916SOL    HW218648   4.566   5.941   5.626
 5917SOL     OW18649   3.675   2.966   4.540
 5917SOL    HW118650   3.654   2.994   4.447
 5917SOL    HW218651   3.768   2.993   4.563
 5918SOL     OW18652   2.441   3.697   5.327
 5918SOL    HW118653   2.508   3.726   5.395
 5918SOL    HW218654   2.421   3.774   5.265
 5919SOL     OW18655   2.998   2.594   0.433
 5919SOL    HW118656   3.060   2.516   0.439
 5919SOL    HW218657   2.952   2.608   0.521
 5920SOL     OW18658   3.621   6.813   0.389
 5920SOL    HW118659   3.636   6.720   0.356
 5920SOL    HW218660   3.639   6.878   0.316
 5921SOL     OW18661   3.594   5.534   5.737
 5921SOL    HW118662   3.570   5.563   5.644
 5921SOL    HW218663   3.652   5.452   5.733
 5922SOL     OW18664   6.917   5.482   4.184
 5922SOL    HW118665   7.010   5.507   4.157
 5922SOL    HW218666   6.861   5.564   4.191
 5923SOL     OW18667   5.296   0.603   1.382
 5923SOL    HW118668   5.205   0.633   1.354
 5923SOL    HW218669   5.365   0.652   1.329
 5924SOL     OW18670   5.876   2.082   4.803
 5924SOL    HW118671   5.923   2.020   4.739
 5924SOL    HW218672   5.808   2.030   4.855
 5925SOL     OW18673   4.033   6.006   3.594
 5925SOL    HW118674   4.069   5.937   3.531
 5925SOL    HW218675   3.962   6.059   3.549
 5926SOL     OW18676   3.674   5.082   2.278
 5926SOL    HW118677   3.738   5.010   2.307
 5926SOL    HW218678   3.590   5.041   2.245
 5927SOL     OW18679   1.545   4.179   3.386
 5927SOL    HW118680   1.554   4.087   3.426
 5927SOL    HW218681   1.552   4.173   3.287
 5928SOL     OW18682   3.186   0.592   1.592
 5928SOL    HW118683   3.257   0.662   1.600
 5928SOL    HW218684   3.108   0.617   1.648
 5929SOL     OW18685   0.736   6.509   5.917
 5929SOL    HW118686   0.675   6.507   5.838
 5929SOL    HW218687   0.772   6.417   5.933
 5930SOL     OW18688   6.778   0.974   2.930
 5930SOL    HW118689   6.784   0.915   2.849
 5930SOL    HW218690   6.812   1.065   2.906
 5931SOL     OW18691   5.561   5.310   3.491
 5931SOL    HW118692   5.614   5.252   3.552
 5931SOL    HW218693   5.555   5.403   3.529
 5932SOL     OW18694   2.571   6.273   1.088
 5932SOL    HW118695   2.586   6.176   1.106
 5932SOL    HW218696   2.570   6.323   1.175
 5933SOL     OW18697   0.742   5.678   3.060
 5933SOL    HW118698   0.787   5.743   3.122
 5933SOL    HW218699   0.727   5.592   3.108
 5934SOL     OW18700   4.130   3.375   4.267
 5934SOL    HW118701   4.163   3.450   4.325
 5934SOL    HW218702   4.038   3.348   4.296
 5935SOL     OW18703   4.067   3.325   4.979
 5935SOL    HW118704   4.121   3.279   5.049
 5935SOL    HW218705   4.078   3.424   4.988
 5936SOL     OW18706   3.834   3.455   0.663
 5936SOL    HW118707   3.735   3.454   0.650
 5936SOL    HW218708   3.877   3.399   0.593
 5937SOL     OW18709   0.362   4.745   2.408
 5937SOL    HW118710   0.373   4.661   2.460
 5937SOL    HW218711   0.286   4.735   2.344
 5938SOL     OW18712   1.404   5.681   4.439
 5938SOL    HW118713   1.490   5.643   4.473
 5938SOL    HW218714   1.420   5.769   4.396
 5939SOL     OW18715   3.272   0.462   3.460
 5939SOL    HW118716   3.192   0.422   3.504
 5939SOL    HW218717   3.346   0.469   3.527
 5940SOL     OW18718   4.372   5.724   1.645
 5940SOL    HW118719   4.366   5.748   1.549
 5940SOL    HW218720   4.327   5.637   1.661
 5941SOL     OW18721   6.098   3.125   1.887
 5941SOL    HW118722   6.068   3.133   1.792
 5941SOL    HW218723   6.061   3.201   1.940
 5942SOL     OW18724   4.835   2.802   6.658
 5942SOL    HW118725   4.849   2.856   6.576
 5942SOL    HW218726   4.915   2.808   6.717
 5943SOL     OW18727   3.279   5.443   0.854
 5943SOL    HW118728   3.297   5.427   0.951
 5943SOL    HW218729   3.278   5.541   0.836
 5944SOL     OW18730   5.513   1.947   1.326
 5944SOL    HW118731   5.535   2.025   1.267
 5944SOL    HW218732   5.528   1.862   1.276
 5945SOL     OW18733   6.588   5.204   5.504
 5945SOL    HW118734   6.545   5.164   5.585
 5945SOL    HW218735   6.662   5.144   5.472
 5946SOL     OW18736   3.774   3.302   5.392
 5946SOL    HW118737   3.827   3.232   5.344
 5946SOL    HW218738   3.680   3.301   5.359
 5947SOL     OW18739   3.899   2.835   1.851
 5947SOL    HW118740   3.871   2.889   1.930
 5947SOL    HW218741   3.830   2.764   1.833
 5948SOL     OW18742   3.603   5.018   3.380
 5948SOL    HW118743   3.687   5.010   3.433
 5948SOL    HW218744   3.609   5.096   3.318
 5949SOL     OW18745   3.944   3.537   1.331
 5949SOL    HW118746   4.032   3.493   1.345
 5949SOL    HW218747   3.923   3.597   1.408
 5950SOL     OW18748   5.713   3.503   5.655
 5950SOL    HW118749   5.783   3.444   5.696
 5950SOL    HW218750   5.622   3.472   5.685
 5951SOL     OW18751   0.278   5.607   5.044
 5951SOL    HW118752   0.351   5.666   5.079
 5951SOL    HW218753   0.309   5.564   4.959
 5952SOL     OW18754   5.619   5.481   4.220
 5952SOL    HW118755   5.615   5.468   4.319
 5952SOL    HW218756   5.711   5.508   4.194
 5953SOL     OW18757   6.346   2.847   5.724
 5953SOL    HW118758   6.349   2.936   5.771
 5953SOL    HW218759   6.412   2.847   5.648
 5954SOL     OW18760   0.129   4.322   5.581
 5954SOL    HW118761   0.037   4.334   5.543
 5954SOL    HW218762   0.175   4.248   5.533
 5955SOL     OW18763   5.627   5.676   2.826
 5955SOL    HW118764   5.542   5.699   2.873
 5955SOL    HW218765   5.641   5.577   2.830
 5956SOL     OW18766   3.772   1.751   6.603
 5956SOL    HW118767   3.789   1.693   6.523
 5956SOL    HW218768   3.860   1.780   6.642
 5957SOL     OW18769   4.507   0.280   5.619
 5957SOL    HW118770   4.524   0.367   5.665
 5957SOL    HW218771   4.411   0.255   5.629
 5958SOL     OW18772   6.735   5.719   2.743
 5958SOL    HW118773   6.689   5.745   2.658
 5958SOL    HW218774   6.830   5.695   2.723
 5959SOL     OW18775   3.976   2.000   5.000
 5959SOL    HW118776   3.882   1.970   4.982
 5959SOL    HW218777   3.991   2.089   4.956
 5960SOL     OW18778   3.923   6.542   4.560
 5960SOL    HW118779   3.918   6.447   4.590
 5960SOL    HW218780   4.011   6.558   4.514
 5961SOL     OW18781   4.814   1.161   3.958
 5961SOL    HW118782   4.758   1.079   3.949
 5961SOL    HW218783   4.862   1.178   3.873
 5962SOL     OW18784   5.008   6.034   1.508
 5962SOL    HW118785   5.025   5.956   1.449
 5962SOL    HW218786   4.928   6.017   1.565
 5963SOL     OW18787   3.048   3.127   4.582
 5963SOL    HW118788   3.081   3.221   4.582
 5963SOL    HW218789   3.007   3.106   4.493
 5964SOL     OW18790   0.358   4.906   5.810
 5964SOL    HW118791   0.434   4.860   5.764
 5964SOL    HW218792   0.382   5.002   5.824
 5965SOL     OW18793   1.638   1.972   6.252
 5965SOL    HW118794   1.714   2.011   6.304
 5965SOL    HW218795   1.639   2.008   6.159
 5966SOL     OW18796   2.837   6.097   5.320
 5966SOL    HW118797   2.916   6.081   5.261
 5966SOL    HW218798   2.825   6.196   5.335
 5967SOL     OW18799   4.311   6.263   1.215
 5967SOL    HW118800   4.366   6.320   1.276
 5967SOL    HW218801   4.345   6.169   1.218
 5968SOL     OW18802   4.613   1.111   2.402
 5968SOL    HW118803   4.588   1.058   2.483
 5968SOL    HW218804   4.663   1.193   2.429
 5969SOL     OW18805   6.829   0.989   6.198
 5969SOL    HW118806   6.867   0.916   6.140
 5969SOL    HW218807   6.793   0.949   6.282
 5970SOL     OW18808   0.463   4.535   2.518
 5970SOL    HW118809   0.415   4.481   2.588
 5970SOL    HW218810   0.554   4.496   2.503
 5971SOL     OW18811   1.666   0.779   3.303
 5971SOL    HW118812   1.693   0.870   3.333
 5971SOL    HW218813   1.730   0.711   3.339
 5972SOL     OW18814   5.459   6.674   0.042
 5972SOL    HW118815   5.519   6.695   6.985
 5972SOL    HW218816   5.430   6.759   0.086
 5973SOL     OW18817   1.759   4.609   2.292
 5973SOL    HW118818   1.783   4.565   2.205
 5973SOL    HW218819   1.662   4.592   2.312
 5974SOL     OW18820   5.637   4.390   6.718
 5974SOL    HW118821   5.610   4.434   6.632
 5974SOL    HW218822   5.736   4.388   6.724
 5975SOL     OW18823   3.217   2.123   0.220
 5975SOL    HW118824   3.292   2.187   0.203
 5975SOL    HW218825   3.169   2.149   0.304
 5976SOL     OW18826   3.163   3.637   4.563
 5976SOL    HW118827   3.225   3.695   4.508
 5976SOL    HW218828   3.070   3.646   4.528
 5977SOL     OW18829   2.047   4.995   1.506
 5977SOL    HW118830   2.016   4.941   1.585
 5977SOL    HW218831   2.020   5.091   1.519
 5978SOL     OW18832   4.952   5.218   3.616
 5978SOL    HW118833   5.000   5.131   3.628
 5978SOL    HW218834   4.853   5.204   3.627
 5979SOL     OW18835   6.322   6.850   2.545
 5979SOL    HW118836   6.415   6.824   2.572
 5979SOL    HW218837   6.316   6.949   2.539
 5980SOL     OW18838   4.092   3.663   6.773
 5980SOL    HW118839   4.106   3.760   6.755
 5980SOL    HW218840   4.006   3.650   6.821
 5981SOL     OW18841   6.488   0.480   2.087
 5981SOL    HW118842   6.483   0.563   2.142
 5981SOL    HW218843   6.549   0.495   2.009
 5982SOL     OW18844   6.321   2.507   0.412
 5982SOL    HW118845   6.378   2.588   0.406
 5982SOL    HW218846   6.359   2.443   0.479
 5983SOL     OW18847   1.497   1.006   4.939
 5983SOL    HW118848   1.527   0.927   4.886
 5983SOL    HW218849   1.509   1.089   4.886
 5984SOL     OW18850   6.400   6.454   5.082
 5984SOL    HW118851   6.459   6.409   5.014
 5984SOL    HW218852   6.449   6.531   5.123
 5985SOL     OW18853   6.150   3.536   3.760
 5985SOL    HW118854   6.134   3.524   3.662
 5985SOL    HW218855   6.067   3.514   3.811
 5986SOL     OW18856   3.536   3.836   3.864
 5986SOL    HW118857   3.606   3.779   3.909
 5986SOL    HW218858   3.503   3.788   3.782
 5987SOL     OW18859   4.138   0.825   5.429
 5987SOL    HW118860   4.163   0.783   5.516
 5987SOL    HW218861   4.047   0.794   5.402
 5988SOL     OW18862   4.311   0.508   4.976
 5988SOL    HW118863   4.306   0.425   5.031
 5988SOL    HW218864   4.261   0.582   5.022
 5989SOL     OW18865   2.803   5.781   6.812
 5989SOL    HW118866   2.848   5.870   6.813
 5989SOL    HW218867   2.847   5.723   6.743
 5990SOL     OW18868   3.855   4.608   0.364
 5990SOL    HW118869   3.804   4.570   0.442
 5990SOL    HW218870   3.905   4.535   0.318
 5991SOL     OW18871   4.263   5.242   5.485
 5991SOL    HW118872   4.247   5.341   5.484
 5991SOL    HW218873   4.200   5.199   5.549
 5992SOL     OW18874   3.597   0.846   3.443
 5992SOL    HW118875   3.653   0.774   3.402
 5992SOL    HW218876   3.542   0.807   3.517
 5993SOL     OW18877   3.338   6.608   5.650
 5993SOL    HW118878   3.285   6.531   5.686
 5993SOL    HW218879   3.319   6.690   5.704
 5994SOL     OW18880   6.291   1.797   2.042
 5994SOL    HW118881   6.291   1.867   2.114
 5994SOL    HW218882   6.229   1.824   1.969
 5995SOL     OW18883   6.122   4.432   2.717
 5995SOL    HW118884   6.161   4.374   2.646
 5995SOL    HW218885   6.187   4.505   2.740
 5996SOL     OW18886   0.716   5.895   0.797
 5996SOL    HW118887   0.654   5.962   0.755
 5996SOL    HW218888   0.810   5.927   0.790
 5997SOL     OW18889   1.442   5.891   2.662
 5997SOL    HW118890   1.433   5.985   2.629
 5997SOL    HW218891   1.488   5.891   2.751
 5998SOL     OW18892   6.203   2.109   1.839
 5998SOL    HW118893   6.145   2.030   1.859
 5998SOL    HW218894   6.298   2.079   1.829
 5999SOL     OW18895   1.377   2.010   2.761
 5999SOL    HW118896   1.314   2.053   2.697
 5999SOL    HW218897   1.333   1.999   2.850
 6000SOL     OW18898   3.694   6.872   2.025
 6000SOL    HW118899   3.669   6.966   2.050
 6000SOL    HW218900   3.740   6.873   1.936
 6001SOL     OW18901   0.676   4.059   6.405
 6001SOL    HW118902   0.703   4.134   6.345
 6001SOL    HW218903   0.597   4.011   6.365
 6002SOL     OW18904   6.870   0.529   0.761
 6002SOL    HW118905   6.807   0.604   0.784
 6002SOL    HW218906   6.842   0.487   0.675
 6003SOL     OW18907   0.010   1.822   4.306
 6003SOL    HW118908   0.030   1.908   4.259
 6003SOL    HW218909   6.981   1.761   4.243
 6004SOL     OW18910   6.992   4.414   2.903
 6004SOL    HW118911   7.012   4.316   2.901
 6004SOL    HW218912   6.929   4.434   2.978
 6005SOL     OW18913   4.626   4.956   4.798
 6005SOL    HW118914   4.560   4.897   4.845
 6005SOL    HW218915   4.718   4.936   4.831
 6006SOL     OW18916   3.539   6.654   6.874
 6006SOL    HW118917   3.466   6.638   6.941
 6006SOL    HW218918   3.570   6.566   6.838
 6007SOL     OW18919   4.913   3.410   4.785
 6007SOL    HW118920   4.891   3.502   4.753
 6007SOL    HW218921   4.942   3.354   4.707
 6008SOL     OW18922   2.229   5.554   5.992
 6008SOL    HW118923   2.268   5.646   5.997
 6008SOL    HW218924   2.272   5.496   6.060
 6009SOL     OW18925   4.086   0.616   5.051
 6009SOL    HW118926   4.086   0.633   5.150
 6009SOL    HW218927   4.017   0.547   5.030
 6010SOL     OW18928   1.332   4.096   2.814
 6010SOL    HW118929   1.384   4.067   2.734
 6010SOL    HW218930   1.250   4.040   2.822
 6011SOL     OW18931   4.631   2.642   2.943
 6011SOL    HW118932   4.725   2.674   2.955
 6011SOL    HW218933   4.598   2.601   3.028
 6012SOL     OW18934   6.368   1.546   0.095
 6012SOL    HW118935   6.340   1.560   0.001
 6012SOL    HW218936   6.307   1.596   0.157
 6013SOL     OW18937   5.430   2.173   2.709
 6013SOL    HW118938   5.344   2.168   2.759
 6013SOL    HW218939   5.492   2.236   2.756
 6014SOL     OW18940   4.097   2.238   0.890
 6014SOL    HW118941   4.003   2.211   0.872
 6014SOL    HW218942   4.099   2.331   0.927
 6015SOL     OW18943   5.540   2.277   5.351
 6015SOL    HW118944   5.605   2.314   5.285
 6015SOL    HW218945   5.570   2.185   5.379
 6016SOL     OW18946   0.404   1.902   6.611
 6016SOL    HW118947   0.460   1.864   6.537
 6016SOL    HW218948   0.464   1.947   6.677
 6017SOL     OW18949   6.378   4.628   2.798
 6017SOL    HW118950   6.352   4.718   2.836
 6017SOL    HW218951   6.467   4.635   2.754
 6018SOL     OW18952   3.362   1.436   0.135
 6018SOL    HW118953   3.264   1.442   0.117
 6018SOL    HW218954   3.382   1.350   0.184
 6019SOL     OW18955   5.968   1.492   4.246
 6019SOL    HW118956   5.922   1.404   4.258
 6019SOL    HW218957   5.962   1.545   4.330
 6020SOL     OW18958   2.088   5.584   1.532
 6020SOL    HW118959   2.083   5.612   1.437
 6020SOL    HW218960   2.160   5.515   1.543
 6021SOL     OW18961   3.860   0.629   2.256
 6021SOL    HW118962   3.816   0.545   2.287
 6021SOL    HW218963   3.791   0.702   2.247
 6022SOL     OW18964   4.719   1.289   5.147
 6022SOL    HW118965   4.702   1.284   5.245
 6022SOL    HW218966   4.767   1.374   5.125
 6023SOL     OW18967   6.142   1.788   2.621
 6023SOL    HW118968   6.148   1.702   2.572
 6023SOL    HW218969   6.223   1.843   2.603
 6024SOL     OW18970   0.683   4.183   3.707
 6024SOL    HW118971   0.632   4.205   3.624
 6024SOL    HW218972   0.771   4.230   3.707
 6025SOL     OW18973   3.721   1.440   2.001
 6025SOL    HW118974   3.797   1.497   2.033
 6025SOL    HW218975   3.635   1.487   2.015
 6026SOL     OW18976   6.742   4.389   4.163
 6026SOL    HW118977   6.737   4.294   4.194
 6026SOL    HW218978   6.836   4.411   4.138
 6027SOL     OW18979   1.769   4.258   5.602
 6027SOL    HW118980   1.731   4.320   5.671
 6027SOL    HW218981   1.745   4.164   5.627
 6028SOL     OW18982   1.069   3.857   0.397
 6028SOL    HW118983   1.107   3.901   0.315
 6028SOL    HW218984   0.982   3.899   0.420
 6029SOL     OW18985   1.849   5.950   5.154
 6029SOL    HW118986   1.832   5.908   5.064
 6029SOL    HW218987   1.774   5.926   5.216
 6030SOL     OW18988   3.677   6.738   3.007
 6030SOL    HW118989   3.661   6.713   3.103
 6030SOL    HW218990   3.615   6.686   2.949
 6031SOL     OW18991   3.856   5.395   3.874
 6031SOL    HW118992   3.952   5.381   3.851
 6031SOL    HW218993   3.825   5.321   3.934
 6032SOL     OW18994   2.149   3.206   3.082
 6032SOL    HW118995   2.186   3.171   2.996
 6032SOL    HW218996   2.155   3.135   3.152
 6033SOL     OW18997   2.868   1.654   2.457
 6033SOL    HW118998   2.846   1.640   2.361
 6033SOL    HW218999   2.783   1.662   2.510
 6034SOL     OW19000   1.490   5.462   4.758
 6034SOL    HW119001   1.551   5.504   4.691
 6034SOL    HW219002   1.542   5.438   4.840
 6035SOL     OW19003   0.073   0.683   3.123
 6035SOL    HW119004   0.096   0.591   3.154
 6035SOL    HW219005   0.023   0.731   3.196
 6036SOL     OW19006   6.668   6.208   4.042
 6036SOL    HW119007   6.586   6.244   3.998
 6036SOL    HW219008   6.656   6.206   4.141
 6037SOL     OW19009   4.175   4.701   5.654
 6037SOL    HW119010   4.201   4.733   5.562
 6037SOL    HW219011   4.190   4.775   5.720
 6038SOL     OW19012   1.243   2.919   6.198
 6038SOL    HW119013   1.225   2.821   6.214
 6038SOL    HW219014   1.161   2.961   6.160
 6039SOL     OW19015   3.516   2.879   2.833
 6039SOL    HW119016   3.466   2.858   2.749
 6039SOL    HW219017   3.612   2.898   2.812
 6040SOL     OW19018   0.738   2.393   6.370
 6040SOL    HW119019   0.796   2.313   6.383
 6040SOL    HW219020   0.653   2.381   6.422
 6041SOL     OW19021   1.716   1.088   5.276
 6041SOL    HW119022   1.635   1.052   5.323
 6041SOL    HW219023   1.693   1.175   5.233
 6042SOL     OW19024   4.984   5.436   2.008
 6042SOL    HW119025   5.056   5.503   2.024
 6042SOL    HW219026   5.018   5.364   1.948
 6043SOL     OW19027   0.768   4.264   5.598
 6043SOL    HW119028   0.860   4.243   5.563
 6043SOL    HW219029   0.711   4.299   5.524
 6044SOL     OW19030   1.451   2.663   1.322
 6044SOL    HW119031   1.380   2.661   1.392
 6044SOL    HW219032   1.451   2.751   1.276
 6045SOL     OW19033   6.241   5.833   1.352
 6045SOL    HW119034   6.219   5.853   1.256
 6045SOL    HW219035   6.197   5.901   1.411
 6046SOL     OW19036   2.805   1.814   0.224
 6046SOL    HW119037   2.884   1.762   0.191
 6046SOL    HW219038   2.817   1.910   0.201
 6047SOL     OW19039   6.310   1.991   2.216
 6047SOL    HW119040   6.224   1.991   2.268
 6047SOL    HW219041   6.383   1.954   2.272
 6048SOL     OW19042   4.531   6.328   3.498
 6048SOL    HW119043   4.444   6.363   3.531
 6048SOL    HW219044   4.526   6.312   3.399
 6049SOL     OW19045   5.219   4.041   5.689
 6049SOL    HW119046   5.138   3.985   5.705
 6049SOL    HW219047   5.216   4.120   5.750
 6050SOL     OW19048   3.108   4.584   5.386
 6050SOL    HW119049   3.113   4.684   5.381
 6050SOL    HW219050   3.059   4.550   5.306
 6051SOL     OW19051   2.326   1.408   3.858
 6051SOL    HW119052   2.306   1.313   3.836
 6051SOL    HW219053   2.373   1.451   3.780
 6052SOL     OW19054   6.405   6.303   0.323
 6052SOL    HW119055   6.410   6.347   0.234
 6052SOL    HW219056   6.461   6.355   0.389
 6053SOL     OW19057   3.723   0.565   6.270
 6053SOL    HW119058   3.729   0.471   6.302
 6053SOL    HW219059   3.662   0.569   6.191
 6054SOL     OW19060   3.139   4.262   0.632
 6054SOL    HW119061   3.127   4.303   0.723
 6054SOL    HW219062   3.061   4.203   0.611
 6055SOL     OW19063   5.525   1.145   5.414
 6055SOL    HW119064   5.443   1.199   5.432
 6055SOL    HW219065   5.532   1.127   5.315
 6056SOL     OW19066   5.270   3.460   4.912
 6056SOL    HW119067   5.197   3.525   4.935
 6056SOL    HW219068   5.283   3.397   4.988
 6057SOL     OW19069   5.559   3.180   4.499
 6057SOL    HW119070   5.511   3.122   4.432
 6057SOL    HW219071   5.516   3.171   4.588
 6058SOL     OW19072   4.998   2.737   2.361
 6058SOL    HW119073   4.900   2.723   2.343
 6058SOL    HW219074   5.042   2.773   2.279
 6059SOL     OW19075   4.688   5.753   5.096
 6059SOL    HW119076   4.646   5.838   5.127
 6059SOL    HW219077   4.753   5.773   5.022
 6060SOL     OW19078   2.992   3.960   6.527
 6060SOL    HW119079   2.987   3.886   6.593
 6060SOL    HW219080   3.086   3.995   6.523
 6061SOL     OW19081   4.352   1.806   1.040
 6061SOL    HW119082   4.307   1.861   0.970
 6061SOL    HW219083   4.291   1.733   1.071
 6062SOL     OW19084   1.704   0.764   4.648
 6062SOL    HW119085   1.677   0.700   4.576
 6062SOL    HW219086   1.802   0.781   4.643
 6063SOL     OW19087   3.660   1.192   0.007
 6063SOL    HW119088   3.661   1.286   0.040
 6063SOL    HW219089   3.583   1.142   0.048
 6064SOL     OW19090   2.912   6.375   2.191
 6064SOL    HW119091   2.921   6.307   2.264
 6064SOL    HW219092   2.999   6.383   2.142
 6065SOL     OW19093   5.830   6.981   2.204
 6065SOL    HW119094   5.847   6.889   2.167
 6065SOL    HW219095   5.873   0.028   2.145
 6066SOL     OW19096   4.292   1.696   0.201
 6066SOL    HW119097   4.341   1.782   0.215
 6066SOL    HW219098   4.356   1.626   0.170
 6067SOL     OW19099   5.448   1.994   6.392
 6067SOL    HW119100   5.537   2.015   6.432
 6067SOL    HW219101   5.379   2.055   6.431
 6068SOL     OW19102   5.764   2.892   4.668
 6068SOL    HW119103   5.714   2.877   4.583
 6068SOL    HW219104   5.744   2.818   4.732
 6069SOL     OW19105   0.214   3.165   4.874
 6069SOL    HW119106   0.220   3.147   4.972
 6069SOL    HW219107   0.165   3.091   4.829
 6070SOL     OW19108   2.369   1.682   6.315
 6070SOL    HW119109   2.451   1.690   6.372
 6070SOL    HW219110   2.392   1.633   6.231
 6071SOL     OW19111   4.935   5.013   4.658
 6071SOL    HW119112   5.016   4.978   4.705
 6071SOL    HW219113   4.938   5.113   4.655
 6072SOL     OW19114   7.016   0.609   1.984
 6072SOL    HW119115   7.020   0.539   1.913
 6072SOL    HW219116   0.059   0.586   2.058
 6073SOL     OW19117   6.641   3.859   0.273
 6073SOL    HW119118   6.689   3.818   0.195
 6073SOL    HW219119   6.707   3.903   0.334
 6074SOL     OW19120   0.730   6.778   4.025
 6074SOL    HW119121   0.710   6.875   4.044
 6074SOL    HW219122   0.652   6.722   4.053
 6075SOL     OW19123   0.089   2.590   6.616
 6075SOL    HW119124   0.177   2.582   6.569
 6075SOL    HW219125   0.017   2.611   6.550
 6076SOL     OW19126   2.994   5.764   5.021
 6076SOL    HW119127   2.917   5.828   5.029
 6076SOL    HW219128   3.080   5.816   5.016
 6077SOL     OW19129   4.375   5.500   1.929
 6077SOL    HW119130   4.359   5.449   2.013
 6077SOL    HW219131   4.387   5.597   1.951
 6078SOL     OW19132   3.676   4.834   1.648
 6078SOL    HW119133   3.691   4.799   1.741
 6078SOL    HW219134   3.619   4.769   1.597
 6079SOL     OW19135   3.282   3.434   5.998
 6079SOL    HW119136   3.344   3.512   6.010
 6079SOL    HW219137   3.328   3.364   5.943
 6080SOL     OW19138   6.842   1.501   1.290
 6080SOL    HW119139   6.806   1.554   1.213
 6080SOL    HW219140   6.936   1.529   1.309
 6081SOL     OW19141   6.237   3.200   4.750
 6081SOL    HW119142   6.304   3.225   4.681
 6081SOL    HW219143   6.202   3.282   4.795
 6082SOL     OW19144   3.645   1.594   2.971
 6082SOL    HW119145   3.611   1.687   2.987
 6082SOL    HW219146   3.638   1.573   2.873
 6083SOL     OW19147   0.478   6.079   6.372
 6083SOL    HW119148   0.572   6.112   6.382
 6083SOL    HW219149   0.444   6.045   6.460
 6084SOL     OW19150   0.491   5.564   3.797
 6084SOL    HW119151   0.490   5.564   3.697
 6084SOL    HW219152   0.397   5.552   3.831
 6085SOL     OW19153   0.382   4.494   6.960
 6085SOL    HW119154   0.393   4.592   6.974
 6085SOL    HW219155   0.470   4.448   6.970
 6086SOL     OW19156   3.076   1.605   4.951
 6086SOL    HW119157   3.156   1.623   5.008
 6086SOL    HW219158   3.013   1.545   5.001
 6087SOL     OW19159   4.422   5.990   6.717
 6087SOL    HW119160   4.416   5.966   6.814
 6087SOL    HW219161   4.371   5.923   6.663
 6088SOL     OW19162   6.187   6.442   4.688
 6088SOL    HW119163   6.284   6.421   4.676
 6088SOL    HW219164   6.145   6.459   4.599
 6089SOL     OW19165   0.563   3.815   1.215
 6089SOL    HW119166   0.537   3.747   1.146
 6089SOL    HW219167   0.623   3.883   1.173
 6090SOL     OW19168   1.989   6.146   6.080
 6090SOL    HW119169   2.012   6.243   6.091
 6090SOL    HW219170   1.924   6.119   6.151
 6091SOL     OW19171   1.627   1.877   2.238
 6091SOL    HW119172   1.718   1.861   2.199
 6091SOL    HW219173   1.572   1.794   2.229
 6092SOL     OW19174   2.879   0.470   3.434
 6092SOL    HW119175   2.919   0.522   3.358
 6092SOL    HW219176   2.781   0.458   3.419
 6093SOL     OW19177   1.419   3.078   2.988
 6093SOL    HW119178   1.408   3.177   2.984
 6093SOL    HW219179   1.487   3.049   2.920
 6094SOL     OW19180   3.953   0.879   0.893
 6094SOL    HW119181   3.913   0.813   0.957
 6094SOL    HW219182   4.012   0.832   0.828
 6095SOL     OW19183   4.556   3.143   6.532
 6095SOL    HW119184   4.461   3.176   6.534
 6095SOL    HW219185   4.601   3.169   6.618
 6096SOL     OW19186   5.743   0.450   3.287
 6096SOL    HW119187   5.835   0.439   3.250
 6096SOL    HW219188   5.691   0.512   3.228
 6097SOL     OW19189   1.850   7.009   1.811
 6097SOL    HW119190   1.900   7.000   1.897
 6097SOL    HW219191   1.847   0.085   1.784
 6098SOL     OW19192   1.060   2.333   6.136
 6098SOL    HW119193   1.143   2.341   6.080
 6098SOL    HW219194   1.042   2.237   6.155
 6099SOL     OW19195   0.121   5.920   0.547
 6099SOL    HW119196   0.101   5.949   0.453
 6099SOL    HW219197   0.199   5.857   0.545
 6100SOL     OW19198   5.246   3.312   6.435
 6100SOL    HW119199   5.269   3.377   6.508
 6100SOL    HW219200   5.259   3.219   6.469
 6101SOL     OW19201   5.986   2.214   5.272
 6101SOL    HW119202   6.083   2.232   5.290
 6101SOL    HW219203   5.932   2.238   5.353
 6102SOL     OW19204   3.850   0.818   3.799
 6102SOL    HW119205   3.793   0.844   3.877
 6102SOL    HW219206   3.836   0.883   3.724
 6103SOL     OW19207   0.320   1.684   2.859
 6103SOL    HW119208   0.419   1.691   2.848
 6103SOL    HW219209   0.293   1.588   2.869
 6104SOL     OW19210   6.406   2.672   5.933
 6104SOL    HW119211   6.392   2.721   5.847
 6104SOL    HW219212   6.368   2.725   6.008
 6105SOL     OW19213   2.417   0.397   5.875
 6105SOL    HW119214   2.348   0.426   5.809
 6105SOL    HW219215   2.499   0.365   5.827
 6106SOL     OW19216   1.122   4.336   5.200
 6106SOL    HW119217   1.185   4.370   5.269
 6106SOL    HW219218   1.096   4.412   5.139
 6107SOL     OW19219   2.445   4.741   3.730
 6107SOL    HW119220   2.345   4.739   3.741
 6107SOL    HW219221   2.470   4.813   3.665
 6108SOL     OW19222   0.480   2.534   3.027
 6108SOL    HW119223   0.413   2.586   3.080
 6108SOL    HW219224   0.472   2.560   2.930
 6109SOL     OW19225   5.130   3.170   6.201
 6109SOL    HW119226   5.206   3.107   6.217
 6109SOL    HW219227   5.115   3.225   6.283
 6110SOL     OW19228   3.865   3.259   6.852
 6110SOL    HW119229   3.948   3.206   6.870
 6110SOL    HW219230   3.847   3.259   6.753
 6111SOL     OW19231   1.778   4.610   2.627
 6111SOL    HW119232   1.686   4.572   2.630
 6111SOL    HW219233   1.828   4.570   2.551
 6112SOL     OW19234   3.705   1.313   3.328
 6112SOL    HW119235   3.641   1.385   3.352
 6112SOL    HW219236   3.782   1.314   3.392
 6113SOL     OW19237   0.372   1.031   5.698
 6113SOL    HW119238   0.427   1.022   5.781
 6113SOL    HW219239   0.277   1.009   5.719
 6114SOL     OW19240   4.775   4.692   1.171
 6114SOL    HW119241   4.861   4.739   1.193
 6114SOL    HW219242   4.701   4.733   1.224
 6115SOL     OW19243   5.662   6.153   2.882
 6115SOL    HW119244   5.752   6.192   2.860
 6115SOL    HW219245   5.619   6.209   2.954
 6116SOL     OW19246   2.732   1.116   1.057
 6116SOL    HW119247   2.703   1.027   1.092
 6116SOL    HW219248   2.662   1.151   0.994
 6117SOL     OW19249   6.346   0.180   6.040
 6117SOL    HW119250   6.340   0.088   6.079
 6117SOL    HW219251   6.407   0.236   6.095
 6118SOL     OW19252   6.876   0.438   1.465
 6118SOL    HW119253   6.867   0.342   1.489
 6118SOL    HW219254   6.962   0.453   1.417
 6119SOL     OW19255   1.033   3.365   4.121
 6119SOL    HW119256   0.999   3.342   4.212
 6119SOL    HW219257   1.039   3.465   4.111
 6120SOL     OW19258   4.186   6.922   3.769
 6120SOL    HW119259   4.114   6.882   3.826
 6120SOL    HW219260   4.274   6.911   3.814
 6121SOL     OW19261   0.196   2.794   4.481
 6121SOL    HW119262   0.101   2.823   4.470
 6121SOL    HW219263   0.257   2.859   4.435
 6122SOL     OW19264   3.683   6.850   1.346
 6122SOL    HW119265   3.767   6.904   1.351
 6122SOL    HW219266   3.614   6.889   1.406
 6123SOL     OW19267   6.659   0.379   7.008
 6123SOL    HW119268   6.668   0.300   0.047
 6123SOL    HW219269   6.747   0.427   7.003
 6124SOL     OW19270   3.290   0.553   5.495
 6124SOL    HW119271   3.370   0.602   5.531
 6124SOL    HW219272   3.294   0.554   5.395
 6125SOL     OW19273   3.220   5.604   0.557
 6125SOL    HW119274   3.221   5.677   0.626
 6125SOL    HW219275   3.161   5.631   0.481
 6126SOL     OW19276   6.025   6.810   4.140
 6126SOL    HW119277   6.057   6.842   4.229
 6126SOL    HW219278   5.959   6.735   4.153
 6127SOL     OW19279   2.535   0.655   2.652
 6127SOL    HW119280   2.595   0.673   2.731
 6127SOL    HW219281   2.440   0.660   2.682
 6128SOL     OW19282   6.532   3.394   0.530
 6128SOL    HW119283   6.453   3.338   0.502
 6128SOL    HW219284   6.524   3.485   0.489
 6129SOL     OW19285   5.993   4.654   3.405
 6129SOL    HW119286   6.075   4.699   3.440
 6129SOL    HW219287   6.012   4.557   3.391
 6130SOL     OW19288   5.526   1.867   3.882
 6130SOL    HW119289   5.485   1.817   3.958
 6130SOL    HW219290   5.619   1.894   3.906
 6131SOL     OW19291   6.478   1.422   5.402
 6131SOL    HW119292   6.468   1.499   5.465
 6131SOL    HW219293   6.387   1.389   5.376
 6132SOL     OW19294   5.220   1.560   0.289
 6132SOL    HW119295   5.317   1.557   0.265
 6132SOL    HW219296   5.200   1.487   0.354
 6133SOL     OW19297   1.059   2.709   2.879
 6133SOL    HW119298   1.084   2.627   2.930
 6133SOL    HW219299   1.015   2.683   2.793
 6134SOL     OW19300   3.605   4.235   0.477
 6134SOL    HW119301   3.687   4.198   0.521
 6134SOL    HW219302   3.523   4.197   0.522
 6135SOL     OW19303   0.491   6.841   1.648
 6135SOL    HW119304   0.490   6.743   1.628
 6135SOL    HW219305   0.421   6.887   1.594
 6136SOL     OW19306   0.698   2.413   2.467
 6136SOL    HW119307   0.783   2.438   2.420
 6136SOL    HW219308   0.718   2.397   2.564
 6137SOL     OW19309   5.149   1.887   4.936
 6137SOL    HW119310   5.139   1.881   5.035
 6137SOL    HW219311   5.093   1.962   4.901
 6138SOL     OW19312   3.886   6.423   2.481
 6138SOL    HW119313   3.854   6.404   2.388
 6138SOL    HW219314   3.825   6.490   2.523
 6139SOL     OW19315   1.897   2.734   4.948
 6139SOL    HW119316   1.909   2.705   5.042
 6139SOL    HW219317   1.861   2.659   4.893
 6140SOL     OW19318   0.480   5.792   1.586
 6140SOL    HW119319   0.546   5.765   1.516
 6140SOL    HW219320   0.514   5.765   1.676
 6141SOL     OW19321   5.870   6.079   5.524
 6141SOL    HW119322   5.952   6.065   5.469
 6141SOL    HW219323   5.800   6.124   5.469
 6142SOL     OW19324   6.808   5.196   0.822
 6142SOL    HW119325   6.732   5.152   0.774
 6142SOL    HW219326   6.773   5.245   0.902
 6143SOL     OW19327   6.279   4.717   0.340
 6143SOL    HW119328   6.269   4.755   0.431
 6143SOL    HW219329   6.258   4.620   0.342
 6144SOL     OW19330   6.200   4.729   2.426
 6144SOL    HW119331   6.117   4.765   2.468
 6144SOL    HW219332   6.182   4.637   2.390
 6145SOL     OW19333   4.811   6.000   4.236
 6145SOL    HW119334   4.730   5.967   4.285
 6145SOL    HW219335   4.890   5.997   4.297
 6146SOL     OW19336   4.097   1.384   3.629
 6146SOL    HW119337   4.102   1.311   3.697
 6146SOL    HW219338   4.171   1.374   3.562
 6147SOL     OW19339   1.385   4.135   4.027
 6147SOL    HW119340   1.406   4.077   3.948
 6147SOL    HW219341   1.388   4.080   4.111
 6148SOL     OW19342   6.866   0.155   4.572
 6148SOL    HW119343   6.886   0.148   4.669
 6148SOL    HW219344   6.821   0.243   4.553
 6149SOL     OW19345   3.103   4.897   2.940
 6149SOL    HW119346   3.191   4.876   2.984
 6149SOL    HW219347   3.037   4.924   3.010
 6150SOL     OW19348   4.135   4.885   6.782
 6150SOL    HW119349   4.114   4.950   6.856
 6150SOL    HW219350   4.165   4.798   6.821
 6151SOL     OW19351   5.730   4.013   4.720
 6151SOL    HW119352   5.660   4.022   4.649
 6151SOL    HW219353   5.707   4.071   4.798
 6152SOL     OW19354   5.738   5.024   5.337
 6152SOL    HW119355   5.702   5.114   5.361
 6152SOL    HW219356   5.815   5.035   5.273
 6153SOL     OW19357   4.776   4.044   1.839
 6153SOL    HW119358   4.797   4.124   1.896
 6153SOL    HW219359   4.853   3.980   1.844
 6154SOL     OW19360   5.625   1.409   2.805
 6154SOL    HW119361   5.578   1.320   2.807
 6154SOL    HW219362   5.562   1.478   2.768
 6155SOL     OW19363   1.935   1.741   5.018
 6155SOL    HW119364   2.032   1.735   5.041
 6155SOL    HW219365   1.894   1.817   5.068
 6156SOL     OW19366   4.368   4.871   2.459
 6156SOL    HW119367   4.287   4.846   2.513
 6156SOL    HW219368   4.449   4.829   2.500
 6157SOL     OW19369   1.269   1.658   4.427
 6157SOL    HW119370   1.275   1.734   4.362
 6157SOL    HW219371   1.360   1.620   4.442
 6158SOL     OW19372   4.547   0.852   5.888
 6158SOL    HW119373   4.564   0.782   5.819
 6158SOL    HW219374   4.626   0.912   5.895
 6159SOL     OW19375   4.718   2.801   1.058
 6159SOL    HW119376   4.720   2.702   1.072
 6159SOL    HW219377   4.731   2.822   0.962
 6160SOL     OW19378   5.355   6.418   0.071
 6160SOL    HW119379   5.282   6.413   0.003
 6160SOL    HW219380   5.387   6.513   0.078
 6161SOL     OW19381   5.588   2.183   5.641
 6161SOL    HW119382   5.673   2.132   5.645
 6161SOL    HW219383   5.605   2.275   5.606
 6162SOL     OW19384   0.978   5.702   3.949
 6162SOL    HW119385   0.885   5.678   3.922
 6162SOL    HW219386   0.975   5.776   4.016
 6163SOL     OW19387   5.067   6.226   1.984
 6163SOL    HW119388   5.077   6.233   1.885
 6163SOL    HW219389   4.988   6.279   2.013
 6164SOL     OW19390   2.336   3.193   1.470
 6164SOL    HW119391   2.332   3.113   1.410
 6164SOL    HW219392   2.374   3.271   1.419
 6165SOL     OW19393   3.961   6.916   6.118
 6165SOL    HW119394   3.932   6.851   6.048
 6165SOL    HW219395   4.041   6.879   6.166
 6166SOL     OW19396   3.988   1.060   5.370
 6166SOL    HW119397   3.963   1.075   5.275
 6166SOL    HW219398   4.048   0.980   5.377
 6167SOL     OW19399   0.153   4.449   2.489
 6167SOL    HW119400   0.197   4.448   2.399
 6167SOL    HW219401   0.217   4.414   2.558
 6168SOL     OW19402   0.596   3.220   0.516
 6168SOL    HW119403   0.657   3.143   0.495
 6168SOL    HW219404   0.651   3.303   0.527
 6169SOL     OW19405   0.924   3.573   2.079
 6169SOL    HW119406   0.905   3.475   2.076
 6169SOL    HW219407   0.837   3.624   2.081
 6170SOL     OW19408   0.858   3.460   5.138
 6170SOL    HW119409   0.926   3.474   5.066
 6170SOL    HW219410   0.847   3.362   5.155
 6171SOL     OW19411   0.632   1.784   0.031
 6171SOL    HW119412   0.718   1.813   7.008
 6171SOL    HW219413   0.624   1.826   0.122
 6172SOL     OW19414   1.226   3.360   2.838
 6172SOL    HW119415   1.229   3.286   2.771
 6172SOL    HW219416   1.319   3.387   2.861
 6173SOL     OW19417   6.779   5.530   3.277
 6173SOL    HW119418   6.759   5.547   3.180
 6173SOL    HW219419   6.696   5.540   3.331
 6174SOL     OW19420   4.960   5.365   4.153
 6174SOL    HW119421   5.002   5.301   4.218
 6174SOL    HW219422   5.031   5.426   4.116
 6175SOL     OW19423   3.647   0.491   4.025
 6175SOL    HW119424   3.571   0.503   3.961
 6175SOL    HW219425   3.618   0.432   4.100
 6176SOL     OW19426   4.872   3.929   5.381
 6176SOL    HW119427   4.943   3.958   5.444
 6176SOL    HW219428   4.850   3.833   5.398
 6177SOL     OW19429   5.392   1.783   2.046
 6177SOL    HW119430   5.475   1.822   2.007
 6177SOL    HW219431   5.314   1.806   1.989
 6178SOL     OW19432   5.270   3.806   2.428
 6178SOL    HW119433   5.184   3.806   2.377
 6178SOL    HW219434   5.297   3.712   2.448
 6179SOL     OW19435   6.499   4.629   2.134
 6179SOL    HW119436   6.559   4.604   2.210
 6179SOL    HW219437   6.410   4.658   2.170
 6180SOL     OW19438   2.794   4.810   1.277
 6180SOL    HW119439   2.784   4.899   1.233
 6180SOL    HW219440   2.878   4.766   1.245
 6181SOL     OW19441   4.827   6.404   6.300
 6181SOL    HW119442   4.832   6.422   6.398
 6181SOL    HW219443   4.795   6.486   6.253
 6182SOL     OW19444   4.540   3.362   6.106
 6182SOL    HW119445   4.623   3.385   6.056
 6182SOL    HW219446   4.541   3.407   6.195
 6183SOL     OW19447   1.940   2.185   1.964
 6183SOL    HW119448   2.034   2.157   1.982
 6183SOL    HW219449   1.882   2.159   2.042
 6184SOL     OW19450   3.416   0.001   5.830
 6184SOL    HW119451   3.429   6.970   5.915
 6184SOL    HW219452   3.504   0.015   5.786
 6185SOL     OW19453   1.508   4.445   6.087
 6185SOL    HW119454   1.548   4.454   6.179
 6185SOL    HW219455   1.525   4.354   6.051
 6186SOL     OW19456   5.942   1.322   1.313
 6186SOL    HW119457   5.906   1.415   1.321
 6186SOL    HW219458   5.973   1.306   1.219
 6187SOL     OW19459   5.004   3.114   4.590
 6187SOL    HW119460   4.961   3.155   4.510
 6187SOL    HW219461   5.103   3.126   4.584
 6188SOL     OW19462   1.707   1.747   5.830
 6188SOL    HW119463   1.787   1.777   5.883
 6188SOL    HW219464   1.679   1.657   5.863
 6189SOL     OW19465   3.584   4.962   3.120
 6189SOL    HW119466   3.601   4.974   3.217
 6189SOL    HW219467   3.668   4.933   3.074
 6190SOL     OW19468   0.349   3.330   5.573
 6190SOL    HW119469   0.316   3.335   5.479
 6190SOL    HW219470   0.402   3.246   5.585
 6191SOL     OW19471   2.762   3.055   6.230
 6191SOL    HW119472   2.701   3.090   6.160
 6191SOL    HW219473   2.772   2.956   6.219
 6192SOL     OW19474   2.698   1.921   6.728
 6192SOL    HW119475   2.653   2.007   6.703
 6192SOL    HW219476   2.661   1.888   6.814
 6193SOL     OW19477   4.400   6.009   1.157
 6193SOL    HW119478   4.335   5.967   1.094
 6193SOL    HW219479   4.492   5.998   1.121
 6194SOL     OW19480   5.957   0.426   6.538
 6194SOL    HW119481   5.861   0.422   6.508
 6194SOL    HW219482   5.981   0.339   6.582
 6195SOL     OW19483   5.741   6.275   4.808
 6195SOL    HW119484   5.705   6.250   4.718
 6195SOL    HW219485   5.671   6.261   4.877
 6196SOL     OW19486   4.656   4.231   2.584
 6196SOL    HW119487   4.697   4.166   2.520
 6196SOL    HW219488   4.641   4.318   2.537
 6197SOL     OW19489   2.611   5.321   2.186
 6197SOL    HW119490   2.669   5.298   2.264
 6197SOL    HW219491   2.596   5.240   2.130
 6198SOL     OW19492   4.732   6.074   0.430
 6198SOL    HW119493   4.828   6.067   0.455
 6198SOL    HW219494   4.698   6.165   0.451
 6199SOL     OW19495   0.671   1.144   0.387
 6199SOL    HW119496   0.729   1.115   0.463
 6199SOL    HW219497   0.582   1.099   0.395
 6200SOL     OW19498   0.945   1.902   4.514
 6200SOL    HW119499   0.909   1.925   4.604
 6200SOL    HW219500   0.939   1.804   4.499
 6201SOL     OW19501   1.263   3.262   4.400
 6201SOL    HW119502   1.320   3.201   4.455
 6201SOL    HW219503   1.170   3.226   4.394
 6202SOL     OW19504   5.944   1.634   1.836
 6202SOL    HW119505   5.959   1.555   1.777
 6202SOL    HW219506   5.850   1.667   1.825
 6203SOL     OW19507   5.469   5.275   1.944
 6203SOL    HW119508   5.543   5.339   1.926
 6203SOL    HW219509   5.498   5.182   1.923
 6204SOL     OW19510   0.856   5.922   5.233
 6204SOL    HW119511   0.863   5.886   5.326
 6204SOL    HW219512   0.944   5.963   5.207
 6205SOL     OW19513   6.013   4.449   1.366
 6205SOL    HW119514   5.934   4.488   1.413
 6205SOL    HW219515   5.986   4.364   1.321
 6206SOL     OW19516   5.287   1.308   3.071
 6206SOL    HW119517   5.320   1.273   2.984
 6206SOL    HW219518   5.361   1.355   3.119
 6207SOL     OW19519   1.549   6.270   4.852
 6207SOL    HW119520   1.473   6.312   4.902
 6207SOL    HW219521   1.627   6.334   4.851
 6208SOL     OW19522   3.181   2.333   5.467
 6208SOL    HW119523   3.212   2.238   5.465
 6208SOL    HW219524   3.183   2.371   5.375
 6209SOL     OW19525   3.478   5.505   0.603
 6209SOL    HW119526   3.498   5.411   0.576
 6209SOL    HW219527   3.380   5.522   0.598
 6210SOL     OW19528   5.432   4.041   3.231
 6210SOL    HW119529   5.484   3.965   3.269
 6210SOL    HW219530   5.358   4.065   3.295
 6211SOL     OW19531   3.586   6.614   5.481
 6211SOL    HW119532   3.503   6.608   5.536
 6211SOL    HW219533   3.591   6.535   5.419
 6212SOL     OW19534   2.177   4.588   4.007
 6212SOL    HW119535   2.224   4.633   3.932
 6212SOL    HW219536   2.211   4.495   4.018
 6213SOL     OW19537   4.458   6.895   6.839
 6213SOL    HW119538   4.401   6.865   6.762
 6213SOL    HW219539   4.401   6.915   6.918
 6214SOL     OW19540   5.704   5.897   5.612
 6214SOL    HW119541   5.636   5.918   5.683
 6214SOL    HW219542   5.759   5.978   5.593
 6215SOL     OW19543   3.997   2.995   6.200
 6215SOL    HW119544   4.048   2.923   6.247
 6215SOL    HW219545   4.061   3.055   6.152
 6216SOL     OW19546   6.056   2.690   2.407
 6216SOL    HW119547   6.092   2.602   2.376
 6216SOL    HW219548   6.047   2.689   2.507
 6217SOL     OW19549   0.824   4.796   2.432
 6217SOL    HW119550   0.849   4.792   2.336
 6217SOL    HW219551   0.739   4.847   2.442
 6218SOL     OW19552   3.893   6.435   6.849
 6218SOL    HW119553   3.968   6.499   6.868
 6218SOL    HW219554   3.806   6.485   6.845
 6219SOL     OW19555   1.601   0.751   4.918
 6219SOL    HW119556   1.629   0.786   4.828
 6219SOL    HW219557   1.661   0.788   4.989
 6220SOL     OW19558   3.419   0.907   6.193
 6220SOL    HW119559   3.327   0.888   6.160
 6220SOL    HW219560   3.458   0.983   6.141
 6221SOL     OW19561   6.452   6.687   6.487
 6221SOL    HW119562   6.494   6.639   6.563
 6221SOL    HW219563   6.365   6.728   6.517
 6222SOL     OW19564   6.541   0.042   2.455
 6222SOL    HW119565   6.638   0.041   2.479
 6222SOL    HW219566   6.527   7.015   2.369
 6223SOL     OW19567   1.758   5.534   3.360
 6223SOL    HW119568   1.834   5.578   3.407
 6223SOL    HW219569   1.752   5.438   3.389
 6224SOL     OW19570   3.993   1.611   5.777
 6224SOL    HW119571   3.928   1.628   5.703
 6224SOL    HW219572   4.045   1.694   5.797
 6225SOL     OW19573   4.358   2.315   6.490
 6225SOL    HW119574   4.456   2.337   6.496
 6225SOL    HW219575   4.334   2.299   6.394
 6226SOL     OW19576   1.325   1.195   3.965
 6226SOL    HW119577   1.259   1.133   4.007
 6226SOL    HW219578   1.340   1.274   4.025
 6227SOL     OW19579   3.197   4.817   5.163
 6227SOL    HW119580   3.286   4.853   5.133
 6227SOL    HW219581   3.181   4.842   5.258
 6228SOL     OW19582   0.633   2.400   3.342
 6228SOL    HW119583   0.591   2.335   3.405
 6228SOL    HW219584   0.585   2.487   3.347
 6229SOL     OW19585   0.084   2.910   5.222
 6229SOL    HW119586   0.109   2.845   5.294
 6229SOL    HW219587   7.005   2.924   5.223
 6230SOL     OW19588   1.636   1.987   3.251
 6230SOL    HW119589   1.550   2.035   3.239
 6230SOL    HW219590   1.670   2.002   3.344
 6231SOL     OW19591   5.181   5.917   0.717
 6231SOL    HW119592   5.211   5.856   0.791
 6231SOL    HW219593   5.259   5.943   0.661
 6232SOL     OW19594   6.167   1.367   0.461
 6232SOL    HW119595   6.149   1.321   0.548
 6232SOL    HW219596   6.265   1.368   0.444
 6233SOL     OW19597   6.912   3.242   1.590
 6233SOL    HW119598   6.904   3.318   1.654
 6233SOL    HW219599   6.863   3.163   1.627
 6234SOL     OW19600   6.808   0.372   5.560
 6234SOL    HW119601   6.785   0.276   5.579
 6234SOL    HW219602   6.769   0.398   5.471
 6235SOL     OW19603   0.144   0.555   1.719
 6235SOL    HW119604   0.234   0.598   1.731
 6235SOL    HW219605   0.086   0.614   1.663
 6236SOL     OW19606   6.997   4.564   0.473
 6236SOL    HW119607   0.068   4.568   0.431
 6236SOL    HW219608   6.984   4.643   0.533
 6237SOL     OW19609   3.314   6.665   0.036
 6237SOL    HW119610   3.341   6.749   0.083
 6237SOL    HW219611   3.357   6.587   0.081
 6238SOL     OW19612   4.305   6.760   3.563
 6238SOL    HW119613   4.268   6.783   3.473
 6238SOL    HW219614   4.255   6.811   3.633
 6239SOL     OW19615   3.427   0.635   1.355
 6239SOL    HW119616   3.399   0.569   1.285
 6239SOL    HW219617   3.498   0.695   1.318
 6240SOL     OW19618   2.942   3.645   4.918
 6240SOL    HW119619   2.916   3.581   4.846
 6240SOL    HW219620   2.893   3.623   5.002
 6241SOL     OW19621   4.101   0.329   3.553
 6241SOL    HW119622   4.030   0.397   3.533
 6241SOL    HW219623   4.059   0.249   3.596
 6242SOL     OW19624   2.763   1.092   3.870
 6242SOL    HW119625   2.768   1.159   3.944
 6242SOL    HW219626   2.836   1.110   3.804
 6243SOL     OW19627   6.762   0.660   5.690
 6243SOL    HW119628   6.852   0.691   5.720
 6243SOL    HW219629   6.772   0.593   5.616
 6244SOL     OW19630   4.987   4.050   3.249
 6244SOL    HW119631   4.935   4.058   3.165
 6244SOL    HW219632   4.955   3.970   3.301
 6245SOL     OW19633   1.022   4.941   1.644
 6245SOL    HW119634   1.059   4.920   1.735
 6245SOL    HW219635   0.950   5.010   1.653
 6246SOL     OW19636   0.667   0.643   4.420
 6246SOL    HW119637   0.741   0.688   4.469
 6246SOL    HW219638   0.701   0.609   4.332
 6247SOL     OW19639   1.520   6.174   3.386
 6247SOL    HW119640   1.590   6.128   3.440
 6247SOL    HW219641   1.431   6.130   3.401
 6248SOL     OW19642   3.407   4.099   0.121
 6248SOL    HW119643   3.446   4.013   0.153
 6248SOL    HW219644   3.343   4.134   0.190
 6249SOL     OW19645   0.463   2.965   1.294
 6249SOL    HW119646   0.521   2.932   1.369
 6249SOL    HW219647   0.468   3.065   1.291
 6250SOL     OW19648   6.683   6.513   0.772
 6250SOL    HW119649   6.759   6.577   0.766
 6250SOL    HW219650   6.618   6.544   0.841
 6251SOL     OW19651   3.784   5.728   4.335
 6251SOL    HW119652   3.747   5.684   4.253
 6251SOL    HW219653   3.752   5.679   4.416
 6252SOL     OW19654   2.840   5.148   0.466
 6252SOL    HW119655   2.854   5.100   0.552
 6252SOL    HW219656   2.918   5.133   0.405
 6253SOL     OW19657   2.293   5.321   5.077
 6253SOL    HW119658   2.323   5.269   5.157
 6253SOL    HW219659   2.333   5.279   4.994
 6254SOL     OW19660   0.406   6.597   1.497
 6254SOL    HW119661   0.493   6.634   1.462
 6254SOL    HW219662   0.333   6.618   1.432
 6255SOL     OW19663   2.073   2.356   0.647
 6255SOL    HW119664   2.114   2.271   0.680
 6255SOL    HW219665   2.017   2.336   0.566
 6256SOL     OW19666   4.229   5.058   2.309
 6256SOL    HW119667   4.157   5.081   2.373
 6256SOL    HW219668   4.297   5.000   2.354
 6257SOL     OW19669   3.938   3.345   0.413
 6257SOL    HW119670   3.979   3.259   0.441
 6257SOL    HW219671   3.958   3.362   0.317
 6258SOL     OW19672   3.166   0.318   5.258
 6258SOL    HW119673   3.217   0.270   5.329
 6258SOL    HW219674   3.133   0.252   5.190
 6259SOL     OW19675   1.905   0.961   6.249
 6259SOL    HW119676   1.898   0.898   6.327
 6259SOL    HW219677   1.908   0.908   6.164
 6260SOL     OW19678   1.892   0.453   0.857
 6260SOL    HW119679   1.929   0.383   0.918
 6260SOL    HW219680   1.809   0.419   0.813
 6261SOL     OW19681   4.656   6.654   1.001
 6261SOL    HW119682   4.657   6.733   1.062
 6261SOL    HW219683   4.637   6.684   0.908
 6262SOL     OW19684   0.959   6.091   2.516
 6262SOL    HW119685   0.876   6.039   2.532
 6262SOL    HW219686   1.035   6.048   2.564
 6263SOL     OW19687   0.087   6.353   5.470
 6263SOL    HW119688   0.022   6.406   5.414
 6263SOL    HW219689   0.070   6.256   5.458
 6264SOL     OW19690   1.250   6.970   1.265
 6264SOL    HW119691   1.162   7.007   1.294
 6264SOL    HW219692   1.313   0.025   1.245
 6265SOL     OW19693   3.869   2.699   0.705
 6265SOL    HW119694   3.787   2.664   0.660
 6265SOL    HW219695   3.850   2.714   0.802
 6266SOL     OW19696   3.898   6.754   3.506
 6266SOL    HW119697   3.850   6.781   3.423
 6266SOL    HW219698   3.971   6.690   3.483
 6267SOL     OW19699   1.020   0.030   5.310
 6267SOL    HW119700   1.040   0.032   5.408
 6267SOL    HW219701   1.068   6.974   5.267
 6268SOL     OW19702   3.013   0.822   2.215
 6268SOL    HW119703   2.960   0.748   2.174
 6268SOL    HW219704   3.010   0.813   2.315
 6269SOL     OW19705   5.573   6.573   1.477
 6269SOL    HW119706   5.478   6.550   1.459
 6269SOL    HW219707   5.630   6.492   1.464
 6270SOL     OW19708   0.622   6.402   0.442
 6270SOL    HW119709   0.703   6.454   0.414
 6270SOL    HW219710   0.642   6.304   0.436
 6271SOL     OW19711   6.289   2.744   6.681
 6271SOL    HW119712   6.257   2.726   6.588
 6271SOL    HW219713   6.388   2.729   6.685
 6272SOL     OW19714   0.623   0.591   0.365
 6272SOL    HW119715   0.703   0.634   0.408
 6272SOL    HW219716   0.654   0.522   0.300
 6273SOL     OW19717   0.270   6.027   3.332
 6273SOL    HW119718   0.352   6.040   3.388
 6273SOL    HW219719   0.203   5.973   3.383
 6274SOL     OW19720   2.510   0.118   4.864
 6274SOL    HW119721   2.509   0.183   4.788
 6274SOL    HW219722   2.426   0.127   4.917
 6275SOL     OW19723   2.043   6.133   0.796
 6275SOL    HW119724   1.980   6.204   0.764
 6275SOL    HW219725   2.117   6.121   0.729
 6276SOL     OW19726   3.609   5.639   3.624
 6276SOL    HW119727   3.689   5.698   3.611
 6276SOL    HW219728   3.538   5.664   3.557
 6277SOL     OW19729   5.253   1.998   0.992
 6277SOL    HW119730   5.324   1.979   0.924
 6277SOL    HW219731   5.262   2.092   1.024
 6278SOL     OW19732   3.949   0.646   5.900
 6278SOL    HW119733   4.047   0.662   5.890
 6278SOL    HW219734   3.907   0.724   5.947
 6279SOL     OW19735   3.939   6.173   0.678
 6279SOL    HW119736   4.016   6.110   0.682
 6279SOL    HW219737   3.886   6.156   0.594
 6280SOL     OW19738   0.220   1.134   6.541
 6280SOL    HW119739   0.234   1.132   6.640
 6280SOL    HW219740   0.214   1.229   6.510
 6281SOL     OW19741   6.004   4.898   3.716
 6281SOL    HW119742   5.957   4.921   3.631
 6281SOL    HW219743   6.014   4.980   3.771
 6282SOL     OW19744   6.332   3.331   5.192
 6282SOL    HW119745   6.234   3.335   5.171
 6282SOL    HW219746   6.382   3.390   5.129
 6283SOL     OW19747   0.763   4.759   4.507
 6283SOL    HW119748   0.784   4.669   4.470
 6283SOL    HW219749   0.844   4.797   4.552
 6284SOL     OW19750   1.024   5.505   6.502
 6284SOL    HW119751   1.050   5.517   6.406
 6284SOL    HW219752   1.092   5.547   6.561
 6285SOL     OW19753   1.612   3.314   3.247
 6285SOL    HW119754   1.659   3.306   3.335
 6285SOL    HW219755   1.590   3.410   3.230
 6286SOL     OW19756   6.259   3.350   4.106
 6286SOL    HW119757   6.339   3.346   4.166
 6286SOL    HW219758   6.287   3.383   4.016
 6287SOL     OW19759   4.223   5.048   5.241
 6287SOL    HW119760   4.267   5.064   5.153
 6287SOL    HW219761   4.232   5.129   5.299
 6288SOL     OW19762   4.494   4.720   1.355
 6288SOL    HW119763   4.419   4.787   1.349
 6288SOL    HW219764   4.580   4.768   1.372
 6289SOL     OW19765   2.757   4.851   6.763
 6289SOL    HW119766   2.838   4.854   6.705
 6289SOL    HW219767   2.743   4.758   6.796
 6290SOL     OW19768   6.171   5.406   6.220
 6290SOL    HW119769   6.117   5.402   6.136
 6290SOL    HW219770   6.268   5.396   6.198
 6291SOL     OW19771   3.937   3.041   3.397
 6291SOL    HW119772   3.950   3.060   3.494
 6291SOL    HW219773   3.872   2.966   3.386
 6292SOL     OW19774   2.149   2.445   4.682
 6292SOL    HW119775   2.177   2.440   4.586
 6292SOL    HW219776   2.147   2.353   4.721
 6293SOL     OW19777   4.309   1.134   0.466
 6293SOL    HW119778   4.300   1.037   0.490
 6293SOL    HW219779   4.357   1.142   0.379
 6294SOL     OW19780   4.397   0.354   3.283
 6294SOL    HW119781   4.423   0.420   3.353
 6294SOL    HW219782   4.315   0.305   3.312
 6295SOL     OW19783   5.251   4.897   5.047
 6295SOL    HW119784   5.304   4.966   5.096
 6295SOL    HW219785   5.269   4.807   5.086
 6296SOL     OW19786   0.478   4.417   6.130
 6296SOL    HW119787   0.403   4.404   6.065
 6296SOL    HW219788   0.458   4.365   6.214
 6297SOL     OW19789   6.397   0.036   5.396
 6297SOL    HW119790   6.400   0.104   5.470
 6297SOL    HW219791   6.305   7.018   5.390
 6298SOL     OW19792   6.634   4.991   6.270
 6298SOL    HW119793   6.687   4.935   6.206
 6298SOL    HW219794   6.565   4.935   6.315
 6299SOL     OW19795   5.615   3.032   2.281
 6299SOL    HW119796   5.523   3.029   2.242
 6299SOL    HW219797   5.682   3.010   2.209
 6300SOL     OW19798   4.543   0.698   6.883
 6300SOL    HW119799   4.522   0.600   6.876
 6300SOL    HW219800   4.639   0.713   6.861
 6301SOL     OW19801   2.923   6.935   6.054
 6301SOL    HW119802   2.979   6.908   6.132
 6301SOL    HW219803   2.872   6.855   6.021
 6302SOL     OW19804   2.369   1.555   5.677
 6302SOL    HW119805   2.332   1.556   5.584
 6302SOL    HW219806   2.303   1.599   5.739
 6303SOL     OW19807   0.332   6.395   6.033
 6303SOL    HW119808   0.355   6.450   6.114
 6303SOL    HW219809   0.307   6.455   5.958
 6304SOL     OW19810   3.623   1.836   3.058
 6304SOL    HW119811   3.707   1.791   3.089
 6304SOL    HW219812   3.644   1.930   3.031
 6305SOL     OW19813   6.007   5.838   0.237
 6305SOL    HW119814   6.058   5.764   0.193
 6305SOL    HW219815   6.008   5.919   0.178
 6306SOL     OW19816   0.347   3.284   4.186
 6306SOL    HW119817   0.441   3.295   4.219
 6306SOL    HW219818   0.290   3.356   4.225
 6307SOL     OW19819   3.432   2.879   3.987
 6307SOL    HW119820   3.457   2.893   4.083
 6307SOL    HW219821   3.494   2.930   3.928
 6308SOL     OW19822   0.730   2.267   5.702
 6308SOL    HW119823   0.718   2.245   5.605
 6308SOL    HW219824   0.826   2.253   5.728
 6309SOL     OW19825   0.415   0.290   4.352
 6309SOL    HW119826   0.366   0.312   4.268
 6309SOL    HW219827   0.500   0.343   4.356
 6310SOL     OW19828   2.121   6.328   2.692
 6310SOL    HW119829   2.091   6.249   2.745
 6310SOL    HW219830   2.195   6.301   2.630
 6311SOL     OW19831   4.873   0.883   7.016
 6311SOL    HW119832   4.839   0.973   0.024
 6311SOL    HW219833   4.909   0.835   0.076
 6312SOL     OW19834   1.662   6.682   6.517
 6312SOL    HW119835   1.604   6.733   6.453
 6312SOL    HW219836   1.754   6.721   6.516
 6313SOL     OW19837   5.586   6.771   3.339
 6313SOL    HW119838   5.521   6.818   3.398
 6313SOL    HW219839   5.613   6.684   3.381
 6314SOL     OW19840   3.465   0.317   1.250
 6314SOL    HW119841   3.532   0.322   1.176
 6314SOL    HW219842   3.505   0.270   1.329
 6315SOL     OW19843   2.198   2.183   4.746
 6315SOL    HW119844   2.276   2.200   4.685
 6315SOL    HW219845   2.209   2.093   4.790
 6316SOL     OW19846   5.155   1.561   5.956
 6316SOL    HW119847   5.122   1.646   5.915
 6316SOL    HW219848   5.251   1.548   5.932
 6317SOL     OW19849   5.197   4.087   2.802
 6317SOL    HW119850   5.269   4.110   2.867
 6317SOL    HW219851   5.118   4.147   2.816
 6318SOL     OW19852   4.887   0.060   0.260
 6318SOL    HW119853   4.827   0.019   0.191
 6318SOL    HW219854   4.927   0.144   0.224
 6319SOL     OW19855   5.815   2.173   4.383
 6319SOL    HW119856   5.789   2.213   4.471
 6319SOL    HW219857   5.904   2.209   4.355
 6320SOL     OW19858   0.215   0.158   3.985
 6320SOL    HW119859   0.144   0.092   3.960
 6320SOL    HW219860   0.232   0.152   4.084
 6321SOL     OW19861   4.954   3.880   0.018
 6321SOL    HW119862   4.919   3.950   0.080
 6321SOL    HW219863   5.023   3.921   6.977
 6322SOL     OW19864   2.528   1.335   0.780
 6322SOL    HW119865   2.518   1.249   0.831
 6322SOL    HW219866   2.593   1.322   0.705
 6323SOL     OW19867   1.990   2.703   1.116
 6323SOL    HW119868   1.928   2.741   1.048
 6323SOL    HW219869   1.995   2.763   1.195
 6324SOL     OW19870   4.138   1.610   0.630
 6324SOL    HW119871   4.197   1.530   0.635
 6324SOL    HW219872   4.185   1.683   0.579
 6325SOL     OW19873   2.052   2.749   2.919
 6325SOL    HW119874   2.068   2.654   2.893
 6325SOL    HW219875   2.134   2.785   2.964
 6326SOL     OW19876   5.113   5.450   5.891
 6326SOL    HW119877   5.025   5.449   5.843
 6326SOL    HW219878   5.183   5.410   5.832
 6327SOL     OW19879   0.089   1.246   3.715
 6327SOL    HW119880   7.015   1.254   3.748
 6327SOL    HW219881   0.127   1.337   3.699
 6328SOL     OW19882   4.686   3.486   0.214
 6328SOL    HW119883   4.594   3.485   0.173
 6328SOL    HW219884   4.688   3.421   0.290
 6329SOL     OW19885   0.757   2.954   5.056
 6329SOL    HW119886   0.788   2.863   5.028
 6329SOL    HW219887   0.659   2.963   5.037
 6330SOL     OW19888   5.563   0.176   2.396
 6330SOL    HW119889   5.617   0.208   2.318
 6330SOL    HW219890   5.595   0.085   2.423
 6331SOL     OW19891   6.621   2.997   4.659
 6331SOL    HW119892   6.583   3.054   4.732
 6331SOL    HW219893   6.598   2.902   4.677
 6332SOL     OW19894   0.937   2.155   1.460
 6332SOL    HW119895   1.022   2.130   1.413
 6332SOL    HW219896   0.945   2.134   1.557
 6333SOL     OW19897   4.811   6.850   6.436
 6333SOL    HW119898   4.910   6.833   6.433
 6333SOL    HW219899   4.769   6.785   6.499
 6334SOL     OW19900   2.576   1.529   2.095
 6334SOL    HW119901   2.501   1.463   2.088
 6334SOL    HW219902   2.622   1.537   2.007
 6335SOL     OW19903   4.861   1.261   0.572
 6335SOL    HW119904   4.847   1.359   0.562
 6335SOL    HW219905   4.838   1.233   0.666
 6336SOL     OW19906   0.128   4.093   6.495
 6336SOL    HW119907   0.119   4.192   6.488
 6336SOL    HW219908   0.153   4.069   6.589
 6337SOL     OW19909   4.240   6.007   4.922
 6337SOL    HW119910   4.234   5.928   4.861
 6337SOL    HW219911   4.300   6.076   4.883
 6338SOL     OW19912   3.169   1.672   4.362
 6338SOL    HW119913   3.142   1.616   4.283
 6338SOL    HW219914   3.178   1.613   4.442
 6339SOL     OW19915   1.027   3.756   2.958
 6339SOL    HW119916   1.082   3.742   2.875
 6339SOL    HW219917   0.941   3.801   2.933
 6340SOL     OW19918   2.306   3.238   1.132
 6340SOL    HW119919   2.283   3.321   1.081
 6340SOL    HW219920   2.222   3.186   1.151
 6341SOL     OW19921   1.124   3.338   3.481
 6341SOL    HW119922   1.090   3.371   3.569
 6341SOL    HW219923   1.124   3.238   3.481
 6342SOL     OW19924   3.330   1.392   0.596
 6342SOL    HW119925   3.322   1.439   0.508
 6342SOL    HW219926   3.405   1.432   0.648
 6343SOL     OW19927   3.871   6.372   6.467
 6343SOL    HW119928   3.954   6.332   6.506
 6343SOL    HW219929   3.878   6.373   6.367
 6344SOL     OW19930   6.096   2.166   3.803
 6344SOL    HW119931   6.015   2.198   3.754
 6344SOL    HW219932   6.116   2.072   3.776
 6345SOL     OW19933   5.034   3.094   2.004
 6345SOL    HW119934   4.937   3.106   1.987
 6345SOL    HW219935   5.086   3.129   1.926
 6346SOL     OW19936   6.906   4.184   5.112
 6346SOL    HW119937   6.919   4.282   5.101
 6346SOL    HW219938   6.981   4.145   5.165
 6347SOL     OW19939   2.281   1.748   2.170
 6347SOL    HW119940   2.319   1.735   2.261
 6347SOL    HW219941   2.220   1.672   2.148
 6348SOL     OW19942   0.862   2.041   5.870
 6348SOL    HW119943   0.911   2.128   5.878
 6348SOL    HW219944   0.912   1.980   5.809
 6349SOL     OW19945   1.580   0.160   0.311
 6349SOL    HW119946   1.643   0.236   0.332
 6349SOL    HW219947   1.508   0.157   0.381
 6350SOL     OW19948   0.727   5.108   2.800
 6350SOL    HW119949   0.809   5.145   2.844
 6350SOL    HW219950   0.704   5.019   2.841
 6351SOL     OW19951   6.436   4.266   3.894
 6351SOL    HW119952   6.494   4.342   3.926
 6351SOL    HW219953   6.402   4.287   3.803
 6352SOL     OW19954   2.696   0.446   3.931
 6352SOL    HW119955   2.676   0.515   3.861
 6352SOL    HW219956   2.617   0.435   3.990
 6353SOL     OW19957   2.397   5.589   0.441
 6353SOL    HW119958   2.461   5.665   0.430
 6353SOL    HW219959   2.382   5.545   0.353
 6354SOL     OW19960   3.830   5.930   2.610
 6354SOL    HW119961   3.825   5.876   2.694
 6354SOL    HW219962   3.881   6.014   2.628
 6355SOL     OW19963   3.022   5.809   0.436
 6355SOL    HW119964   3.097   5.813   0.371
 6355SOL    HW219965   2.981   5.900   0.446
 6356SOL     OW19966   5.448   5.037   0.522
 6356SOL    HW119967   5.496   4.952   0.501
 6356SOL    HW219968   5.490   5.112   0.471
 6357SOL     OW19969   5.712   2.317   1.655
 6357SOL    HW119970   5.641   2.325   1.725
 6357SOL    HW219971   5.788   2.378   1.678
 6358SOL     OW19972   1.017   2.371   6.900
 6358SOL    HW119973   1.063   2.437   6.840
 6358SOL    HW219974   0.966   2.420   6.971
 6359SOL     OW19975   5.946   6.256   0.800
 6359SOL    HW119976   5.928   6.354   0.788
 6359SOL    HW219977   5.879   6.203   0.749
 6360SOL     OW19978   0.453   3.737   4.317
 6360SOL    HW119979   0.523   3.703   4.254
 6360SOL    HW219980   0.474   3.708   4.410
 6361SOL     OW19981   0.439   0.995   0.379
 6361SOL    HW119982   0.347   1.005   0.339
 6361SOL    HW219983   0.456   0.899   0.399
 6362SOL     OW19984   1.618   6.430   7.006
 6362SOL    HW119985   1.603   6.474   6.917
 6362SOL    HW219986   1.561   6.348   7.012
 6363SOL     OW19987   2.825   4.909   3.989
 6363SOL    HW119988   2.753   4.842   3.974
 6363SOL    HW219989   2.911   4.862   4.009
 6364SOL     OW19990   2.293   2.165   5.459
 6364SOL    HW119991   2.197   2.153   5.435
 6364SOL    HW219992   2.340   2.212   5.384
 6365SOL     OW19993   5.730   5.947   5.036
 6365SOL    HW119994   5.782   5.972   4.954
 6365SOL    HW219995   5.677   5.864   5.019
 6366SOL     OW19996   6.645   6.617   4.842
 6366SOL    HW119997   6.615   6.649   4.932
 6366SOL    HW219998   6.672   6.696   4.787
 6367SOL     OW19999   3.312   1.956   2.685
 6367SOL    HW120000   3.218   1.937   2.715
 6367SOL    HW220001   3.376   1.912   2.748
 6368SOL     OW20002   4.323   4.643   4.251
 6368SOL    HW120003   4.329   4.653   4.351
 6368SOL    HW220004   4.270   4.719   4.213
 6369SOL     OW20005   2.077   6.674   4.601
 6369SOL    HW120006   2.009   6.740   4.632
 6369SOL    HW220007   2.121   6.632   4.680
 6370SOL     OW20008   5.097   4.097   3.853
 6370SOL    HW120009   5.040   4.050   3.785
 6370SOL    HW220010   5.087   4.052   3.941
 6371SOL     OW20011   5.698   3.881   1.406
 6371SOL    HW120012   5.656   3.790   1.407
 6371SOL    HW220013   5.771   3.883   1.338
 6372SOL     OW20014   0.666   1.186   1.961
 6372SOL    HW120015   0.602   1.142   1.897
 6372SOL    HW220016   0.760   1.166   1.933
 6373SOL     OW20017   5.800   3.967   2.133
 6373SOL    HW120018   5.784   3.881   2.085
 6373SOL    HW220019   5.756   3.964   2.223
 6374SOL     OW20020   4.508   2.469   0.347
 6374SOL    HW120021   4.465   2.379   0.348
 6374SOL    HW220022   4.505   2.508   0.439
 6375SOL     OW20023   0.724   2.440   2.084
 6375SOL    HW120024   0.646   2.423   2.024
 6375SOL    HW220025   0.728   2.537   2.107
 6376SOL     OW20026   3.881   1.718   5.538
 6376SOL    HW120027   3.784   1.722   5.562
 6376SOL    HW220028   3.912   1.809   5.510
 6377SOL     OW20029   6.582   1.249   5.606
 6377SOL    HW120030   6.675   1.285   5.618
 6377SOL    HW220031   6.536   1.302   5.535
 6378SOL     OW20032   4.833   5.537   3.088
 6378SOL    HW120033   4.785   5.509   3.005
 6378SOL    HW220034   4.789   5.618   3.127
 6379SOL     OW20035   1.124   4.394   5.625
 6379SOL    HW120036   1.190   4.368   5.554
 6379SOL    HW220037   1.074   4.476   5.595
 6380SOL     OW20038   0.017   3.163   3.990
 6380SOL    HW120039   6.992   3.178   4.078
 6380SOL    HW220040   0.109   3.127   4.005
 6381SOL     OW20041   4.402   2.929   0.287
 6381SOL    HW120042   4.348   2.984   0.351
 6381SOL    HW220043   4.351   2.918   0.202
 6382SOL     OW20044   3.259   2.042   1.100
 6382SOL    HW120045   3.233   2.136   1.122
 6382SOL    HW220046   3.295   1.997   1.181
 6383SOL     OW20047   1.582   2.372   2.036
 6383SOL    HW120048   1.615   2.460   2.070
 6383SOL    HW220049   1.639   2.299   2.072
 6384SOL     OW20050   5.614   3.016   1.938
 6384SOL    HW120051   5.701   2.994   1.894
 6384SOL    HW220052   5.550   3.051   1.870
 6385SOL     OW20053   6.774   3.871   1.797
 6385SOL    HW120054   6.799   3.816   1.718
 6385SOL    HW220055   6.777   3.968   1.773
 6386SOL     OW20056   1.949   3.710   0.162
 6386SOL    HW120057   1.990   3.630   0.206
 6386SOL    HW220058   1.855   3.688   0.135
 6387SOL     OW20059   6.086   1.388   0.171
 6387SOL    HW120060   6.071   1.473   0.121
 6387SOL    HW220061   6.129   1.407   0.259
 6388SOL     OW20062   6.189   4.604   1.978
 6388SOL    HW120063   6.184   4.589   2.077
 6388SOL    HW220064   6.144   4.527   1.932
 6389SOL     OW20065   1.442   6.778   1.325
 6389SOL    HW120066   1.393   6.693   1.342
 6389SOL    HW220067   1.376   6.852   1.310
 6390SOL     OW20068   6.448   0.491   6.382
 6390SOL    HW120069   6.546   0.475   6.368
 6390SOL    HW220070   6.405   0.516   6.296
 6391SOL     OW20071   1.449   1.423   6.429
 6391SOL    HW120072   1.500   1.501   6.466
 6391SOL    HW220073   1.370   1.457   6.378
 6392SOL     OW20074   3.023   6.502   3.541
 6392SOL    HW120075   3.066   6.444   3.610
 6392SOL    HW220076   3.063   6.482   3.451
 6393SOL     OW20077   5.813   6.072   1.453
 6393SOL    HW120078   5.778   5.980   1.435
 6393SOL    HW220079   5.747   6.122   1.509
 6394SOL     OW20080   1.652   4.786   0.920
 6394SOL    HW120081   1.580   4.739   0.971
 6394SOL    HW220082   1.649   4.759   0.824
 6395SOL     OW20083   6.973   3.585   2.555
 6395SOL    HW120084   0.011   3.602   2.475
 6395SOL    HW220085   6.946   3.489   2.556
 6396SOL     OW20086   6.147   3.809   5.780
 6396SOL    HW120087   6.158   3.894   5.831
 6396SOL    HW220088   6.162   3.826   5.683
 6397SOL     OW20089   6.143   1.204   2.382
 6397SOL    HW120090   6.123   1.213   2.285
 6397SOL    HW220091   6.139   1.294   2.425
 6398SOL     OW20092   1.280   6.584   1.462
 6398SOL    HW120093   1.262   6.495   1.504
 6398SOL    HW220094   1.246   6.656   1.522
 6399SOL     OW20095   1.946   0.242   0.283
 6399SOL    HW120096   2.022   0.228   0.347
 6399SOL    HW220097   1.859   0.237   0.332
 6400SOL     OW20098   2.106   5.222   2.665
 6400SOL    HW120099   2.053   5.226   2.749
 6400SOL    HW220100   2.201   5.247   2.683
 6401SOL     OW20101   5.023   5.049   3.309
 6401SOL    HW120102   5.052   5.011   3.397
 6401SOL    HW220103   5.003   4.975   3.245
 6402SOL     OW20104   2.133   3.439   3.615
 6402SOL    HW120105   2.179   3.508   3.559
 6402SOL    HW220106   2.093   3.482   3.696
 6403SOL     OW20107   5.596   6.481   5.433
 6403SOL    HW120108   5.690   6.451   5.419
 6403SOL    HW220109   5.546   6.478   5.346
 6404SOL     OW20110   3.869   1.719   2.529
 6404SOL    HW120111   3.895   1.784   2.458
 6404SOL    HW220112   3.769   1.713   2.534
 6405SOL     OW20113   4.508   1.678   3.926
 6405SOL    HW120114   4.432   1.650   3.868
 6405SOL    HW220115   4.481   1.668   4.022
 6406SOL     OW20116   1.512   2.977   2.284
 6406SOL    HW120117   1.464   3.020   2.208
 6406SOL    HW220118   1.600   2.942   2.253
 6407SOL     OW20119   1.631   6.392   3.121
 6407SOL    HW120120   1.711   6.339   3.150
 6407SOL    HW220121   1.657   6.456   3.049
 6408SOL     OW20122   5.877   0.705   1.014
 6408SOL    HW120123   5.853   0.785   0.959
 6408SOL    HW220124   5.950   0.654   0.970
 6409SOL     OW20125   0.106   4.972   3.134
 6409SOL    HW120126   0.133   4.886   3.176
 6409SOL    HW220127   0.036   4.955   3.065
 6410SOL     OW20128   2.150   0.814   6.851
 6410SOL    HW120129   2.232   0.769   6.816
 6410SOL    HW220130   2.069   0.775   6.807
 6411SOL     OW20131   0.982   3.082   2.186
 6411SOL    HW120132   0.967   3.050   2.279
 6411SOL    HW220133   1.041   3.163   2.187
 6412SOL     OW20134   2.751   0.626   6.983
 6412SOL    HW120135   2.809   0.667   0.033
 6412SOL    HW220136   2.680   0.571   0.006
 6413SOL     OW20137   4.120   4.818   4.552
 6413SOL    HW120138   4.134   4.811   4.651
 6413SOL    HW220139   4.190   4.764   4.505
 6414SOL     OW20140   6.464   6.337   6.768
 6414SOL    HW120141   6.516   6.295   6.843
 6414SOL    HW220142   6.468   6.436   6.776
 6415SOL     OW20143   1.664   3.160   3.807
 6415SOL    HW120144   1.580   3.171   3.755
 6415SOL    HW220145   1.717   3.245   3.803
 6416SOL     OW20146   2.913   6.818   6.569
 6416SOL    HW120147   2.891   6.734   6.619
 6416SOL    HW220148   2.986   6.867   6.616
 6417SOL     OW20149   5.201   2.343   0.565
 6417SOL    HW120150   5.292   2.309   0.586
 6417SOL    HW220151   5.134   2.295   0.621
 6418SOL     OW20152   5.310   4.012   2.573
 6418SOL    HW120153   5.292   3.927   2.523
 6418SOL    HW220154   5.246   4.020   2.649
 6419SOL     OW20155   0.136   5.614   5.404
 6419SOL    HW120156   0.083   5.576   5.479
 6419SOL    HW220157   0.131   5.552   5.325
 6420SOL     OW20158   1.527   1.745   3.628
 6420SOL    HW120159   1.499   1.704   3.541
 6420SOL    HW220160   1.502   1.841   3.629
 6421SOL     OW20161   5.157   0.500   0.965
 6421SOL    HW120162   5.117   0.540   1.047
 6421SOL    HW220163   5.254   0.526   0.958
 6422SOL     OW20164   6.506   1.588   5.612
 6422SOL    HW120165   6.466   1.549   5.695
 6422SOL    HW220166   6.605   1.595   5.623
 6423SOL     OW20167   4.572   5.495   4.902
 6423SOL    HW120168   4.526   5.407   4.890
 6423SOL    HW220169   4.516   5.555   4.958
 6424SOL     OW20170   1.371   3.527   4.720
 6424SOL    HW120171   1.412   3.596   4.781
 6424SOL    HW220172   1.438   3.456   4.699
 6425SOL     OW20173   0.435   5.817   2.800
 6425SOL    HW120174   0.520   5.768   2.779
 6425SOL    HW220175   0.402   5.789   2.889
 6426SOL     OW20176   5.624   4.890   3.939
 6426SOL    HW120177   5.649   4.951   4.014
 6426SOL    HW220178   5.526   4.873   3.941
 6427SOL     OW20179   2.930   3.702   2.999
 6427SOL    HW120180   2.903   3.621   2.946
 6427SOL    HW220181   2.877   3.781   2.969
 6428SOL     OW20182   5.311   3.262   6.949
 6428SOL    HW120183   5.376   3.300   7.015
 6428SOL    HW220184   5.252   3.334   6.915
 6429SOL     OW20185   1.237   0.338   5.308
 6429SOL    HW120186   1.149   0.324   5.352
 6429SOL    HW220187   1.231   0.414   5.243
 6430SOL     OW20188   6.124   0.955   4.465
 6430SOL    HW120189   6.064   0.909   4.400
 6430SOL    HW220190   6.206   0.900   4.481
 6431SOL     OW20191   4.670   5.186   2.774
 6431SOL    HW120192   4.641   5.171   2.680
 6431SOL    HW220193   4.598   5.234   2.824
 6432SOL     OW20194   3.440   3.962   6.095
 6432SOL    HW120195   3.521   3.943   6.150
 6432SOL    HW220196   3.358   3.937   6.146
 6433SOL     OW20197   3.300   5.360   0.027
 6433SOL    HW120198   3.239   5.281   0.023
 6433SOL    HW220199   3.254   5.439   7.006
 6434SOL     OW20200   2.630   6.544   5.873
 6434SOL    HW120201   2.688   6.529   5.793
 6434SOL    HW220202   2.588   6.635   5.867
 6435SOL     OW20203   6.347   0.069   0.720
 6435SOL    HW120204   6.396   0.152   0.693
 6435SOL    HW220205   6.363   0.050   0.817
 6436SOL     OW20206   0.930   3.429   3.285
 6436SOL    HW120207   1.007   3.379   3.326
 6436SOL    HW220208   0.848   3.415   3.339
 6437SOL     OW20209   1.167   2.069   5.892
 6437SOL    HW120210   1.206   2.161   5.901
 6437SOL    HW220211   1.237   2.001   5.910
 6438SOL     OW20212   1.355   4.942   6.325
 6438SOL    HW120213   1.317   4.852   6.346
 6438SOL    HW220214   1.448   4.932   6.290
 6439SOL     OW20215   6.284   0.921   3.154
 6439SOL    HW120216   6.216   0.968   3.098
 6439SOL    HW220217   6.245   0.905   3.245
 6440SOL     OW20218   2.640   0.748   6.250
 6440SOL    HW120219   2.588   0.675   6.205
 6440SOL    HW220220   2.701   0.791   6.184
 6441SOL     OW20221   0.273   1.329   2.262
 6441SOL    HW120222   0.301   1.275   2.341
 6441SOL    HW220223   0.351   1.344   2.201
 6442SOL     OW20224   2.479   2.068   4.889
 6442SOL    HW120225   2.558   2.007   4.884
 6442SOL    HW220226   2.479   2.128   4.809
 6443SOL     OW20227   3.639   2.343   6.021
 6443SOL    HW120228   3.737   2.362   6.011
 6443SOL    HW220229   3.610   2.366   6.114
 6444SOL     OW20230   6.699   2.682   4.540
 6444SOL    HW120231   6.677   2.646   4.449
 6444SOL    HW220232   6.794   2.658   4.563
 6445SOL     OW20233   4.015   3.176   3.180
 6445SOL    HW120234   3.981   3.121   3.256
 6445SOL    HW220235   4.108   3.208   3.200
 6446SOL     OW20236   0.961   2.193   0.136
 6446SOL    HW120237   0.870   2.175   0.099
 6446SOL    HW220238   1.029   2.148   0.079
 6447SOL     OW20239   6.485   4.446   1.830
 6447SOL    HW120240   6.467   4.474   1.924
 6447SOL    HW220241   6.403   4.464   1.774
 6448SOL     OW20242   5.198   5.429   1.443
 6448SOL    HW120243   5.177   5.483   1.524
 6448SOL    HW220244   5.237   5.341   1.470
 6449SOL     OW20245   2.594   5.033   2.151
 6449SOL    HW120246   2.671   5.028   2.087
 6449SOL    HW220247   2.518   4.978   2.117
 6450SOL     OW20248   1.496   3.967   0.012
 6450SOL    HW120249   1.433   3.987   6.957
 6450SOL    HW220250   1.482   4.033   0.086
 6451SOL     OW20251   2.920   1.847   5.786
 6451SOL    HW120252   2.900   1.849   5.688
 6451SOL    HW220253   3.010   1.889   5.802
 6452SOL     OW20254   4.941   3.836   2.594
 6452SOL    HW120255   4.942   3.933   2.570
 6452SOL    HW220256   4.860   3.817   2.649
 6453SOL     OW20257   2.982   6.955   1.442
 6453SOL    HW120258   2.890   6.979   1.411
 6453SOL    HW220259   2.976   6.888   1.516
 6454SOL     OW20260   0.204   1.567   1.700
 6454SOL    HW120261   0.285   1.518   1.731
 6454SOL    HW220262   0.131   1.501   1.679
 6455SOL     OW20263   6.783   3.659   3.460
 6455SOL    HW120264   6.701   3.706   3.492
 6455SOL    HW220265   6.820   3.603   3.534
 6456SOL     OW20266   1.102   0.547   3.042
 6456SOL    HW120267   1.116   0.563   3.139
 6456SOL    HW220268   1.024   0.600   3.010
 6457SOL     OW20269   4.873   6.485   2.290
 6457SOL    HW120270   4.935   6.424   2.339
 6457SOL    HW220271   4.921   6.569   2.266
 6458SOL     OW20272   1.485   5.005   5.179
 6458SOL    HW120273   1.529   5.070   5.119
 6458SOL    HW220274   1.478   4.916   5.134
 6459SOL     OW20275   6.015   2.320   2.656
 6459SOL    HW120276   6.065   2.405   2.675
 6459SOL    HW220277   6.045   2.249   2.720
 6460SOL     OW20278   5.466   6.230   6.010
 6460SOL    HW120279   5.468   6.139   6.053
 6460SOL    HW220280   5.558   6.256   5.982
 6461SOL     OW20281   3.060   5.125   0.312
 6461SOL    HW120282   3.062   5.165   0.220
 6461SOL    HW220283   3.093   5.031   0.307
 6462SOL     OW20284   0.501   3.017   4.444
 6462SOL    HW120285   0.542   3.017   4.353
 6462SOL    HW220286   0.505   3.110   4.483
 6463SOL     OW20287   5.449   6.809   0.868
 6463SOL    HW120288   5.366   6.828   0.920
 6463SOL    HW220289   5.432   6.734   0.804
 6464SOL     OW20290   1.328   5.861   5.328
 6464SOL    HW120291   1.294   5.861   5.234
 6464SOL    HW220292   1.423   5.893   5.329
 6465SOL     OW20293   6.384   2.273   2.476
 6465SOL    HW120294   6.340   2.211   2.540
 6465SOL    HW220295   6.438   2.221   2.410
 6466SOL     OW20296   0.011   2.218   6.574
 6466SOL    HW120297   0.058   2.269   6.646
 6466SOL    HW220298   7.012   2.278   6.497
 6467SOL     OW20299   4.448   0.650   0.756
 6467SOL    HW120300   4.429   0.577   0.689
 6467SOL    HW220301   4.511   0.616   0.825
 6468SOL     OW20302   3.510   6.320   1.488
 6468SOL    HW120303   3.602   6.307   1.450
 6468SOL    HW220304   3.442   6.306   1.417
 6469SOL     OW20305   3.156   2.108   4.138
 6469SOL    HW120306   3.215   2.139   4.063
 6469SOL    HW220307   3.202   2.126   4.225
 6470SOL     OW20308   5.728   2.494   0.028
 6470SOL    HW120309   5.821   2.493   0.063
 6470SOL    HW220310   5.674   2.562   0.078
 6471SOL     OW20311   0.607   6.597   5.207
 6471SOL    HW120312   0.618   6.513   5.260
 6471SOL    HW220313   0.680   6.661   5.229
 6472SOL     OW20314   6.171   6.093   2.795
 6472SOL    HW120315   6.184   6.101   2.894
 6472SOL    HW220316   6.223   6.015   2.761
 6473SOL     OW20317   1.968   1.951   5.204
 6473SOL    HW120318   1.995   2.026   5.264
 6473SOL    HW220319   1.932   1.875   5.258
 6474SOL     OW20320   3.856   5.429   5.608
 6474SOL    HW120321   3.859   5.514   5.555
 6474SOL    HW220322   3.810   5.359   5.554
 6475SOL     OW20323   5.957   4.971   4.110
 6475SOL    HW120324   6.043   4.969   4.160
 6475SOL    HW220325   5.969   5.024   4.026
 6476SOL     OW20326   4.682   2.948   6.392
 6476SOL    HW120327   4.637   3.007   6.458
 6476SOL    HW220328   4.718   3.003   6.316
 6477SOL     OW20329   6.577   5.035   0.729
 6477SOL    HW120330   6.567   4.953   0.785
 6477SOL    HW220331   6.487   5.066   0.697
 6478SOL     OW20332   3.144   6.561   2.448
 6478SOL    HW120333   3.120   6.469   2.481
 6478SOL    HW220334   3.061   6.616   2.438
 6479SOL     OW20335   3.085   5.137   4.282
 6479SOL    HW120336   3.096   5.043   4.248
 6479SOL    HW220337   3.101   5.202   4.208
 6480SOL     OW20338   2.310   1.250   6.912
 6480SOL    HW120339   2.295   1.322   6.844
 6480SOL    HW220340   2.378   1.281   6.979
 6481SOL     OW20341   3.272   2.661   1.733
 6481SOL    HW120342   3.328   2.580   1.718
 6481SOL    HW220343   3.332   2.741   1.745
 6482SOL     OW20344   6.251   2.382   5.811
 6482SOL    HW120345   6.213   2.412   5.724
 6482SOL    HW220346   6.222   2.444   5.884
 6483SOL     OW20347   0.411   6.287   3.990
 6483SOL    HW120348   0.423   6.303   3.892
 6483SOL    HW220349   0.496   6.250   4.028
 6484SOL     OW20350   2.411   1.934   2.785
 6484SOL    HW120351   2.441   1.848   2.827
 6484SOL    HW220352   2.419   2.008   2.851
 6485SOL     OW20353   1.860   5.667   4.324
 6485SOL    HW120354   1.805   5.749   4.307
 6485SOL    HW220355   1.920   5.650   4.246
 6486SOL     OW20356   0.940   5.291   2.877
 6486SOL    HW120357   1.020   5.350   2.873
 6486SOL    HW220358   0.902   5.293   2.970
 6487SOL     OW20359   1.264   6.478   4.675
 6487SOL    HW120360   1.203   6.403   4.650
 6487SOL    HW220361   1.225   6.565   4.646
 6488SOL     OW20362   4.291   5.879   5.166
 6488SOL    HW120363   4.379   5.927   5.169
 6488SOL    HW220364   4.236   5.916   5.091
 6489SOL     OW20365   3.095   3.483   6.310
 6489SOL    HW120366   3.046   3.468   6.396
 6489SOL    HW220367   3.164   3.411   6.297
 6490SOL     OW20368   2.772   1.506   6.413
 6490SOL    HW120369   2.736   1.465   6.329
 6490SOL    HW220370   2.802   1.599   6.395
 6491SOL     OW20371   2.990   0.912   1.960
 6491SOL    HW120372   2.950   1.003   1.965
 6491SOL    HW220373   2.991   0.870   2.051
 6492SOL     OW20374   4.092   3.603   5.051
 6492SOL    HW120375   4.069   3.678   4.989
 6492SOL    HW220376   4.029   3.603   5.128
 6493SOL     OW20377   1.625   4.474   6.330
 6493SOL    HW120378   1.673   4.390   6.352
 6493SOL    HW220379   1.629   4.537   6.409
 6494SOL     OW20380   6.680   6.456   2.312
 6494SOL    HW120381   6.625   6.483   2.391
 6494SOL    HW220382   6.696   6.536   2.254
 6495SOL     OW20383   6.587   0.479   4.346
 6495SOL    HW120384   6.553   0.562   4.391
 6495SOL    HW220385   6.539   0.466   4.260
 6496SOL     OW20386   5.761   6.780   1.508
 6496SOL    HW120387   5.822   6.705   1.534
 6496SOL    HW220388   5.681   6.744   1.461
 6497SOL     OW20389   1.017   0.480   1.057
 6497SOL    HW120390   1.049   0.567   1.020
 6497SOL    HW220391   1.061   0.404   1.009
 6498SOL     OW20392   0.942   3.591   3.861
 6498SOL    HW120393   0.969   3.666   3.922
 6498SOL    HW220394   1.023   3.559   3.811
 6499SOL     OW20395   5.626   3.668   4.631
 6499SOL    HW120396   5.598   3.575   4.654
 6499SOL    HW220397   5.725   3.672   4.622
 6500SOL     OW20398   0.300   4.135   2.176
 6500SOL    HW120399   0.254   4.224   2.173
 6500SOL    HW220400   0.397   4.147   2.154
 6501SOL     OW20401   0.221   1.299   1.417
 6501SOL    HW120402   0.143   1.274   1.360
 6501SOL    HW220403   0.194   1.292   1.514
 6502SOL     OW20404   6.794   3.403   1.401
 6502SOL    HW120405   6.818   3.323   1.457
 6502SOL    HW220406   6.869   3.424   1.339
 6503SOL     OW20407   5.460   0.941   3.709
 6503SOL    HW120408   5.406   0.961   3.790
 6503SOL    HW220409   5.519   0.862   3.726
 6504SOL     OW20410   4.726   6.363   0.163
 6504SOL    HW120411   4.795   6.304   0.204
 6504SOL    HW220412   4.768   6.420   0.093
 6505SOL     OW20413   4.464   6.799   6.416
 6505SOL    HW120414   4.422   6.758   6.497
 6505SOL    HW220415   4.466   6.898   6.426
 6506SOL     OW20416   7.001   3.290   3.402
 6506SOL    HW120417   0.079   3.309   3.408
 6506SOL    HW220418   6.950   3.367   3.442
 6507SOL     OW20419   2.414   5.470   6.212
 6507SOL    HW120420   2.486   5.486   6.145
 6507SOL    HW220421   2.428   5.530   6.291
 6508SOL     OW20422   1.579   0.244   3.057
 6508SOL    HW120423   1.510   0.184   3.096
 6508SOL    HW220424   1.666   0.195   3.048
 6509SOL     OW20425   4.951   1.416   4.838
 6509SOL    HW120426   5.048   1.402   4.856
 6509SOL    HW220427   4.920   1.499   4.884
 6510SOL     OW20428   4.679   5.209   0.030
 6510SOL    HW120429   4.717   5.220   0.122
 6510SOL    HW220430   4.704   5.288   6.994
 6511SOL     OW20431   4.112   1.295   5.475
 6511SOL    HW120432   4.196   1.307   5.422
 6511SOL    HW220433   4.076   1.203   5.460
 6512SOL     OW20434   3.492   6.795   2.680
 6512SOL    HW120435   3.423   6.854   2.721
 6512SOL    HW220436   3.496   6.813   2.581
 6513SOL     OW20437   1.955   6.185   4.230
 6513SOL    HW120438   1.918   6.253   4.294
 6513SOL    HW220439   1.904   6.190   4.144
 6514SOL     OW20440   6.158   0.560   4.750
 6514SOL    HW120441   6.162   0.539   4.848
 6514SOL    HW220442   6.237   0.519   4.704
 6515SOL     OW20443   1.183   3.547   2.285
 6515SOL    HW120444   1.204   3.641   2.311
 6515SOL    HW220445   1.133   3.547   2.198
 6516SOL     OW20446   6.555   3.289   1.707
 6516SOL    HW120447   6.603   3.375   1.726
 6516SOL    HW220448   6.458   3.306   1.696
 6517SOL     OW20449   0.026   1.843   1.020
 6517SOL    HW120450   6.959   1.794   1.016
 6517SOL    HW220451   0.100   1.781   0.994
 6518SOL     OW20452   7.019   0.197   2.192
 6518SOL    HW120453   0.060   0.209   2.271
 6518SOL    HW220454   6.987   0.287   2.161
 6519SOL     OW20455   0.449   1.368   3.107
 6519SOL    HW120456   0.547   1.382   3.121
 6519SOL    HW220457   0.398   1.414   3.180
 6520SOL     OW20458   0.096   5.349   7.001
 6520SOL    HW120459   0.161   5.406   6.952
 6520SOL    HW220460   0.007   5.395   7.004
 6521SOL     OW20461   1.695   2.942   3.982
 6521SOL    HW120462   1.676   2.857   3.932
 6521SOL    HW220463   1.702   3.018   3.918
 6522SOL     OW20464   2.456   4.524   5.384
 6522SOL    HW120465   2.449   4.434   5.341
 6522SOL    HW220466   2.426   4.519   5.479
 6523SOL     OW20467   3.916   0.126   0.037
 6523SOL    HW120468   3.859   0.090   6.983
 6523SOL    HW220469   3.878   0.099   0.125
 6524SOL     OW20470   2.794   2.612   1.664
 6524SOL    HW120471   2.879   2.568   1.638
 6524SOL    HW220472   2.805   2.711   1.662
 6525SOL     OW20473   2.050   5.218   3.470
 6525SOL    HW120474   2.030   5.163   3.550
 6525SOL    HW220475   2.126   5.177   3.419
 6526SOL     OW20476   0.765   0.631   0.972
 6526SOL    HW120477   0.698   0.558   0.980
 6526SOL    HW220478   0.857   0.592   0.971
 6527SOL     OW20479   0.074   2.101   0.234
 6527SOL    HW120480   0.152   2.101   0.172
 6527SOL    HW220481   0.091   2.037   0.309
 6528SOL     OW20482   6.369   1.847   5.598
 6528SOL    HW120483   6.393   1.764   5.648
 6528SOL    HW220484   6.324   1.912   5.659
 6529SOL     OW20485   1.351   0.539   2.262
 6529SOL    HW120486   1.263   0.492   2.260
 6529SOL    HW220487   1.422   0.479   2.224
 6530SOL     OW20488   0.256   1.693   0.790
 6530SOL    HW120489   0.325   1.677   0.861
 6530SOL    HW220490   0.240   1.608   0.739
 6531SOL     OW20491   4.878   3.683   5.460
 6531SOL    HW120492   4.816   3.629   5.517
 6531SOL    HW220493   4.910   3.627   5.383
 6532SOL     OW20494   1.788   1.013   1.404
 6532SOL    HW120495   1.695   0.975   1.398
 6532SOL    HW220496   1.787   1.096   1.460
 6533SOL     OW20497   4.665   6.400   0.416
 6533SOL    HW120498   4.683   6.431   0.323
 6533SOL    HW220499   4.749   6.406   0.470
 6534SOL     OW20500   4.822   5.125   2.095
 6534SOL    HW120501   4.815   5.216   2.135
 6534SOL    HW220502   4.745   5.110   2.032
 6535SOL     OW20503   5.904   4.539   4.636
 6535SOL    HW120504   5.992   4.532   4.684
 6535SOL    HW220505   5.896   4.629   4.593
 6536SOL     OW20506   0.257   1.581   4.756
 6536SOL    HW120507   0.292   1.537   4.674
 6536SOL    HW220508   0.251   1.680   4.740
 6537SOL     OW20509   6.834   4.899   5.194
 6537SOL    HW120510   6.867   4.939   5.108
 6537SOL    HW220511   6.835   4.799   5.186
 6538SOL     OW20512   1.272   3.723   5.695
 6538SOL    HW120513   1.235   3.665   5.768
 6538SOL    HW220514   1.370   3.739   5.711
 6539SOL     OW20515   4.725   0.319   6.902
 6539SOL    HW120516   4.633   0.354   6.885
 6539SOL    HW220517   4.762   0.281   6.817
 6540SOL     OW20518   2.981   2.630   5.975
 6540SOL    HW120519   2.945   2.553   5.923
 6540SOL    HW220520   3.061   2.668   5.928
 6541SOL     OW20521   5.434   2.591   5.668
 6541SOL    HW120522   5.408   2.501   5.633
 6541SOL    HW220523   5.456   2.584   5.765
 6542SOL     OW20524   1.298   3.069   4.612
 6542SOL    HW120525   1.243   3.096   4.691
 6542SOL    HW220526   1.246   3.005   4.555
 6543SOL     OW20527   3.745   2.653   5.756
 6543SOL    HW120528   3.778   2.600   5.678
 6543SOL    HW220529   3.670   2.604   5.801
 6544SOL     OW20530   1.274   6.199   2.737
 6544SOL    HW120531   1.368   6.200   2.702
 6544SOL    HW220532   1.224   6.278   2.701
 6545SOL     OW20533   4.009   0.276   0.430
 6545SOL    HW120534   3.938   0.344   0.411
 6545SOL    HW220535   4.040   0.286   0.524
 6546SOL     OW20536   3.967   3.868   6.152
 6546SOL    HW120537   3.976   3.945   6.087
 6546SOL    HW220538   4.030   3.882   6.229
 6547SOL     OW20539   5.039   0.856   6.329
 6547SOL    HW120540   5.014   0.952   6.337
 6547SOL    HW220541   4.965   0.799   6.366
 6548SOL     OW20542   1.779   3.061   0.384
 6548SOL    HW120543   1.857   3.053   0.322
 6548SOL    HW220544   1.698   3.022   0.340
 6549SOL     OW20545   4.528   0.349   2.001
 6549SOL    HW120546   4.472   0.386   2.075
 6549SOL    HW220547   4.469   0.329   1.922
 6550SOL     OW20548   0.283   6.807   3.887
 6550SOL    HW120549   0.241   6.897   3.879
 6550SOL    HW220550   0.212   6.737   3.887
 6551SOL     OW20551   2.613   3.486   1.682
 6551SOL    HW120552   2.551   3.497   1.604
 6551SOL    HW220553   2.560   3.490   1.767
 6552SOL     OW20554   2.402   6.957   0.724
 6552SOL    HW120555   2.403   0.036   0.713
 6552SOL    HW220556   2.442   6.934   0.813
 6553SOL     OW20557   0.476   2.253   3.079
 6553SOL    HW120558   0.474   2.348   3.048
 6553SOL    HW220559   0.446   2.193   3.005
 6554SOL     OW20560   2.643   1.014   4.588
 6554SOL    HW120561   2.699   0.946   4.542
 6554SOL    HW220562   2.597   0.972   4.666
 6555SOL     OW20563   5.595   1.882   3.610
 6555SOL    HW120564   5.579   1.870   3.708
 6555SOL    HW220565   5.575   1.796   3.562
 6556SOL     OW20566   6.219   3.063   3.073
 6556SOL    HW120567   6.234   3.161   3.073
 6556SOL    HW220568   6.217   3.029   2.979
 6557SOL     OW20569   2.604   0.645   2.964
 6557SOL    HW120570   2.653   0.722   3.005
 6557SOL    HW220571   2.510   0.644   2.999
 6558SOL     OW20572   6.029   5.589   0.722
 6558SOL    HW120573   5.945   5.641   0.741
 6558SOL    HW220574   6.015   5.494   0.749
 6559SOL     OW20575   0.088   3.638   6.106
 6559SOL    HW120576   0.137   3.593   6.032
 6559SOL    HW220577   0.008   3.685   6.069
 6560SOL     OW20578   3.830   4.748   0.941
 6560SOL    HW120579   3.798   4.833   0.981
 6560SOL    HW220580   3.930   4.747   0.941
 6561SOL     OW20581   3.625   4.540   1.132
 6561SOL    HW120582   3.674   4.607   1.075
 6561SOL    HW220583   3.622   4.572   1.226
 6562SOL     OW20584   5.652   1.807   1.143
 6562SOL    HW120585   5.645   1.889   1.087
 6562SOL    HW220586   5.745   1.771   1.139
 6563SOL     OW20587   5.125   6.780   6.165
 6563SOL    HW120588   5.141   6.744   6.073
 6563SOL    HW220589   5.027   6.778   6.185
 6564SOL     OW20590   6.290   3.383   1.709
 6564SOL    HW120591   6.235   3.415   1.787
 6564SOL    HW220592   6.265   3.436   1.627
 6565SOL     OW20593   6.125   6.675   2.542
 6565SOL    HW120594   6.188   6.743   2.579
 6565SOL    HW220595   6.119   6.598   2.606
 6566SOL     OW20596   3.213   5.911   2.472
 6566SOL    HW120597   3.220   5.831   2.531
 6566SOL    HW220598   3.217   5.994   2.528
 6567SOL     OW20599   4.856   1.307   2.045
 6567SOL    HW120600   4.913   1.312   2.126
 6567SOL    HW220601   4.842   1.211   2.020
 6568SOL     OW20602   3.792   1.930   2.751
 6568SOL    HW120603   3.700   1.939   2.790
 6568SOL    HW220604   3.799   1.988   2.670
 6569SOL     OW20605   2.141   2.717   6.569
 6569SOL    HW120606   2.140   2.714   6.469
 6569SOL    HW220607   2.220   2.769   6.599
 6570SOL     OW20608   3.139   1.182   2.785
 6570SOL    HW120609   3.086   1.258   2.823
 6570SOL    HW220610   3.197   1.143   2.856
 6571SOL     OW20611   2.525   4.955   2.623
 6571SOL    HW120612   2.486   4.890   2.558
 6571SOL    HW220613   2.609   4.994   2.586
 6572SOL     OW20614   6.987   4.437   4.030
 6572SOL    HW120615   6.965   4.367   3.962
 6572SOL    HW220616   0.066   4.447   4.037
 6573SOL     OW20617   0.858   1.064   3.319
 6573SOL    HW120618   0.777   1.120   3.301
 6573SOL    HW220619   0.876   1.063   3.418
 6574SOL     OW20620   2.655   5.757   3.281
 6574SOL    HW120621   2.645   5.753   3.181
 6574SOL    HW220622   2.747   5.729   3.306
 6575SOL     OW20623   0.289   6.460   3.233
 6575SOL    HW120624   0.380   6.453   3.191
 6575SOL    HW220625   0.235   6.528   3.184
 6576SOL     OW20626   3.063   6.128   0.752
 6576SOL    HW120627   2.996   6.176   0.809
 6576SOL    HW220628   3.120   6.069   0.810
 6577SOL     OW20629   1.359   1.946   3.674
 6577SOL    HW120630   1.352   2.042   3.700
 6577SOL    HW220631   1.271   1.901   3.689
 6578SOL     OW20632   0.953   6.112   1.882
 6578SOL    HW120633   0.980   6.175   1.810
 6578SOL    HW220634   0.857   6.088   1.871
 6579SOL     OW20635   6.763   2.799   3.986
 6579SOL    HW120636   6.687   2.769   3.928
 6579SOL    HW220637   6.731   2.811   4.080
 6580SOL     OW20638   0.697   2.157   0.042
 6580SOL    HW120639   0.688   2.087   0.113
 6580SOL    HW220640   0.607   2.195   0.022
 6581SOL     OW20641   1.784   1.101   1.160
 6581SOL    HW120642   1.860   1.161   1.136
 6581SOL    HW220643   1.786   1.081   1.258
 6582SOL     OW20644   0.054   0.465   2.729
 6582SOL    HW120645   0.146   0.477   2.765
 6582SOL    HW220646   0.020   0.552   2.694
 6583SOL     OW20647   4.746   6.471   5.264
 6583SOL    HW120648   4.710   6.487   5.172
 6583SOL    HW220649   4.700   6.391   5.304
 6584SOL     OW20650   3.633   1.893   0.642
 6584SOL    HW120651   3.712   1.942   0.605
 6584SOL    HW220652   3.641   1.796   0.620
 6585SOL     OW20653   6.328   5.957   6.974
 6585SOL    HW120654   6.348   5.916   0.042
 6585SOL    HW220655   6.237   5.929   6.944
 6586SOL     OW20656   6.726   1.751   5.896
 6586SOL    HW120657   6.628   1.736   5.889
 6586SOL    HW220658   6.766   1.757   5.804
 6587SOL     OW20659   1.431   4.869   6.653
 6587SOL    HW120660   1.342   4.913   6.663
 6587SOL    HW220661   1.501   4.938   6.634
 6588SOL     OW20662   0.440   3.214   1.832
 6588SOL    HW120663   0.366   3.147   1.837
 6588SOL    HW220664   0.472   3.234   1.925
 6589SOL     OW20665   4.065   0.889   1.860
 6589SOL    HW120666   4.079   0.824   1.935
 6589SOL    HW220667   4.104   0.852   1.776
 6590SOL     OW20668   0.772   0.314   6.025
 6590SOL    HW120669   0.735   0.372   6.097
 6590SOL    HW220670   0.860   0.276   6.055
 6591SOL     OW20671   5.390   6.079   4.126
 6591SOL    HW120672   5.486   6.056   4.111
 6591SOL    HW220673   5.383   6.170   4.168
 6592SOL     OW20674   4.858   6.348   2.884
 6592SOL    HW120675   4.824   6.442   2.883
 6592SOL    HW220676   4.893   6.327   2.975
 6593SOL     OW20677   2.665   2.253   2.177
 6593SOL    HW120678   2.697   2.212   2.263
 6593SOL    HW220679   2.743   2.277   2.120
 6594SOL     OW20680   3.446   1.411   5.681
 6594SOL    HW120681   3.480   1.480   5.745
 6594SOL    HW220682   3.438   1.453   5.590
 6595SOL     OW20683   1.521   3.861   6.083
 6595SOL    HW120684   1.522   3.895   6.177
 6595SOL    HW220685   1.426   3.853   6.052
 6596SOL     OW20686   3.395   6.716   3.760
 6596SOL    HW120687   3.343   6.639   3.722
 6596SOL    HW220688   3.484   6.722   3.715
 6597SOL     OW20689   2.088   5.272   2.106
 6597SOL    HW120690   2.082   5.296   2.009
 6597SOL    HW220691   2.078   5.173   2.117
 6598SOL     OW20692   1.831   4.847   3.496
 6598SOL    HW120693   1.821   4.908   3.574
 6598SOL    HW220694   1.747   4.848   3.442
 6599SOL     OW20695   4.312   5.790   6.558
 6599SOL    HW120696   4.375   5.773   6.482
 6599SOL    HW220697   4.229   5.735   6.545
 6600SOL     OW20698   3.687   6.642   4.636
 6600SOL    HW120699   3.629   6.588   4.576
 6600SOL    HW220700   3.782   6.637   4.605
 6601SOL     OW20701   0.882   1.998   3.679
 6601SOL    HW120702   0.973   1.987   3.719
 6601SOL    HW220703   0.884   1.968   3.583
 6602SOL     OW20704   1.711   0.412   1.382
 6602SOL    HW120705   1.758   0.466   1.451
 6602SOL    HW220706   1.678   0.472   1.309
 6603SOL     OW20707   0.814   2.921   3.864
 6603SOL    HW120708   0.801   2.915   3.765
 6603SOL    HW220709   0.876   2.997   3.885
 6604SOL     OW20710   1.884   6.834   1.548
 6604SOL    HW120711   1.921   6.907   1.606
 6604SOL    HW220712   1.789   6.856   1.524
 6605SOL     OW20713   5.591   5.682   2.556
 6605SOL    HW120714   5.501   5.640   2.558
 6605SOL    HW220715   5.614   5.717   2.648
 6606SOL     OW20716   6.746   4.858   2.353
 6606SOL    HW120717   6.695   4.873   2.269
 6606SOL    HW220718   6.825   4.919   2.356
 6607SOL     OW20719   0.439   4.950   3.563
 6607SOL    HW120720   0.343   4.974   3.572
 6607SOL    HW220721   0.475   4.989   3.478
 6608SOL     OW20722   6.961   6.185   0.148
 6608SOL    HW120723   6.889   6.191   0.217
 6608SOL    HW220724   6.921   6.154   0.062
 6609SOL     OW20725   5.429   1.315   6.657
 6609SOL    HW120726   5.415   1.379   6.733
 6609SOL    HW220727   5.445   1.223   6.694
 6610SOL     OW20728   2.407   6.814   0.257
 6610SOL    HW120729   2.401   6.749   0.181
 6610SOL    HW220730   2.479   6.881   0.238
 6611SOL     OW20731   4.702   2.792   3.527
 6611SOL    HW120732   4.706   2.693   3.514
 6611SOL    HW220733   4.623   2.829   3.477
 6612SOL     OW20734   0.206   2.540   6.161
 6612SOL    HW120735   0.257   2.468   6.209
 6612SOL    HW220736   0.141   2.498   6.098
 6613SOL     OW20737   5.917   6.440   5.529
 6613SOL    HW120738   5.899   6.408   5.436
 6613SOL    HW220739   5.881   6.374   5.595
 6614SOL     OW20740   4.482   6.444   6.924
 6614SOL    HW120741   4.483   6.360   6.978
 6614SOL    HW220742   4.395   6.492   6.940
 6615SOL     OW20743   1.311   5.891   1.317
 6615SOL    HW120744   1.216   5.881   1.288
 6615SOL    HW220745   1.320   5.974   1.372
 6616SOL     OW20746   4.692   7.005   6.213
 6616SOL    HW120747   4.645   0.017   6.296
 6616SOL    HW220748   4.757   6.933   6.238
 6617SOL     OW20749   4.279   6.213   3.607
 6617SOL    HW120750   4.321   6.169   3.527
 6617SOL    HW220751   4.218   6.148   3.652
 6618SOL     OW20752   1.201   1.856   2.381
 6618SOL    HW120753   1.164   1.915   2.453
 6618SOL    HW220754   1.262   1.910   2.323
 6619SOL     OW20755   4.781   0.079   3.757
 6619SOL    HW120756   4.726   0.160   3.737
 6619SOL    HW220757   4.834   0.053   3.676
 6620SOL     OW20758   2.147   3.351   4.981
 6620SOL    HW120759   2.157   3.325   5.077
 6620SOL    HW220760   2.136   3.270   4.925
 6621SOL     OW20761   3.732   2.745   5.293
 6621SOL    HW120762   3.820   2.724   5.337
 6621SOL    HW220763   3.749   2.791   5.206
 6622SOL     OW20764   6.399   5.886   1.967
 6622SOL    HW120765   6.444   5.830   1.897
 6622SOL    HW220766   6.333   5.830   2.017
 6623SOL     OW20767   3.463   3.636   4.854
 6623SOL    HW120768   3.523   3.711   4.880
 6623SOL    HW220769   3.372   3.671   4.834
 6624SOL     OW20770   0.882   3.705   5.293
 6624SOL    HW120771   0.891   3.640   5.217
 6624SOL    HW220772   0.887   3.798   5.257
 6625SOL     OW20773   5.185   1.618   4.920
 6625SOL    HW120774   5.169   1.716   4.908
 6625SOL    HW220775   5.189   1.574   4.830
 6626SOL     OW20776   3.310   0.118   5.420
 6626SOL    HW120777   3.237   0.147   5.481
 6626SOL    HW220778   3.358   0.040   5.461
 6627SOL     OW20779   1.642   6.667   3.930
 6627SOL    HW120780   1.664   6.644   4.025
 6627SOL    HW220781   1.723   6.706   3.886
 6628SOL     OW20782   5.594   4.848   4.313
 6628SOL    HW120783   5.625   4.755   4.332
 6628SOL    HW220784   5.494   4.853   4.325
 6629SOL     OW20785   4.848   5.771   6.003
 6629SOL    HW120786   4.939   5.729   5.997
 6629SOL    HW220787   4.856   5.862   6.045
 6630SOL     OW20788   3.579   2.246   1.303
 6630SOL    HW120789   3.674   2.274   1.292
 6630SOL    HW220790   3.574   2.165   1.362
 6631SOL     OW20791   2.191   6.043   4.275
 6631SOL    HW120792   2.110   6.101   4.271
 6631SOL    HW220793   2.175   5.967   4.338
 6632SOL     OW20794   1.126   0.950   1.241
 6632SOL    HW120795   1.177   0.865   1.259
 6632SOL    HW220796   1.042   0.928   1.192
 6633SOL     OW20797   1.967   4.942   6.236
 6633SOL    HW120798   1.901   4.982   6.172
 6633SOL    HW220799   2.006   4.859   6.197
 6634SOL     OW20800   5.028   1.936   5.175
 6634SOL    HW120801   4.942   1.943   5.225
 6634SOL    HW220802   5.105   1.954   5.237
 6635SOL     OW20803   4.737   4.587   3.689
 6635SOL    HW120804   4.696   4.583   3.597
 6635SOL    HW220805   4.702   4.512   3.744
 6636SOL     OW20806   4.325   1.805   0.559
 6636SOL    HW120807   4.357   1.763   0.644
 6636SOL    HW220808   4.388   1.785   0.485
 6637SOL     OW20809   1.921   6.780   6.492
 6637SOL    HW120810   1.930   6.876   6.516
 6637SOL    HW220811   1.946   6.723   6.571
 6638SOL     OW20812   3.181   3.043   3.311
 6638SOL    HW120813   3.137   3.097   3.239
 6638SOL    HW220814   3.111   3.008   3.374
 6639SOL     OW20815   3.617   3.827   7.001
 6639SOL    HW120816   3.632   3.926   6.993
 6639SOL    HW220817   3.544   3.809   0.046
 6640SOL     OW20818   0.308   1.852   4.705
 6640SOL    HW120819   0.242   1.878   4.776
 6640SOL    HW220820   0.357   1.933   4.674
 6641SOL     OW20821   3.681   1.441   0.157
 6641SOL    HW120822   3.689   1.433   0.256
 6641SOL    HW220823   3.590   1.476   0.134
 6642SOL     OW20824   2.785   5.266   6.296
 6642SOL    HW120825   2.798   5.176   6.254
 6642SOL    HW220826   2.690   5.275   6.327
 6643SOL     OW20827   6.256   6.224   7.017
 6643SOL    HW120828   6.302   6.302   0.041
 6643SOL    HW220829   6.308   6.141   0.014
 6644SOL     OW20830   2.170   5.863   2.458
 6644SOL    HW120831   2.161   5.892   2.554
 6644SOL    HW220832   2.266   5.849   2.437
 6645SOL     OW20833   5.331   3.563   0.541
 6645SOL    HW120834   5.427   3.536   0.542
 6645SOL    HW220835   5.280   3.503   0.480
 6646SOL     OW20836   4.645   1.365   5.418
 6646SOL    HW120837   4.685   1.454   5.396
 6646SOL    HW220838   4.663   1.344   5.514
 6647SOL     OW20839   4.456   6.856   0.423
 6647SOL    HW120840   4.549   6.843   0.389
 6647SOL    HW220841   4.392   6.809   0.362
 6648SOL     OW20842   2.866   6.803   4.787
 6648SOL    HW120843   2.770   6.823   4.770
 6648SOL    HW220844   2.873   6.723   4.847
 6649SOL     OW20845   5.965   2.088   5.852
 6649SOL    HW120846   5.914   2.100   5.937
 6649SOL    HW220847   5.947   2.167   5.792
 6650SOL     OW20848   3.992   1.765   4.626
 6650SOL    HW120849   4.060   1.755   4.699
 6650SOL    HW220850   3.902   1.781   4.667
 6651SOL     OW20851   1.750   1.317   6.078
 6651SOL    HW120852   1.677   1.273   6.131
 6651SOL    HW220853   1.792   1.389   6.133
 6652SOL     OW20854   0.441   4.820   6.799
 6652SOL    HW120855   0.427   4.752   6.727
 6652SOL    HW220856   0.434   4.912   6.761
 6653SOL     OW20857   4.386   3.041   0.931
 6653SOL    HW120858   4.333   3.036   0.847
 6653SOL    HW220859   4.396   2.949   0.969
 6654SOL     OW20860   1.661   5.655   2.572
 6654SOL    HW120861   1.692   5.739   2.615
 6654SOL    HW220862   1.585   5.617   2.624
 6655SOL     OW20863   0.004   6.389   2.522
 6655SOL    HW120864   6.941   6.383   2.578
 6655SOL    HW220865   7.003   6.357   2.430
 6656SOL     OW20866   5.638   2.445   3.119
 6656SOL    HW120867   5.586   2.465   3.202
 6656SOL    HW220868   5.736   2.448   3.140
 6657SOL     OW20869   6.339   3.527   4.969
 6657SOL    HW120870   6.295   3.530   4.879
 6657SOL    HW220871   6.413   3.460   4.967
 6658SOL     OW20872   5.159   6.648   5.918
 6658SOL    HW120873   5.247   6.611   5.946
 6658SOL    HW220874   5.162   6.673   5.821
 6659SOL     OW20875   1.635   3.051   1.508
 6659SOL    HW120876   1.644   3.150   1.520
 6659SOL    HW220877   1.657   3.005   1.594
 6660SOL     OW20878   1.594   5.025   1.609
 6660SOL    HW120879   1.554   5.096   1.668
 6660SOL    HW220880   1.560   5.036   1.516
 6661SOL     OW20881   2.400   0.224   5.599
 6661SOL    HW120882   2.440   0.269   5.519
 6661SOL    HW220883   2.354   0.291   5.656
 6662SOL     OW20884   2.054   0.643   0.407
 6662SOL    HW120885   2.028   0.585   0.330
 6662SOL    HW220886   2.145   0.683   0.390
 6663SOL     OW20887   6.464   6.014   4.795
 6663SOL    HW120888   6.452   6.021   4.894
 6663SOL    HW220889   6.376   6.028   4.750
 6664SOL     OW20890   2.297   6.936   1.153
 6664SOL    HW120891   2.219   6.985   1.112
 6664SOL    HW220892   2.361   6.910   1.081
 6665SOL     OW20893   1.907   6.742   5.116
 6665SOL    HW120894   2.002   6.758   5.091
 6665SOL    HW220895   1.875   6.818   5.173
 6666SOL     OW20896   6.308   5.723   5.740
 6666SOL    HW120897   6.309   5.752   5.835
 6666SOL    HW220898   6.395   5.679   5.717
 6667SOL     OW20899   7.000   6.577   5.599
 6667SOL    HW120900   7.011   6.483   5.568
 6667SOL    HW220901   6.933   6.580   5.673
 6668SOL     OW20902   6.442   6.548   0.960
 6668SOL    HW120903   6.385   6.603   0.899
 6668SOL    HW220904   6.415   6.452   0.953
 6669SOL     OW20905   3.183   2.224   1.831
 6669SOL    HW120906   3.164   2.210   1.734
 6669SOL    HW220907   3.106   2.271   1.874
 6670SOL     OW20908   3.081   0.886   6.231
 6670SOL    HW120909   3.019   0.935   6.294
 6670SOL    HW220910   3.083   0.790   6.256
 6671SOL     OW20911   5.378   6.584   6.691
 6671SOL    HW120912   5.457   6.544   6.738
 6671SOL    HW220913   5.409   6.659   6.633
 6672SOL     OW20914   0.324   2.135   0.776
 6672SOL    HW120915   0.342   2.192   0.695
 6672SOL    HW220916   0.253   2.179   0.832
 6673SOL     OW20917   4.735   4.156   3.818
 6673SOL    HW120918   4.790   4.076   3.794
 6673SOL    HW220919   4.731   4.165   3.917
 6674SOL     OW20920   0.478   4.091   0.143
 6674SOL    HW120921   0.534   4.153   0.088
 6674SOL    HW220922   0.395   4.138   0.172
 6675SOL     OW20923   6.128   2.795   0.209
 6675SOL    HW120924   6.223   2.808   0.183
 6675SOL    HW220925   6.099   2.868   0.271
 6676SOL     OW20926   0.727   3.466   4.397
 6676SOL    HW120927   0.735   3.562   4.370
 6676SOL    HW220928   0.817   3.423   4.395
 6677SOL     OW20929   0.700   1.330   6.254
 6677SOL    HW120930   0.621   1.270   6.237
 6677SOL    HW220931   0.743   1.304   6.341
 6678SOL     OW20932   2.863   4.558   0.770
 6678SOL    HW120933   2.930   4.606   0.713
 6678SOL    HW220934   2.812   4.624   0.825
 6679SOL     OW20935   3.792   0.456   3.714
 6679SOL    HW120936   3.739   0.529   3.755
 6679SOL    HW220937   3.840   0.405   3.786
 6680SOL     OW20938   4.106   6.244   6.569
 6680SOL    HW120939   4.205   6.242   6.562
 6680SOL    HW220940   4.073   6.154   6.598
 6681SOL     OW20941   4.971   5.941   0.919
 6681SOL    HW120942   5.069   5.940   0.939
 6681SOL    HW220943   4.954   5.893   0.833
 6682SOL     OW20944   2.292   4.971   0.027
 6682SOL    HW120945   2.291   4.986   0.126
 6682SOL    HW220946   2.287   4.873   0.008
 6683SOL     OW20947   6.048   3.274   5.131
 6683SOL    HW120948   5.987   3.275   5.052
 6683SOL    HW220949   6.024   3.199   5.192
 6684SOL     OW20950   4.117   6.606   2.198
 6684SOL    HW120951   4.079   6.692   2.166
 6684SOL    HW220952   4.109   6.601   2.298
 6685SOL     OW20953   4.977   2.913   5.822
 6685SOL    HW120954   4.955   2.983   5.890
 6685SOL    HW220955   4.899   2.850   5.813
 6686SOL     OW20956   5.528   5.751   3.892
 6686SOL    HW120957   5.517   5.834   3.837
 6686SOL    HW220958   5.473   5.677   3.853
 6687SOL     OW20959   0.646   2.786   2.600
 6687SOL    HW120960   0.729   2.747   2.562
 6687SOL    HW220961   0.670   2.849   2.674
 6688SOL     OW20962   3.818   4.998   1.062
 6688SOL    HW120963   3.871   5.046   0.993
 6688SOL    HW220964   3.872   4.986   1.145
 6689SOL     OW20965   4.463   4.158   5.703
 6689SOL    HW120966   4.384   4.121   5.656
 6689SOL    HW220967   4.531   4.085   5.717
 6690SOL     OW20968   0.606   0.089   0.845
 6690SOL    HW120969   0.560   0.025   0.906
 6690SOL    HW220970   0.698   0.108   0.880
 6691SOL     OW20971   1.949   0.405   2.527
 6691SOL    HW120972   1.896   0.489   2.539
 6691SOL    HW220973   2.033   0.426   2.477
 6692SOL     OW20974   3.988   3.845   3.063
 6692SOL    HW120975   3.978   3.746   3.076
 6692SOL    HW220976   4.044   3.862   2.982
 6693SOL     OW20977   4.422   2.259   4.948
 6693SOL    HW120978   4.436   2.288   4.853
 6693SOL    HW220979   4.359   2.323   4.993
 6694SOL     OW20980   4.112   6.418   1.989
 6694SOL    HW120981   4.017   6.408   1.960
 6694SOL    HW220982   4.116   6.473   2.073
 6695SOL     OW20983   2.799   2.445   6.496
 6695SOL    HW120984   2.861   2.367   6.507
 6695SOL    HW220985   2.752   2.462   6.583
 6696SOL     OW20986   3.982   3.221   3.919
 6696SOL    HW120987   3.903   3.264   3.963
 6696SOL    HW220988   4.065   3.242   3.971
 6697SOL     OW20989   4.633   1.843   3.071
 6697SOL    HW120990   4.730   1.823   3.057
 6697SOL    HW220991   4.581   1.758   3.073
 6698SOL     OW20992   2.809   3.211   1.022
 6698SOL    HW120993   2.715   3.176   1.026
 6698SOL    HW220994   2.847   3.192   0.932
 6699SOL     OW20995   1.994   6.377   5.560
 6699SOL    HW120996   2.064   6.449   5.555
 6699SOL    HW220997   1.911   6.414   5.601
 6700SOL     OW20998   6.803   1.806   1.327
 6700SOL    HW120999   6.792   1.904   1.345
 6700SOL    HW221000   6.854   1.764   1.402
 6701SOL     OW21001   5.179   5.655   2.042
 6701SOL    HW121002   5.233   5.694   1.968
 6701SOL    HW221003   5.233   5.656   2.126
 6702SOL     OW21004   2.049   2.670   1.956
 6702SOL    HW121005   2.086   2.577   1.958
 6702SOL    HW221006   2.081   2.717   1.874
 6703SOL     OW21007   6.554   0.258   0.738
 6703SOL    HW121008   6.650   0.273   0.718
 6703SOL    HW221009   6.499   0.328   0.692
 6704SOL     OW21010   4.156   2.250   3.454
 6704SOL    HW121011   4.077   2.294   3.410
 6704SOL    HW221012   4.224   2.320   3.477
 6705SOL     OW21013   5.755   2.612   0.524
 6705SOL    HW121014   5.756   2.617   0.624
 6705SOL    HW221015   5.685   2.674   0.488
 6706SOL     OW21016   0.647   5.631   0.904
 6706SOL    HW121017   0.691   5.704   0.853
 6706SOL    HW221018   0.651   5.651   1.002
 6707SOL     OW21019   5.743   6.297   3.369
 6707SOL    HW121020   5.777   6.226   3.431
 6707SOL    HW221021   5.652   6.327   3.399
 6708SOL     OW21022   5.740   5.182   1.700
 6708SOL    HW121023   5.682   5.244   1.648
 6708SOL    HW221024   5.807   5.140   1.638
 6709SOL     OW21025   1.161   5.431   2.858
 6709SOL    HW121026   1.181   5.524   2.891
 6709SOL    HW221027   1.196   5.420   2.765
 6710SOL     OW21028   3.929   0.747   6.294
 6710SOL    HW121029   3.846   0.693   6.284
 6710SOL    HW221030   4.008   0.686   6.303
 6711SOL     OW21031   4.837   6.200   5.891
 6711SOL    HW121032   4.752   6.248   5.909
 6711SOL    HW221033   4.897   6.207   5.971
 6712SOL     OW21034   5.678   3.589   1.024
 6712SOL    HW121035   5.625   3.543   1.096
 6712SOL    HW221036   5.764   3.621   1.061
 6713SOL     OW21037   0.891   0.635   3.329
 6713SOL    HW121038   0.971   0.579   3.304
 6713SOL    HW221039   0.880   0.709   3.264
 6714SOL     OW21040   6.726   1.649   6.419
 6714SOL    HW121041   6.812   1.648   6.469
 6714SOL    HW221042   6.707   1.558   6.382
 6715SOL     OW21043   1.717   0.667   1.172
 6715SOL    HW121044   1.708   0.752   1.120
 6715SOL    HW221045   1.803   0.669   1.224
 6716SOL     OW21046   0.343   5.555   1.846
 6716SOL    HW121047   0.410   5.499   1.796
 6716SOL    HW221048   0.382   5.645   1.865
 6717SOL     OW21049   3.310   2.979   6.197
 6717SOL    HW121050   3.288   2.926   6.115
 6717SOL    HW221051   3.232   2.975   6.260
 6718SOL     OW21052   4.611   6.988   0.931
 6718SOL    HW121053   4.550   0.040   0.963
 6718SOL    HW221054   4.570   6.942   0.852
 6719SOL     OW21055   2.193   6.917   0.371
 6719SOL    HW121056   2.129   6.929   0.295
 6719SOL    HW221057   2.276   6.871   0.339
 6720SOL     OW21058   2.175   0.570   3.679
 6720SOL    HW121059   2.186   0.540   3.774
 6720SOL    HW221060   2.078   0.578   3.657
 6721SOL     OW21061   0.171   6.616   0.817
 6721SOL    HW121062   0.184   6.517   0.812
 6721SOL    HW221063   0.074   6.637   0.808
 6722SOL     OW21064   6.663   2.381   0.338
 6722SOL    HW121065   6.613   2.373   0.252
 6722SOL    HW221066   6.646   2.300   0.395
 6723SOL     OW21067   1.349   6.902   5.043
 6723SOL    HW121068   1.389   6.872   4.955
 6723SOL    HW221069   1.383   6.993   5.065
 6724SOL     OW21070   1.996   3.086   6.274
 6724SOL    HW121071   2.058   3.056   6.201
 6724SOL    HW221072   2.035   3.063   6.363
 6725SOL     OW21073   0.035   2.400   1.850
 6725SOL    HW121074   0.083   2.481   1.817
 6725SOL    HW221075   6.963   2.396   1.810
 6726SOL     OW21076   0.412   2.541   3.789
 6726SOL    HW121077   0.443   2.446   3.787
 6726SOL    HW221078   0.323   2.545   3.835
 6727SOL     OW21079   0.023   4.721   5.645
 6727SOL    HW121080   0.096   4.655   5.664
 6727SOL    HW221081   6.989   4.735   5.729
 6728SOL     OW21082   3.916   2.168   2.950
 6728SOL    HW121083   3.916   2.154   2.851
 6728SOL    HW221084   3.989   2.232   2.974
 6729SOL     OW21085   0.248   1.631   0.424
 6729SOL    HW121086   0.336   1.590   0.399
 6729SOL    HW221087   0.177   1.598   0.360
 6730SOL     OW21088   2.248   6.602   0.933
 6730SOL    HW121089   2.331   6.630   0.983
 6730SOL    HW221090   2.177   6.576   0.999
 6731SOL     OW21091   1.494   6.870   0.892
 6731SOL    HW121092   1.400   6.847   0.914
 6731SOL    HW221093   1.549   6.871   0.976
 6732SOL     OW21094   5.995   4.182   4.743
 6732SOL    HW121095   5.966   4.264   4.791
 6732SOL    HW221096   5.917   4.121   4.732
 6733SOL     OW21097   3.791   5.165   6.584
 6733SOL    HW121098   3.887   5.174   6.559
 6733SOL    HW221099   3.734   5.184   6.504
 6734SOL     OW21100   5.918   2.788   5.246
 6734SOL    HW121101   5.978   2.711   5.229
 6734SOL    HW221102   5.824   2.764   5.219
 6735SOL     OW21103   6.237   3.484   4.728
 6735SOL    HW121104   6.138   3.497   4.721
 6735SOL    HW221105   6.273   3.456   4.639
 6736SOL     OW21106   2.950   3.435   6.580
 6736SOL    HW121107   2.856   3.462   6.599
 6736SOL    HW221108   2.990   3.394   6.662
 6737SOL     OW21109   1.660   3.335   0.859
 6737SOL    HW121110   1.759   3.338   0.847
 6737SOL    HW221111   1.638   3.320   0.955
 6738SOL     OW21112   1.821   6.081   4.018
 6738SOL    HW121113   1.796   6.024   4.096
 6738SOL    HW221114   1.745   6.084   3.953
 6739SOL     OW21115   5.761   6.301   3.917
 6739SOL    HW121116   5.696   6.377   3.922
 6739SOL    HW221117   5.716   6.220   3.881
 6740SOL     OW21118   6.614   0.173   5.869
 6740SOL    HW121119   6.689   0.141   5.811
 6740SOL    HW221120   6.534   0.115   5.854
 6741SOL     OW21121   3.576   2.929   5.403
 6741SOL    HW121122   3.555   2.982   5.320
 6741SOL    HW221123   3.639   2.855   5.379
 6742SOL     OW21124   6.062   5.694   3.108
 6742SOL    HW121125   6.071   5.767   3.176
 6742SOL    HW221126   6.016   5.730   3.026
 6743SOL     OW21127   3.773   4.600   6.426
 6743SOL    HW121128   3.839   4.645   6.486
 6743SOL    HW221129   3.683   4.602   6.469
 6744SOL     OW21130   0.080   5.775   5.647
 6744SOL    HW121131   0.170   5.760   5.607
 6744SOL    HW221132   0.092   5.809   5.741
 6745SOL     OW21133   6.989   6.354   3.506
 6745SOL    HW121134   0.060   6.358   3.467
 6745SOL    HW221135   6.995   6.335   3.604
 6746SOL     OW21136   0.528   0.206   3.891
 6746SOL    HW121137   0.435   0.180   3.917
 6746SOL    HW221138   0.561   0.144   3.819
 6747SOL     OW21139   5.938   1.126   6.502
 6747SOL    HW121140   5.894   1.042   6.469
 6747SOL    HW221141   6.035   1.125   6.477
 6748SOL     OW21142   3.950   1.405   2.697
 6748SOL    HW121143   3.883   1.339   2.664
 6748SOL    HW221144   3.914   1.453   2.777
 6749SOL     OW21145   3.754   4.252   0.872
 6749SOL    HW121146   3.659   4.283   0.864
 6749SOL    HW221147   3.797   4.298   0.950
 6750SOL     OW21148   3.373   2.148   3.953
 6750SOL    HW121149   3.449   2.083   3.962
 6750SOL    HW221150   3.409   2.239   3.932
 6751SOL     OW21151   5.033   0.339   3.263
 6751SOL    HW121152   5.003   0.422   3.311
 6751SOL    HW221153   5.123   0.355   3.222
 6752SOL     OW21154   2.212   6.838   2.765
 6752SOL    HW121155   2.204   6.738   2.770
 6752SOL    HW221156   2.193   6.877   2.854
 6753SOL     OW21157   2.992   1.445   6.100
 6753SOL    HW121158   2.987   1.521   6.036
 6753SOL    HW221159   3.047   1.472   6.179
 6754SOL     OW21160   6.737   0.882   0.505
 6754SOL    HW121161   6.732   0.937   0.422
 6754SOL    HW221162   6.648   0.883   0.551
 6755SOL     OW21163   4.192   2.629   1.660
 6755SOL    HW121164   4.249   2.598   1.584
 6755SOL    HW221165   4.195   2.560   1.733
 6756SOL     OW21166   3.763   6.587   5.049
 6756SOL    HW121167   3.715   6.531   4.981
 6756SOL    HW221168   3.862   6.577   5.036
 6757SOL     OW21169   3.010   2.072   0.038
 6757SOL    HW121170   3.083   2.094   0.103
 6757SOL    HW221171   3.038   1.995   7.000
 6758SOL     OW21172   6.220   2.324   1.619
 6758SOL    HW121173   6.299   2.353   1.673
 6758SOL    HW221174   6.168   2.257   1.672
 6759SOL     OW21175   0.600   3.837   2.873
 6759SOL    HW121176   0.654   3.868   2.951
 6759SOL    HW221177   0.524   3.781   2.906
 6760SOL     OW21178   0.065   3.216   2.216
 6760SOL    HW121179   6.993   3.253   2.230
 6760SOL    HW221180   0.059   3.118   2.201
 6761SOL     OW21181   6.443   2.609   4.902
 6761SOL    HW121182   6.464   2.662   4.820
 6761SOL    HW221183   6.421   2.514   4.876
 6762SOL     OW21184   0.958   4.031   4.469
 6762SOL    HW121185   0.900   3.972   4.412
 6762SOL    HW221186   1.003   3.975   4.538
 6763SOL     OW21187   6.419   5.484   3.777
 6763SOL    HW121188   6.486   5.443   3.839
 6763SOL    HW221189   6.422   5.438   3.688
 6764SOL     OW21190   2.199   5.908   1.529
 6764SOL    HW121191   2.163   5.884   1.619
 6764SOL    HW221192   2.297   5.928   1.536
 6765SOL     OW21193   5.702   5.059   4.187
 6765SOL    HW121194   5.777   5.007   4.146
 6765SOL    HW221195   5.643   4.998   4.239
 6766SOL     OW21196   4.940   6.200   5.657
 6766SOL    HW121197   4.891   6.206   5.744
 6766SOL    HW221198   5.038   6.199   5.675
 6767SOL     OW21199   2.493   0.910   1.503
 6767SOL    HW121200   2.575   0.964   1.517
 6767SOL    HW221201   2.516   0.824   1.458
 6768SOL     OW21202   1.740   0.347   5.259
 6768SOL    HW121203   1.675   0.274   5.280
 6768SOL    HW221204   1.707   0.433   5.297
 6769SOL     OW21205   3.308   0.587   6.459
 6769SOL    HW121206   3.395   0.635   6.455
 6769SOL    HW221207   3.259   0.612   6.543
 6770SOL     OW21208   0.286   1.095   2.049
 6770SOL    HW121209   0.259   1.015   1.995
 6770SOL    HW221210   0.216   1.167   2.039
 6771SOL     OW21211   4.926   1.997   3.368
 6771SOL    HW121212   4.890   1.913   3.409
 6771SOL    HW221213   4.916   2.073   3.433
 6772SOL     OW21214   3.923   2.215   2.684
 6772SOL    HW121215   3.856   2.195   2.613
 6772SOL    HW221216   3.906   2.306   2.722
 6773SOL     OW21217   6.315   5.109   2.474
 6773SOL    HW121218   6.319   5.017   2.514
 6773SOL    HW221219   6.384   5.167   2.516
 6774SOL     OW21220   1.189   3.115   5.561
 6774SOL    HW121221   1.266   3.067   5.520
 6774SOL    HW221222   1.173   3.201   5.513
 6775SOL     OW21223   2.402   2.606   1.607
 6775SOL    HW121224   2.440   2.568   1.523
 6775SOL    HW221225   2.367   2.532   1.664
 6776SOL     OW21226   4.883   4.325   0.128
 6776SOL    HW121227   4.897   4.420   0.157
 6776SOL    HW221228   4.814   4.321   0.056
 6777SOL     OW21229   4.256   4.417   0.530
 6777SOL    HW121230   4.218   4.379   0.614
 6777SOL    HW221231   4.268   4.344   0.463
 6778SOL     OW21232   6.318   5.376   1.902
 6778SOL    HW121233   6.276   5.319   1.973
 6778SOL    HW221234   6.295   5.472   1.919
 6779SOL     OW21235   5.758   5.219   6.557
 6779SOL    HW121236   5.752   5.318   6.540
 6779SOL    HW221237   5.740   5.201   6.654
 6780SOL     OW21238   1.155   2.423   2.222
 6780SOL    HW121239   1.229   2.361   2.195
 6780SOL    HW221240   1.163   2.509   2.171
 6781SOL     OW21241   6.544   1.692   3.954
 6781SOL    HW121242   6.535   1.595   3.977
 6781SOL    HW221243   6.636   1.710   3.920
 6782SOL     OW21244   6.902   0.856   3.226
 6782SOL    HW121245   6.818   0.854   3.280
 6782SOL    HW221246   6.958   0.934   3.254
 6783SOL     OW21247   6.197   2.130   5.487
 6783SOL    HW121248   6.227   2.142   5.582
 6783SOL    HW221249   6.108   2.086   5.486
 6784SOL     OW21250   2.239   3.226   0.436
 6784SOL    HW121251   2.250   3.189   0.529
 6784SOL    HW221252   2.228   3.325   0.442
 6785SOL     OW21253   6.247   5.217   3.803
 6785SOL    HW121254   6.237   5.225   3.704
 6785SOL    HW221255   6.317   5.149   3.824
 6786SOL     OW21256   1.911   2.635   0.116
 6786SOL    HW121257   1.870   2.724   0.098
 6786SOL    HW221258   1.886   2.604   0.208
 6787SOL     OW21259   2.208   2.594   0.734
 6787SOL    HW121260   2.146   2.521   0.707
 6787SOL    HW221261   2.211   2.601   0.834
 6788SOL     OW21262   1.425   3.941   1.395
 6788SOL    HW121263   1.357   3.996   1.445
 6788SOL    HW221264   1.469   3.878   1.458
 6789SOL     OW21265   0.387   5.450   3.051
 6789SOL    HW121266   0.331   5.408   3.123
 6789SOL    HW221267   0.328   5.482   2.977
 6790SOL     OW21268   0.225   3.711   0.915
 6790SOL    HW121269   0.167   3.649   0.862
 6790SOL    HW221270   0.304   3.660   0.950
 6791SOL     OW21271   4.104   2.260   1.685
 6791SOL    HW121272   4.100   2.160   1.675
 6791SOL    HW221273   4.012   2.298   1.682
 6792SOL     OW21274   6.516   6.155   5.227
 6792SOL    HW121275   6.487   6.094   5.153
 6792SOL    HW221276   6.437   6.204   5.262
 6793SOL     OW21277   1.901   2.058   0.612
 6793SOL    HW121278   1.958   1.978   0.593
 6793SOL    HW221279   1.909   2.081   0.709
 6794SOL     OW21280   4.571   1.202   6.066
 6794SOL    HW121281   4.525   1.291   6.065
 6794SOL    HW221282   4.502   1.130   6.077
 6795SOL     OW21283   2.518   6.627   1.012
 6795SOL    HW121284   2.552   6.614   0.919
 6795SOL    HW221285   2.579   6.582   1.077
 6796SOL     OW21286   6.803   6.790   2.363
 6796SOL    HW121287   6.873   6.761   2.428
 6796SOL    HW221288   6.794   6.890   2.367
 6797SOL     OW21289   6.514   2.192   1.537
 6797SOL    HW121290   6.444   2.161   1.472
 6797SOL    HW221291   6.519   2.292   1.535
 6798SOL     OW21292   4.968   0.298   2.231
 6798SOL    HW121293   4.950   0.287   2.133
 6798SOL    HW221294   5.049   0.356   2.244
 6799SOL     OW21295   6.668   6.426   1.704
 6799SOL    HW121296   6.695   6.412   1.800
 6799SOL    HW221297   6.583   6.479   1.701
 6800SOL     OW21298   2.242   3.618   1.704
 6800SOL    HW121299   2.268   3.559   1.781
 6800SOL    HW221300   2.282   3.709   1.717
 6801SOL     OW21301   1.066   6.763   3.284
 6801SOL    HW121302   1.052   6.816   3.201
 6801SOL    HW221303   1.158   6.778   3.319
 6802SOL     OW21304   3.276   5.911   1.283
 6802SOL    HW121305   3.262   5.819   1.245
 6802SOL    HW221306   3.336   5.963   1.223
 6803SOL     OW21307   4.642   2.861   5.679
 6803SOL    HW121308   4.690   2.785   5.722
 6803SOL    HW221309   4.561   2.885   5.733
 6804SOL     OW21310   3.330   5.443   3.927
 6804SOL    HW121311   3.409   5.384   3.912
 6804SOL    HW221312   3.358   5.525   3.976
 6805SOL     OW21313   6.828   4.671   6.349
 6805SOL    HW121314   6.927   4.673   6.362
 6805SOL    HW221315   6.784   4.725   6.421
 6806SOL     OW21316   5.848   0.568   3.513
 6806SOL    HW121317   5.796   0.530   3.437
 6806SOL    HW221318   5.862   0.497   3.583
 6807SOL     OW21319   3.223   3.194   0.622
 6807SOL    HW121320   3.179   3.283   0.612
 6807SOL    HW221321   3.246   3.178   0.718
 6808SOL     OW21322   6.744   2.240   5.067
 6808SOL    HW121323   6.768   2.255   4.971
 6808SOL    HW221324   6.764   2.322   5.120
 6809SOL     OW21325   0.846   2.845   1.310
 6809SOL    HW121326   0.936   2.885   1.295
 6809SOL    HW221327   0.805   2.822   1.222
 6810SOL     OW21328   1.471   0.892   2.756
 6810SOL    HW121329   1.401   0.947   2.710
 6810SOL    HW221330   1.426   0.829   2.820
 6811SOL     OW21331   6.158   4.010   1.109
 6811SOL    HW121332   6.077   4.051   1.150
 6811SOL    HW221333   6.178   4.056   1.022
 6812SOL     OW21334   2.953   3.367   3.880
 6812SOL    HW121335   3.047   3.393   3.859
 6812SOL    HW221336   2.945   3.351   3.978
 6813SOL     OW21337   5.131   2.504   2.439
 6813SOL    HW121338   5.188   2.496   2.358
 6813SOL    HW221339   5.060   2.573   2.422
 6814SOL     OW21340   3.437   1.934   6.261
 6814SOL    HW121341   3.444   2.027   6.297
 6814SOL    HW221342   3.344   1.918   6.228
 6815SOL     OW21343   3.346   6.922   1.307
 6815SOL    HW121344   3.368   6.826   1.287
 6815SOL    HW221345   3.389   6.948   1.394
 6816SOL     OW21346   6.542   0.077   6.694
 6816SOL    HW121347   6.514   0.066   6.598
 6816SOL    HW221348   6.542   0.175   6.717
 6817SOL     OW21349   2.065   2.508   2.779
 6817SOL    HW121350   2.004   2.431   2.801
 6817SOL    HW221351   2.096   2.500   2.685
 6818SOL     OW21352   2.940   6.154   2.357
 6818SOL    HW121353   2.904   6.091   2.289
 6818SOL    HW221354   2.929   6.115   2.448
 6819SOL     OW21355   5.301   1.701   3.806
 6819SOL    HW121356   5.385   1.754   3.818
 6819SOL    HW221357   5.316   1.628   3.740
 6820SOL     OW21358   2.302   5.431   2.127
 6820SOL    HW121359   2.385   5.377   2.134
 6820SOL    HW221360   2.223   5.376   2.154
 6821SOL     OW21361   3.726   1.927   4.952
 6821SOL    HW121362   3.712   1.871   5.033
 6821SOL    HW221363   3.640   1.972   4.927
 6822SOL     OW21364   5.392   2.583   6.245
 6822SOL    HW121365   5.340   2.610   6.163
 6822SOL    HW221366   5.425   2.489   6.234
 6823SOL     OW21367   4.386   3.352   5.407
 6823SOL    HW121368   4.482   3.349   5.379
 6823SOL    HW221369   4.342   3.432   5.365
 6824SOL     OW21370   0.775   2.103   6.180
 6824SOL    HW121371   0.761   2.194   6.142
 6824SOL    HW221372   0.746   2.102   6.276
 6825SOL     OW21373   5.110   6.534   1.752
 6825SOL    HW121374   5.037   6.594   1.721
 6825SOL    HW221375   5.196   6.584   1.753
 6826SOL     OW21376   1.821   3.621   2.991
 6826SOL    HW121377   1.837   3.522   2.979
 6826SOL    HW221378   1.772   3.637   3.076
 6827SOL     OW21379   4.397   5.528   5.622
 6827SOL    HW121380   4.466   5.459   5.642
 6827SOL    HW221381   4.324   5.522   5.690
 6828SOL     OW21382   3.033   1.901   1.825
 6828SOL    HW121383   3.125   1.920   1.861
 6828SOL    HW221384   3.026   1.804   1.801
 6829SOL     OW21385   4.428   6.703   4.269
 6829SOL    HW121386   4.364   6.631   4.240
 6829SOL    HW221387   4.437   6.701   4.368
 6830SOL     OW21388   5.216   1.220   3.656
 6830SOL    HW121389   5.254   1.178   3.738
 6830SOL    HW221390   5.120   1.194   3.646
 6831SOL     OW21391   1.426   0.607   6.641
 6831SOL    HW121392   1.398   0.531   6.583
 6831SOL    HW221393   1.485   0.669   6.590
 6832SOL     OW21394   2.882   4.407   1.045
 6832SOL    HW121395   2.814   4.383   0.976
 6832SOL    HW221396   2.897   4.329   1.106
 6833SOL     OW21397   3.214   4.653   6.504
 6833SOL    HW121398   3.156   4.575   6.528
 6833SOL    HW221399   3.157   4.729   6.473
 6834SOL     OW21400   4.836   6.459   1.033
 6834SOL    HW121401   4.920   6.497   1.070
 6834SOL    HW221402   4.768   6.531   1.023
 6835SOL     OW21403   3.956   0.399   4.505
 6835SOL    HW121404   3.941   0.485   4.458
 6835SOL    HW221405   3.955   0.324   4.439
 6836SOL     OW21406   2.449   5.317   0.171
 6836SOL    HW121407   2.532   5.294   0.221
 6836SOL    HW221408   2.458   5.288   0.075
 6837SOL     OW21409   0.242   1.666   2.121
 6837SOL    HW121410   0.239   1.567   2.136
 6837SOL    HW221411   0.172   1.709   2.178
 6838SOL     OW21412   3.438   6.454   0.404
 6838SOL    HW121413   3.462   6.378   0.465
 6838SOL    HW221414   3.388   6.523   0.455
 6839SOL     OW21415   5.366   1.011   6.725
 6839SOL    HW121416   5.321   1.055   6.803
 6839SOL    HW221417   5.308   0.936   6.691
 6840SOL     OW21418   3.697   0.905   4.394
 6840SOL    HW121419   3.669   0.891   4.489
 6840SOL    HW221420   3.632   0.859   4.333
 6841SOL     OW21421   4.108   4.274   6.921
 6841SOL    HW121422   4.016   4.274   6.962
 6841SOL    HW221423   4.118   4.354   6.862
 6842SOL     OW21424   2.319   4.615   0.983
 6842SOL    HW121425   2.376   4.563   1.047
 6842SOL    HW221426   2.341   4.588   0.889
 6843SOL     OW21427   5.930   6.809   1.168
 6843SOL    HW121428   6.025   6.806   1.199
 6843SOL    HW221429   5.896   6.716   1.157
 6844SOL     OW21430   5.284   0.609   3.974
 6844SOL    HW121431   5.189   0.624   3.945
 6844SOL    HW221432   5.287   0.539   4.045
 6845SOL     OW21433   6.503   3.458   2.970
 6845SOL    HW121434   6.510   3.556   2.988
 6845SOL    HW221435   6.425   3.420   3.021
 6846SOL     OW21436   3.654   3.073   6.839
 6846SOL    HW121437   3.718   3.149   6.852
 6846SOL    HW221438   3.694   3.008   6.774
 6847SOL     OW21439   0.026   3.148   4.355
 6847SOL    HW121440   0.105   3.092   4.377
 6847SOL    HW221441   0.020   3.225   4.418
 6848SOL     OW21442   4.793   5.197   3.999
 6848SOL    HW121443   4.731   5.211   3.922
 6848SOL    HW221444   4.848   5.279   4.013
 6849SOL     OW21445   4.700   4.824   5.491
 6849SOL    HW121446   4.638   4.800   5.565
 6849SOL    HW221447   4.777   4.877   5.527
 6850SOL     OW21448   5.468   3.441   2.882
 6850SOL    HW121449   5.369   3.443   2.896
 6850SOL    HW221450   5.508   3.371   2.941
 6851SOL     OW21451   0.080   1.312   3.227
 6851SOL    HW121452   0.095   1.213   3.218
 6851SOL    HW221453   0.034   1.346   3.145
 6852SOL     OW21454   2.698   4.460   1.383
 6852SOL    HW121455   2.797   4.457   1.388
 6852SOL    HW221456   2.664   4.542   1.430
 6853SOL     OW21457   5.494   4.710   0.152
 6853SOL    HW121458   5.421   4.648   0.179
 6853SOL    HW221459   5.578   4.658   0.136
 6854SOL     OW21460   5.133   0.914   5.615
 6854SOL    HW121461   5.152   1.011   5.629
 6854SOL    HW221462   5.192   0.878   5.543
 6855SOL     OW21463   4.231   6.536   4.193
 6855SOL    HW121464   4.225   6.445   4.233
 6855SOL    HW221465   4.140   6.564   4.162
 6856SOL     OW21466   6.957   2.637   5.129
 6856SOL    HW121467   6.981   2.734   5.137
 6856SOL    HW221468   6.899   2.624   5.048
 6857SOL     OW21469   2.072   2.159   6.498
 6857SOL    HW121470   2.126   2.236   6.533
 6857SOL    HW221471   2.068   2.087   6.567
 6858SOL     OW21472   4.016   3.319   2.164
 6858SOL    HW121473   4.018   3.278   2.255
 6858SOL    HW221474   3.922   3.320   2.130
 6859SOL     OW21475   1.139   1.421   0.927
 6859SOL    HW121476   1.108   1.397   0.835
 6859SOL    HW221477   1.169   1.338   0.974
 6860SOL     OW21478   7.001   5.193   1.372
 6860SOL    HW121479   0.063   5.234   1.333
 6860SOL    HW221480   0.005   5.112   1.424
 6861SOL     OW21481   3.877   4.319   0.062
 6861SOL    HW121482   3.871   4.365   6.994
 6861SOL    HW221483   3.803   4.352   0.122
 6862SOL     OW21484   1.083   5.362   6.075
 6862SOL    HW121485   1.180   5.370   6.097
 6862SOL    HW221486   1.032   5.431   6.127
 6863SOL     OW21487   5.687   6.776   6.050
 6863SOL    HW121488   5.638   6.757   5.965
 6863SOL    HW221489   5.622   6.790   6.124
 6864SOL     OW21490   2.133   4.769   4.489
 6864SOL    HW121491   2.194   4.693   4.465
 6864SOL    HW221492   2.042   4.750   4.452
 6865SOL     OW21493   0.798   6.127   4.765
 6865SOL    HW121494   0.727   6.183   4.724
 6865SOL    HW221495   0.836   6.173   4.844
 6866SOL     OW21496   5.695   5.680   3.250
 6866SOL    HW121497   5.722   5.776   3.261
 6866SOL    HW221498   5.597   5.670   3.268
 6867SOL     OW21499   2.086   3.968   2.138
 6867SOL    HW121500   2.109   3.872   2.123
 6867SOL    HW221501   1.995   3.987   2.100
 6868SOL     OW21502   1.764   6.202   6.616
 6868SOL    HW121503   1.759   6.272   6.545
 6868SOL    HW221504   1.672   6.177   6.645
 6869SOL     OW21505   4.989   1.111   6.362
 6869SOL    HW121506   5.027   1.141   6.449
 6869SOL    HW221507   4.939   1.187   6.320
 6870SOL     OW21508   6.960   3.984   1.297
 6870SOL    HW121509   6.969   3.983   1.197
 6870SOL    HW221510   6.977   4.077   1.331
 6871SOL     OW21511   6.463   4.260   3.370
 6871SOL    HW121512   6.563   4.264   3.367
 6871SOL    HW221513   6.432   4.181   3.317
 6872SOL     OW21514   0.747   2.180   1.235
 6872SOL    HW121515   0.737   2.140   1.144
 6872SOL    HW221516   0.815   2.127   1.287
 6873SOL     OW21517   6.716   3.489   3.838
 6873SOL    HW121518   6.636   3.431   3.856
 6873SOL    HW221519   6.689   3.585   3.848
 6874SOL     OW21520   0.021   5.639   2.994
 6874SOL    HW121521   0.036   5.671   2.900
 6874SOL    HW221522   0.056   5.546   3.002
 6875SOL     OW21523   2.130   2.837   2.407
 6875SOL    HW121524   2.144   2.834   2.506
 6875SOL    HW221525   2.209   2.799   2.361
 6876SOL     OW21526   3.935   0.274   3.900
 6876SOL    HW121527   3.959   0.352   3.958
 6876SOL    HW221528   3.925   0.192   3.957
 6877SOL     OW21529   2.737   4.060   1.000
 6877SOL    HW121530   2.739   3.991   0.927
 6877SOL    HW221531   2.773   4.021   1.084
 6878SOL     OW21532   4.078   1.033   4.088
 6878SOL    HW121533   3.990   1.046   4.042
 6878SOL    HW221534   4.069   1.056   4.185
 6879SOL     OW21535   1.478   2.884   1.118
 6879SOL    HW121536   1.515   2.793   1.100
 6879SOL    HW221537   1.513   2.948   1.050
 6880SOL     OW21538   1.997   5.512   5.888
 6880SOL    HW121539   2.079   5.537   5.939
 6880SOL    HW221540   1.988   5.572   5.808
 6881SOL     OW21541   2.143   3.673   1.113
 6881SOL    HW121542   2.089   3.709   1.189
 6881SOL    HW221543   2.194   3.748   1.071
 6882SOL     OW21544   3.353   0.423   6.967
 6882SOL    HW121545   3.262   0.415   6.925
 6882SOL    HW221546   3.351   0.382   0.038
 6883SOL     OW21547   5.288   1.751   0.057
 6883SOL    HW121548   5.213   1.764   0.122
 6883SOL    HW221549   5.266   1.796   6.991
 6884SOL     OW21550   0.911   4.336   3.686
 6884SOL    HW121551   0.989   4.350   3.626
 6884SOL    HW221552   0.932   4.371   3.778
 6885SOL     OW21553   4.544   4.907   3.969
 6885SOL    HW121554   4.539   4.884   3.871
 6885SOL    HW221555   4.639   4.901   3.999
 6886SOL     OW21556   6.789   1.391   4.120
 6886SOL    HW121557   6.848   1.334   4.177
 6886SOL    HW221558   6.737   1.454   4.179
 6887SOL     OW21559   4.817   5.464   6.156
 6887SOL    HW121560   4.823   5.488   6.059
 6887SOL    HW221561   4.812   5.364   6.166
 6888SOL     OW21562   5.484   5.645   6.417
 6888SOL    HW121563   5.439   5.732   6.432
 6888SOL    HW221564   5.528   5.645   6.327
 6889SOL     OW21565   0.936   3.278   6.001
 6889SOL    HW121566   0.840   3.256   5.982
 6889SOL    HW221567   0.987   3.280   5.915
 6890SOL     OW21568   3.743   6.484   2.104
 6890SOL    HW121569   3.647   6.503   2.084
 6890SOL    HW221570   3.790   6.458   2.020
 6891SOL     OW21571   2.119   3.857   2.529
 6891SOL    HW121572   2.131   3.872   2.628
 6891SOL    HW221573   2.074   3.936   2.489
 6892SOL     OW21574   3.194   2.111   3.741
 6892SOL    HW121575   3.236   2.131   3.653
 6892SOL    HW221576   3.261   2.124   3.814
 6893SOL     OW21577   4.409   3.979   6.823
 6893SOL    HW121578   4.394   4.076   6.842
 6893SOL    HW221579   4.460   3.938   6.898
 6894SOL     OW21580   5.806   4.537   0.607
 6894SOL    HW121581   5.865   4.457   0.614
 6894SOL    HW221582   5.710   4.507   0.602
 6895SOL     OW21583   2.321   4.555   0.667
 6895SOL    HW121584   2.298   4.547   0.570
 6895SOL    HW221585   2.319   4.465   0.710
 6896SOL     OW21586   3.039   1.410   3.857
 6896SOL    HW121587   3.099   1.472   3.806
 6896SOL    HW221588   2.957   1.392   3.803
 6897SOL     OW21589   4.889   3.935   4.992
 6897SOL    HW121590   4.862   3.839   4.996
 6897SOL    HW221591   4.832   3.989   5.054
 6898SOL     OW21592   3.996   1.642   1.491
 6898SOL    HW121593   3.963   1.607   1.579
 6898SOL    HW221594   4.053   1.722   1.506
 6899SOL     OW21595   4.435   6.168   1.913
 6899SOL    HW121596   4.496   6.098   1.950
 6899SOL    HW221597   4.473   6.259   1.930
 6900SOL     OW21598   6.028   5.813   5.048
 6900SOL    HW121599   5.997   5.900   5.011
 6900SOL    HW221600   6.046   5.822   5.146
 6901SOL     OW21601   6.132   5.948   6.591
 6901SOL    HW121602   6.034   5.949   6.608
 6901SOL    HW221603   6.149   5.963   6.494
 6902SOL     OW21604   6.496   5.627   0.198
 6902SOL    HW121605   6.435   5.560   0.156
 6902SOL    HW221606   6.551   5.671   0.128
 6903SOL     OW21607   3.044   5.181   5.343
 6903SOL    HW121608   3.101   5.100   5.332
 6903SOL    HW221609   3.079   5.255   5.286
 6904SOL     OW21610   6.278   0.350   5.233
 6904SOL    HW121611   6.206   0.280   5.236
 6904SOL    HW221612   6.238   0.440   5.253
 6905SOL     OW21613   5.600   6.044   0.451
 6905SOL    HW121614   5.583   5.947   0.435
 6905SOL    HW221615   5.594   6.093   0.364
 6906SOL     OW21616   3.644   1.572   3.967
 6906SOL    HW121617   3.684   1.548   3.879
 6906SOL    HW221618   3.564   1.630   3.953
 6907SOL     OW21619   5.608   2.212   1.388
 6907SOL    HW121620   5.601   2.224   1.487
 6907SOL    HW221621   5.692   2.161   1.367
 6908SOL     OW21622   1.329   5.496   6.723
 6908SOL    HW121623   1.277   5.411   6.721
 6908SOL    HW221624   1.274   5.568   6.765
 6909SOL     OW21625   4.912   3.997   1.304
 6909SOL    HW121626   4.886   4.073   1.246
 6909SOL    HW221627   4.876   4.011   1.396
 6910SOL     OW21628   1.204   3.094   3.776
 6910SOL    HW121629   1.190   3.023   3.707
 6910SOL    HW221630   1.119   3.110   3.826
 6911SOL     OW21631   4.086   6.770   3.980
 6911SOL    HW121632   4.172   6.725   3.957
 6911SOL    HW221633   4.038   6.717   4.050
 6912SOL     OW21634   2.700   3.634   6.300
 6912SOL    HW121635   2.734   3.728   6.294
 6912SOL    HW221636   2.734   3.582   6.222
 6913SOL     OW21637   5.693   6.228   4.168
 6913SOL    HW121638   5.749   6.259   4.090
 6913SOL    HW221639   5.697   6.128   4.174
 6914SOL     OW21640   5.902   4.376   3.651
 6914SOL    HW121641   5.859   4.440   3.715
 6914SOL    HW221642   5.876   4.282   3.676
 6915SOL     OW21643   6.181   2.764   1.478
 6915SOL    HW121644   6.185   2.664   1.479
 6915SOL    HW221645   6.218   2.800   1.563
 6916SOL     OW21646   5.502   1.734   6.776
 6916SOL    HW121647   5.472   1.830   6.775
 6916SOL    HW221648   5.470   1.688   6.693
 6917SOL     OW21649   3.572   6.541   1.044
 6917SOL    HW121650   3.605   6.473   0.980
 6917SOL    HW221651   3.581   6.632   1.003
 6918SOL     OW21652   0.599   2.298   3.888
 6918SOL    HW121653   0.658   2.378   3.877
 6918SOL    HW221654   0.619   2.253   3.975
 6919SOL     OW21655   5.607   6.220   4.587
 6919SOL    HW121656   5.630   6.300   4.532
 6919SOL    HW221657   5.510   6.222   4.610
 6920SOL     OW21658   4.578   6.890   5.519
 6920SOL    HW121659   4.638   6.815   5.490
 6920SOL    HW221660   4.534   6.865   5.605
 6921SOL     OW21661   4.488   6.338   4.350
 6921SOL    HW121662   4.562   6.377   4.296
 6921SOL    HW221663   4.470   6.244   4.320
 6922SOL     OW21664   1.878   6.038   4.814
 6922SOL    HW121665   1.834   5.977   4.749
 6922SOL    HW221666   1.902   6.123   4.769
 6923SOL     OW21667   5.312   5.763   2.696
 6923SOL    HW121668   5.301   5.802   2.787
 6923SOL    HW221669   5.248   5.688   2.684
 6924SOL     OW21670   2.066   4.385   0.229
 6924SOL    HW121671   2.047   4.374   0.326
 6924SOL    HW221672   2.048   4.480   0.202
 6925SOL     OW21673   5.031   6.030   4.399
 6925SOL    HW121674   5.130   6.040   4.395
 6925SOL    HW221675   4.994   6.089   4.471
 6926SOL     OW21676   2.814   2.599   0.672
 6926SOL    HW121677   2.832   2.697   0.681
 6926SOL    HW221678   2.834   2.553   0.758
 6927SOL     OW21679   3.825   2.965   5.805
 6927SOL    HW121680   3.775   2.893   5.757
 6927SOL    HW221681   3.888   3.009   5.742
 6928SOL     OW21682   5.596   5.703   0.927
 6928SOL    HW121683   5.695   5.701   0.919
 6928SOL    HW221684   5.557   5.746   0.846
 6929SOL     OW21685   4.928   5.724   1.780
 6929SOL    HW121686   4.848   5.664   1.780
 6929SOL    HW221687   5.011   5.669   1.770
 6930SOL     OW21688   1.456   0.328   1.496
 6930SOL    HW121689   1.554   0.335   1.476
 6930SOL    HW221690   1.439   0.242   1.543
 6931SOL     OW21691   1.854   1.311   2.279
 6931SOL    HW121692   1.769   1.273   2.317
 6931SOL    HW221693   1.832   1.377   2.208
 6932SOL     OW21694   4.331   6.945   0.038
 6932SOL    HW121695   4.267   0.002   0.035
 6932SOL    HW221696   4.295   6.875   0.100
 6933SOL     OW21697   3.639   6.174   5.300
 6933SOL    HW121698   3.721   6.223   5.269
 6933SOL    HW221699   3.659   6.128   5.386
 6934SOL     OW21700   4.674   3.129   6.170
 6934SOL    HW121701   4.617   3.204   6.137
 6934SOL    HW221702   4.733   3.097   6.096
 6935SOL     OW21703   4.647   5.590   2.849
 6935SOL    HW121704   4.688   5.528   2.783
 6935SOL    HW221705   4.618   5.674   2.803
 6936SOL     OW21706   6.337   3.079   3.860
 6936SOL    HW121707   6.277   3.020   3.914
 6936SOL    HW221708   6.284   3.126   3.790
 6937SOL     OW21709   5.778   6.110   0.670
 6937SOL    HW121710   5.711   6.093   0.743
 6937SOL    HW221711   5.735   6.092   0.582
 6938SOL     OW21712   6.737   2.595   4.931
 6938SOL    HW121713   6.785   2.567   4.847
 6938SOL    HW221714   6.641   2.614   4.910
 6939SOL     OW21715   0.773   5.344   2.175
 6939SOL    HW121716   0.680   5.367   2.202
 6939SOL    HW221717   0.837   5.369   2.247
 6940SOL     OW21718   3.591   0.164   6.197
 6940SOL    HW121719   3.534   0.107   6.256
 6940SOL    HW221720   3.667   0.201   6.250
 6941SOL     OW21721   3.050   4.072   1.843
 6941SOL    HW121722   3.052   4.089   1.942
 6941SOL    HW221723   3.097   3.985   1.824
 6942SOL     OW21724   5.725   6.716   2.251
 6942SOL    HW121725   5.728   6.620   2.279
 6942SOL    HW221726   5.631   6.750   2.256
 6943SOL     OW21727   3.853   5.624   0.874
 6943SOL    HW121728   3.831   5.655   0.782
 6943SOL    HW221729   3.772   5.586   0.917
 6944SOL     OW21730   0.857   4.832   6.531
 6944SOL    HW121731   0.886   4.927   6.519
 6944SOL    HW221732   0.817   4.820   6.622
 6945SOL     OW21733   6.637   1.638   0.516
 6945SOL    HW121734   6.723   1.683   0.489
 6945SOL    HW221735   6.573   1.643   0.439
 6946SOL     OW21736   4.099   6.960   1.356
 6946SOL    HW121737   4.080   6.980   1.260
 6946SOL    HW221738   4.049   0.004   1.414
 6947SOL     OW21739   3.235   5.572   6.872
 6947SOL    HW121740   3.225   5.524   6.784
 6947SOL    HW221741   3.328   5.606   6.880
 6948SOL     OW21742   0.628   6.712   1.383
 6948SOL    HW121743   0.680   6.728   1.299
 6948SOL    HW221744   0.625   6.796   1.437
 6949SOL     OW21745   4.002   6.939   3.249
 6949SOL    HW121746   4.047   6.854   3.220
 6949SOL    HW221747   4.056   6.982   3.322
 6950SOL     OW21748   1.599   1.242   4.828
 6950SOL    HW121749   1.695   1.226   4.807
 6950SOL    HW221750   1.564   1.317   4.771
 6951SOL     OW21751   6.337   5.850   5.974
 6951SOL    HW121752   6.396   5.824   6.051
 6951SOL    HW221753   6.356   5.944   5.948
 6952SOL     OW21754   1.076   5.798   3.304
 6952SOL    HW121755   1.154   5.836   3.254
 6952SOL    HW221756   0.991   5.839   3.269
 6953SOL     OW21757   4.470   6.545   1.829
 6953SOL    HW121758   4.414   6.571   1.750
 6953SOL    HW221759   4.412   6.524   1.907
 6954SOL     OW21760   0.577   4.116   1.824
 6954SOL    HW121761   0.519   4.041   1.793
 6954SOL    HW221762   0.660   4.119   1.768
 6955SOL     OW21763   5.582   0.860   2.009
 6955SOL    HW121764   5.637   0.800   2.066
 6955SOL    HW221765   5.498   0.885   2.058
 6956SOL     OW21766   5.352   5.857   3.569
 6956SOL    HW121767   5.385   5.908   3.648
 6956SOL    HW221768   5.255   5.878   3.553
 6957SOL     OW21769   5.960   5.778   1.045
 6957SOL    HW121770   6.049   5.824   1.054
 6957SOL    HW221771   5.926   5.792   0.952
 6958SOL     OW21772   3.913   3.317   4.654
 6958SOL    HW121773   3.830   3.363   4.686
 6958SOL    HW221774   3.991   3.379   4.663
 6959SOL     OW21775   2.164   3.002   3.264
 6959SOL    HW121776   2.190   3.036   3.355
 6959SOL    HW221777   2.075   2.957   3.270
 6960SOL     OW21778   1.583   3.769   1.516
 6960SOL    HW121779   1.547   3.677   1.528
 6960SOL    HW221780   1.672   3.765   1.470
 6961SOL     OW21781   5.913   0.542   4.278
 6961SOL    HW121782   5.995   0.599   4.286
 6961SOL    HW221783   5.856   0.555   4.360
 6962SOL     OW21784   4.175   6.195   1.870
 6962SOL    HW121785   4.152   6.281   1.915
 6962SOL    HW221786   4.267   6.166   1.899
 6963SOL     OW21787   5.333   5.736   1.794
 6963SOL    HW121788   5.416   5.685   1.814
 6963SOL    HW221789   5.354   5.814   1.735
 6964SOL     OW21790   3.570   1.266   5.381
 6964SOL    HW121791   3.529   1.318   5.306
 6964SOL    HW221792   3.602   1.178   5.346
 6965SOL     OW21793   1.607   1.061   7.014
 6965SOL    HW121794   1.583   1.067   6.917
 6965SOL    HW221795   1.537   1.107   0.049
 6966SOL     OW21796   0.474   1.832   2.344
 6966SOL    HW121797   0.497   1.824   2.247
 6966SOL    HW221798   0.399   1.770   2.366
 6967SOL     OW21799   3.112   0.638   6.277
 6967SOL    HW121800   3.026   0.644   6.328
 6967SOL    HW221801   3.186   0.613   6.339
 6968SOL     OW21802   4.226   0.658   3.416
 6968SOL    HW121803   4.165   0.579   3.407
 6968SOL    HW221804   4.179   0.731   3.465
 6969SOL     OW21805   2.949   2.315   1.508
 6969SOL    HW121806   3.011   2.394   1.505
 6969SOL    HW221807   2.857   2.347   1.527
 6970SOL     OW21808   3.920   3.644   5.758
 6970SOL    HW121809   3.988   3.616   5.825
 6970SOL    HW221810   3.933   3.593   5.673
 6971SOL     OW21811   6.254   4.570   0.898
 6971SOL    HW121812   6.194   4.563   0.818
 6971SOL    HW221813   6.329   4.505   0.888
 6972SOL     OW21814   5.612   4.682   3.150
 6972SOL    HW121815   5.521   4.643   3.165
 6972SOL    HW221816   5.643   4.728   3.233
 6973SOL     OW21817   0.735   3.312   3.446
 6973SOL    HW121818   0.642   3.311   3.411
 6973SOL    HW221819   0.788   3.238   3.405
 6974SOL     OW21820   2.885   3.743   2.585
 6974SOL    HW121821   2.901   3.819   2.649
 6974SOL    HW221822   2.962   3.736   2.522
 6975SOL     OW21823   1.167   6.637   5.436
 6975SOL    HW121824   1.102   6.569   5.471
 6975SOL    HW221825   1.255   6.626   5.483
 6976SOL     OW21826   6.663   5.477   6.138
 6976SOL    HW121827   6.685   5.452   6.044
 6976SOL    HW221828   6.620   5.399   6.184
 6977SOL     OW21829   3.372   2.935   0.987
 6977SOL    HW121830   3.385   2.941   1.086
 6977SOL    HW221831   3.375   2.839   0.959
 6978SOL     OW21832   5.429   2.357   2.226
 6978SOL    HW121833   5.487   2.381   2.304
 6978SOL    HW221834   5.434   2.259   2.209
 6979SOL     OW21835   1.245   4.086   1.550
 6979SOL    HW121836   1.202   4.033   1.623
 6979SOL    HW221837   1.275   4.174   1.585
 6980SOL     OW21838   1.672   0.617   3.546
 6980SOL    HW121839   1.603   0.545   3.560
 6980SOL    HW221840   1.653   0.693   3.609
 6981SOL     OW21841   3.421   3.910   5.564
 6981SOL    HW121842   3.369   3.900   5.479
 6981SOL    HW221843   3.504   3.856   5.559
 6982SOL     OW21844   0.900   0.944   4.637
 6982SOL    HW121845   0.930   0.848   4.637
 6982SOL    HW221846   0.812   0.952   4.683
 6983SOL     OW21847   4.469   1.950   4.192
 6983SOL    HW121848   4.404   1.911   4.257
 6983SOL    HW221849   4.561   1.918   4.213
 6984SOL     OW21850   1.623   1.737   3.172
 6984SOL    HW121851   1.647   1.741   3.075
 6984SOL    HW221852   1.618   1.830   3.209
 6985SOL     OW21853   5.640   5.214   1.191
 6985SOL    HW121854   5.675   5.128   1.154
 6985SOL    HW221855   5.683   5.291   1.145
 6986SOL     OW21856   3.057   6.927   6.361
 6986SOL    HW121857   3.017   6.874   6.436
 6986SOL    HW221858   3.064   0.003   6.388
 6987SOL     OW21859   6.226   1.361   6.148
 6987SOL    HW121860   6.300   1.338   6.085
 6987SOL    HW221861   6.249   1.446   6.196
 6988SOL     OW21862   0.946   6.653   6.675
 6988SOL    HW121863   0.868   6.714   6.659
 6988SOL    HW221864   1.003   6.692   6.747
 6989SOL     OW21865   0.610   4.393   3.049
 6989SOL    HW121866   0.551   4.317   3.021
 6989SOL    HW221867   0.705   4.362   3.053
 6990SOL     OW21868   4.446   2.805   1.058
 6990SOL    HW121869   4.543   2.786   1.052
 6990SOL    HW221870   4.426   2.848   1.146
 6991SOL     OW21871   4.597   4.412   3.861
 6991SOL    HW121872   4.622   4.416   3.958
 6991SOL    HW221873   4.600   4.317   3.830
 6992SOL     OW21874   5.715   0.337   6.454
 6992SOL    HW121875   5.622   0.323   6.422
 6992SOL    HW221876   5.740   0.265   6.518
 6993SOL     OW21877   5.833   6.902   2.667
 6993SOL    HW121878   5.899   6.880   2.739
 6993SOL    HW221879   5.777   6.822   2.647
 6994SOL     OW21880   0.309   1.857   3.800
 6994SOL    HW121881   0.374   1.929   3.823
 6994SOL    HW221882   0.283   1.864   3.704
 6995SOL     OW21883   0.898   4.295   6.418
 6995SOL    HW121884   0.799   4.286   6.429
 6995SOL    HW221885   0.917   4.378   6.365
 6996SOL     OW21886   1.908   0.119   0.039
 6996SOL    HW121887   1.893   0.187   6.987
 6996SOL    HW221888   1.892   0.161   0.128
 6997SOL     OW21889   0.395   5.210   5.843
 6997SOL    HW121890   0.301   5.201   5.873
 6997SOL    HW221891   0.413   5.305   5.817
 6998SOL     OW21892   1.133   1.388   1.327
 6998SOL    HW121893   1.183   1.405   1.412
 6998SOL    HW221894   1.040   1.360   1.349
 6999SOL     OW21895   1.875   2.653   6.567
 6999SOL    HW121896   1.834   2.713   6.499
 6999SOL    HW221897   1.974   2.669   6.571
 7000SOL     OW21898   5.525   6.107   1.853
 7000SOL    HW121899   5.560   6.013   1.863
 7000SOL    HW221900   5.474   6.132   1.935
 7001SOL     OW21901   1.569   3.656   5.465
 7001SOL    HW121902   1.640   3.638   5.397
 7001SOL    HW221903   1.521   3.740   5.441
 7002SOL     OW21904   1.642   5.607   4.523
 7002SOL    HW121905   1.686   5.609   4.613
 7002SOL    HW221906   1.711   5.617   4.451
 7003SOL     OW21907   4.462   5.723   0.991
 7003SOL    HW121908   4.521   5.795   0.957
 7003SOL    HW221909   4.368   5.756   0.997
 7004SOL     OW21910   0.686   5.528   1.368
 7004SOL    HW121911   0.754   5.512   1.297
 7004SOL    HW221912   0.638   5.614   1.350
 7005SOL     OW21913   1.229   0.303   0.893
 7005SOL    HW121914   1.313   0.353   0.872
 7005SOL    HW221915   1.217   0.228   0.828
 7006SOL     OW21916   5.303   5.293   4.010
 7006SOL    HW121917   5.276   5.383   4.043
 7006SOL    HW221918   5.373   5.303   3.940
 7007SOL     OW21919   4.320   0.877   4.462
 7007SOL    HW121920   4.324   0.964   4.411
 7007SOL    HW221921   4.230   0.869   4.506
 7008SOL     OW21922   0.431   4.429   4.483
 7008SOL    HW121923   0.440   4.511   4.540
 7008SOL    HW221924   0.334   4.411   4.465
 7009SOL     OW21925   4.145   6.528   2.481
 7009SOL    HW121926   4.049   6.500   2.475
 7009SOL    HW221927   4.197   6.459   2.530
 7010SOL     OW21928   5.511   4.250   3.726
 7010SOL    HW121929   5.553   4.305   3.798
 7010SOL    HW221930   5.567   4.169   3.709
 7011SOL     OW21931   3.269   6.294   6.310
 7011SOL    HW121932   3.297   6.209   6.266
 7011SOL    HW221933   3.217   6.350   6.245
 7012SOL     OW21934   1.203   2.048   1.012
 7012SOL    HW121935   1.290   2.079   1.052
 7012SOL    HW221936   1.211   2.047   0.913
 7013SOL     OW21937   1.010   6.427   0.051
 7013SOL    HW121938   1.026   6.401   0.146
 7013SOL    HW221939   0.935   6.372   0.014
 7014SOL     OW21940   4.734   3.386   1.051
 7014SOL    HW121941   4.706   3.291   1.034
 7014SOL    HW221942   4.774   3.425   0.968
 7015SOL     OW21943   5.487   4.160   1.359
 7015SOL    HW121944   5.557   4.115   1.303
 7015SOL    HW221945   5.528   4.235   1.410
 7016SOL     OW21946   3.581   5.159   1.180
 7016SOL    HW121947   3.620   5.240   1.225
 7016SOL    HW221948   3.655   5.101   1.146
 7017SOL     OW21949   2.862   5.263   3.239
 7017SOL    HW121950   2.835   5.205   3.316
 7017SOL    HW221951   2.933   5.327   3.270
 7018SOL     OW21952   5.206   3.593   3.949
 7018SOL    HW121953   5.116   3.564   3.981
 7018SOL    HW221954   5.270   3.516   3.955
 7019SOL     OW21955   3.840   5.011   0.467
 7019SOL    HW121956   3.753   5.018   0.417
 7019SOL    HW221957   3.905   4.958   0.413
 7020SOL     OW21958   6.609   4.292   5.556
 7020SOL    HW121959   6.533   4.243   5.513
 7020SOL    HW221960   6.582   4.388   5.572
 7021SOL     OW21961   1.787   2.400   5.017
 7021SOL    HW121962   1.810   2.304   5.006
 7021SOL    HW221963   1.868   2.451   5.047
 7022SOL     OW21964   4.455   0.538   6.639
 7022SOL    HW121965   4.413   0.621   6.603
 7022SOL    HW221966   4.554   0.542   6.626
 7023SOL     OW21967   1.613   2.971   2.824
 7023SOL    HW121968   1.673   3.024   2.764
 7023SOL    HW221969   1.665   2.897   2.867
 7024SOL     OW21970   3.206   3.672   4.257
 7024SOL    HW121971   3.119   3.629   4.231
 7024SOL    HW221972   3.281   3.611   4.234
 7025SOL     OW21973   3.906   1.144   0.934
 7025SOL    HW121974   3.919   1.051   0.900
 7025SOL    HW221975   3.813   1.175   0.914
 7026SOL     OW21976   3.609   1.932   2.028
 7026SOL    HW121977   3.628   2.029   2.013
 7026SOL    HW221978   3.612   1.884   1.940
 7027SOL     OW21979   2.676   5.804   4.453
 7027SOL    HW121980   2.612   5.879   4.437
 7027SOL    HW221981   2.647   5.753   4.534
 7028SOL     OW21982   4.180   1.215   2.745
 7028SOL    HW121983   4.093   1.260   2.766
 7028SOL    HW221984   4.194   1.215   2.646
 7029SOL     OW21985   4.109   4.440   5.325
 7029SOL    HW121986   4.190   4.466   5.274
 7029SOL    HW221987   4.133   4.422   5.420
 7030SOL     OW21988   0.292   0.851   5.132
 7030SOL    HW121989   0.277   0.939   5.086
 7030SOL    HW221990   0.389   0.831   5.134
 7031SOL     OW21991   3.803   5.835   0.177
 7031SOL    HW121992   3.711   5.871   0.160
 7031SOL    HW221993   3.796   5.755   0.237
 7032SOL     OW21994   4.395   1.329   3.940
 7032SOL    HW121995   4.378   1.370   3.850
 7032SOL    HW221996   4.345   1.380   4.010
 7033SOL     OW21997   1.480   2.239   3.489
 7033SOL    HW121998   1.501   2.337   3.493
 7033SOL    HW221999   1.422   2.215   3.568
 7034SOL     OW22000   0.027   1.633   2.701
 7034SOL    HW122001   0.029   1.609   2.798
 7034SOL    HW222002   0.015   1.732   2.691
 7035SOL     OW22003   1.392   0.438   0.573
 7035SOL    HW122004   1.441   0.427   0.659
 7035SOL    HW222005   1.383   0.349   0.528
 7036SOL     OW22006   6.796   1.238   2.111
 7036SOL    HW122007   6.895   1.245   2.098
 7036SOL    HW222008   6.753   1.324   2.085
 7037SOL     OW22009   0.811   1.318   6.514
 7037SOL    HW122010   0.870   1.239   6.531
 7037SOL    HW222011   0.867   1.402   6.512
 7038SOL     OW22012   2.249   4.235   4.857
 7038SOL    HW122013   2.306   4.314   4.879
 7038SOL    HW222014   2.278   4.156   4.912
 7039SOL     OW22015   0.646   6.219   2.778
 7039SOL    HW122016   0.582   6.147   2.751
 7039SOL    HW222017   0.678   6.267   2.696
 7040SOL     OW22018   5.626   2.727   5.528
 7040SOL    HW122019   5.573   2.666   5.586
 7040SOL    HW222020   5.723   2.721   5.552
 7041SOL     OW22021   6.532   1.620   2.019
 7041SOL    HW122022   6.568   1.675   2.095
 7041SOL    HW222023   6.444   1.656   1.990
 7042SOL     OW22024   4.243   5.982   4.479
 7042SOL    HW122025   4.246   5.980   4.380
 7042SOL    HW222026   4.174   5.917   4.512
 7043SOL     OW22027   2.524   4.490   3.477
 7043SOL    HW122028   2.514   4.416   3.411
 7043SOL    HW222029   2.515   4.453   3.569
 7044SOL     OW22030   5.647   5.296   5.368
 7044SOL    HW122031   5.724   5.357   5.351
 7044SOL    HW222032   5.605   5.318   5.456
 7045SOL     OW22033   5.477   5.098   2.628
 7045SOL    HW122034   5.405   5.048   2.676
 7045SOL    HW222035   5.548   5.034   2.598
 7046SOL     OW22036   3.197   1.683   3.306
 7046SOL    HW122037   3.293   1.693   3.281
 7046SOL    HW222038   3.157   1.605   3.258
 7047SOL     OW22039   6.795   0.798   1.981
 7047SOL    HW122040   6.868   0.728   1.983
 7047SOL    HW222041   6.706   0.753   1.987
 7048SOL     OW22042   5.890   6.614   4.338
 7048SOL    HW122043   5.814   6.638   4.397
 7048SOL    HW222044   5.856   6.592   4.246
 7049SOL     OW22045   3.999   1.947   1.075
 7049SOL    HW122046   3.937   1.956   1.152
 7049SOL    HW222047   3.992   1.855   1.037
 7050SOL     OW22048   4.171   3.420   1.379
 7050SOL    HW122049   4.241   3.472   1.331
 7050SOL    HW222050   4.164   3.452   1.474
 7051SOL     OW22051   0.061   6.224   1.187
 7051SOL    HW122052   0.062   6.149   1.253
 7051SOL    HW222053   0.080   6.189   1.095
 7052SOL     OW22054   6.624   0.959   3.924
 7052SOL    HW122055   6.664   0.868   3.936
 7052SOL    HW222056   6.690   1.018   3.876
 7053SOL     OW22057   1.807   3.509   4.464
 7053SOL    HW122058   1.776   3.548   4.377
 7053SOL    HW222059   1.906   3.496   4.461
 7054SOL     OW22060   6.957   6.779   1.070
 7054SOL    HW122061   6.879   6.718   1.054
 7054SOL    HW222062   6.940   6.867   1.028
 7055SOL     OW22063   3.239   0.109   0.051
 7055SOL    HW122064   3.275   0.180   0.110
 7055SOL    HW222065   3.140   0.102   0.064
 7056SOL     OW22066   6.332   5.031   1.393
 7056SOL    HW122067   6.266   5.082   1.337
 7056SOL    HW222068   6.402   4.992   1.334
 7057SOL     OW22069   2.882   5.070   3.789
 7057SOL    HW122070   2.886   5.004   3.864
 7057SOL    HW222071   2.927   5.032   3.708
 7058SOL     OW22072   5.527   2.698   5.916
 7058SOL    HW122073   5.429   2.700   5.935
 7058SOL    HW222074   5.566   2.788   5.936
 7059SOL     OW22075   0.956   0.889   3.914
 7059SOL    HW122076   0.958   0.791   3.893
 7059SOL    HW222077   1.049   0.924   3.920
 7060SOL     OW22078   3.338   0.481   0.531
 7060SOL    HW122079   3.431   0.481   0.568
 7060SOL    HW222080   3.320   0.568   0.486
 7061SOL     OW22081   0.337   2.784   3.602
 7061SOL    HW122082   0.291   2.856   3.654
 7061SOL    HW222083   0.357   2.707   3.662
 7062SOL     OW22084   3.454   2.060   4.977
 7062SOL    HW122085   3.430   2.114   5.057
 7062SOL    HW222086   3.396   1.978   4.973
 7063SOL     OW22087   1.462   6.764   1.917
 7063SOL    HW122088   1.366   6.776   1.943
 7063SOL    HW222089   1.521   6.808   1.986
 7064SOL     OW22090   4.283   2.105   6.678
 7064SOL    HW122091   4.183   2.113   6.682
 7064SOL    HW222092   4.319   2.173   6.614
 7065SOL     OW22093   3.306   3.863   5.308
 7065SOL    HW122094   3.247   3.797   5.263
 7065SOL    HW222095   3.276   3.955   5.285
 7066SOL     OW22096   3.752   0.064   5.993
 7066SOL    HW122097   3.671   0.097   6.040
 7066SOL    HW222098   3.808   0.011   6.056
 7067SOL     OW22099   0.977   3.348   5.735
 7067SOL    HW122100   1.064   3.344   5.686
 7067SOL    HW222101   0.952   3.444   5.750
 7068SOL     OW22102   5.921   3.987   5.077
 7068SOL    HW122103   5.981   3.937   5.015
 7068SOL    HW222104   5.955   3.978   5.171
 7069SOL     OW22105   5.863   1.358   5.248
 7069SOL    HW122106   5.893   1.263   5.241
 7069SOL    HW222107   5.854   1.397   5.156
 7070SOL     OW22108   0.924   6.702   4.205
 7070SOL    HW122109   0.961   6.795   4.213
 7070SOL    HW222110   0.855   6.700   4.133
 7071SOL     OW22111   3.569   5.943   0.167
 7071SOL    HW122112   3.534   5.967   0.077
 7071SOL    HW222113   3.501   5.966   0.236
 7072SOL     OW22114   1.741   5.693   7.015
 7072SOL    HW122115   1.655   5.660   6.974
 7072SOL    HW222116   1.817   5.674   6.952
 7073SOL     OW22117   4.423   0.056   3.501
 7073SOL    HW122118   4.454   6.981   3.502
 7073SOL    HW222119   4.469   0.105   3.427
 7074SOL     OW22120   6.053   3.174   2.385
 7074SOL    HW122121   6.151   3.189   2.373
 7074SOL    HW222122   6.033   3.077   2.370
 7075SOL     OW22123   1.978   4.446   4.550
 7075SOL    HW122124   1.883   4.466   4.528
 7075SOL    HW222125   2.012   4.373   4.490
 7076SOL     OW22126   5.486   3.438   0.078
 7076SOL    HW122127   5.578   3.466   0.108
 7076SOL    HW222128   5.420   3.508   0.106
 7077SOL     OW22129   2.211   3.962   3.560
 7077SOL    HW122130   2.244   4.050   3.526
 7077SOL    HW222131   2.123   3.941   3.517
 7078SOL     OW22132   6.424   6.097   1.181
 7078SOL    HW122133   6.394   6.002   1.181
 7078SOL    HW222134   6.524   6.101   1.187
 7079SOL     OW22135   0.700   6.453   3.929
 7079SOL    HW122136   0.706   6.393   3.849
 7079SOL    HW222137   0.611   6.498   3.930
 7080SOL     OW22138   3.479   1.359   4.069
 7080SOL    HW122139   3.540   1.427   4.028
 7080SOL    HW222140   3.526   1.314   4.145
 7081SOL     OW22141   1.255   5.685   0.347
 7081SOL    HW122142   1.269   5.686   0.248
 7081SOL    HW222143   1.260   5.592   0.381
 7082SOL     OW22144   0.005   4.112   0.295
 7082SOL    HW122145   0.032   4.176   0.367
 7082SOL    HW222146   6.952   4.153   0.240
 7083SOL     OW22147   0.339   1.410   1.937
 7083SOL    HW122148   0.379   1.323   1.910
 7083SOL    HW222149   0.407   1.483   1.925
 7084SOL     OW22150   1.127   5.320   5.616
 7084SOL    HW122151   1.042   5.324   5.564
 7084SOL    HW222152   1.195   5.380   5.575
 7085SOL     OW22153   0.137   2.013   2.400
 7085SOL    HW122154   0.132   2.113   2.411
 7085SOL    HW222155   0.203   1.977   2.465
 7086SOL     OW22156   5.393   0.800   6.013
 7086SOL    HW122157   5.488   0.815   5.984
 7086SOL    HW222158   5.340   0.767   5.935
 7087SOL     OW22159   5.860   4.432   2.633
 7087SOL    HW122160   5.941   4.475   2.675
 7087SOL    HW222161   5.839   4.347   2.682
 7088SOL     OW22162   4.961   2.644   5.169
 7088SOL    HW122163   4.875   2.678   5.207
 7088SOL    HW222164   5.014   2.600   5.242
 7089SOL     OW22165   2.172   3.159   3.524
 7089SOL    HW122166   2.108   3.109   3.582
 7089SOL    HW222167   2.177   3.254   3.553
 7090SOL     OW22168   2.498   1.562   0.493
 7090SOL    HW122169   2.583   1.614   0.489
 7090SOL    HW222170   2.490   1.504   0.412
 7091SOL     OW22171   0.468   1.254   0.914
 7091SOL    HW122172   0.550   1.258   0.858
 7091SOL    HW222173   0.492   1.222   1.006
 7092SOL     OW22174   4.196   3.042   5.576
 7092SOL    HW122175   4.245   3.089   5.503
 7092SOL    HW222176   4.111   3.004   5.539
 7093SOL     OW22177   3.419   4.131   1.853
 7093SOL    HW122178   3.506   4.082   1.858
 7093SOL    HW222179   3.345   4.066   1.832
 7094SOL     OW22180   0.226   6.543   5.840
 7094SOL    HW122181   0.147   6.574   5.893
 7094SOL    HW222182   0.274   6.622   5.802
 7095SOL     OW22183   2.569   4.767   5.926
 7095SOL    HW122184   2.563   4.834   5.851
 7095SOL    HW222185   2.665   4.753   5.950
 7096SOL     OW22186   6.242   6.792   1.767
 7096SOL    HW122187   6.230   6.888   1.742
 7096SOL    HW222188   6.207   6.777   1.860
 7097SOL     OW22189   5.113   1.037   2.174
 7097SOL    HW122190   5.148   1.014   2.264
 7097SOL    HW222191   5.033   0.980   2.153
 7098SOL     OW22192   1.487   5.426   5.836
 7098SOL    HW122193   1.491   5.524   5.854
 7098SOL    HW222194   1.496   5.375   5.922
 7099SOL     OW22195   3.787   2.144   4.366
 7099SOL    HW122196   3.800   2.045   4.356
 7099SOL    HW222197   3.858   2.181   4.426
 7100SOL     OW22198   5.799   2.818   0.248
 7100SOL    HW122199   5.751   2.834   0.334
 7100SOL    HW222200   5.893   2.852   0.256
 7101SOL     OW22201   2.429   1.125   5.143
 7101SOL    HW122202   2.434   1.212   5.194
 7101SOL    HW222203   2.498   1.062   5.179
 7102SOL     OW22204   5.724   6.954   0.496
 7102SOL    HW122205   5.762   6.996   0.578
 7102SOL    HW222206   5.645   6.898   0.521
 7103SOL     OW22207   5.617   5.040   1.909
 7103SOL    HW122208   5.695   5.073   1.857
 7103SOL    HW222209   5.634   4.946   1.940
 7104SOL     OW22210   6.681   3.831   2.728
 7104SOL    HW122211   6.723   3.761   2.786
 7104SOL    HW222212   6.590   3.801   2.700
 7105SOL     OW22213   3.175   3.358   4.617
 7105SOL    HW122214   3.192   3.456   4.610
 7105SOL    HW222215   3.236   3.309   4.555
 7106SOL     OW22216   3.422   3.109   1.635
 7106SOL    HW122217   3.389   3.097   1.728
 7106SOL    HW222218   3.345   3.115   1.572
 7107SOL     OW22219   4.629   0.225   0.573
 7107SOL    HW122220   4.715   0.193   0.534
 7107SOL    HW222221   4.627   0.325   0.572
 7108SOL     OW22222   2.620   5.747   3.010
 7108SOL    HW122223   2.679   5.695   2.948
 7108SOL    HW222224   2.586   5.829   2.964
 7109SOL     OW22225   2.080   0.450   6.639
 7109SOL    HW122226   2.124   0.379   6.585
 7109SOL    HW222227   2.149   0.500   6.691
 7110SOL     OW22228   3.249   5.848   4.030
 7110SOL    HW122229   3.192   5.806   4.100
 7110SOL    HW222230   3.191   5.875   3.953
 7111SOL     OW22231   2.066   2.217   4.395
 7111SOL    HW122232   2.124   2.143   4.431
 7111SOL    HW222233   1.972   2.184   4.387
 7112SOL     OW22234   2.444   5.040   4.608
 7112SOL    HW122235   2.382   4.977   4.654
 7112SOL    HW222236   2.515   5.071   4.672
 7113SOL     OW22237   3.553   3.993   4.705
 7113SOL    HW122238   3.590   3.913   4.659
 7113SOL    HW222239   3.472   3.967   4.757
 7114SOL     OW22240   4.894   5.650   1.147
 7114SOL    HW122241   4.810   5.701   1.158
 7114SOL    HW222242   4.873   5.552   1.139
 7115SOL     OW22243   4.949   3.262   6.913
 7115SOL    HW122244   4.971   3.263   6.815
 7115SOL    HW222245   4.913   3.172   6.938
 7116SOL     OW22246   5.242   4.565   3.344
 7116SOL    HW122247   5.157   4.513   3.357
 7116SOL    HW222248   5.319   4.513   3.383
 7117SOL     OW22249   0.177   0.195   4.871
 7117SOL    HW122250   0.261   0.228   4.829
 7117SOL    HW222251   0.198   0.150   4.958
 7118SOL     OW22252   3.785   4.454   5.889
 7118SOL    HW122253   3.787   4.512   5.970
 7118SOL    HW222254   3.822   4.504   5.810
 7119SOL     OW22255   5.170   0.827   4.980
 7119SOL    HW122256   5.172   0.927   4.979
 7119SOL    HW222257   5.075   0.796   4.984
 7120SOL     OW22258   3.854   1.699   1.025
 7120SOL    HW122259   3.938   1.651   1.049
 7120SOL    HW222260   3.802   1.719   1.109
 7121SOL     OW22261   0.721   6.785   3.157
 7121SOL    HW122262   0.712   6.884   3.150
 7121SOL    HW222263   0.645   6.748   3.210
 7122SOL     OW22264   1.727   0.478   5.632
 7122SOL    HW122265   1.749   0.509   5.539
 7122SOL    HW222266   1.703   0.557   5.689
 7123SOL     OW22267   0.738   5.087   3.988
 7123SOL    HW122268   0.666   5.031   3.947
 7123SOL    HW222269   0.714   5.184   3.979
 7124SOL     OW22270   1.133   2.622   1.368
 7124SOL    HW122271   1.132   2.720   1.351
 7124SOL    HW222272   1.110   2.604   1.464
 7125SOL     OW22273   0.727   1.301   0.769
 7125SOL    HW122274   0.722   1.221   0.711
 7125SOL    HW222275   0.815   1.347   0.757
 7126SOL     OW22276   4.165   5.751   0.327
 7126SOL    HW122277   4.239   5.697   0.285
 7126SOL    HW222278   4.093   5.689   0.360
 7127SOL     OW22279   2.921   5.677   6.601
 7127SOL    HW122280   2.912   5.748   6.532
 7127SOL    HW222281   3.016   5.646   6.606
 7128SOL     OW22282   3.448   4.256   6.682
 7128SOL    HW122283   3.440   4.264   6.583
 7128SOL    HW222284   3.429   4.345   6.724
 7129SOL     OW22285   2.067   1.450   1.242
 7129SOL    HW122286   2.025   1.519   1.183
 7129SOL    HW222287   2.157   1.482   1.273
 7130SOL     OW22288   3.459   6.489   4.527
 7130SOL    HW122289   3.402   6.541   4.462
 7130SOL    HW222290   3.441   6.521   4.620
 7131SOL     OW22291   3.364   0.804   1.644
 7131SOL    HW122292   3.430   0.768   1.579
 7131SOL    HW222293   3.341   0.899   1.620
 7132SOL     OW22294   4.266   4.147   0.407
 7132SOL    HW122295   4.178   4.115   0.444
 7132SOL    HW222296   4.318   4.068   0.374
 7133SOL     OW22297   4.009   4.838   5.100
 7133SOL    HW122298   3.981   4.754   5.145
 7133SOL    HW222299   4.068   4.891   5.161
 7134SOL     OW22300   5.557   6.929   2.147
 7134SOL    HW122301   5.656   6.941   2.149
 7134SOL    HW222302   5.521   6.965   2.061
 7135SOL     OW22303   2.522   2.461   3.166
 7135SOL    HW122304   2.616   2.429   3.171
 7135SOL    HW222305   2.487   2.481   3.258
 7136SOL     OW22306   3.126   1.562   0.796
 7136SOL    HW122307   3.090   1.499   0.727
 7136SOL    HW222308   3.162   1.510   0.874
 7137SOL     OW22309   2.961   2.165   0.388
 7137SOL    HW122310   2.870   2.194   0.357
 7137SOL    HW222311   3.010   2.244   0.425
 7138SOL     OW22312   1.973   1.490   0.610
 7138SOL    HW122313   1.876   1.487   0.634
 7138SOL    HW222314   2.025   1.524   0.688
 7139SOL     OW22315   5.098   4.938   2.692
 7139SOL    HW122316   5.181   4.939   2.749
 7139SOL    HW222317   5.028   4.883   2.737
 7140SOL     OW22318   6.182   4.183   0.495
 7140SOL    HW122319   6.273   4.152   0.523
 7140SOL    HW222320   6.149   4.127   0.419
 7141SOL     OW22321   4.070   0.050   1.043
 7141SOL    HW122322   4.132   7.000   1.008
 7141SOL    HW222323   4.037   0.106   0.967
 7142SOL     OW22324   3.915   0.038   4.054
 7142SOL    HW122325   3.972   0.007   4.130
 7142SOL    HW222326   3.842   6.991   4.037
 7143SOL     OW22327   1.992   3.726   6.808
 7143SOL    HW122328   2.031   3.639   6.778
 7143SOL    HW222329   1.908   3.745   6.756
 7144SOL     OW22330   0.802   0.982   2.834
 7144SOL    HW122331   0.843   0.897   2.801
 7144SOL    HW222332   0.866   1.028   2.895
 7145SOL     OW22333   4.455   0.794   6.366
 7145SOL    HW122334   4.548   0.801   6.402
 7145SOL    HW222335   4.393   0.848   6.422
 7146SOL     OW22336   1.773   1.140   6.429
 7146SOL    HW122337   1.775   1.051   6.385
 7146SOL    HW222338   1.791   1.130   6.527
 7147SOL     OW22339   6.888   6.108   3.360
 7147SOL    HW122340   6.899   6.206   3.380
 7147SOL    HW222341   6.966   6.058   3.397
 7148SOL     OW22342   5.885   6.088   2.187
 7148SOL    HW122343   5.820   6.120   2.117
 7148SOL    HW222344   5.862   5.994   2.213
 7149SOL     OW22345   0.469   5.027   3.853
 7149SOL    HW122346   0.373   5.001   3.839
 7149SOL    HW222347   0.498   5.084   3.776
 7150SOL     OW22348   3.550   3.269   0.148
 7150SOL    HW122349   3.630   3.321   0.118
 7150SOL    HW222350   3.503   3.232   0.068
 7151SOL     OW22351   2.856   6.855   0.886
 7151SOL    HW122352   2.856   6.762   0.923
 7151SOL    HW222353   2.826   6.919   0.956
 7152SOL     OW22354   6.650   0.376   6.151
 7152SOL    HW122355   6.668   0.416   6.061
 7152SOL    HW222356   6.640   0.277   6.143
 7153SOL     OW22357   3.487   5.070   1.923
 7153SOL    HW122358   3.545   5.144   1.956
 7153SOL    HW222359   3.520   4.983   1.960
 7154SOL     OW22360   4.360   6.616   3.023
 7154SOL    HW122361   4.377   6.689   3.089
 7154SOL    HW222362   4.282   6.641   2.965
 7155SOL     OW22363   3.561   3.342   1.606
 7155SOL    HW122364   3.589   3.361   1.512
 7155SOL    HW222365   3.502   3.261   1.607
 7156SOL     OW22366   5.135   3.749   2.753
 7156SOL    HW122367   5.067   3.782   2.687
 7156SOL    HW222368   5.119   3.652   2.770
 7157SOL     OW22369   6.755   4.965   2.091
 7157SOL    HW122370   6.810   4.999   2.166
 7157SOL    HW222371   6.815   4.936   2.016
 7158SOL     OW22372   0.991   6.976   3.112
 7158SOL    HW122373   0.894   6.998   3.103
 7158SOL    HW222374   1.046   0.037   3.093
 7159SOL     OW22375   1.319   4.851   4.328
 7159SOL    HW122376   1.254   4.797   4.381
 7159SOL    HW222377   1.297   4.948   4.339
 7160SOL     OW22378   6.207   6.154   2.503
 7160SOL    HW122379   6.277   6.226   2.500
 7160SOL    HW222380   6.176   6.142   2.598
 7161SOL     OW22381   3.223   3.819   2.588
 7161SOL    HW122382   3.219   3.771   2.675
 7161SOL    HW222383   3.169   3.769   2.520
 7162SOL     OW22384   0.759   5.118   6.311
 7162SOL    HW122385   0.775   5.193   6.375
 7162SOL    HW222386   0.817   5.131   6.230
 7163SOL     OW22387   3.137   0.676   2.506
 7163SOL    HW122388   3.205   0.628   2.563
 7163SOL    HW222389   3.131   0.772   2.536
 7164SOL     OW22390   2.433   0.425   4.945
 7164SOL    HW122391   2.516   0.371   4.932
 7164SOL    HW222392   2.407   0.424   5.041
 7165SOL     OW22393   5.646   5.862   1.890
 7165SOL    HW122394   5.707   5.848   1.968
 7165SOL    HW222395   5.640   5.778   1.837
 7166SOL     OW22396   5.657   1.772   0.278
 7166SOL    HW122397   5.689   1.723   0.197
 7166SOL    HW222398   5.603   1.851   0.250
 7167SOL     OW22399   4.890   3.035   4.844
 7167SOL    HW122400   4.965   3.054   4.779
 7167SOL    HW222401   4.883   3.110   4.910
 7168SOL     OW22402   2.870   2.048   3.132
 7168SOL    HW122403   2.911   2.052   3.041
 7168SOL    HW222404   2.770   2.048   3.124
 7169SOL     OW22405   0.066   4.179   4.914
 7169SOL    HW122406   0.039   4.153   4.821
 7169SOL    HW222407   7.005   4.198   4.969
 7170SOL     OW22408   4.451   0.068   2.387
 7170SOL    HW122409   4.362   0.054   2.429
 7170SOL    HW222410   4.502   0.136   2.439
 7171SOL     OW22411   5.983   3.493   0.796
 7171SOL    HW122412   6.042   3.462   0.870
 7171SOL    HW222413   5.902   3.434   0.790
 7172SOL     OW22414   2.374   1.276   5.530
 7172SOL    HW122415   2.469   1.260   5.502
 7172SOL    HW222416   2.323   1.319   5.456
 7173SOL     OW22417   6.064   4.856   6.223
 7173SOL    HW122418   6.029   4.887   6.135
 7173SOL    HW222419   6.109   4.931   6.270
 7174SOL     OW22420   0.160   4.904   0.995
 7174SOL    HW122421   0.197   4.993   1.020
 7174SOL    HW222422   0.110   4.911   0.909
 7175SOL     OW22423   6.951   3.262   5.361
 7175SOL    HW122424   0.011   3.280   5.418
 7175SOL    HW222425   6.928   3.165   5.365
 7176SOL     OW22426   6.897   1.662   4.127
 7176SOL    HW122427   6.896   1.699   4.034
 7176SOL    HW222428   6.911   1.563   4.123
 7177SOL     OW22429   1.399   4.560   5.822
 7177SOL    HW122430   1.489   4.569   5.864
 7177SOL    HW222431   1.406   4.584   5.725
 7178SOL     OW22432   0.282   1.445   6.154
 7178SOL    HW122433   0.300   1.442   6.252
 7178SOL    HW222434   0.305   1.358   6.112
 7179SOL     OW22435   1.313   3.909   4.679
 7179SOL    HW122436   1.215   3.891   4.679
 7179SOL    HW222437   1.359   3.839   4.735
 7180SOL     OW22438   2.336   4.172   0.439
 7180SOL    HW122439   2.354   4.227   0.357
 7180SOL    HW222440   2.259   4.111   0.421
 7181SOL     OW22441   2.510   0.495   0.115
 7181SOL    HW122442   2.461   0.566   0.166
 7181SOL    HW222443   2.462   0.408   0.125
 7182SOL     OW22444   0.775   3.616   3.630
 7182SOL    HW122445   0.745   3.524   3.657
 7182SOL    HW222446   0.856   3.641   3.684
 7183SOL     OW22447   1.801   5.968   1.917
 7183SOL    HW122448   1.791   5.905   1.993
 7183SOL    HW222449   1.725   6.032   1.915
 7184SOL     OW22450   6.888   0.926   3.570
 7184SOL    HW122451   6.913   0.947   3.664
 7184SOL    HW222452   6.789   0.917   3.562
 7185SOL     OW22453   5.673   0.982   5.555
 7185SOL    HW122454   5.625   1.057   5.510
 7185SOL    HW222455   5.683   0.906   5.491
 7186SOL     OW22456   6.913   1.717   1.564
 7186SOL    HW122457   6.965   1.635   1.589
 7186SOL    HW222458   6.966   1.798   1.588
 7187SOL     OW22459   3.032   4.059   5.455
 7187SOL    HW122460   3.086   4.047   5.538
 7187SOL    HW222461   2.942   4.096   5.479
 7188SOL     OW22462   5.137   5.645   0.012
 7188SOL    HW122463   5.133   5.617   6.936
 7188SOL    HW222464   5.103   5.571   0.070
 7189SOL     OW22465   6.704   3.072   5.693
 7189SOL    HW122466   6.704   3.166   5.660
 7189SOL    HW222467   6.627   3.022   5.653
 7190SOL     OW22468   6.097   5.997   1.516
 7190SOL    HW122469   6.001   6.022   1.522
 7190SOL    HW222470   6.148   6.040   1.591
 7191SOL     OW22471   0.684   4.335   2.753
 7191SOL    HW122472   0.685   4.363   2.657
 7191SOL    HW222473   0.703   4.237   2.759
 7192SOL     OW22474   1.801   4.240   6.740
 7192SOL    HW122475   1.879   4.197   6.785
 7192SOL    HW222476   1.724   4.177   6.738
 7193SOL     OW22477   2.145   2.194   2.197
 7193SOL    HW122478   2.063   2.137   2.208
 7193SOL    HW222479   2.203   2.183   2.277
 7194SOL     OW22480   1.735   2.657   6.804
 7194SOL    HW122481   1.764   2.698   6.718
 7194SOL    HW222482   1.694   2.567   6.787
 7195SOL     OW22483   6.339   4.215   6.792
 7195SOL    HW122484   6.413   4.264   6.837
 7195SOL    HW222485   6.272   4.280   6.756
 7196SOL     OW22486   2.746   3.599   1.480
 7196SOL    HW122487   2.675   3.670   1.486
 7196SOL    HW222488   2.729   3.529   1.549
 7197SOL     OW22489   1.213   3.409   5.619
 7197SOL    HW122490   1.311   3.397   5.634
 7197SOL    HW222491   1.198   3.489   5.561
 7198SOL     OW22492   0.739   0.957   0.206
 7198SOL    HW122493   0.712   1.013   0.284
 7198SOL    HW222494   0.673   0.882   0.194
 7199SOL     OW22495   1.100   0.242   3.025
 7199SOL    HW122496   1.134   0.290   2.945
 7199SOL    HW222497   1.165   0.251   3.100
 7200SOL     OW22498   1.974   2.962   6.727
 7200SOL    HW122499   2.031   2.886   6.757
 7200SOL    HW222500   2.005   2.994   6.638
 7201SOL     OW22501   0.743   5.779   4.143
 7201SOL    HW122502   0.746   5.695   4.196
 7201SOL    HW222503   0.741   5.858   4.205
 7202SOL     OW22504   4.440   6.471   6.665
 7202SOL    HW122505   4.482   6.461   6.755
 7202SOL    HW222506   4.418   6.381   6.628
 7203SOL     OW22507   6.902   1.358   1.788
 7203SOL    HW122508   6.850   1.378   1.705
 7203SOL    HW222509   6.852   1.394   1.868
 7204SOL     OW22510   0.064   1.355   6.461
 7204SOL    HW122511   0.058   1.423   6.533
 7204SOL    HW222512   0.025   1.392   6.377
 7205SOL     OW22513   1.584   4.234   5.397
 7205SOL    HW122514   1.622   4.168   5.332
 7205SOL    HW222515   1.654   4.259   5.464
 7206SOL     OW22516   1.718   1.248   1.945
 7206SOL    HW122517   1.743   1.326   2.002
 7206SOL    HW222518   1.658   1.278   1.871
 7207SOL     OW22519   3.502   0.589   4.403
 7207SOL    HW122520   3.442   0.520   4.443
 7207SOL    HW222521   3.597   0.565   4.423
 7208SOL     OW22522   4.821   0.240   3.131
 7208SOL    HW122523   4.775   0.298   3.064
 7208SOL    HW222524   4.903   0.286   3.165
 7209SOL     OW22525   2.201   2.853   2.072
 7209SOL    HW122526   2.137   2.783   2.040
 7209SOL    HW222527   2.150   2.925   2.120
 7210SOL     OW22528   3.806   2.172   3.701
 7210SOL    HW122529   3.809   2.197   3.798
 7210SOL    HW222530   3.712   2.147   3.676
 7211SOL     OW22531   2.597   6.105   5.133
 7211SOL    HW122532   2.572   6.039   5.204
 7211SOL    HW222533   2.685   6.079   5.093
 7212SOL     OW22534   0.415   6.090   5.475
 7212SOL    HW122535   0.449   6.175   5.435
 7212SOL    HW222536   0.318   6.101   5.498
 7213SOL     OW22537   3.734   6.135   6.585
 7213SOL    HW122538   3.765   6.219   6.539
 7213SOL    HW222539   3.755   6.141   6.682
 7214SOL     OW22540   6.246   0.313   5.830
 7214SOL    HW122541   6.261   0.249   5.906
 7214SOL    HW222542   6.253   0.407   5.863
 7215SOL     OW22543   5.674   2.831   4.097
 7215SOL    HW122544   5.640   2.741   4.122
 7215SOL    HW222545   5.758   2.821   4.044
 7216SOL     OW22546   2.682   7.015   2.234
 7216SOL    HW122547   2.600   0.035   2.275
 7216SOL    HW222548   2.695   6.923   2.270
 7217SOL     OW22549   1.806   3.442   3.537
 7217SOL    HW122550   1.835   3.415   3.629
 7217SOL    HW222551   1.752   3.368   3.496
 7218SOL     OW22552   6.876   2.580   4.214
 7218SOL    HW122553   6.826   2.531   4.142
 7218SOL    HW222554   6.859   2.678   4.206
 7219SOL     OW22555   3.297   0.629   2.238
 7219SOL    HW122556   3.287   0.635   2.139
 7219SOL    HW222557   3.227   0.568   2.275
 7220SOL     OW22558   6.536   4.535   4.023
 7220SOL    HW122559   6.590   4.465   4.070
 7220SOL    HW222560   6.571   4.548   3.931
 7221SOL     OW22561   3.610   6.216   4.487
 7221SOL    HW122562   3.555   6.287   4.530
 7221SOL    HW222563   3.701   6.216   4.529
 7222SOL     OW22564   6.252   6.364   3.485
 7222SOL    HW122565   6.262   6.387   3.388
 7222SOL    HW222566   6.325   6.409   3.538
 7223SOL     OW22567   3.160   1.172   0.558
 7223SOL    HW122568   3.241   1.230   0.557
 7223SOL    HW222569   3.078   1.229   0.552
 7224SOL     OW22570   5.080   2.620   4.237
 7224SOL    HW122571   5.139   2.636   4.158
 7224SOL    HW222572   5.083   2.699   4.298
 7225SOL     OW22573   1.522   6.470   0.814
 7225SOL    HW122574   1.489   6.505   0.901
 7225SOL    HW222575   1.531   6.545   0.748
 7226SOL     OW22576   5.576   6.876   1.219
 7226SOL    HW122577   5.599   6.807   1.150
 7226SOL    HW222578   5.637   6.955   1.208
 7227SOL     OW22579   2.702   1.881   1.609
 7227SOL    HW122580   2.785   1.936   1.613
 7227SOL    HW222581   2.646   1.899   1.690
 7228SOL     OW22582   1.284   1.429   2.660
 7228SOL    HW122583   1.272   1.339   2.619
 7228SOL    HW222584   1.359   1.477   2.616
 7229SOL     OW22585   0.850   6.744   5.274
 7229SOL    HW122586   0.922   6.784   5.216
 7229SOL    HW222587   0.885   6.734   5.367
 7230SOL     OW22588   3.125   5.979   3.811
 7230SOL    HW122589   3.215   5.969   3.770
 7230SOL    HW222590   3.056   5.983   3.739
 7231SOL     OW22591   4.183   0.630   6.298
 7231SOL    HW122592   4.243   0.709   6.287
 7231SOL    HW222593   4.200   0.586   6.386
 7232SOL     OW22594   4.640   5.898   2.802
 7232SOL    HW122595   4.739   5.906   2.817
 7232SOL    HW222596   4.615   5.944   2.717
 7233SOL     OW22597   1.430   1.153   4.573
 7233SOL    HW122598   1.398   1.147   4.667
 7233SOL    HW222599   1.397   1.238   4.532
 7234SOL     OW22600   5.887   3.308   3.000
 7234SOL    HW122601   5.926   3.271   2.916
 7234SOL    HW222602   5.910   3.405   3.007
 7235SOL     OW22603   6.848   4.165   1.735
 7235SOL    HW122604   6.824   4.191   1.828
 7235SOL    HW222605   6.785   4.208   1.671
 7236SOL     OW22606   2.688   2.316   2.640
 7236SOL    HW122607   2.649   2.339   2.729
 7236SOL    HW222608   2.664   2.386   2.573
 7237SOL     OW22609   3.865   0.282   5.232
 7237SOL    HW122610   3.912   0.203   5.271
 7237SOL    HW222611   3.771   0.257   5.209
 7238SOL     OW22612   4.416   2.392   6.074
 7238SOL    HW122613   4.454   2.345   5.995
 7238SOL    HW222614   4.395   2.325   6.145
 7239SOL     OW22615   0.826   2.357   1.588
 7239SOL    HW122616   0.887   2.320   1.518
 7239SOL    HW222617   0.766   2.426   1.548
 7240SOL     OW22618   6.832   1.350   5.668
 7240SOL    HW122619   6.815   1.392   5.758
 7240SOL    HW222620   6.881   1.416   5.611
 7241SOL     OW22621   2.599   0.403   1.138
 7241SOL    HW122622   2.509   0.428   1.100
 7241SOL    HW222623   2.598   0.307   1.164
 7242SOL     OW22624   6.056   5.675   0.024
 7242SOL    HW122625   6.063   5.766   7.003
 7242SOL    HW222626   5.975   5.629   7.008
 7243SOL     OW22627   6.876   4.458   6.184
 7243SOL    HW122628   6.871   4.544   6.234
 7243SOL    HW222629   6.950   4.463   6.117
 7244SOL     OW22630   0.421   0.823   1.230
 7244SOL    HW122631   0.511   0.857   1.257
 7244SOL    HW222632   0.431   0.757   1.155
 7245SOL     OW22633   1.428   3.229   5.215
 7245SOL    HW122634   1.395   3.315   5.255
 7245SOL    HW222635   1.515   3.204   5.257
 7246SOL     OW22636   1.164   0.173   3.725
 7246SOL    HW122637   1.087   0.190   3.786
 7246SOL    HW222638   1.206   0.085   3.748
 7247SOL     OW22639   2.395   1.380   5.241
 7247SOL    HW122640   2.459   1.457   5.251
 7247SOL    HW222641   2.329   1.401   5.169
 7248SOL     OW22642   3.491   1.133   2.513
 7248SOL    HW122643   3.521   1.138   2.418
 7248SOL    HW222644   3.400   1.172   2.522
 7249SOL     OW22645   5.007   4.804   2.319
 7249SOL    HW122646   5.050   4.890   2.344
 7249SOL    HW222647   5.063   4.728   2.353
 7250SOL     OW22648   5.224   6.225   5.784
 7250SOL    HW122649   5.314   6.270   5.782
 7250SOL    HW222650   5.155   6.290   5.812
 7251SOL     OW22651   0.378   6.852   5.902
 7251SOL    HW122652   0.423   6.788   5.964
 7251SOL    HW222653   0.446   6.893   5.840
 7252SOL     OW22654   3.433   3.446   2.009
 7252SOL    HW122655   3.447   3.372   2.075
 7252SOL    HW222656   3.401   3.408   1.923
 7253SOL     OW22657   1.768   5.895   6.775
 7253SOL    HW122658   1.807   5.970   6.828
 7253SOL    HW222659   1.833   5.819   6.772
 7254SOL     OW22660   5.286   5.149   4.698
 7254SOL    HW122661   5.360   5.090   4.729
 7254SOL    HW222662   5.215   5.153   4.769
 7255SOL     OW22663   4.265   3.373   0.286
 7255SOL    HW122664   4.206   3.293   0.270
 7255SOL    HW222665   4.208   3.454   0.301
 7256SOL     OW22666   3.285   5.933   5.030
 7256SOL    HW122667   3.320   5.880   5.107
 7256SOL    HW222668   3.295   5.881   4.945
 7257SOL     OW22669   6.896   1.922   3.578
 7257SOL    HW122670   6.930   1.918   3.672
 7257SOL    HW222671   6.927   1.842   3.528
 7258SOL     OW22672   4.809   2.342   3.108
 7258SOL    HW122673   4.786   2.260   3.161
 7258SOL    HW222674   4.780   2.330   3.013
 7259SOL     OW22675   1.753   3.632   1.895
 7259SOL    HW122676   1.823   3.675   1.840
 7259SOL    HW222677   1.751   3.534   1.875
 7260SOL     OW22678   5.310   1.694   1.512
 7260SOL    HW122679   5.390   1.735   1.556
 7260SOL    HW222680   5.291   1.742   1.426
 7261SOL     OW22681   1.720   4.422   1.816
 7261SOL    HW122682   1.769   4.509   1.808
 7261SOL    HW222683   1.693   4.391   1.725
 7262SOL     OW22684   5.517   2.363   6.188
 7262SOL    HW122685   5.487   2.269   6.169
 7262SOL    HW222686   5.582   2.363   6.264
 7263SOL     OW22687   0.713   6.701   0.141
 7263SOL    HW122688   0.694   6.728   0.046
 7263SOL    HW222689   0.630   6.663   0.182
 7264SOL     OW22690   5.739   1.589   6.783
 7264SOL    HW122691   5.641   1.603   6.770
 7264SOL    HW222692   5.790   1.639   6.714
 7265SOL     OW22693   5.293   5.162   6.391
 7265SOL    HW122694   5.357   5.140   6.465
 7265SOL    HW222695   5.200   5.142   6.420
 7266SOL     OW22696   5.721   0.441   2.721
 7266SOL    HW122697   5.643   0.384   2.694
 7266SOL    HW222698   5.805   0.403   2.684
 7267SOL     OW22699   6.171   6.566   4.922
 7267SOL    HW122700   6.186   6.533   4.828
 7267SOL    HW222701   6.220   6.507   4.986
 7268SOL     OW22702   6.969   5.796   4.232
 7268SOL    HW122703   6.871   5.795   4.213
 7268SOL    HW222704   6.996   5.887   4.265
 7269SOL     OW22705   1.237   6.007   5.822
 7269SOL    HW122706   1.196   5.915   5.819
 7269SOL    HW222707   1.313   6.012   5.756
 7270SOL     OW22708   0.839   3.177   5.194
 7270SOL    HW122709   0.872   3.140   5.280
 7270SOL    HW222710   0.843   3.105   5.124
 7271SOL     OW22711   1.254   5.116   4.349
 7271SOL    HW122712   1.335   5.175   4.354
 7271SOL    HW222713   1.212   5.125   4.259
 7272SOL     OW22714   6.024   5.273   2.980
 7272SOL    HW122715   6.087   5.238   2.911
 7272SOL    HW222716   6.077   5.314   3.055
 7273SOL     OW22717   6.509   4.081   1.157
 7273SOL    HW122718   6.452   4.014   1.205
 7273SOL    HW222719   6.450   4.147   1.111
 7274SOL     OW22720   0.865   5.306   5.908
 7274SOL    HW122721   0.792   5.357   5.955
 7274SOL    HW222722   0.944   5.299   5.969
 7275SOL     OW22723   0.734   5.753   2.789
 7275SOL    HW122724   0.716   5.728   2.884
 7275SOL    HW222725   0.807   5.695   2.753
 7276SOL     OW22726   5.162   0.484   2.947
 7276SOL    HW122727   5.191   0.446   3.035
 7276SOL    HW222728   5.186   0.420   2.874
 7277SOL     OW22729   5.524   0.763   4.046
 7277SOL    HW122730   5.490   0.850   4.080
 7277SOL    HW222731   5.446   0.703   4.023
 7278SOL     OW22732   3.843   2.316   1.198
 7278SOL    HW122733   3.810   2.349   1.109
 7278SOL    HW222734   3.941   2.334   1.205
 7279SOL     OW22735   3.803   4.599   6.145
 7279SOL    HW122736   3.768   4.593   6.239
 7279SOL    HW222737   3.856   4.683   6.135
 7280SOL     OW22738   0.233   1.572   3.939
 7280SOL    HW122739   0.189   1.657   3.909
 7280SOL    HW222740   0.232   1.506   3.864
 7281SOL     OW22741   2.826   1.601   6.818
 7281SOL    HW122742   2.794   1.515   6.859
 7281SOL    HW222743   2.781   1.678   6.862
 7282SOL     OW22744   6.230   5.017   3.215
 7282SOL    HW122745   6.261   5.111   3.205
 7282SOL    HW222746   6.132   5.012   3.198
 7283SOL     OW22747   4.567   1.314   2.675
 7283SOL    HW122748   4.662   1.296   2.699
 7283SOL    HW222749   4.514   1.230   2.682
 7284SOL     OW22750   0.510   2.600   5.989
 7284SOL    HW122751   0.496   2.517   5.935
 7284SOL    HW222752   0.463   2.592   6.076
 7285SOL     OW22753   5.181   2.834   2.573
 7285SOL    HW122754   5.114   2.805   2.504
 7285SOL    HW222755   5.272   2.802   2.546
 7286SOL     OW22756   2.332   1.217   0.538
 7286SOL    HW122757   2.330   1.266   0.625
 7286SOL    HW222758   2.398   1.142   0.544
 7287SOL     OW22759   0.570   2.523   5.694
 7287SOL    HW122760   0.594   2.620   5.693
 7287SOL    HW222761   0.649   2.468   5.665
 7288SOL     OW22762   2.214   0.933   0.747
 7288SOL    HW122763   2.228   0.901   0.841
 7288SOL    HW222764   2.123   0.906   0.716
 7289SOL     OW22765   4.892   2.472   4.358
 7289SOL    HW122766   4.936   2.448   4.445
 7289SOL    HW222767   4.953   2.531   4.305
 7290SOL     OW22768   3.556   0.409   5.254
 7290SOL    HW122769   3.585   0.358   5.173
 7290SOL    HW222770   3.588   0.363   5.336
 7291SOL     OW22771   1.929   6.364   0.705
 7291SOL    HW122772   1.999   6.357   0.634
 7291SOL    HW222773   1.882   6.452   0.696
 7292SOL     OW22774   3.493   1.091   3.649
 7292SOL    HW122775   3.453   1.128   3.565
 7292SOL    HW222776   3.522   0.997   3.633
 7293SOL     OW22777   1.444   1.669   4.824
 7293SOL    HW122778   1.509   1.693   4.896
 7293SOL    HW222779   1.358   1.718   4.838
 7294SOL     OW22780   2.645   5.260   6.751
 7294SOL    HW122781   2.637   5.360   6.758
 7294SOL    HW222782   2.704   5.236   6.674
 7295SOL     OW22783   6.335   2.852   1.169
 7295SOL    HW122784   6.430   2.873   1.195
 7295SOL    HW222785   6.311   2.761   1.202
 7296SOL     OW22786   3.109   5.821   2.243
 7296SOL    HW122787   3.131   5.875   2.324
 7296SOL    HW222788   3.107   5.881   2.163
 7297SOL     OW22789   3.953   0.157   1.404
 7297SOL    HW122790   3.898   0.140   1.322
 7297SOL    HW222791   3.894   0.172   1.482
 7298SOL     OW22792   5.218   5.166   5.928
 7298SOL    HW122793   5.153   5.093   5.948
 7298SOL    HW222794   5.204   5.242   5.992
 7299SOL     OW22795   1.163   2.019   0.749
 7299SOL    HW122796   1.081   2.070   0.722
 7299SOL    HW222797   1.238   2.041   0.686
 7300SOL     OW22798   0.721   6.312   3.420
 7300SOL    HW122799   0.733   6.410   3.435
 7300SOL    HW222800   0.766   6.262   3.494
 7301SOL     OW22801   5.208   1.498   4.670
 7301SOL    HW122802   5.293   1.487   4.619
 7301SOL    HW222803   5.146   1.559   4.620
 7302SOL     OW22804   0.770   2.419   5.004
 7302SOL    HW122805   0.791   2.510   4.969
 7302SOL    HW222806   0.769   2.422   5.104
 7303SOL     OW22807   3.609   0.286   0.154
 7303SOL    HW122808   3.662   0.355   0.205
 7303SOL    HW222809   3.598   0.316   0.060
 7304SOL     OW22810   3.502   5.431   1.440
 7304SOL    HW122811   3.500   5.530   1.453
 7304SOL    HW222812   3.546   5.410   1.352
 7305SOL     OW22813   4.400   0.810   0.317
 7305SOL    HW122814   4.327   0.771   0.260
 7305SOL    HW222815   4.489   0.783   0.280
 7306SOL     OW22816   4.948   1.489   0.753
 7306SOL    HW122817   4.898   1.522   0.833
 7306SOL    HW222818   4.995   1.565   0.709
 7307SOL     OW22819   2.741   6.428   2.467
 7307SOL    HW122820   2.748   6.328   2.477
 7307SOL    HW222821   2.645   6.454   2.462
 7308SOL     OW22822   6.918   2.904   5.747
 7308SOL    HW122823   6.900   2.809   5.773
 7308SOL    HW222824   6.832   2.949   5.723
 7309SOL     OW22825   4.586   5.454   1.505
 7309SOL    HW122826   4.598   5.553   1.510
 7309SOL    HW222827   4.498   5.433   1.462
 7310SOL     OW22828   2.557   3.778   1.465
 7310SOL    HW122829   2.523   3.872   1.468
 7310SOL    HW222830   2.510   3.729   1.392
 7311SOL     OW22831   2.307   1.737   1.512
 7311SOL    HW122832   2.359   1.822   1.513
 7311SOL    HW222833   2.210   1.757   1.516
 7312SOL     OW22834   0.911   3.673   4.666
 7312SOL    HW122835   0.920   3.710   4.574
 7312SOL    HW222836   0.959   3.586   4.672
 7313SOL     OW22837   2.279   0.757   0.244
 7313SOL    HW122838   2.222   0.818   0.298
 7313SOL    HW222839   2.320   0.808   0.168
 7314SOL     OW22840   6.988   5.370   5.836
 7314SOL    HW122841   6.896   5.382   5.872
 7314SOL    HW222842   0.034   5.418   5.894
 7315SOL     OW22843   5.941   0.198   2.108
 7315SOL    HW122844   6.019   0.135   2.104
 7315SOL    HW222845   5.961   0.279   2.053
 7316SOL     OW22846   2.889   4.242   6.862
 7316SOL    HW122847   2.872   4.171   6.930
 7316SOL    HW222848   2.818   4.239   6.792
 7317SOL     OW22849   5.015   1.228   3.010
 7317SOL    HW122850   5.041   1.132   2.994
 7317SOL    HW222851   5.080   1.269   3.074
 7318SOL     OW22852   1.967   0.575   1.749
 7318SOL    HW122853   1.902   0.648   1.768
 7318SOL    HW222854   1.986   0.572   1.651
 7319SOL     OW22855   0.336   3.628   6.397
 7319SOL    HW122856   0.245   3.622   6.438
 7319SOL    HW222857   0.346   3.557   6.327
 7320SOL     OW22858   0.315   3.508   2.703
 7320SOL    HW122859   0.383   3.516   2.630
 7320SOL    HW222860   0.320   3.589   2.762
 7321SOL     OW22861   1.900   0.467   5.995
 7321SOL    HW122862   1.853   0.554   5.982
 7321SOL    HW222863   1.999   0.480   5.982
 7322SOL     OW22864   6.823   2.855   3.272
 7322SOL    HW122865   6.844   2.764   3.235
 7322SOL    HW222866   6.893   2.881   3.338
 7323SOL     OW22867   1.166   2.411   1.863
 7323SOL    HW122868   1.265   2.423   1.853
 7323SOL    HW222869   1.119   2.476   1.804
 7324SOL     OW22870   4.510   5.629   2.221
 7324SOL    HW122871   4.607   5.602   2.223
 7324SOL    HW222872   4.496   5.695   2.147
 7325SOL     OW22873   3.379   6.882   0.168
 7325SOL    HW122874   3.349   6.844   0.255
 7325SOL    HW222875   3.307   6.940   0.129
 7326SOL     OW22876   2.763   5.971   6.395
 7326SOL    HW122877   2.766   6.018   6.483
 7326SOL    HW222878   2.799   6.031   6.323
 7327SOL     OW22879   6.346   1.546   6.358
 7327SOL    HW122880   6.276   1.586   6.418
 7327SOL    HW222881   6.407   1.618   6.326
 7328SOL     OW22882   3.052   0.986   5.997
 7328SOL    HW122883   3.125   0.960   5.934
 7328SOL    HW222884   3.073   0.950   6.089
 7329SOL     OW22885   6.509   4.080   1.504
 7329SOL    HW122886   6.482   4.006   1.565
 7329SOL    HW222887   6.550   4.042   1.422
 7330SOL     OW22888   2.663   2.350   6.719
 7330SOL    HW122889   2.576   2.305   6.738
 7330SOL    HW222890   2.738   2.284   6.726
 7331SOL     OW22891   5.376   6.588   1.751
 7331SOL    HW122892   5.430   6.527   1.693
 7331SOL    HW222893   5.373   6.551   1.844
 7332SOL     OW22894   2.900   6.121   0.236
 7332SOL    HW122895   2.879   6.116   0.333
 7332SOL    HW222896   2.858   6.043   0.189
 7333SOL     OW22897   0.161   2.600   2.313
 7333SOL    HW122898   0.198   2.508   2.321
 7333SOL    HW222899   0.191   2.640   2.226
 7334SOL     OW22900   2.550   5.713   6.321
 7334SOL    HW122901   2.590   5.765   6.397
 7334SOL    HW222902   2.617   5.702   6.249
 7335SOL     OW22903   2.065   2.467   3.185
 7335SOL    HW122904   2.067   2.498   3.280
 7335SOL    HW222905   2.157   2.448   3.153
 7336SOL     OW22906   1.625   6.158   2.878
 7336SOL    HW122907   1.548   6.143   2.940
 7336SOL    HW222908   1.590   6.171   2.785
 7337SOL     OW22909   0.589   3.115   1.602
 7337SOL    HW122910   0.648   3.192   1.624
 7337SOL    HW222911   0.504   3.148   1.562
 7338SOL     OW22912   5.699   1.841   2.020
 7338SOL    HW122913   5.708   1.939   2.035
 7338SOL    HW222914   5.718   1.821   1.924
 7339SOL     OW22915   5.848   6.582   4.054
 7339SOL    HW122916   5.807   6.490   4.054
 7339SOL    HW222917   5.842   6.621   3.962
 7340SOL     OW22918   3.000   1.488   0.506
 7340SOL    HW122919   3.049   1.567   0.470
 7340SOL    HW222920   2.932   1.458   0.438
 7341SOL     OW22921   0.839   3.987   6.162
 7341SOL    HW122922   0.854   4.066   6.102
 7341SOL    HW222923   0.926   3.958   6.201
 7342SOL     OW22924   0.442   1.892   0.657
 7342SOL    HW122925   0.390   1.814   0.692
 7342SOL    HW222926   0.423   1.973   0.713
 7343SOL     OW22927   6.579   3.652   0.954
 7343SOL    HW122928   6.526   3.567   0.957
 7343SOL    HW222929   6.568   3.695   0.864
 7344SOL     OW22930   1.077   0.955   6.361
 7344SOL    HW122931   1.038   0.864   6.345
 7344SOL    HW222932   1.089   1.001   6.273
 7345SOL     OW22933   3.778   4.788   5.849
 7345SOL    HW122934   3.856   4.746   5.802
 7345SOL    HW222935   3.732   4.852   5.787
 7346SOL     OW22936   3.756   4.915   2.017
 7346SOL    HW122937   3.761   4.903   2.117
 7346SOL    HW222938   3.680   4.860   1.981
 7347SOL     OW22939   0.911   1.970   0.377
 7347SOL    HW122940   0.955   1.943   0.291
 7347SOL    HW222941   0.830   1.914   0.392
 7348SOL     OW22942   1.709   3.729   4.250
 7348SOL    HW122943   1.624   3.719   4.199
 7348SOL    HW222944   1.776   3.662   4.216
 7349SOL     OW22945   4.814   1.666   1.496
 7349SOL    HW122946   4.897   1.673   1.441
 7349SOL    HW222947   4.740   1.627   1.440
 7350SOL     OW22948   2.654   2.714   5.585
 7350SOL    HW122949   2.665   2.616   5.596
 7350SOL    HW222950   2.624   2.735   5.492
 7351SOL     OW22951   5.471   5.794   4.748
 7351SOL    HW122952   5.394   5.762   4.693
 7351SOL    HW222953   5.517   5.715   4.789
 7352SOL     OW22954   1.600   1.342   2.906
 7352SOL    HW122955   1.562   1.364   2.816
 7352SOL    HW222956   1.692   1.380   2.914
 7353SOL     OW22957   0.577   0.054   6.357
 7353SOL    HW122958   0.503   0.029   6.421
 7353SOL    HW222959   0.574   7.013   6.278
 7354SOL     OW22960   0.843   2.250   4.582
 7354SOL    HW122961   0.859   2.285   4.490
 7354SOL    HW222962   0.776   2.176   4.578
 7355SOL     OW22963   1.483   0.396   0.822
 7355SOL    HW122964   1.567   0.342   0.812
 7355SOL    HW222965   1.488   0.448   0.908
 7356SOL     OW22966   3.879   3.603   6.145
 7356SOL    HW122967   3.799   3.588   6.087
 7356SOL    HW222968   3.909   3.698   6.137
 7357SOL     OW22969   3.373   6.973   1.946
 7357SOL    HW122970   3.445   6.908   1.921
 7357SOL    HW222971   3.300   6.971   1.877
 7358SOL     OW22972   6.276   3.381   2.556
 7358SOL    HW122973   6.280   3.286   2.528
 7358SOL    HW222974   6.276   3.440   2.475
 7359SOL     OW22975   3.977   2.048   5.771
 7359SOL    HW122976   3.933   2.029   5.683
 7359SOL    HW222977   3.908   2.065   5.840
 7360SOL     OW22978   2.949   3.308   5.684
 7360SOL    HW122979   2.879   3.260   5.630
 7360SOL    HW222980   3.024   3.336   5.624
 7361SOL     OW22981   4.831   0.785   1.964
 7361SOL    HW122982   4.880   0.758   1.882
 7361SOL    HW222983   4.780   0.707   2.000
 7362SOL     OW22984   1.321   5.259   6.141
 7362SOL    HW122985   1.409   5.299   6.117
 7362SOL    HW222986   1.328   5.213   6.230
 7363SOL     OW22987   4.908   1.969   1.222
 7363SOL    HW122988   4.913   1.973   1.322
 7363SOL    HW222989   4.820   1.931   1.194
 7364SOL     OW22990   4.685   0.699   1.504
 7364SOL    HW122991   4.600   0.729   1.547
 7364SOL    HW222992   4.752   0.774   1.508
 7365SOL     OW22993   0.615   5.694   1.817
 7365SOL    HW122994   0.640   5.600   1.791
 7365SOL    HW222995   0.635   5.708   1.914
 7366SOL     OW22996   2.254   6.243   6.684
 7366SOL    HW122997   2.239   6.146   6.701
 7366SOL    HW222998   2.208   6.270   6.599
 7367SOL     OW22999   5.486   2.385   1.222
 7367SOL    HW123000   5.558   2.437   1.175
 7367SOL    HW223001   5.522   2.297   1.252
 7368SOL     OW23002   3.796   2.941   2.755
 7368SOL    HW123003   3.864   2.898   2.816
 7368SOL    HW223004   3.833   3.027   2.721
 7369SOL     OW23005   3.527   2.395   0.353
 7369SOL    HW123006   3.483   2.389   0.263
 7369SOL    HW223007   3.458   2.417   0.422
 7370SOL     OW23008   2.873   0.654   4.773
 7370SOL    HW123009   2.904   0.742   4.737
 7370SOL    HW223010   2.935   0.623   4.845
 7371SOL     OW23011   2.510   6.808   3.647
 7371SOL    HW123012   2.470   6.892   3.684
 7371SOL    HW223013   2.608   6.822   3.632
 7372SOL     OW23014   4.873   0.578   4.019
 7372SOL    HW123015   4.827   0.565   4.107
 7372SOL    HW223016   4.847   0.667   3.981
 7373SOL     OW23017   6.121   1.910   3.676
 7373SOL    HW123018   6.052   1.854   3.631
 7373SOL    HW223019   6.193   1.852   3.713
 7374SOL     OW23020   2.915   1.904   5.169
 7374SOL    HW123021   2.963   1.991   5.176
 7374SOL    HW223022   2.971   1.831   5.207
 7375SOL     OW23023   2.194   2.441   2.516
 7375SOL    HW123024   2.274   2.501   2.508
 7375SOL    HW223025   2.158   2.420   2.425
 7376SOL     OW23026   1.958   2.237   0.409
 7376SOL    HW123027   2.000   2.197   0.327
 7376SOL    HW223028   1.940   2.164   0.475
 7377SOL     OW23029   5.250   4.364   0.592
 7377SOL    HW123030   5.335   4.391   0.546
 7377SOL    HW223031   5.270   4.293   0.660
 7378SOL     OW23032   0.145   0.789   5.541
 7378SOL    HW123033   0.195   0.744   5.614
 7378SOL    HW223034   0.101   0.721   5.483
 7379SOL     OW23035   3.081   1.795   2.569
 7379SOL    HW123036   2.990   1.767   2.538
 7379SOL    HW223037   3.151   1.748   2.515
 7380SOL     OW23038   0.116   4.428   3.771
 7380SOL    HW123039   0.172   4.414   3.853
 7380SOL    HW223040   0.175   4.453   3.694
 7381SOL     OW23041   4.066   3.120   0.507
 7381SOL    HW123042   4.134   3.074   0.563
 7381SOL    HW223043   3.981   3.067   0.506
 7382SOL     OW23044   0.415   0.627   5.400
 7382SOL    HW123045   0.509   0.655   5.417
 7382SOL    HW223046   0.353   0.686   5.451
 7383SOL     OW23047   2.619   6.576   0.767
 7383SOL    HW123048   2.635   6.619   0.678
 7383SOL    HW223049   2.635   6.478   0.761
 7384SOL     OW23050   6.720   6.159   2.687
 7384SOL    HW123051   6.655   6.086   2.708
 7384SOL    HW223052   6.807   6.140   2.731
 7385SOL     OW23053   3.328   5.667   2.585
 7385SOL    HW123054   3.415   5.655   2.538
 7385SOL    HW223055   3.269   5.588   2.567
 7386SOL     OW23056   0.092   2.354   0.051
 7386SOL    HW123057   0.124   2.449   0.057
 7386SOL    HW223058   0.053   2.327   0.139
 7387SOL     OW23059   6.080   5.719   5.992
 7387SOL    HW123060   6.153   5.788   5.989
 7387SOL    HW223061   6.023   5.734   6.073
 7388SOL     OW23062   1.355   5.459   1.854
 7388SOL    HW123063   1.286   5.507   1.801
 7388SOL    HW223064   1.418   5.525   1.895
 7389SOL     OW23065   5.708   3.953   6.063
 7389SOL    HW123066   5.768   3.890   6.013
 7389SOL    HW223067   5.643   3.994   5.999
 7390SOL     OW23068   2.122   2.782   1.720
 7390SOL    HW123069   2.055   2.853   1.702
 7390SOL    HW223070   2.204   2.822   1.760
 7391SOL     OW23071   4.078   3.304   3.499
 7391SOL    HW123072   4.081   3.361   3.581
 7391SOL    HW223073   4.061   3.209   3.524
 7392SOL     OW23074   3.028   5.654   6.308
 7392SOL    HW123075   3.089   5.593   6.358
 7392SOL    HW223076   3.048   5.749   6.331
 7393SOL     OW23077   6.223   4.490   2.307
 7393SOL    HW123078   6.272   4.460   2.389
 7393SOL    HW223079   6.149   4.426   2.287
 7394SOL     OW23080   1.994   2.876   5.260
 7394SOL    HW123081   2.091   2.898   5.268
 7394SOL    HW223082   1.957   2.857   5.351
 7395SOL     OW23083   1.994   3.362   1.228
 7395SOL    HW123084   2.064   3.344   1.298
 7395SOL    HW223085   1.962   3.275   1.190
 7396SOL     OW23086   1.761   6.546   1.450
 7396SOL    HW123087   1.843   6.495   1.477
 7396SOL    HW223088   1.773   6.643   1.471
 7397SOL     OW23089   4.875   5.992   4.636
 7397SOL    HW123090   4.937   5.913   4.635
 7397SOL    HW223091   4.794   5.969   4.690
 7398SOL     OW23092   1.349   4.464   3.700
 7398SOL    HW123093   1.341   4.517   3.785
 7398SOL    HW223094   1.306   4.374   3.713
 7399SOL     OW23095   0.679   2.824   4.527
 7399SOL    HW123096   0.605   2.890   4.514
 7399SOL    HW223097   0.677   2.756   4.454
 7400SOL     OW23098   4.418   2.932   5.811
 7400SOL    HW123099   4.362   3.013   5.793
 7400SOL    HW223100   4.451   2.935   5.905
 7401SOL     OW23101   1.363   2.599   3.926
 7401SOL    HW123102   1.394   2.650   3.845
 7401SOL    HW223103   1.263   2.600   3.929
 7402SOL     OW23104   2.778   4.987   6.215
 7402SOL    HW123105   2.799   4.947   6.304
 7402SOL    HW223106   2.779   4.916   6.145
 7403SOL     OW23107   1.813   3.964   2.078
 7403SOL    HW123108   1.732   3.915   2.111
 7403SOL    HW223109   1.791   4.012   1.994
 7404SOL     OW23110   2.706   4.374   1.683
 7404SOL    HW123111   2.699   4.396   1.780
 7404SOL    HW223112   2.684   4.455   1.629
 7405SOL     OW23113   3.559   4.889   4.468
 7405SOL    HW123114   3.645   4.940   4.463
 7405SOL    HW223115   3.578   4.791   4.462
 7406SOL     OW23116   0.262   2.430   3.395
 7406SOL    HW123117   0.195   2.358   3.409
 7406SOL    HW223118   0.353   2.390   3.388
 7407SOL     OW23119   0.512   6.885   5.356
 7407SOL    HW123120   0.598   6.935   5.359
 7407SOL    HW223121   0.508   6.819   5.431
 7408SOL     OW23122   3.313   4.056   6.846
 7408SOL    HW123123   3.370   4.046   6.928
 7408SOL    HW223124   3.363   4.110   6.778
 7409SOL     OW23125   5.120   3.022   0.355
 7409SOL    HW123126   5.056   3.099   0.359
 7409SOL    HW223127   5.133   2.994   0.260
 7410SOL     OW23128   0.377   0.502   0.489
 7410SOL    HW123129   0.295   0.492   0.433
 7410SOL    HW223130   0.443   0.560   0.441
 7411SOL     OW23131   1.915   0.672   6.698
 7411SOL    HW123132   1.824   0.651   6.732
 7411SOL    HW223133   1.954   0.592   6.652
 7412SOL     OW23134   5.047   0.769   1.298
 7412SOL    HW123135   5.019   0.803   1.388
 7412SOL    HW223136   5.069   0.847   1.239
 7413SOL     OW23137   4.363   5.250   3.715
 7413SOL    HW123138   4.310   5.233   3.632
 7413SOL    HW223139   4.316   5.318   3.772
 7414SOL     OW23140   0.869   0.858   3.141
 7414SOL    HW123141   0.937   0.896   3.078
 7414SOL    HW223142   0.841   0.929   3.206
 7415SOL     OW23143   1.718   4.467   4.414
 7415SOL    HW123144   1.685   4.442   4.323
 7415SOL    HW223145   1.652   4.438   4.483
 7416SOL     OW23146   1.887   1.005   2.173
 7416SOL    HW123147   1.870   1.087   2.229
 7416SOL    HW223148   1.906   0.927   2.233
 7417SOL     OW23149   2.159   2.183   1.270
 7417SOL    HW123150   2.228   2.116   1.296
 7417SOL    HW223151   2.090   2.190   1.343
 7418SOL     OW23152   1.566   5.789   0.356
 7418SOL    HW123153   1.471   5.765   0.335
 7418SOL    HW223154   1.597   5.737   0.435
 7419SOL     OW23155   6.928   3.573   4.264
 7419SOL    HW123156   6.942   3.487   4.312
 7419SOL    HW223157   6.930   3.557   4.165
 7420SOL     OW23158   0.749   5.931   1.745
 7420SOL    HW123159   0.678   6.001   1.741
 7420SOL    HW223160   0.707   5.844   1.772
 7421SOL     OW23161   4.160   3.859   1.349
 7421SOL    HW123162   4.220   3.934   1.321
 7421SOL    HW223163   4.205   3.772   1.333
 7422SOL     OW23164   0.499   4.416   1.836
 7422SOL    HW123165   0.452   4.498   1.802
 7422SOL    HW223166   0.490   4.411   1.935
 7423SOL     OW23167   5.970   3.046   5.307
 7423SOL    HW123168   5.890   3.106   5.306
 7423SOL    HW223169   5.940   2.951   5.299
 7424SOL     OW23170   6.629   0.725   5.261
 7424SOL    HW123171   6.647   0.726   5.359
 7424SOL    HW223172   6.629   0.630   5.228
 7425SOL     OW23173   4.708   6.794   0.301
 7425SOL    HW123174   4.786   6.732   0.311
 7425SOL    HW223175   4.695   6.815   0.204
 7426SOL     OW23176   3.045   1.704   5.314
 7426SOL    HW123177   3.143   1.693   5.330
 7426SOL    HW223178   2.994   1.647   5.379
 7427SOL     OW23179   5.032   0.675   3.575
 7427SOL    HW123180   5.016   0.662   3.478
 7427SOL    HW223181   5.116   0.627   3.602
 7428SOL     OW23182   4.284   1.572   5.260
 7428SOL    HW123183   4.357   1.638   5.274
 7428SOL    HW223184   4.199   1.607   5.299
 7429SOL     OW23185   0.236   6.315   4.364
 7429SOL    HW123186   0.333   6.328   4.342
 7429SOL    HW223187   0.224   6.316   4.463
 7430SOL     OW23188   1.331   3.749   0.921
 7430SOL    HW123189   1.302   3.819   0.855
 7430SOL    HW223190   1.297   3.660   0.891
 7431SOL     OW23191   0.713   2.825   3.097
 7431SOL    HW123192   0.630   2.854   3.049
 7431SOL    HW223193   0.728   2.727   3.081
 7432SOL     OW23194   1.479   0.412   3.573
 7432SOL    HW123195   1.442   0.437   3.484
 7432SOL    HW223196   1.410   0.426   3.643
 7433SOL     OW23197   4.201   5.473   5.802
 7433SOL    HW123198   4.196   5.563   5.847
 7433SOL    HW223199   4.109   5.439   5.786
 7434SOL     OW23200   5.010   5.102   5.255
 7434SOL    HW123201   4.976   5.028   5.199
 7434SOL    HW223202   4.935   5.140   5.310
 7435SOL     OW23203   3.989   5.794   1.481
 7435SOL    HW123204   4.027   5.704   1.461
 7435SOL    HW223205   4.015   5.858   1.409
 7436SOL     OW23206   4.014   4.171   6.656
 7436SOL    HW123207   3.966   4.220   6.584
 7436SOL    HW223208   4.036   4.235   6.730
 7437SOL     OW23209   2.230   5.890   6.785
 7437SOL    HW123210   2.165   5.861   6.854
 7437SOL    HW223211   2.323   5.878   6.819
 7438SOL     OW23212   0.858   6.497   0.420
 7438SOL    HW123213   0.872   6.433   0.495
 7438SOL    HW223214   0.864   6.591   0.454
 7439SOL     OW23215   1.796   6.203   5.860
 7439SOL    HW123216   1.736   6.255   5.921
 7439SOL    HW223217   1.856   6.145   5.914
 7440SOL     OW23218   0.166   2.960   3.714
 7440SOL    HW123219   0.099   3.032   3.727
 7440SOL    HW223220   0.152   2.887   3.781
 7441SOL     OW23221   5.636   6.654   4.631
 7441SOL    HW123222   5.537   6.644   4.620
 7441SOL    HW223223   5.655   6.716   4.707
 7442SOL     OW23224   6.447   1.308   6.432
 7442SOL    HW123225   6.417   1.402   6.414
 7442SOL    HW223226   6.429   1.284   6.527
 7443SOL     OW23227   6.283   6.340   1.614
 7443SOL    HW123228   6.250   6.434   1.623
 7443SOL    HW223229   6.285   6.314   1.517
 7444SOL     OW23230   5.198   2.411   6.920
 7444SOL    HW123231   5.201   2.495   6.975
 7444SOL    HW223232   5.106   2.398   6.884
 7445SOL     OW23233   3.720   0.684   0.802
 7445SOL    HW123234   3.712   0.672   0.704
 7445SOL    HW223235   3.636   0.726   0.837
 7446SOL     OW23236   5.127   2.751   0.431
 7446SOL    HW123237   5.090   2.785   0.518
 7446SOL    HW223238   5.140   2.828   0.368
 7447SOL     OW23239   6.678   3.811   6.918
 7447SOL    HW123240   6.579   3.818   6.905
 7447SOL    HW223241   6.726   3.842   6.836
 7448SOL     OW23242   6.323   6.787   4.879
 7448SOL    HW123243   6.320   6.838   4.793
 7448SOL    HW223244   6.246   6.724   4.883
 7449SOL     OW23245   0.928   4.702   1.546
 7449SOL    HW123246   0.839   4.674   1.581
 7449SOL    HW223247   0.977   4.753   1.617
 7450SOL     OW23248   5.680   2.654   4.856
 7450SOL    HW123249   5.633   2.583   4.805
 7450SOL    HW223250   5.751   2.613   4.914
 7451SOL     OW23251   0.044   6.046   2.584
 7451SOL    HW123252   0.030   6.126   2.526
 7451SOL    HW223253   0.052   6.076   2.679
 7452SOL     OW23254   5.972   5.882   4.161
 7452SOL    HW123255   6.009   5.970   4.132
 7452SOL    HW223256   5.902   5.897   4.232
 7453SOL     OW23257   5.509   4.977   4.881
 7453SOL    HW123258   5.436   4.953   4.944
 7453SOL    HW223259   5.593   4.995   4.933
 7454SOL     OW23260   1.659   2.392   0.983
 7454SOL    HW123261   1.729   2.391   0.912
 7454SOL    HW223262   1.568   2.383   0.941
 7455SOL     OW23263   0.062   2.896   1.543
 7455SOL    HW123264   0.038   2.869   1.450
 7455SOL    HW223265   0.119   2.979   1.540
 7456SOL     OW23266   1.198   0.844   4.708
 7456SOL    HW123267   1.099   0.854   4.696
 7456SOL    HW223268   1.244   0.929   4.683
 7457SOL     OW23269   3.483   1.118   5.052
 7457SOL    HW123270   3.567   1.148   5.008
 7457SOL    HW223271   3.412   1.106   4.983
 7458SOL     OW23272   2.087   6.990   6.230
 7458SOL    HW123273   2.005   0.014   6.265
 7458SOL    HW223274   2.142   0.038   6.181
 7459SOL     OW23275   5.235   0.604   1.888
 7459SOL    HW123276   5.306   0.535   1.868
 7459SOL    HW223277   5.248   0.639   1.981
 7460SOL     OW23278   0.675   5.202   0.734
 7460SOL    HW123279   0.701   5.107   0.718
 7460SOL    HW223280   0.719   5.261   0.666
 7461SOL     OW23281   6.320   0.272   6.616
 7461SOL    HW123282   6.367   0.356   6.644
 7461SOL    HW223283   6.285   0.284   6.523
 7462SOL     OW23284   1.587   4.699   1.997
 7462SOL    HW123285   1.615   4.603   2.007
 7462SOL    HW223286   1.494   4.710   2.033
 7463SOL     OW23287   2.870   4.534   0.448
 7463SOL    HW123288   2.834   4.454   0.495
 7463SOL    HW223289   2.812   4.613   0.468
 7464SOL     OW23290   5.351   6.803   6.490
 7464SOL    HW123291   5.254   6.780   6.492
 7464SOL    HW223292   5.366   6.888   6.541
 7465SOL     OW23293   2.542   5.315   6.426
 7465SOL    HW123294   2.513   5.388   6.364
 7465SOL    HW223295   2.594   5.354   6.502
 7466SOL     OW23296   6.794   0.420   4.955
 7466SOL    HW123297   6.733   0.482   4.906
 7466SOL    HW223298   6.862   0.382   4.892
 7467SOL     OW23299   6.971   1.593   6.569
 7467SOL    HW123300   7.007   1.628   6.482
 7467SOL    HW223301   7.013   1.641   6.645
 7468SOL     OW23302   5.889   3.484   3.821
 7468SOL    HW123303   5.846   3.396   3.839
 7468SOL    HW223304   5.831   3.538   3.760
 7469SOL     OW23305   6.969   0.262   0.270
 7469SOL    HW123306   0.041   0.245   0.234
 7469SOL    HW223307   6.954   0.360   0.277
 7470SOL     OW23308   6.042   3.534   3.211
 7470SOL    HW123309   5.996   3.552   3.124
 7470SOL    HW223310   6.050   3.619   3.263
 7471SOL     OW23311   4.783   6.536   5.885
 7471SOL    HW123312   4.716   6.573   5.821
 7471SOL    HW223313   4.857   6.493   5.833
 7472SOL     OW23314   6.163   0.845   5.790
 7472SOL    HW123315   6.174   0.926   5.732
 7472SOL    HW223316   6.089   0.788   5.754
 7473SOL     OW23317   5.114   5.425   3.773
 7473SOL    HW123318   5.038   5.472   3.819
 7473SOL    HW223319   5.080   5.342   3.730
 7474SOL     OW23320   0.122   1.834   5.693
 7474SOL    HW123321   0.068   1.784   5.625
 7474SOL    HW223322   0.217   1.806   5.687
 7475SOL     OW23323   5.196   2.339   2.087
 7475SOL    HW123324   5.281   2.347   2.139
 7475SOL    HW223325   5.145   2.425   2.092
 7476SOL     OW23326   3.369   1.290   3.200
 7476SOL    HW123327   3.386   1.361   3.268
 7476SOL    HW223328   3.455   1.264   3.156
 7477SOL     OW23329   6.480   1.987   4.926
 7477SOL    HW123330   6.576   1.956   4.924
 7477SOL    HW223331   6.444   1.987   4.833
 7478SOL     OW23332   6.208   3.792   5.510
 7478SOL    HW123333   6.291   3.839   5.478
 7478SOL    HW223334   6.194   3.710   5.455
 7479SOL     OW23335   4.354   2.396   2.154
 7479SOL    HW123336   4.335   2.435   2.244
 7479SOL    HW223337   4.430   2.331   2.160
 7480SOL     OW23338   1.551   5.062   2.305
 7480SOL    HW123339   1.609   4.983   2.327
 7480SOL    HW223340   1.466   5.029   2.264
 7481SOL     OW23341   5.813   5.440   1.109
 7481SOL    HW123342   5.901   5.417   1.150
 7481SOL    HW223343   5.776   5.521   1.154
 7482SOL     OW23344   4.465   2.246   2.695
 7482SOL    HW123345   4.375   2.274   2.662
 7482SOL    HW223346   4.460   2.154   2.734
 7483SOL     OW23347   5.036   3.448   4.306
 7483SOL    HW123348   4.982   3.370   4.338
 7483SOL    HW223349   5.116   3.459   4.365
 7484SOL     OW23350   1.316   6.038   4.111
 7484SOL    HW123351   1.305   5.962   4.047
 7484SOL    HW223352   1.271   6.119   4.073
 7485SOL     OW23353   2.489   0.285   4.659
 7485SOL    HW123354   2.457   0.213   4.598
 7485SOL    HW223355   2.483   0.373   4.612
 7486SOL     OW23356   1.353   6.381   0.335
 7486SOL    HW123357   1.418   6.391   0.260
 7486SOL    HW223358   1.404   6.367   0.421
 7487SOL     OW23359   2.035   0.606   2.964
 7487SOL    HW123360   2.032   0.508   2.980
 7487SOL    HW223361   1.950   0.636   2.921
 7488SOL     OW23362   2.501   5.615   5.390
 7488SOL    HW123363   2.597   5.611   5.420
 7488SOL    HW223364   2.442   5.626   5.470
 7489SOL     OW23365   6.632   2.955   6.143
 7489SOL    HW123366   6.568   3.031   6.136
 7489SOL    HW223367   6.715   2.987   6.190
 7490SOL     OW23368   1.088   0.245   3.466
 7490SOL    HW123369   1.141   0.239   3.551
 7490SOL    HW223370   1.001   0.197   3.477
 7491SOL     OW23371   4.447   3.483   6.374
 7491SOL    HW123372   4.361   3.513   6.414
 7491SOL    HW223373   4.513   3.466   6.447
 7492SOL     OW23374   1.942   0.405   3.866
 7492SOL    HW123375   1.920   0.389   3.770
 7492SOL    HW223376   1.881   0.476   3.903
 7493SOL     OW23377   0.652   2.654   6.266
 7493SOL    HW123378   0.674   2.654   6.364
 7493SOL    HW223379   0.722   2.705   6.216
 7494SOL     OW23380   5.917   1.291   3.120
 7494SOL    HW123381   5.847   1.347   3.076
 7494SOL    HW223382   5.950   1.337   3.203
 7495SOL     OW23383   1.497   2.308   6.696
 7495SOL    HW123384   1.496   2.222   6.646
 7495SOL    HW223385   1.536   2.294   6.787
 7496SOL     OW23386   6.326   3.906   4.072
 7496SOL    HW123387   6.413   3.949   4.049
 7496SOL    HW223388   6.307   3.918   4.170
 7497SOL     OW23389   2.001   4.374   1.255
 7497SOL    HW123390   2.017   4.322   1.171
 7497SOL    HW223391   1.905   4.401   1.258
 7498SOL     OW23392   3.070   1.211   4.905
 7498SOL    HW123393   3.043   1.285   4.967
 7498SOL    HW223394   2.996   1.145   4.898
 7499SOL     OW23395   4.311   2.070   3.150
 7499SOL    HW123396   4.347   1.998   3.091
 7499SOL    HW223397   4.339   2.052   3.245
 7500SOL     OW23398   3.520   6.050   3.431
 7500SOL    HW123399   3.613   6.019   3.412
 7500SOL    HW223400   3.519   6.150   3.440
 7501SOL     OW23401   5.237   3.981   4.512
 7501SOL    HW123402   5.333   3.984   4.487
 7501SOL    HW223403   5.222   3.908   4.579
 7502SOL     OW23404   3.237   1.023   4.568
 7502SOL    HW123405   3.218   1.096   4.501
 7502SOL    HW223406   3.255   0.938   4.519
 7503SOL     OW23407   2.247   6.554   1.414
 7503SOL    HW123408   2.197   6.634   1.383
 7503SOL    HW223409   2.306   6.521   1.341
 7504SOL     OW23410   0.750   6.245   3.731
 7504SOL    HW123411   0.764   6.156   3.774
 7504SOL    HW223412   0.657   6.250   3.695
 7505SOL     OW23413   1.228   3.123   5.857
 7505SOL    HW123414   1.235   3.026   5.880
 7505SOL    HW223415   1.208   3.133   5.760
 7506SOL     OW23416   5.224   2.094   3.626
 7506SOL    HW123417   5.179   2.174   3.588
 7506SOL    HW223418   5.157   2.034   3.670
 7507SOL     OW23419   5.878   1.739   2.653
 7507SOL    HW123420   5.972   1.752   2.623
 7507SOL    HW223421   5.837   1.828   2.673
 7508SOL     OW23422   1.775   5.776   1.118
 7508SOL    HW123423   1.800   5.865   1.079
 7508SOL    HW223424   1.751   5.787   1.214
 7509SOL     OW23425   6.148   3.747   1.014
 7509SOL    HW123426   6.162   3.840   1.045
 7509SOL    HW223427   6.104   3.748   0.924
 7510SOL     OW23428   3.369   3.507   5.105
 7510SOL    HW123429   3.282   3.466   5.079
 7510SOL    HW223430   3.420   3.533   5.023
 7511SOL     OW23431   2.797   5.991   3.340
 7511SOL    HW123432   2.849   5.926   3.283
 7511SOL    HW223433   2.700   5.965   3.339
 7512SOL     OW23434   2.873   0.654   6.419
 7512SOL    HW123435   2.795   0.676   6.360
 7512SOL    HW223436   2.849   0.671   6.514
 7513SOL     OW23437   0.869   1.457   1.995
 7513SOL    HW123438   0.927   1.385   1.958
 7513SOL    HW223439   0.895   1.545   1.955
 7514SOL     OW23440   2.369   4.736   2.775
 7514SOL    HW123441   2.447   4.781   2.733
 7514SOL    HW223442   2.314   4.804   2.824
 7515SOL     OW23443   6.929   5.032   4.536
 7515SOL    HW123444   7.013   5.083   4.518
 7515SOL    HW223445   6.876   5.025   4.451
 7516SOL     OW23446   6.927   5.507   6.088
 7516SOL    HW123447   6.993   5.459   6.147
 7516SOL    HW223448   6.837   5.505   6.130
 7517SOL     OW23449   0.480   2.338   7.015
 7517SOL    HW123450   0.469   2.251   6.967
 7517SOL    HW223451   0.404   2.351   0.059
 7518SOL     OW23452   4.875   3.667   4.377
 7518SOL    HW123453   4.922   3.584   4.349
 7518SOL    HW223454   4.853   3.662   4.475
 7519SOL     OW23455   6.434   6.341   4.693
 7519SOL    HW123456   6.476   6.308   4.777
 7519SOL    HW223457   6.500   6.339   4.619
 7520SOL     OW23458   1.945   0.340   3.009
 7520SOL    HW123459   1.856   0.295   2.997
 7520SOL    HW223460   2.015   0.270   3.022
 7521SOL     OW23461   4.775   2.765   5.430
 7521SOL    HW123462   4.696   2.786   5.487
 7521SOL    HW223463   4.758   2.794   5.336
 7522SOL     OW23464   1.383   1.304   5.943
 7522SOL    HW123465   1.351   1.247   5.868
 7522SOL    HW223466   1.322   1.293   6.022
 7523SOL     OW23467   4.909   0.611   6.402
 7523SOL    HW123468   4.970   0.566   6.467
 7523SOL    HW223469   4.891   0.549   6.325
 7524SOL     OW23470   0.816   2.690   4.975
 7524SOL    HW123471   0.895   2.703   5.035
 7524SOL    HW223472   0.838   2.721   4.883
 7525SOL     OW23473   3.884   0.341   6.887
 7525SOL    HW123474   3.818   0.407   6.924
 7525SOL    HW223475   3.884   0.259   6.945
 7526SOL     OW23476   2.947   2.955   1.391
 7526SOL    HW123477   2.962   2.906   1.306
 7526SOL    HW223478   2.867   3.014   1.382
 7527SOL     OW23479   3.305   6.467   3.661
 7527SOL    HW123480   3.317   6.439   3.756
 7527SOL    HW223481   3.375   6.423   3.604
 7528SOL     OW23482   6.408   2.178   6.408
 7528SOL    HW123483   6.387   2.144   6.500
 7528SOL    HW223484   6.481   2.122   6.368
 7529SOL     OW23485   5.699   1.532   4.605
 7529SOL    HW123486   5.778   1.593   4.596
 7529SOL    HW223487   5.634   1.550   4.530
 7530SOL     OW23488   6.664   2.046   1.963
 7530SOL    HW123489   6.729   2.020   1.891
 7530SOL    HW223490   6.659   1.974   2.031
 7531SOL     OW23491   5.468   3.455   4.175
 7531SOL    HW123492   5.410   3.395   4.119
 7531SOL    HW223493   5.420   3.541   4.193
 7532SOL     OW23494   4.641   6.316   0.880
 7532SOL    HW123495   4.672   6.222   0.862
 7532SOL    HW223496   4.716   6.368   0.921
 7533SOL     OW23497   3.571   2.011   1.421
 7533SOL    HW123498   3.600   1.953   1.497
 7533SOL    HW223499   3.478   1.985   1.393
 7534SOL     OW23500   4.661   5.891   4.802
 7534SOL    HW123501   4.737   5.826   4.813
 7534SOL    HW223502   4.599   5.859   4.731
 7535SOL     OW23503   1.764   6.790   4.886
 7535SOL    HW123504   1.829   6.839   4.828
 7535SOL    HW223505   1.800   6.783   4.979
 7536SOL     OW23506   4.993   4.320   4.242
 7536SOL    HW123507   5.045   4.263   4.177
 7536SOL    HW223508   5.012   4.289   4.335
 7537SOL     OW23509   1.833   5.132   2.388
 7537SOL    HW123510   1.778   5.215   2.397
 7537SOL    HW223511   1.922   5.147   2.430
 7538SOL     OW23512   1.956   2.207   1.468
 7538SOL    HW123513   1.908   2.172   1.549
 7538SOL    HW223514   1.894   2.266   1.416
 7539SOL     OW23515   1.329   3.536   4.286
 7539SOL    HW123516   1.313   3.441   4.310
 7539SOL    HW223517   1.335   3.592   4.369
 7540SOL     OW23518   4.630   0.811   4.807
 7540SOL    HW123519   4.545   0.765   4.781
 7540SOL    HW223520   4.651   0.791   4.903
 7541SOL     OW23521   0.691   3.848   4.812
 7541SOL    HW123522   0.711   3.946   4.814
 7541SOL    HW223523   0.710   3.812   4.721
 7542SOL     OW23524   0.487   5.704   0.251
 7542SOL    HW123525   0.555   5.654   0.197
 7542SOL    HW223526   0.448   5.643   0.320
 7543SOL     OW23527   3.751   1.248   5.118
 7543SOL    HW123528   3.712   1.334   5.084
 7543SOL    HW223529   3.801   1.203   5.044
 7544SOL     OW23530   6.567   2.605   4.289
 7544SOL    HW123531   6.572   2.505   4.297
 7544SOL    HW223532   6.500   2.629   4.218
 7545SOL     OW23533   0.776   6.157   6.429
 7545SOL    HW123534   0.721   6.203   6.499
 7545SOL    HW223535   0.837   6.223   6.386
 7546SOL     OW23536   4.579   2.091   1.336
 7546SOL    HW123537   4.628   2.008   1.364
 7546SOL    HW223538   4.511   2.114   1.405
 7547SOL     OW23539   5.206   1.708   0.804
 7547SOL    HW123540   5.210   1.656   0.890
 7547SOL    HW223541   5.292   1.758   0.793
 7548SOL     OW23542   4.654   2.412   6.478
 7548SOL    HW123543   4.671   2.504   6.445
 7548SOL    HW223544   4.737   2.357   6.470
 7549SOL     OW23545   3.447   3.265   6.435
 7549SOL    HW123546   3.358   3.254   6.479
 7549SOL    HW223547   3.507   3.318   6.495
 7550SOL     OW23548   1.766   4.440   4.090
 7550SOL    HW123549   1.844   4.379   4.108
 7550SOL    HW223550   1.779   4.484   4.001
 7551SOL     OW23551   6.277   2.883   5.131
 7551SOL    HW123552   6.220   2.937   5.069
 7551SOL    HW223553   6.261   2.912   5.225
 7552SOL     OW23554   1.306   5.797   3.949
 7552SOL    HW123555   1.342   5.709   3.980
 7552SOL    HW223556   1.291   5.794   3.850
 7553SOL     OW23557   4.225   6.951   5.861
 7553SOL    HW123558   4.241   6.986   5.768
 7553SOL    HW223559   4.226   0.007   5.926
 7554SOL     OW23560   5.090   0.842   6.607
 7554SOL    HW123561   5.090   0.827   6.509
 7554SOL    HW223562   5.022   0.912   6.630
 7555SOL     OW23563   3.091   5.328   6.166
 7555SOL    HW123564   3.003   5.375   6.165
 7555SOL    HW223565   3.083   5.240   6.120
 7556SOL     OW23566   2.764   2.387   0.263
 7556SOL    HW123567   2.774   2.420   0.169
 7556SOL    HW223568   2.759   2.465   0.325
 7557SOL     OW23569   5.277   0.738   6.255
 7557SOL    HW123570   5.199   0.796   6.279
 7557SOL    HW223571   5.327   0.779   6.179
 7558SOL     OW23572   1.944   2.686   4.550
 7558SOL    HW123573   2.026   2.628   4.546
 7558SOL    HW223574   1.882   2.651   4.619
 7559SOL     OW23575   4.268   3.149   5.810
 7559SOL    HW123576   4.202   3.161   5.884
 7559SOL    HW223577   4.222   3.116   5.728
 7560SOL     OW23578   5.003   6.585   0.320
 7560SOL    HW123579   5.027   6.489   0.330
 7560SOL    HW223580   5.067   6.641   0.374
 7561SOL     OW23581   6.570   3.488   5.942
 7561SOL    HW123582   6.536   3.561   6.002
 7561SOL    HW223583   6.603   3.412   5.998
 7562SOL     OW23584   0.564   5.002   5.586
 7562SOL    HW123585   0.560   4.911   5.628
 7562SOL    HW223586   0.608   5.066   5.648
 7563SOL     OW23587   3.272   0.065   1.588
 7563SOL    HW123588   3.195   0.047   1.527
 7563SOL    HW223589   3.281   0.164   1.602
 7564SOL     OW23590   4.028   0.630   3.875
 7564SOL    HW123591   3.976   0.709   3.841
 7564SOL    HW223592   3.985   0.594   3.957
 7565SOL     OW23593   5.608   3.719   6.669
 7565SOL    HW123594   5.670   3.691   6.597
 7565SOL    HW223595   5.574   3.638   6.717
 7566SOL     OW23596   5.717   4.853   2.628
 7566SOL    HW123597   5.719   4.865   2.529
 7566SOL    HW223598   5.794   4.901   2.670
 7567SOL     OW23599   1.595   1.483   5.943
 7567SOL    HW123600   1.514   1.435   5.911
 7567SOL    HW223601   1.653   1.420   5.996
 7568SOL     OW23602   5.660   4.826   2.917
 7568SOL    HW123603   5.722   4.802   2.843
 7568SOL    HW223604   5.691   4.782   3.002
 7569SOL     OW23605   2.798   4.460   5.972
 7569SOL    HW123606   2.772   4.363   5.967
 7569SOL    HW223607   2.833   4.489   5.883
 7570SOL     OW23608   5.125   4.001   4.103
 7570SOL    HW123609   5.222   4.019   4.121
 7570SOL    HW223610   5.090   3.936   4.170
 7571SOL     OW23611   4.801   4.301   3.557
 7571SOL    HW123612   4.747   4.248   3.623
 7571SOL    HW223613   4.790   4.261   3.466
 7572SOL     OW23614   5.072   1.113   2.525
 7572SOL    HW123615   5.005   1.178   2.489
 7572SOL    HW223616   5.038   1.020   2.513
 7573SOL     OW23617   6.793   0.069   5.669
 7573SOL    HW123618   6.737   0.026   5.598
 7573SOL    HW223619   6.887   0.037   5.662
 7574SOL     OW23620   5.665   0.785   5.083
 7574SOL    HW123621   5.582   0.821   5.041
 7574SOL    HW223622   5.742   0.847   5.066
 7575SOL     OW23623   5.414   0.165   0.107
 7575SOL    HW123624   5.406   0.240   0.041
 7575SOL    HW223625   5.386   0.079   0.062
 7576SOL     OW23626   4.949   3.177   0.742
 7576SOL    HW123627   4.977   3.135   0.828
 7576SOL    HW223628   4.880   3.247   0.761
 7577SOL     OW23629   0.528   6.625   6.679
 7577SOL    HW123630   0.451   6.660   6.731
 7577SOL    HW223631   0.584   6.566   6.738
 7578SOL     OW23632   3.099   5.204   2.905
 7578SOL    HW123633   3.038   5.125   2.896
 7578SOL    HW223634   3.183   5.187   2.854
 7579SOL     OW23635   0.326   1.839   1.659
 7579SOL    HW123636   0.386   1.888   1.723
 7579SOL    HW223637   0.320   1.743   1.686
 7580SOL     OW23638   0.926   4.004   3.798
 7580SOL    HW123639   0.845   4.035   3.748
 7580SOL    HW223640   1.004   3.999   3.735
 7581SOL     OW23641   0.931   1.963   0.976
 7581SOL    HW123642   1.027   1.990   0.972
 7581SOL    HW223643   0.873   2.045   0.974
 7582SOL     OW23644   3.970   1.411   3.352
 7582SOL    HW123645   3.908   1.485   3.326
 7582SOL    HW223646   4.005   1.428   3.444
 7583SOL     OW23647   5.058   2.586   2.053
 7583SOL    HW123648   4.959   2.583   2.065
 7583SOL    HW223649   5.092   2.678   2.073
 7584SOL     OW23650   1.782   0.664   2.891
 7584SOL    HW123651   1.765   0.757   2.925
 7584SOL    HW223652   1.710   0.604   2.924
 7585SOL     OW23653   2.035   2.942   5.986
 7585SOL    HW123654   2.075   2.855   5.955
 7585SOL    HW223655   2.100   2.989   6.046
 7586SOL     OW23656   1.876   6.752   3.793
 7586SOL    HW123657   1.820   6.710   3.722
 7586SOL    HW223658   1.962   6.785   3.752
 7587SOL     OW23659   2.135   1.009   6.660
 7587SOL    HW123660   2.225   1.047   6.641
 7587SOL    HW223661   2.143   0.935   6.727
 7588SOL     OW23662   2.034   2.556   3.465
 7588SOL    HW123663   2.094   2.586   3.539
 7588SOL    HW223664   1.952   2.613   3.463
 7589SOL     OW23665   0.666   0.512   2.688
 7589SOL    HW123666   0.673   0.612   2.688
 7589SOL    HW223667   0.686   0.478   2.596
 7590SOL     OW23668   4.519   1.735   6.912
 7590SOL    HW123669   4.434   1.783   6.891
 7590SOL    HW223670   4.546   1.679   6.833
 7591SOL     OW23671   5.076   4.261   0.403
 7591SOL    HW123672   5.082   4.266   0.304
 7591SOL    HW223673   5.146   4.320   0.444
 7592SOL     OW23674   6.260   5.685   4.635
 7592SOL    HW123675   6.312   5.600   4.621
 7592SOL    HW223676   6.272   5.715   4.730
 7593SOL     OW23677   6.455   3.239   6.943
 7593SOL    HW123678   6.357   3.220   6.944
 7593SOL    HW223679   6.501   3.179   6.878
 7594SOL     OW23680   1.977   5.034   1.830
 7594SOL    HW123681   1.958   4.965   1.760
 7594SOL    HW223682   1.918   5.020   1.909
 7595SOL     OW23683   5.852   3.343   6.041
 7595SOL    HW123684   5.763   3.380   6.014
 7595SOL    HW223685   5.864   3.352   6.139
 7596SOL     OW23686   3.199   6.782   4.697
 7596SOL    HW123687   3.226   6.688   4.718
 7596SOL    HW223688   3.122   6.782   4.634
 7597SOL     OW23689   1.808   6.224   3.236
 7597SOL    HW123690   1.799   6.152   3.304
 7597SOL    HW223691   1.825   6.183   3.146
 7598SOL     OW23692   6.458   0.816   3.410
 7598SOL    HW123693   6.505   0.787   3.327
 7598SOL    HW223694   6.516   0.880   3.461
 7599SOL     OW23695   5.265   2.312   1.651
 7599SOL    HW123696   5.285   2.342   1.557
 7599SOL    HW223697   5.208   2.381   1.696
 7600SOL     OW23698   0.834   1.080   3.723
 7600SOL    HW123699   0.859   1.015   3.795
 7600SOL    HW223700   0.911   1.092   3.661
 7601SOL     OW23701   2.566   4.570   2.101
 7601SOL    HW123702   2.639   4.580   2.034
 7601SOL    HW223703   2.599   4.597   2.191
 7602SOL     OW23704   1.493   3.243   6.774
 7602SOL    HW123705   1.592   3.255   6.769
 7602SOL    HW223706   1.448   3.307   6.712
 7603SOL     OW23707   2.112   6.259   6.451
 7603SOL    HW123708   2.081   6.328   6.386
 7603SOL    HW223709   2.077   6.169   6.424
 7604SOL     OW23710   1.129   2.810   4.796
 7604SOL    HW123711   1.136   2.893   4.852
 7604SOL    HW223712   1.035   2.800   4.763
 7605SOL     OW23713   1.154   0.596   0.699
 7605SOL    HW123714   1.079   0.539   0.733
 7605SOL    HW223715   1.176   0.570   0.605
 7606SOL     OW23716   5.526   3.040   4.212
 7606SOL    HW123717   5.441   2.987   4.212
 7606SOL    HW223718   5.595   2.992   4.157
 7607SOL     OW23719   4.223   5.055   0.811
 7607SOL    HW123720   4.154   5.098   0.870
 7607SOL    HW223721   4.179   5.020   0.728
 7608SOL     OW23722   4.882   3.385   1.339
 7608SOL    HW123723   4.817   3.323   1.296
 7608SOL    HW223724   4.833   3.465   1.374
 7609SOL     OW23725   1.539   3.304   4.680
 7609SOL    HW123726   1.566   3.289   4.585
 7609SOL    HW223727   1.621   3.313   4.737
 7610SOL     OW23728   4.079   4.394   5.910
 7610SOL    HW123729   4.029   4.329   5.853
 7610SOL    HW223730   4.037   4.400   6.000
 7611SOL     OW23731   5.225   4.603   1.125
 7611SOL    HW123732   5.156   4.674   1.141
 7611SOL    HW223733   5.221   4.535   1.198
 7612SOL     OW23734   4.879   3.018   2.876
 7612SOL    HW123735   4.849   3.016   2.781
 7612SOL    HW223736   4.974   3.051   2.880
 7613SOL     OW23737   0.433   1.636   1.038
 7613SOL    HW123738   0.511   1.619   0.977
 7613SOL    HW223739   0.416   1.555   1.093
 7614SOL     OW23740   5.220   2.951   1.279
 7614SOL    HW123741   5.140   2.932   1.337
 7614SOL    HW223742   5.240   2.870   1.224
 7615SOL     OW23743   4.254   4.157   6.571
 7615SOL    HW123744   4.165   4.145   6.615
 7615SOL    HW223745   4.325   4.163   6.640
 7616SOL     OW23746   6.678   6.447   4.575
 7616SOL    HW123747   6.772   6.413   4.564
 7616SOL    HW223748   6.667   6.484   4.667
 7617SOL     OW23749   4.006   6.314   3.178
 7617SOL    HW123750   4.041   6.358   3.095
 7617SOL    HW223751   3.908   6.298   3.168
 7618SOL     OW23752   0.965   2.545   6.522
 7618SOL    HW123753   0.958   2.559   6.423
 7618SOL    HW223754   1.049   2.589   6.556
 7619SOL     OW23755   0.128   2.980   4.703
 7619SOL    HW123756   0.165   2.915   4.637
 7619SOL    HW223757   0.035   3.006   4.676
 7620SOL     OW23758   4.054   5.668   1.882
 7620SOL    HW123759   4.035   5.619   1.796
 7620SOL    HW223760   4.098   5.755   1.861
 7621SOL     OW23761   6.696   0.984   0.892
 7621SOL    HW123762   6.731   0.999   0.985
 7621SOL    HW223763   6.748   1.040   0.828
 7622SOL     OW23764   5.049   4.373   6.464
 7622SOL    HW123765   4.965   4.336   6.504
 7622SOL    HW223766   5.126   4.315   6.488
 7623SOL     OW23767   4.361   4.347   0.167
 7623SOL    HW123768   4.287   4.279   0.174
 7623SOL    HW223769   4.328   4.426   0.115
 7624SOL     OW23770   6.672   3.693   4.263
 7624SOL    HW123771   6.686   3.791   4.277
 7624SOL    HW223772   6.759   3.645   4.269
 7625SOL     OW23773   5.394   1.249   0.052
 7625SOL    HW123774   5.420   1.332   0.002
 7625SOL    HW223775   5.473   1.216   0.104
 7626SOL     OW23776   6.014   0.243   5.668
 7626SOL    HW123777   6.100   0.261   5.715
 7626SOL    HW223778   5.969   0.163   5.709
 7627SOL     OW23779   3.465   2.756   0.576
 7627SOL    HW123780   3.514   2.725   0.658
 7627SOL    HW223781   3.508   2.718   0.495
 7628SOL     OW23782   3.457   2.847   1.843
 7628SOL    HW123783   3.475   2.944   1.861
 7628SOL    HW223784   3.543   2.799   1.827
 7629SOL     OW23785   0.200   4.096   3.511
 7629SOL    HW123786   0.103   4.091   3.485
 7629SOL    HW223787   0.234   4.004   3.529
 7630SOL     OW23788   0.963   0.901   0.324
 7630SOL    HW123789   0.895   0.939   0.261
 7630SOL    HW223790   0.930   0.815   0.362
 7631SOL     OW23791   0.812   1.717   5.445
 7631SOL    HW123792   0.795   1.770   5.528
 7631SOL    HW223793   0.910   1.700   5.435
 7632SOL     OW23794   4.568   4.798   0.850
 7632SOL    HW123795   4.578   4.850   0.935
 7632SOL    HW223796   4.496   4.839   0.793
 7633SOL     OW23797   5.391   1.188   1.846
 7633SOL    HW123798   5.460   1.192   1.919
 7633SOL    HW223799   5.304   1.156   1.885
 7634SOL     OW23800   2.007   1.040   1.697
 7634SOL    HW123801   2.090   0.991   1.672
 7634SOL    HW223802   2.011   1.067   1.793
 7635SOL     OW23803   3.314   5.019   4.961
 7635SOL    HW123804   3.343   5.048   4.870
 7635SOL    HW223805   3.215   5.008   4.964
 7636SOL     OW23806   1.511   3.335   4.113
 7636SOL    HW123807   1.503   3.405   4.184
 7636SOL    HW223808   1.514   3.245   4.155
 7637SOL     OW23809   2.463   5.776   2.710
 7637SOL    HW123810   2.365   5.759   2.710
 7637SOL    HW223811   2.507   5.718   2.641
 7638SOL     OW23812   1.813   5.585   2.366
 7638SOL    HW123813   1.743   5.635   2.416
 7638SOL    HW223814   1.781   5.492   2.347
 7639SOL     OW23815   0.067   1.170   0.721
 7639SOL    HW123816   7.003   1.176   0.774
 7639SOL    HW223817   0.087   1.260   0.680
 7640SOL     OW23818   2.641   2.515   6.264
 7640SOL    HW123819   2.679   2.467   6.344
 7640SOL    HW223820   2.556   2.561   6.290
 7641SOL     OW23821   0.276   3.083   2.564
 7641SOL    HW123822   0.228   3.009   2.517
 7641SOL    HW223823   0.233   3.171   2.541
 7642SOL     OW23824   4.307   1.009   2.135
 7642SOL    HW123825   4.304   0.913   2.162
 7642SOL    HW223826   4.402   1.038   2.123
 7643SOL     OW23827   5.195   1.646   3.357
 7643SOL    HW123828   5.179   1.744   3.374
 7643SOL    HW223829   5.151   1.619   3.272
 7644SOL     OW23830   4.871   2.834   1.865
 7644SOL    HW123831   4.825   2.762   1.916
 7644SOL    HW223832   4.831   2.923   1.890
 7645SOL     OW23833   4.902   3.739   6.196
 7645SOL    HW123834   4.976   3.751   6.130
 7645SOL    HW223835   4.838   3.816   6.189
 7646SOL     OW23836   0.512   2.959   3.907
 7646SOL    HW123837   0.474   2.875   3.944
 7646SOL    HW223838   0.588   2.936   3.845
 7647SOL     OW23839   6.983   2.447   4.442
 7647SOL    HW123840   6.942   2.518   4.385
 7647SOL    HW223841   0.062   2.446   4.430
 7648SOL     OW23842   2.009   1.881   2.261
 7648SOL    HW123843   2.009   1.785   2.290
 7648SOL    HW223844   2.056   1.890   2.174
 7649SOL     OW23845   1.524   0.413   3.971
 7649SOL    HW123846   1.514   0.444   3.877
 7649SOL    HW223847   1.572   0.326   3.973
 7650SOL     OW23848   5.787   0.813   0.715
 7650SOL    HW123849   5.722   0.766   0.774
 7650SOL    HW223850   5.774   0.912   0.724
 7651SOL     OW23851   2.083   0.308   4.831
 7651SOL    HW123852   2.160   0.347   4.781
 7651SOL    HW223853   2.001   0.363   4.813
 7652SOL     OW23854   5.417   2.270   4.951
 7652SOL    HW123855   5.354   2.279   5.029
 7652SOL    HW223856   5.478   2.193   4.967
 7653SOL     OW23857   0.825   1.528   0.465
 7653SOL    HW123858   0.877   1.581   0.532
 7653SOL    HW223859   0.737   1.501   0.505
 7654SOL     OW23860   4.908   3.191   4.334
 7654SOL    HW123861   4.826   3.142   4.302
 7654SOL    HW223862   4.989   3.151   4.291
 7655SOL     OW23863   4.004   0.094   3.720
 7655SOL    HW123864   4.095   0.056   3.735
 7655SOL    HW223865   3.986   0.166   3.788
 7656SOL     OW23866   3.924   3.877   6.502
 7656SOL    HW123867   3.881   3.962   6.469
 7656SOL    HW223868   3.977   3.897   6.585
 7657SOL     OW23869   1.985   1.946   3.255
 7657SOL    HW123870   1.896   1.926   3.295
 7657SOL    HW223871   2.019   1.866   3.206
 7658SOL     OW23872   2.323   0.427   1.032
 7658SOL    HW123873   2.344   0.461   0.940
 7658SOL    HW223874   2.224   0.420   1.043
 7659SOL     OW23875   4.695   4.334   6.925
 7659SOL    HW123876   4.693   4.240   6.890
 7659SOL    HW223877   4.692   4.398   6.849
 7660SOL     OW23878   6.973   6.051   4.159
 7660SOL    HW123879   6.905   6.024   4.091
 7660SOL    HW223880   0.027   6.102   4.115
 7661SOL     OW23881   5.689   2.394   5.167
 7661SOL    HW123882   5.742   2.328   5.113
 7661SOL    HW223883   5.705   2.486   5.131
 7662SOL     OW23884   1.261   2.343   3.961
 7662SOL    HW123885   1.267   2.287   4.044
 7662SOL    HW223886   1.275   2.439   3.985
 7663SOL     OW23887   5.710   4.849   6.301
 7663SOL    HW123888   5.618   4.888   6.305
 7663SOL    HW223889   5.734   4.830   6.206
 7664SOL     OW23890   4.335   1.112   1.880
 7664SOL    HW123891   4.250   1.109   1.829
 7664SOL    HW223892   4.321   1.074   1.972
 7665SOL     OW23893   5.961   0.829   5.446
 7665SOL    HW123894   6.055   0.825   5.482
 7665SOL    HW223895   5.944   0.919   5.406
 7666SOL     OW23896   0.742   4.602   3.228
 7666SOL    HW123897   0.729   4.533   3.157
 7666SOL    HW223898   0.727   4.560   3.318
 7667SOL     OW23899   4.271   0.763   2.261
 7667SOL    HW123900   4.199   0.786   2.325
 7667SOL    HW223901   4.353   0.735   2.311
 7668SOL     OW23902   2.461   4.965   0.861
 7668SOL    HW123903   2.420   4.939   0.949
 7668SOL    HW223904   2.416   5.048   0.827
 7669SOL     OW23905   4.825   1.256   5.652
 7669SOL    HW123906   4.843   1.217   5.561
 7669SOL    HW223907   4.910   1.260   5.704
 7670SOL     OW23908   0.851   5.341   0.574
 7670SOL    HW123909   0.897   5.369   0.658
 7670SOL    HW223910   0.898   5.262   0.535
 7671SOL     OW23911   3.655   0.821   2.302
 7671SOL    HW123912   3.725   0.892   2.313
 7671SOL    HW223913   3.568   0.864   2.279
 7672SOL     OW23914   0.271   6.137   3.066
 7672SOL    HW123915   0.259   6.075   3.143
 7672SOL    HW223916   0.347   6.200   3.085
 7673SOL     OW23917   1.667   5.376   2.428
 7673SOL    HW123918   1.649   5.417   2.517
 7673SOL    HW223919   1.583   5.376   2.373
 7674SOL     OW23920   5.269   1.077   4.183
 7674SOL    HW123921   5.292   0.986   4.218
 7674SOL    HW223922   5.170   1.090   4.185
 7675SOL     OW23923   5.695   6.561   3.007
 7675SOL    HW123924   5.758   6.513   2.945
 7675SOL    HW223925   5.634   6.619   2.954
 7676SOL     OW23926   3.208   2.273   6.394
 7676SOL    HW123927   3.162   2.185   6.380
 7676SOL    HW223928   3.306   2.263   6.380
 7677SOL     OW23929   0.507   4.142   1.066
 7677SOL    HW123930   0.457   4.123   0.981
 7677SOL    HW223931   0.460   4.214   1.117
 7678SOL     OW23932   2.364   2.503   5.305
 7678SOL    HW123933   2.353   2.462   5.215
 7678SOL    HW223934   2.341   2.600   5.301
 7679SOL     OW23935   2.492   6.109   5.457
 7679SOL    HW123936   2.477   6.155   5.544
 7679SOL    HW223937   2.560   6.036   5.469
 7680SOL     OW23938   1.707   0.210   0.826
 7680SOL    HW123939   1.769   0.182   0.753
 7680SOL    HW223940   1.746   0.184   0.915
 7681SOL     OW23941   2.597   1.022   0.509
 7681SOL    HW123942   2.665   1.053   0.575
 7681SOL    HW223943   2.634   1.031   0.416
 7682SOL     OW23944   4.396   0.454   2.206
 7682SOL    HW123945   4.310   0.498   2.230
 7682SOL    HW223946   4.419   0.385   2.275
 7683SOL     OW23947   0.314   1.451   4.520
 7683SOL    HW123948   0.294   1.497   4.433
 7683SOL    HW223949   0.290   1.355   4.513
 7684SOL     OW23950   4.136   1.645   1.141
 7684SOL    HW123951   4.133   1.708   1.219
 7684SOL    HW223952   4.117   1.552   1.173
 7685SOL     OW23953   2.837   1.616   5.909
 7685SOL    HW123954   2.738   1.605   5.920
 7685SOL    HW223955   2.857   1.705   5.868
 7686SOL     OW23956   6.249   7.002   3.472
 7686SOL    HW123957   6.199   6.958   3.547
 7686SOL    HW223958   6.185   0.004   3.398
 7687SOL     OW23959   5.613   4.966   4.638
 7687SOL    HW123960   5.703   4.924   4.647
 7687SOL    HW223961   5.577   4.989   4.729
 7688SOL     OW23962   0.184   6.093   5.622
 7688SOL    HW123963   0.189   6.109   5.721
 7688SOL    HW223964   0.096   6.125   5.587
 7689SOL     OW23965   5.225   6.368   2.647
 7689SOL    HW123966   5.226   6.435   2.721
 7689SOL    HW223967   5.297   6.300   2.663
 7690SOL     OW23968   5.107   5.344   0.870
 7690SOL    HW123969   5.200   5.350   0.905
 7690SOL    HW223970   5.062   5.433   0.879
 7691SOL     OW23971   6.092   4.217   2.875
 7691SOL    HW123972   6.087   4.282   2.799
 7691SOL    HW223973   6.068   4.263   2.960
 7692SOL     OW23974   0.934   5.676   1.972
 7692SOL    HW123975   1.000   5.749   1.991
 7692SOL    HW223976   0.850   5.693   2.023
 7693SOL     OW23977   2.675   0.635   1.008
 7693SOL    HW123978   2.717   0.607   0.921
 7693SOL    HW223979   2.662   0.554   1.066
 7694SOL     OW23980   5.599   2.926   3.362
 7694SOL    HW123981   5.591   3.026   3.371
 7694SOL    HW223982   5.671   2.905   3.296
 7695SOL     OW23983   5.398   1.058   1.623
 7695SOL    HW123984   5.385   0.960   1.640
 7695SOL    HW223985   5.359   1.109   1.700
 7696SOL     OW23986   6.537   2.032   5.925
 7696SOL    HW123987   6.557   2.078   5.839
 7696SOL    HW223988   6.548   1.934   5.914
 7697SOL     OW23989   2.329   0.492   3.469
 7697SOL    HW123990   2.268   0.528   3.540
 7697SOL    HW223991   2.278   0.482   3.384
 7698SOL     OW23992   5.776   0.720   4.437
 7698SOL    HW123993   5.783   0.712   4.537
 7698SOL    HW223994   5.802   0.813   4.410
 7699SOL     OW23995   2.352   5.217   6.150
 7699SOL    HW123996   2.366   5.312   6.179
 7699SOL    HW223997   2.307   5.166   6.223
 7700SOL     OW23998   4.472   6.084   3.940
 7700SOL    HW123999   4.550   6.025   3.964
 7700SOL    HW224000   4.390   6.028   3.927
 7701SOL     OW24001   0.068   2.809   6.794
 7701SOL    HW124002   0.097   2.876   6.724
 7701SOL    HW224003   0.077   2.717   6.757
 7702SOL     OW24004   4.431   5.638   5.095
 7702SOL    HW124005   4.528   5.660   5.107
 7702SOL    HW224006   4.375   5.713   5.130
 7703SOL     OW24007   5.844   6.340   6.650
 7703SOL    HW124008   5.931   6.304   6.686
 7703SOL    HW224009   5.770   6.280   6.680
 7704SOL     OW24010   6.184   0.552   2.935
 7704SOL    HW124011   6.092   0.583   2.914
 7704SOL    HW224012   6.226   0.512   2.854
 7705SOL     OW24013   2.126   5.933   1.128
 7705SOL    HW124014   2.089   6.025   1.139
 7705SOL    HW224015   2.069   5.882   1.063
 7706SOL     OW24016   3.517   3.225   3.854
 7706SOL    HW124017   3.559   3.281   3.782
 7706SOL    HW224018   3.543   3.130   3.841
 7707SOL     OW24019   0.227   4.759   6.173
 7707SOL    HW124020   0.205   4.729   6.080
 7707SOL    HW224021   0.318   4.727   6.198
 7708SOL     OW24022   1.273   6.118   4.569
 7708SOL    HW124023   1.231   6.178   4.636
 7708SOL    HW224024   1.370   6.141   4.559
 7709SOL     OW24025   6.655   4.775   1.420
 7709SOL    HW124026   6.674   4.733   1.332
 7709SOL    HW224027   6.622   4.706   1.484
 7710SOL     OW24028   2.262   2.182   0.734
 7710SOL    HW124029   2.288   2.209   0.827
 7710SOL    HW224030   2.327   2.115   0.699
 7711SOL     OW24031   5.335   6.041   5.426
 7711SOL    HW124032   5.358   6.135   5.403
 7711SOL    HW224033   5.341   6.028   5.526
 7712SOL     OW24034   6.369   5.145   1.035
 7712SOL    HW124035   6.397   5.063   1.085
 7712SOL    HW224036   6.398   5.227   1.086
 7713SOL     OW24037   1.986   3.304   0.072
 7713SOL    HW124038   2.023   3.278   7.003
 7713SOL    HW224039   2.037   3.381   0.109
 7714SOL     OW24040   6.980   5.517   5.615
 7714SOL    HW124041   6.994   5.613   5.637
 7714SOL    HW224042   6.983   5.463   5.699
 7715SOL     OW24043   3.167   2.514   6.500
 7715SOL    HW124044   3.176   2.421   6.464
 7715SOL    HW224045   3.139   2.576   6.426
 7716SOL     OW24046   6.742   4.471   0.488
 7716SOL    HW124047   6.838   4.497   0.484
 7716SOL    HW224048   6.732   4.374   0.467
 7717SOL     OW24049   1.335   1.776   5.542
 7717SOL    HW124050   1.411   1.750   5.483
 7717SOL    HW224051   1.249   1.772   5.490
 7718SOL     OW24052   6.365   3.801   3.378
 7718SOL    HW124053   6.412   3.727   3.426
 7718SOL    HW224054   6.302   3.847   3.440
 7719SOL     OW24055   0.766   3.929   4.276
 7719SOL    HW124056   0.715   3.956   4.194
 7719SOL    HW224057   0.714   3.953   4.358
 7720SOL     OW24058   0.028   2.387   6.028
 7720SOL    HW124059   0.001   2.292   6.017
 7720SOL    HW224060   6.988   2.432   6.094
 7721SOL     OW24061   1.071   5.909   2.000
 7721SOL    HW124062   1.061   5.925   2.098
 7721SOL    HW224063   1.032   5.986   1.950
 7722SOL     OW24064   1.771   4.339   3.601
 7722SOL    HW124065   1.827   4.261   3.628
 7722SOL    HW224066   1.687   4.307   3.556
 7723SOL     OW24067   3.891   3.604   6.434
 7723SOL    HW124068   3.962   3.567   6.375
 7723SOL    HW224069   3.921   3.691   6.473
 7724SOL     OW24070   3.277   4.570   0.821
 7724SOL    HW124071   3.332   4.526   0.749
 7724SOL    HW224072   3.226   4.647   0.782
 7725SOL     OW24073   6.325   1.691   3.074
 7725SOL    HW124074   6.226   1.697   3.078
 7725SOL    HW224075   6.355   1.684   2.979
 7726SOL     OW24076   1.845   4.338   6.493
 7726SOL    HW124077   1.822   4.259   6.437
 7726SOL    HW224078   1.830   4.316   6.590
 7727SOL     OW24079   6.386   2.580   2.177
 7727SOL    HW124080   6.457   2.586   2.247
 7727SOL    HW224081   6.304   2.539   2.217
 7728SOL     OW24082   2.205   3.135   5.208
 7728SOL    HW124083   2.275   3.157   5.276
 7728SOL    HW224084   2.245   3.080   5.135
 7729SOL     OW24085   5.629   1.141   1.984
 7729SOL    HW124086   5.615   1.053   1.940
 7729SOL    HW224087   5.659   1.126   2.079
 7730SOL     OW24088   0.234   5.016   6.236
 7730SOL    HW124089   0.332   5.036   6.245
 7730SOL    HW224090   0.223   4.924   6.199
 7731SOL     OW24091   6.188   6.890   0.204
 7731SOL    HW124092   6.170   6.827   0.129
 7731SOL    HW224093   6.106   6.898   0.262
 7732SOL     OW24094   4.185   0.167   0.080
 7732SOL    HW124095   4.091   0.163   0.045
 7732SOL    HW224096   4.210   0.263   0.095
 7733SOL     OW24097   5.814   5.760   2.091
 7733SOL    HW124098   5.781   5.687   2.151
 7733SOL    HW224099   5.877   5.721   2.023
 7734SOL     OW24100   1.533   4.822   4.961
 7734SOL    HW124101   1.574   4.765   5.032
 7734SOL    HW224102   1.555   4.786   4.871
 7735SOL     OW24103   5.743   5.635   6.276
 7735SOL    HW124104   5.720   5.551   6.227
 7735SOL    HW224105   5.784   5.700   6.212
 7736SOL     OW24106   2.441   3.050   6.784
 7736SOL    HW124107   2.510   3.074   6.853
 7736SOL    HW224108   2.419   3.131   6.730
 7737SOL     OW24109   3.542   0.149   1.813
 7737SOL    HW124110   3.498   0.081   1.872
 7737SOL    HW224111   3.495   0.236   1.822
 7738SOL     OW24112   2.644   5.415   0.882
 7738SOL    HW124113   2.597   5.391   0.967
 7738SOL    HW224114   2.579   5.409   0.806
 7739SOL     OW24115   1.291   1.831   2.067
 7739SOL    HW124116   1.307   1.753   2.128
 7739SOL    HW224117   1.215   1.886   2.102
 7740SOL     OW24118   2.089   1.225   3.147
 7740SOL    HW124119   2.128   1.159   3.082
 7740SOL    HW224120   2.129   1.211   3.237
 7741SOL     OW24121   0.657   4.169   4.934
 7741SOL    HW124122   0.611   4.184   4.846
 7741SOL    HW224123   0.598   4.116   4.994
 7742SOL     OW24124   4.385   2.253   4.132
 7742SOL    HW124125   4.409   2.160   4.159
 7742SOL    HW224126   4.295   2.253   4.088
 7743SOL     OW24127   4.555   1.594   6.664
 7743SOL    HW124128   4.531   1.510   6.712
 7743SOL    HW224129   4.611   1.572   6.584
 7744SOL     OW24130   0.950   6.640   3.875
 7744SOL    HW124131   0.859   6.665   3.909
 7744SOL    HW224132   0.945   6.552   3.828
 7745SOL     OW24133   3.069   6.874   0.209
 7745SOL    HW124134   3.128   6.853   0.287
 7745SOL    HW224135   3.043   6.789   0.163
 7746SOL     OW24136   0.778   0.194   0.506
 7746SOL    HW124137   0.829   0.182   0.591
 7746SOL    HW224138   0.683   0.164   0.520
 7747SOL     OW24139   6.847   6.378   1.048
 7747SOL    HW124140   6.903   6.359   1.128
 7747SOL    HW224141   6.872   6.467   1.010
 7748SOL     OW24142   3.745   4.029   4.059
 7748SOL    HW124143   3.677   3.977   4.007
 7748SOL    HW224144   3.699   4.078   4.133
 7749SOL     OW24145   3.412   3.665   3.638
 7749SOL    HW124146   3.350   3.712   3.575
 7749SOL    HW224147   3.464   3.596   3.587
 7750SOL     OW24148   6.246   5.484   0.103
 7750SOL    HW124149   6.191   5.558   0.065
 7750SOL    HW224150   6.187   5.407   0.128
 7751SOL     OW24151   0.784   2.554   3.126
 7751SOL    HW124152   0.809   2.481   3.063
 7751SOL    HW224153   0.723   2.518   3.197
 7752SOL     OW24154   5.313   5.919   5.175
 7752SOL    HW124155   5.302   5.937   5.273
 7752SOL    HW224156   5.386   5.852   5.162
 7753SOL     OW24157   2.378   0.326   3.773
 7753SOL    HW124158   2.462   0.338   3.720
 7753SOL    HW224159   2.370   0.401   3.839
 7754SOL     OW24160   5.417   6.499   2.022
 7754SOL    HW124161   5.509   6.534   2.038
 7754SOL    HW224162   5.414   6.401   2.043
 7755SOL     OW24163   1.237   1.522   5.835
 7755SOL    HW124164   1.282   1.436   5.858
 7755SOL    HW224165   1.303   1.597   5.843
 7756SOL     OW24166   3.372   4.886   2.988
 7756SOL    HW124167   3.456   4.913   3.035
 7756SOL    HW224168   3.393   4.863   2.893
 7757SOL     OW24169   5.166   5.631   4.423
 7757SOL    HW124170   5.238   5.700   4.429
 7757SOL    HW224171   5.199   5.545   4.463
 7758SOL     OW24172   1.428   2.154   0.268
 7758SOL    HW124173   1.500   2.220   0.286
 7758SOL    HW224174   1.345   2.201   0.240
 7759SOL     OW24175   1.200   1.864   4.772
 7759SOL    HW124176   1.140   1.855   4.693
 7759SOL    HW224177   1.182   1.951   4.818
 7760SOL     OW24178   6.063   3.416   2.772
 7760SOL    HW124179   6.126   3.397   2.696
 7760SOL    HW224180   5.969   3.398   2.743
 7761SOL     OW24181   1.375   0.124   6.604
 7761SOL    HW124182   1.440   0.135   6.679
 7761SOL    HW224183   1.370   0.210   6.552
 7762SOL     OW24184   4.238   0.785   4.032
 7762SOL    HW124185   4.183   0.866   4.050
 7762SOL    HW224186   4.194   0.729   3.963
 7763SOL     OW24187   1.025   1.339   0.656
 7763SOL    HW124188   1.023   1.241   0.634
 7763SOL    HW224189   1.095   1.383   0.599
 7764SOL     OW24190   3.394   2.861   3.290
 7764SOL    HW124191   3.315   2.923   3.293
 7764SOL    HW224192   3.421   2.846   3.195
 7765SOL     OW24193   5.554   2.580   4.142
 7765SOL    HW124194   5.588   2.515   4.210
 7765SOL    HW224195   5.513   2.530   4.066
 7766SOL     OW24196   5.632   2.175   0.095
 7766SOL    HW124197   5.589   2.091   0.064
 7766SOL    HW224198   5.566   2.250   0.093
 7767SOL     OW24199   4.518   6.691   3.697
 7767SOL    HW124200   4.438   6.695   3.637
 7767SOL    HW224201   4.576   6.771   3.682
 7768SOL     OW24202   4.031   5.064   2.496
 7768SOL    HW124203   3.999   4.972   2.477
 7768SOL    HW224204   3.996   5.094   2.585
 7769SOL     OW24205   4.994   2.452   2.813
 7769SOL    HW124206   4.907   2.471   2.767
 7769SOL    HW224207   5.056   2.529   2.798
 7770SOL     OW24208   0.848   3.634   2.377
 7770SOL    HW124209   0.750   3.652   2.386
 7770SOL    HW224210   0.863   3.570   2.302
 7771SOL     OW24211   2.533   2.225   5.189
 7771SOL    HW124212   2.603   2.213   5.119
 7771SOL    HW224213   2.470   2.297   5.160
 7772SOL     OW24214   5.564   1.089   3.134
 7772SOL    HW124215   5.662   1.074   3.122
 7772SOL    HW224216   5.533   1.160   3.071
 7773SOL     OW24217   3.409   5.382   5.244
 7773SOL    HW124218   3.417   5.409   5.148
 7773SOL    HW224219   3.500   5.363   5.281
 7774SOL     OW24220   6.169   2.784   6.419
 7774SOL    HW124221   6.070   2.784   6.411
 7774SOL    HW224222   6.210   2.772   6.328
 7775SOL     OW24223   4.114   6.699   2.849
 7775SOL    HW124224   4.145   6.696   2.754
 7775SOL    HW224225   4.046   6.771   2.860
 7776SOL     OW24226   3.368   4.478   6.770
 7776SOL    HW124227   3.278   4.453   6.804
 7776SOL    HW224228   3.429   4.498   6.847
 7777SOL     OW24229   1.220   0.578   5.155
 7777SOL    HW124230   1.162   0.641   5.104
 7777SOL    HW224231   1.312   0.616   5.163
 7778SOL     OW24232   4.973   5.482   0.183
 7778SOL    HW124233   4.900   5.535   0.227
 7778SOL    HW224234   4.965   5.386   0.211
 7779SOL     OW24235   2.975   2.830   1.107
 7779SOL    HW124236   3.004   2.920   1.075
 7779SOL    HW224237   3.054   2.781   1.143
 7780SOL     OW24238   0.867   5.371   5.525
 7780SOL    HW124239   0.805   5.308   5.478
 7780SOL    HW224240   0.846   5.464   5.498
 7781SOL     OW24241   1.345   4.984   0.012
 7781SOL    HW124242   1.397   5.018   6.954
 7781SOL    HW224243   1.254   5.027   0.012
 7782SOL     OW24244   0.984   4.626   5.576
 7782SOL    HW124245   1.023   4.716   5.559
 7782SOL    HW224246   0.934   4.627   5.663
 7783SOL     OW24247   1.637   5.885   4.952
 7783SOL    HW124248   1.562   5.869   4.888
 7783SOL    HW224249   1.687   5.967   4.925
 7784SOL     OW24250   3.034   3.023   0.503
 7784SOL    HW124251   2.980   3.101   0.473
 7784SOL    HW224252   3.117   3.056   0.548
 7785SOL     OW24253   1.399   6.793   4.037
 7785SOL    HW124254   1.471   6.801   3.967
 7785SOL    HW224255   1.347   6.710   4.021
 7786SOL     OW24256   3.189   6.004   6.918
 7786SOL    HW124257   3.154   6.042   6.832
 7786SOL    HW224258   3.185   6.074   6.989
 7787SOL     OW24259   2.757   2.793   6.009
 7787SOL    HW124260   2.788   2.840   5.927
 7787SOL    HW224261   2.824   2.723   6.034
 7788SOL     OW24262   2.009   6.085   2.106
 7788SOL    HW124263   1.952   6.044   2.035
 7788SOL    HW224264   2.037   6.177   2.077
 7789SOL     OW24265   3.112   6.709   6.852
 7789SOL    HW124266   3.189   6.703   6.915
 7789SOL    HW224267   3.110   6.800   6.810
 7790SOL     OW24268   5.537   5.417   2.909
 7790SOL    HW124269   5.505   5.507   2.941
 7790SOL    HW224270   5.500   5.346   2.969
 7791SOL     OW24271   2.593   6.173   3.578
 7791SOL    HW124272   2.640   6.229   3.510
 7791SOL    HW224273   2.659   6.111   3.621
 7792SOL     OW24274   1.813   5.461   5.512
 7792SOL    HW124275   1.801   5.519   5.431
 7792SOL    HW224276   1.760   5.377   5.501
 7793SOL     OW24277   3.202   0.622   6.698
 7793SOL    HW124278   3.164   0.713   6.718
 7793SOL    HW224279   3.169   0.556   6.765
 7794SOL     OW24280   5.753   5.189   3.648
 7794SOL    HW124281   5.795   5.165   3.561
 7794SOL    HW224282   5.778   5.282   3.673
 7795SOL     OW24283   2.117   3.817   5.408
 7795SOL    HW124284   2.105   3.743   5.474
 7795SOL    HW224285   2.041   3.882   5.416
 7796SOL     OW24286   3.195   3.629   3.072
 7796SOL    HW124287   3.255   3.561   3.029
 7796SOL    HW224288   3.115   3.583   3.110
 7797SOL     OW24289   1.318   6.784   3.321
 7797SOL    HW124290   1.382   6.855   3.353
 7797SOL    HW224291   1.358   6.694   3.336
 7798SOL     OW24292   1.844   4.570   6.163
 7798SOL    HW124293   1.872   4.489   6.111
 7798SOL    HW224294   1.744   4.569   6.175
 7799SOL     OW24295   1.047   5.972   2.263
 7799SOL    HW124296   1.020   6.003   2.354
 7799SOL    HW224297   1.040   6.047   2.198
 7800SOL     OW24298   1.242   5.413   0.452
 7800SOL    HW124299   1.155   5.399   0.500
 7800SOL    HW224300   1.263   5.332   0.397
 7801SOL     OW24301   2.081   2.378   1.713
 7801SOL    HW124302   1.982   2.369   1.700
 7801SOL    HW224303   2.128   2.351   1.629
 7802SOL     OW24304   5.857   2.118   1.065
 7802SOL    HW124305   5.761   2.092   1.054
 7802SOL    HW224306   5.896   2.144   0.977
 7803SOL     OW24307   4.113   2.358   6.249
 7803SOL    HW124308   4.027   2.379   6.296
 7803SOL    HW224309   4.127   2.423   6.175
 7804SOL     OW24310   5.016   1.387   4.402
 7804SOL    HW124311   4.948   1.387   4.329
 7804SOL    HW224312   5.104   1.355   4.367
 7805SOL     OW24313   5.511   1.719   0.545
 7805SOL    HW124314   5.545   1.739   0.453
 7805SOL    HW224315   5.424   1.767   0.559
 7806SOL     OW24316   5.978   2.027   6.492
 7806SOL    HW124317   5.974   2.071   6.402
 7806SOL    HW224318   6.047   2.073   6.549
 7807SOL     OW24319   0.566   4.338   5.396
 7807SOL    HW124320   0.485   4.279   5.404
 7807SOL    HW224321   0.584   4.357   5.300
 7808SOL     OW24322   6.720   2.826   4.256
 7808SOL    HW124323   6.651   2.753   4.260
 7808SOL    HW224324   6.678   2.913   4.281
 7809SOL     OW24325   2.451   5.987   4.429
 7809SOL    HW124326   2.494   6.077   4.416
 7809SOL    HW224327   2.356   6.000   4.459
 7810SOL     OW24328   3.815   0.532   4.772
 7810SOL    HW124329   3.849   0.511   4.864
 7810SOL    HW224330   3.777   0.450   4.731
 7811SOL     OW24331   0.975   5.025   3.096
 7811SOL    HW124332   1.032   5.016   3.014
 7811SOL    HW224333   0.915   4.946   3.103
 7812SOL     OW24334   1.367   2.110   3.275
 7812SOL    HW124335   1.409   2.140   3.360
 7812SOL    HW224336   1.319   2.187   3.233
 7813SOL     OW24337   3.754   2.482   6.609
 7813SOL    HW124338   3.705   2.565   6.581
 7813SOL    HW224339   3.795   2.497   6.699
 7814SOL     OW24340   6.612   2.963   3.441
 7814SOL    HW124341   6.686   3.017   3.483
 7814SOL    HW224342   6.650   2.903   3.371
 7815SOL     OW24343   4.874   0.179   6.211
 7815SOL    HW124344   4.786   0.130   6.210
 7815SOL    HW224345   4.857   0.277   6.202
 7816SOL     OW24346   1.538   2.047   6.579
 7816SOL    HW124347   1.518   2.061   6.482
 7816SOL    HW224348   1.571   1.954   6.593
 7817SOL     OW24349   5.491   4.371   3.472
 7817SOL    HW124350   5.417   4.304   3.470
 7817SOL    HW224351   5.544   4.360   3.555
 7818SOL     OW24352   4.909   0.545   2.891
 7818SOL    HW124353   5.001   0.519   2.920
 7818SOL    HW224354   4.914   0.624   2.830
 7819SOL     OW24355   6.450   3.158   1.919
 7819SOL    HW124356   6.486   3.206   1.839
 7819SOL    HW224357   6.376   3.211   1.960
 7820SOL     OW24358   1.385   2.329   4.583
 7820SOL    HW124359   1.294   2.350   4.546
 7820SOL    HW224360   1.443   2.411   4.578
 7821SOL     OW24361   5.357   6.085   1.183
 7821SOL    HW124362   5.270   6.121   1.151
 7821SOL    HW224363   5.346   6.048   1.276
 7822SOL     OW24364   0.671   1.163   5.818
 7822SOL    HW124365   0.698   1.259   5.824
 7822SOL    HW224366   0.584   1.151   5.867
 7823SOL     OW24367   2.622   4.048   5.280
 7823SOL    HW124368   2.703   4.005   5.240
 7823SOL    HW224369   2.540   4.002   5.247
 7824SOL     OW24370   5.743   1.086   3.908
 7824SOL    HW124371   5.818   1.030   3.872
 7824SOL    HW224372   5.710   1.046   3.994
 7825SOL     OW24373   1.061   3.152   1.084
 7825SOL    HW124374   1.046   3.208   1.165
 7825SOL    HW224375   1.100   3.064   1.111
 7826SOL     OW24376   6.249   1.338   1.302
 7826SOL    HW124377   6.234   1.286   1.386
 7826SOL    HW224378   6.166   1.389   1.279
 7827SOL     OW24379   1.824   5.266   1.312
 7827SOL    HW124380   1.809   5.365   1.314
 7827SOL    HW224381   1.806   5.231   1.220
 7828SOL     OW24382   0.391   4.764   0.042
 7828SOL    HW124383   0.324   4.828   0.079
 7828SOL    HW224384   0.411   4.788   6.967
 7829SOL     OW24385   2.224   3.616   1.441
 7829SOL    HW124386   2.144   3.666   1.408
 7829SOL    HW224387   2.222   3.612   1.540
 7830SOL     OW24388   2.523   4.660   5.074
 7830SOL    HW124389   2.615   4.625   5.059
 7830SOL    HW224390   2.493   4.635   5.166
 7831SOL     OW24391   1.844   6.575   1.949
 7831SOL    HW124392   1.879   6.595   1.858
 7831SOL    HW224393   1.895   6.629   2.017
 7832SOL     OW24394   5.763   0.983   3.480
 7832SOL    HW124395   5.756   0.891   3.518
 7832SOL    HW224396   5.679   1.033   3.498
 7833SOL     OW24397   0.777   0.999   5.635
 7833SOL    HW124398   0.744   1.061   5.707
 7833SOL    HW224399   0.699   0.968   5.580
 7834SOL     OW24400   6.691   1.393   3.691
 7834SOL    HW124401   6.623   1.364   3.759
 7834SOL    HW224402   6.683   1.337   3.609
 7835SOL     OW24403   3.390   2.171   5.232
 7835SOL    HW124404   3.347   2.104   5.292
 7835SOL    HW224405   3.320   2.230   5.192
 7836SOL     OW24406   3.359   2.871   4.873
 7836SOL    HW124407   3.419   2.794   4.851
 7836SOL    HW224408   3.315   2.854   4.962
 7837SOL     OW24409   4.910   4.941   0.032
 7837SOL    HW124410   4.990   4.884   0.014
 7837SOL    HW224411   4.934   5.037   0.020
 7838SOL     OW24412   4.283   6.882   0.941
 7838SOL    HW124413   4.361   6.847   0.890
 7838SOL    HW224414   4.204   6.822   0.927
 7839SOL     OW24415   5.765   4.601   5.199
 7839SOL    HW124416   5.819   4.527   5.239
 7839SOL    HW224417   5.722   4.570   5.115
 7840SOL     OW24418   6.514   2.798   3.850
 7840SOL    HW124419   6.557   2.856   3.781
 7840SOL    HW224420   6.418   2.784   3.827
 7841SOL     OW24421   3.657   1.804   5.841
 7841SOL    HW124422   3.707   1.890   5.848
 7841SOL    HW224423   3.714   1.729   5.875
 7842SOL     OW24424   2.945   2.213   2.665
 7842SOL    HW124425   2.855   2.243   2.636
 7842SOL    HW224426   3.007   2.212   2.586
 7843SOL     OW24427   1.255   6.074   3.429
 7843SOL    HW124428   1.195   6.062   3.508
 7843SOL    HW224429   1.214   6.028   3.350
 7844SOL     OW24430   3.365   0.691   3.005
 7844SOL    HW124431   3.357   0.685   3.105
 7844SOL    HW224432   3.418   0.772   2.981
 7845SOL     OW24433   5.552   1.807   2.837
 7845SOL    HW124434   5.611   1.874   2.793
 7845SOL    HW224435   5.590   1.781   2.925
 7846SOL     OW24436   0.613   2.380   1.076
 7846SOL    HW124437   0.640   2.315   1.147
 7846SOL    HW224438   0.573   2.331   0.999
 7847SOL     OW24439   6.646   1.075   3.171
 7847SOL    HW124440   6.696   1.024   3.100
 7847SOL    HW224441   6.604   1.156   3.131
 7848SOL     OW24442   3.101   4.665   0.448
 7848SOL    HW124443   3.158   4.584   0.434
 7848SOL    HW224444   3.011   4.637   0.482
 7849SOL     OW24445   6.175   4.498   4.724
 7849SOL    HW124446   6.231   4.416   4.737
 7849SOL    HW224447   6.182   4.528   4.628
 7850SOL     OW24448   0.161   1.149   4.082
 7850SOL    HW124449   0.255   1.153   4.050
 7850SOL    HW224450   0.126   1.242   4.095
 7851SOL     OW24451   6.464   1.368   1.467
 7851SOL    HW124452   6.395   1.354   1.396
 7851SOL    HW224453   6.500   1.461   1.460
 7852SOL     OW24454   3.409   1.887   6.553
 7852SOL    HW124455   3.412   1.899   6.454
 7852SOL    HW224456   3.496   1.849   6.585
 7853SOL     OW24457   4.935   2.448   1.611
 7853SOL    HW124458   4.991   2.471   1.531
 7853SOL    HW224459   4.968   2.499   1.691
 7854SOL     OW24460   3.663   3.470   6.286
 7854SOL    HW124461   3.622   3.454   6.375
 7854SOL    HW224462   3.755   3.508   6.297
 7855SOL     OW24463   4.500   6.737   4.539
 7855SOL    HW124464   4.511   6.737   4.639
 7855SOL    HW224465   4.574   6.684   4.498
 7856SOL     OW24466   6.364   6.007   5.049
 7856SOL    HW124467   6.341   5.921   5.092
 7856SOL    HW224468   6.287   6.070   5.056
 7857SOL     OW24469   4.838   2.811   0.325
 7857SOL    HW124470   4.900   2.843   0.397
 7857SOL    HW224471   4.817   2.715   0.340
 7858SOL     OW24472   6.194   6.426   3.911
 7858SOL    HW124473   6.136   6.347   3.893
 7858SOL    HW224474   6.289   6.395   3.922
 7859SOL     OW24475   4.305   3.034   6.191
 7859SOL    HW124476   4.397   3.035   6.151
 7859SOL    HW224477   4.289   3.119   6.241
 7860SOL     OW24478   4.263   1.014   3.683
 7860SOL    HW124479   4.340   1.062   3.642
 7860SOL    HW224480   4.297   0.941   3.742
 7861SOL     OW24481   3.515   4.635   1.567
 7861SOL    HW124482   3.561   4.614   1.653
 7861SOL    HW224483   3.447   4.564   1.546
 7862SOL     OW24484   2.146   4.742   1.807
 7862SOL    HW124485   2.221   4.701   1.754
 7862SOL    HW224486   2.184   4.811   1.869
 7863SOL     OW24487   6.957   4.111   4.700
 7863SOL    HW124488   6.916   4.023   4.678
 7863SOL    HW224489   6.918   4.182   4.642
 7864SOL     OW24490   0.719   5.515   5.777
 7864SOL    HW124491   0.764   5.602   5.794
 7864SOL    HW224492   0.774   5.461   5.713
 7865SOL     OW24493   6.716   5.939   3.997
 7865SOL    HW124494   6.703   6.029   4.040
 7865SOL    HW224495   6.681   5.868   4.058
 7866SOL     OW24496   0.664   1.385   5.548
 7866SOL    HW124497   0.582   1.329   5.561
 7866SOL    HW224498   0.725   1.374   5.626
 7867SOL     OW24499   6.108   6.139   3.409
 7867SOL    HW124500   6.169   6.213   3.437
 7867SOL    HW224501   6.049   6.170   3.335
 7868SOL     OW24502   4.828   6.304   2.084
 7868SOL    HW124503   4.820   6.352   2.171
 7868SOL    HW224504   4.813   6.368   2.009
 7869SOL     OW24505   5.346   4.184   6.811
 7869SOL    HW124506   5.273   4.117   6.822
 7869SOL    HW224507   5.434   4.139   6.820
 7870SOL     OW24508   5.176   5.948   4.014
 7870SOL    HW124509   5.239   6.007   4.065
 7870SOL    HW224510   5.170   5.859   4.059
 7871SOL     OW24511   4.496   2.195   1.681
 7871SOL    HW124512   4.445   2.212   1.596
 7871SOL    HW224513   4.559   2.271   1.698
 7872SOL     OW24514   1.978   3.265   3.283
 7872SOL    HW124515   2.041   3.262   3.205
 7872SOL    HW224516   2.017   3.322   3.355
 7873SOL     OW24517   5.826   6.793   6.528
 7873SOL    HW124518   5.773   6.874   6.552
 7873SOL    HW224519   5.849   6.796   6.430
 7874SOL     OW24520   4.827   2.564   0.664
 7874SOL    HW124521   4.776   2.596   0.584
 7874SOL    HW224522   4.924   2.583   0.651
 7875SOL     OW24523   4.746   2.804   0.044
 7875SOL    HW124524   4.794   2.797   0.132
 7875SOL    HW224525   4.657   2.759   0.051
 7876SOL     OW24526   1.462   6.661   3.719
 7876SOL    HW124527   1.424   6.576   3.683
 7876SOL    HW224528   1.516   6.641   3.801
 7877SOL     OW24529   0.626   1.561   2.672
 7877SOL    HW124530   0.649   1.627   2.600
 7877SOL    HW224531   0.692   1.569   2.747
 7878SOL     OW24532   4.904   4.340   4.630
 7878SOL    HW124533   4.844   4.271   4.672
 7878SOL    HW224534   4.914   4.418   4.693
 7879SOL     OW24535   3.798   5.470   3.264
 7879SOL    HW124536   3.771   5.376   3.242
 7879SOL    HW224537   3.737   5.534   3.218
 7880SOL     OW24538   1.945   3.739   1.734
 7880SOL    HW124539   2.036   3.699   1.748
 7880SOL    HW224540   1.954   3.826   1.685
 7881SOL     OW24541   5.976   5.106   5.194
 7881SOL    HW124542   5.997   5.016   5.158
 7881SOL    HW224543   5.947   5.166   5.120
 7882SOL     OW24544   1.520   3.401   2.113
 7882SOL    HW124545   1.462   3.321   2.104
 7882SOL    HW224546   1.530   3.423   2.210
 7883SOL     OW24547   1.059   0.485   0.427
 7883SOL    HW124548   1.137   0.528   0.382
 7883SOL    HW224549   1.039   0.398   0.383
 7884SOL     OW24550   1.853   3.917   4.387
 7884SOL    HW124551   1.766   3.873   4.366
 7884SOL    HW224552   1.859   3.934   4.485
 7885SOL     OW24553   6.723   5.579   1.283
 7885SOL    HW124554   6.627   5.588   1.310
 7885SOL    HW224555   6.766   5.507   1.338
 7886SOL     OW24556   3.888   5.441   0.195
 7886SOL    HW124557   3.869   5.347   0.167
 7886SOL    HW224558   3.902   5.498   0.114
 7887SOL     OW24559   3.402   2.699   5.626
 7887SOL    HW124560   3.475   2.696   5.558
 7887SOL    HW224561   3.393   2.792   5.661
 7888SOL     OW24562   6.393   0.256   5.600
 7888SOL    HW124563   6.337   0.279   5.680
 7888SOL    HW224564   6.441   0.338   5.569
 7889SOL     OW24565   1.658   3.913   1.759
 7889SOL    HW124566   1.708   3.837   1.802
 7889SOL    HW224567   1.654   3.899   1.661
 7890SOL     OW24568   1.924   3.028   3.010
 7890SOL    HW124569   1.996   3.084   3.052
 7890SOL    HW224570   1.966   2.962   2.947
 7891SOL     OW24571   1.679   3.150   3.470
 7891SOL    HW124572   1.724   3.104   3.394
 7891SOL    HW224573   1.599   3.096   3.498
 7892SOL     OW24574   2.459   1.607   4.017
 7892SOL    HW124575   2.534   1.602   3.952
 7892SOL    HW224576   2.387   1.543   3.989
 7893SOL     OW24577   0.217   6.559   2.476
 7893SOL    HW124578   0.149   6.492   2.504
 7893SOL    HW224579   0.185   6.651   2.496
 7894SOL     OW24580   3.328   0.519   1.031
 7894SOL    HW124581   3.253   0.496   1.093
 7894SOL    HW224582   3.306   0.604   0.983
 7895SOL     OW24583   6.147   0.569   5.345
 7895SOL    HW124584   6.207   0.609   5.415
 7895SOL    HW224585   6.059   0.617   5.345
 7896SOL     OW24586   4.742   3.684   6.808
 7896SOL    HW124587   4.690   3.704   6.725
 7896SOL    HW224588   4.799   3.603   6.794
 7897SOL     OW24589   2.699   4.113   0.032
 7897SOL    HW124590   2.670   4.198   7.007
 7897SOL    HW224591   2.620   4.052   0.041
 7898SOL     OW24592   4.781   1.772   3.476
 7898SOL    HW124593   4.706   1.711   3.451
 7898SOL    HW224594   4.855   1.718   3.518
 7899SOL     OW24595   5.820   1.056   0.980
 7899SOL    HW124596   5.743   1.049   1.043
 7899SOL    HW224597   5.787   1.056   0.886
 7900SOL     OW24598   1.558   5.481   1.184
 7900SOL    HW124599   1.487   5.412   1.202
 7900SOL    HW224600   1.588   5.521   1.270
 7901SOL     OW24601   5.108   1.196   6.604
 7901SOL    HW124602   5.097   1.159   6.696
 7901SOL    HW224603   5.190   1.254   6.600
 7902SOL     OW24604   5.496   5.911   1.642
 7902SOL    HW124605   5.458   5.989   1.691
 7902SOL    HW224606   5.591   5.929   1.618
 7903SOL     OW24607   5.878   1.430   0.460
 7903SOL    HW124608   5.841   1.424   0.368
 7903SOL    HW224609   5.963   1.377   0.466
 7904SOL     OW24610   5.823   6.535   3.251
 7904SOL    HW124611   5.804   6.444   3.286
 7904SOL    HW224612   5.762   6.556   3.175
 7905SOL     OW24613   4.489   2.580   0.640
 7905SOL    HW124614   4.421   2.510   0.664
 7905SOL    HW224615   4.457   2.669   0.673
 7906SOL     OW24616   0.038   5.249   0.244
 7906SOL    HW124617   6.991   5.175   0.244
 7906SOL    HW224618   0.063   5.273   0.150
 7907SOL     OW24619   5.648   2.314   3.460
 7907SOL    HW124620   5.592   2.234   3.438
 7907SOL    HW224621   5.664   2.317   3.559
 7908SOL     OW24622   0.674   1.828   4.998
 7908SOL    HW124623   0.686   1.736   5.036
 7908SOL    HW224624   0.754   1.852   4.943
 7909SOL     OW24625   5.469   3.361   5.132
 7909SOL    HW124626   5.567   3.382   5.139
 7909SOL    HW224627   5.446   3.290   5.198
 7910SOL     OW24628   2.998   3.408   5.924
 7910SOL    HW124629   2.988   3.358   5.838
 7910SOL    HW224630   3.094   3.427   5.942
 7911SOL     OW24631   1.657   3.035   6.569
 7911SOL    HW124632   1.584   3.080   6.517
 7911SOL    HW224633   1.636   3.038   6.666
 7912SOL     OW24634   6.925   5.014   0.320
 7912SOL    HW124635   6.861   4.995   0.395
 7912SOL    HW224636   6.881   4.994   0.233
 7913SOL     OW24637   1.259   4.878   1.005
 7913SOL    HW124638   1.308   4.943   0.947
 7913SOL    HW224639   1.275   4.900   1.101
 7914SOL     OW24640   0.042   4.480   5.963
 7914SOL    HW124641   0.100   4.548   5.917
 7914SOL    HW224642   0.097   4.400   5.988
 7915SOL     OW24643   4.740   2.715   2.241
 7915SOL    HW124644   4.700   2.693   2.152
 7915SOL    HW224645   4.741   2.815   2.253
 7916SOL     OW24646   0.020   3.816   5.629
 7916SOL    HW124647   6.952   3.860   5.649
 7916SOL    HW224648   0.093   3.885   5.631
 7917SOL     OW24649   3.304   3.825   3.455
 7917SOL    HW124650   3.253   3.893   3.509
 7917SOL    HW224651   3.333   3.867   3.369
 7918SOL     OW24652   0.283   1.876   0.150
 7918SOL    HW124653   0.299   1.787   0.106
 7918SOL    HW224654   0.252   1.861   0.244
 7919SOL     OW24655   1.727   4.694   3.026
 7919SOL    HW124656   1.633   4.660   3.021
 7919SOL    HW224657   1.790   4.619   3.010
 7920SOL     OW24658   0.444   5.357   1.177
 7920SOL    HW124659   0.530   5.340   1.226
 7920SOL    HW224660   0.456   5.335   1.081
 7921SOL     OW24661   4.363   6.376   0.793
 7921SOL    HW124662   4.368   6.357   0.695
 7921SOL    HW224663   4.447   6.346   0.838
 7922SOL     OW24664   6.786   5.949   0.245
 7922SOL    HW124665   6.842   5.931   0.326
 7922SOL    HW224666   6.705   6.001   0.271
 7923SOL     OW24667   3.213   0.547   1.967
 7923SOL    HW124668   3.129   0.514   1.926
 7923SOL    HW224669   3.287   0.481   1.952
 7924SOL     OW24670   4.292   6.333   2.867
 7924SOL    HW124671   4.203   6.375   2.884
 7924SOL    HW224672   4.344   6.329   2.952
 7925SOL     OW24673   0.771   1.832   6.332
 7925SOL    HW124674   0.714   1.752   6.349
 7925SOL    HW224675   0.799   1.871   6.420
 7926SOL     OW24676   5.180   1.307   5.248
 7926SOL    HW124677   5.253   1.279   5.310
 7926SOL    HW224678   5.195   1.402   5.219
 7927SOL     OW24679   3.983   5.457   4.498
 7927SOL    HW124680   4.012   5.380   4.442
 7927SOL    HW224681   3.887   5.478   4.480
 7928SOL     OW24682   1.796   2.569   4.759
 7928SOL    HW124683   1.706   2.610   4.778
 7928SOL    HW224684   1.801   2.479   4.802
 7929SOL     OW24685   3.928   3.952   5.699
 7929SOL    HW124686   4.016   3.979   5.737
 7929SOL    HW224687   3.900   3.865   5.739
 7930SOL     OW24688   4.537   5.751   4.160
 7930SOL    HW124689   4.478   5.687   4.209
 7930SOL    HW224690   4.493   5.779   4.075
 7931SOL     OW24691   1.627   1.706   6.278
 7931SOL    HW124692   1.634   1.806   6.275
 7931SOL    HW224693   1.552   1.677   6.219
 7932SOL     OW24694   2.975   6.334   6.575
 7932SOL    HW124695   2.951   6.290   6.488
 7932SOL    HW224696   3.032   6.272   6.629
 7933SOL     OW24697   0.434   6.338   7.013
 7933SOL    HW124698   0.455   6.253   0.042
 7933SOL    HW224699   0.344   6.330   6.969
 7934SOL     OW24700   2.328   4.992   0.297
 7934SOL    HW124701   2.400   4.922   0.294
 7934SOL    HW224702   2.328   5.035   0.388
 7935SOL     OW24703   5.623   6.380   0.365
 7935SOL    HW124704   5.580   6.378   0.455
 7935SOL    HW224705   5.721   6.366   0.374
 7936SOL     OW24706   3.837   4.916   3.061
 7936SOL    HW124707   3.869   4.883   2.973
 7936SOL    HW224708   3.890   4.873   3.134
 7937SOL     OW24709   6.162   0.043   3.908
 7937SOL    HW124710   6.063   0.031   3.916
 7937SOL    HW224711   6.202   0.050   3.999
 7938SOL     OW24712   6.144   5.350   5.293
 7938SOL    HW124713   6.165   5.253   5.286
 7938SOL    HW224714   6.052   5.368   5.259
 7939SOL     OW24715   0.972   2.714   5.767
 7939SOL    HW124716   0.948   2.796   5.714
 7939SOL    HW224717   0.897   2.690   5.828
 7940SOL     OW24718   1.751   3.721   2.585
 7940SOL    HW124719   1.789   3.682   2.501
 7940SOL    HW224720   1.656   3.690   2.596
 7941SOL     OW24721   6.974   6.411   0.523
 7941SOL    HW124722   6.893   6.353   0.536
 7941SOL    HW224723   6.946   6.503   0.499
 7942SOL     OW24724   6.635   5.852   2.964
 7942SOL    HW124725   6.717   5.901   2.990
 7942SOL    HW224726   6.650   5.807   2.876
 7943SOL     OW24727   5.959   2.536   0.165
 7943SOL    HW124728   6.027   2.605   0.191
 7943SOL    HW224729   5.918   2.497   0.247
 7944SOL     OW24730   0.743   3.464   1.430
 7944SOL    HW124731   0.648   3.495   1.442
 7944SOL    HW224732   0.773   3.485   1.337
 7945SOL     OW24733   5.169   6.234   2.243
 7945SOL    HW124734   5.162   6.166   2.316
 7945SOL    HW224735   5.134   6.195   2.157
 7946SOL     OW24736   2.371   2.141   5.908
 7946SOL    HW124737   2.451   2.127   5.967
 7946SOL    HW224738   2.388   2.097   5.820
 7947SOL     OW24739   3.871   2.528   6.095
 7947SOL    HW124740   3.883   2.561   6.189
 7947SOL    HW224741   3.897   2.601   6.031
 7948SOL     OW24742   0.726   6.014   1.125
 7948SOL    HW124743   0.626   6.003   1.127
 7948SOL    HW224744   0.769   5.924   1.127
 7949SOL     OW24745   4.540   4.460   4.259
 7949SOL    HW124746   4.562   4.483   4.353
 7949SOL    HW224747   4.459   4.510   4.230
 7950SOL     OW24748   5.349   5.171   4.435
 7950SOL    HW124749   5.449   5.173   4.424
 7950SOL    HW224750   5.327   5.142   4.528
 7951SOL     OW24751   1.758   3.836   1.158
 7951SOL    HW124752   1.819   3.771   1.204
 7951SOL    HW224753   1.663   3.810   1.174
 7952SOL     OW24754   0.904   3.500   6.662
 7952SOL    HW124755   0.818   3.550   6.666
 7952SOL    HW224756   0.971   3.554   6.611
 7953SOL     OW24757   1.860   2.875   3.432
 7953SOL    HW124758   1.839   2.780   3.410
 7953SOL    HW224759   1.831   2.934   3.357
 7954SOL     OW24760   4.584   4.595   5.363
 7954SOL    HW124761   4.621   4.672   5.414
 7954SOL    HW224762   4.655   4.526   5.351
 7955SOL     OW24763   1.410   6.786   6.428
 7955SOL    HW124764   1.329   6.844   6.423
 7955SOL    HW224765   1.383   6.693   6.454
 7956SOL     OW24766   2.777   6.005   2.946
 7956SOL    HW124767   2.807   5.967   2.858
 7956SOL    HW224768   2.814   5.950   3.021
 7957SOL     OW24769   1.985   1.170   0.299
 7957SOL    HW124770   2.030   1.247   0.344
 7957SOL    HW224771   2.028   1.152   0.211
 7958SOL     OW24772   3.061   5.467   4.196
 7958SOL    HW124773   3.039   5.563   4.177
 7958SOL    HW224774   3.022   5.409   4.124
 7959SOL     OW24775   4.358   5.845   1.376
 7959SOL    HW124776   4.350   5.751   1.342
 7959SOL    HW224777   4.355   5.909   1.299
 7960SOL     OW24778   3.489   1.540   0.759
 7960SOL    HW124779   3.541   1.569   0.679
 7960SOL    HW224780   3.438   1.618   0.795
 7961SOL     OW24781   0.925   6.278   0.595
 7961SOL    HW124782   0.854   6.320   0.651
 7961SOL    HW224783   0.943   6.186   0.628
 7962SOL     OW24784   2.024   6.933   0.161
 7962SOL    HW124785   1.956   6.882   0.212
 7962SOL    HW224786   1.981   7.011   0.116
 7963SOL     OW24787   0.048   0.742   3.456
 7963SOL    HW124788   7.014   0.818   3.491
 7963SOL    HW224789   7.010   0.661   3.445
 7964SOL     OW24790   6.953   5.373   3.472
 7964SOL    HW124791   6.999   5.288   3.449
 7964SOL    HW224792   6.926   5.420   3.387
 7965SOL     OW24793   3.433   3.183   6.951
 7965SOL    HW124794   3.522   3.164   6.911
 7965SOL    HW224795   3.361   3.164   6.883
 7966SOL     OW24796   0.146   2.928   5.653
 7966SOL    HW124797   0.061   2.921   5.706
 7966SOL    HW224798   0.142   2.866   5.575
 7967SOL     OW24799   2.775   6.118   4.177
 7967SOL    HW124800   2.859   6.122   4.123
 7967SOL    HW224801   2.706   6.178   4.136
 7968SOL     OW24802   2.278   2.166   3.994
 7968SOL    HW124803   2.359   2.216   3.963
 7968SOL    HW224804   2.201   2.229   4.005
 7969SOL     OW24805   4.725   0.020   2.178
 7969SOL    HW124806   4.729   0.064   2.089
 7969SOL    HW224807   4.663   6.962   2.174
 7970SOL     OW24808   0.305   3.551   3.207
 7970SOL    HW124809   0.254   3.496   3.141
 7970SOL    HW224810   0.388   3.503   3.233
 7971SOL     OW24811   4.047   1.146   0.508
 7971SOL    HW124812   4.038   1.073   0.575
 7971SOL    HW224813   4.143   1.174   0.502
 7972SOL     OW24814   1.179   3.875   1.763
 7972SOL    HW124815   1.269   3.898   1.799
 7972SOL    HW224816   1.188   3.836   1.671
 7973SOL     OW24817   4.696   4.190   3.316
 7973SOL    HW124818   4.604   4.150   3.315
 7973SOL    HW224819   4.746   4.161   3.234
 7974SOL     OW24820   5.704   0.610   4.830
 7974SOL    HW124821   5.677   0.656   4.914
 7974SOL    HW224822   5.630   0.616   4.763
 7975SOL     OW24823   6.152   0.415   2.451
 7975SOL    HW124824   6.201   0.496   2.484
 7975SOL    HW224825   6.219   0.344   2.429
 7976SOL     OW24826   0.577   0.691   5.992
 7976SOL    HW124827   0.602   0.709   6.087
 7976SOL    HW224828   0.657   0.707   5.933
 7977SOL     OW24829   4.596   5.299   1.808
 7977SOL    HW124830   4.519   5.363   1.813
 7977SOL    HW224831   4.565   5.207   1.832
 7978SOL     OW24832   5.721   3.628   6.179
 7978SOL    HW124833   5.716   3.714   6.229
 7978SOL    HW224834   5.641   3.618   6.120
 7979SOL     OW24835   3.926   0.510   5.465
 7979SOL    HW124836   3.883   0.569   5.397
 7979SOL    HW224837   3.868   0.431   5.483
 7980SOL     OW24838   2.549   5.815   0.324
 7980SOL    HW124839   2.488   5.849   0.253
 7980SOL    HW224840   2.630   5.775   0.281
 7981SOL     OW24841   0.754   5.956   2.597
 7981SOL    HW124842   0.678   6.016   2.621
 7981SOL    HW224843   0.750   5.873   2.651
 7982SOL     OW24844   0.134   1.791   6.926
 7982SOL    HW124845   0.130   1.891   6.926
 7982SOL    HW224846   0.119   1.757   6.833
 7983SOL     OW24847   5.722   1.986   2.708
 7983SOL    HW124848   5.670   2.016   2.628
 7983SOL    HW224849   5.758   2.066   2.755
 7984SOL     OW24850   1.620   2.021   1.819
 7984SOL    HW124851   1.582   2.025   1.727
 7984SOL    HW224852   1.564   2.076   1.881
 7985SOL     OW24853   2.238   6.286   3.818
 7985SOL    HW124854   2.258   6.243   3.906
 7985SOL    HW224855   2.236   6.385   3.830
 7986SOL     OW24856   2.856   0.599   6.722
 7986SOL    HW124857   2.788   0.580   6.792
 7986SOL    HW224858   2.945   0.614   6.765
 7987SOL     OW24859   1.216   3.272   6.532
 7987SOL    HW124860   1.134   3.268   6.590
 7987SOL    HW224861   1.188   3.293   6.438
 7988SOL     OW24862   1.704   1.783   4.023
 7988SOL    HW124863   1.690   1.770   4.121
 7988SOL    HW224864   1.684   1.698   3.975
 7989SOL     OW24865   3.248   2.638   5.287
 7989SOL    HW124866   3.346   2.623   5.301
 7989SOL    HW224867   3.203   2.550   5.273
 7990SOL     OW24868   6.128   4.215   3.750
 7990SOL    HW124869   6.079   4.300   3.736
 7990SOL    HW224870   6.071   4.151   3.802
 7991SOL     OW24871   6.575   0.889   4.681
 7991SOL    HW124872   6.518   0.808   4.667
 7991SOL    HW224873   6.540   0.942   4.758
 7992SOL     OW24874   1.432   6.481   1.089
 7992SOL    HW124875   1.487   6.495   1.171
 7992SOL    HW224876   1.343   6.524   1.100
 7993SOL     OW24877   1.549   6.108   6.785
 7993SOL    HW124878   1.541   6.010   6.767
 7993SOL    HW224879   1.533   6.124   6.882
 7994SOL     OW24880   5.191   0.038   2.844
 7994SOL    HW124881   5.127   6.988   2.814
 7994SOL    HW224882   5.211   0.026   2.941
 7995SOL     OW24883   4.168   5.437   3.885
 7995SOL    HW124884   4.207   5.408   3.972
 7995SOL    HW224885   4.179   5.535   3.874
 7996SOL     OW24886   3.138   0.129   5.068
 7996SOL    HW124887   3.136   0.035   5.103
 7996SOL    HW224888   3.226   0.146   5.024
 7997SOL     OW24889   6.789   1.302   0.836
 7997SOL    HW124890   6.828   1.393   0.821
 7997SOL    HW224891   6.802   1.276   0.932
 7998SOL     OW24892   3.736   5.375   1.274
 7998SOL    HW124893   3.778   5.323   1.349
 7998SOL    HW224894   3.771   5.468   1.275
 7999SOL     OW24895   1.319   0.149   6.226
 7999SOL    HW124896   1.386   0.111   6.290
 7999SOL    HW224897   1.276   0.229   6.267
 8000SOL     OW24898   5.282   0.802   0.383
 8000SOL    HW124899   5.308   0.872   0.449
 8000SOL    HW224900   5.333   0.816   0.298
 8001SOL     OW24901   3.381   5.710   1.128
 8001SOL    HW124902   3.429   5.668   1.052
 8001SOL    HW224903   3.287   5.677   1.133
 8002SOL     OW24904   0.794   2.418   5.301
 8002SOL    HW124905   0.812   2.482   5.376
 8002SOL    HW224906   0.716   2.360   5.325
 8003SOL     OW24907   2.645   4.690   2.335
 8003SOL    HW124908   2.588   4.746   2.395
 8003SOL    HW224909   2.706   4.749   2.282
 8004SOL     OW24910   1.502   3.483   3.608
 8004SOL    HW124911   1.532   3.494   3.703
 8004SOL    HW224912   1.471   3.388   3.594
 8005SOL     OW24913   3.040   1.410   2.354
 8005SOL    HW124914   3.119   1.360   2.318
 8005SOL    HW224915   3.023   1.491   2.297
 8006SOL     OW24916   2.565   6.961   0.093
 8006SOL    HW124917   2.618   6.893   0.041
 8006SOL    HW224918   2.506   7.012   0.031
 8007SOL     OW24919   0.755   0.257   4.271
 8007SOL    HW124920   0.748   0.357   4.280
 8007SOL    HW224921   0.838   0.235   4.220
 8008SOL     OW24922   4.354   6.334   6.077
 8008SOL    HW124923   4.271   6.375   6.041
 8008SOL    HW224924   4.373   6.370   6.168
 8009SOL     OW24925   6.339   0.409   2.734
 8009SOL    HW124926   6.437   0.428   2.731
 8009SOL    HW224927   6.318   0.335   2.671
 8010SOL     OW24928   1.272   1.506   0.413
 8010SOL    HW124929   1.371   1.514   0.425
 8010SOL    HW224930   1.248   1.411   0.398
 8011SOL     OW24931   3.150   2.568   0.879
 8011SOL    HW124932   3.144   2.473   0.850
 8011SOL    HW224933   3.140   2.628   0.800
 8012SOL     OW24934   2.770   5.976   1.911
 8012SOL    HW124935   2.862   5.937   1.911
 8012SOL    HW224936   2.710   5.920   1.855
 8013SOL     OW24937   0.898   5.049   4.331
 8013SOL    HW124938   0.981   5.034   4.386
 8013SOL    HW224939   0.840   5.116   4.377
 8014SOL     OW24940   0.471   6.329   5.322
 8014SOL    HW124941   0.388   6.308   5.271
 8014SOL    HW224942   0.549   6.285   5.277
 8015SOL     OW24943   3.075   1.441   7.012
 8015SOL    HW124944   3.080   1.393   6.925
 8015SOL    HW224945   3.037   1.380   0.062
 8016SOL     OW24946   4.471   0.429   6.912
 8016SOL    HW124947   4.446   0.449   6.817
 8016SOL    HW224948   4.395   0.454   6.972
 8017SOL     OW24949   6.857   5.442   0.060
 8017SOL    HW124950   6.869   5.481   0.151
 8017SOL    HW224951   6.784   5.491   0.013
 8018SOL     OW24952   3.441   2.522   5.960
 8018SOL    HW124953   3.397   2.494   5.875
 8018SOL    HW224954   3.518   2.461   5.979
 8019SOL     OW24955   2.245   3.846   6.822
 8019SOL    HW124956   2.160   3.798   6.845
 8019SOL    HW224957   2.275   3.817   6.731
 8020SOL     OW24958   6.311   5.941   0.771
 8020SOL    HW124959   6.269   5.857   0.805
 8020SOL    HW224960   6.403   5.951   0.810
 8021SOL     OW24961   1.192   2.110   1.372
 8021SOL    HW124962   1.267   2.164   1.410
 8021SOL    HW224963   1.228   2.027   1.331
 8022SOL     OW24964   4.230   0.324   2.609
 8022SOL    HW124965   4.254   0.388   2.683
 8022SOL    HW224966   4.311   0.306   2.553
 8023SOL     OW24967   5.726   5.365   3.285
 8023SOL    HW124968   5.663   5.338   3.358
 8023SOL    HW224969   5.711   5.461   3.261
 8024SOL     OW24970   3.750   4.946   0.098
 8024SOL    HW124971   3.842   4.920   0.068
 8024SOL    HW224972   3.714   4.877   0.160
 8025SOL     OW24973   2.511   5.874   6.573
 8025SOL    HW124974   2.529   5.877   6.671
 8025SOL    HW224975   2.426   5.823   6.556
 8026SOL     OW24976   0.747   4.823   6.812
 8026SOL    HW124977   0.773   4.913   6.848
 8026SOL    HW224978   0.647   4.817   6.808
 8027SOL     OW24979   4.140   1.936   5.301
 8027SOL    HW124980   4.074   1.862   5.310
 8027SOL    HW224981   4.191   1.925   5.216
 8028SOL     OW24982   2.948   5.720   5.502
 8028SOL    HW124983   2.957   5.664   5.419
 8028SOL    HW224984   3.039   5.750   5.531
 8029SOL     OW24985   5.280   3.618   0.164
 8029SOL    HW124986   5.236   3.639   0.252
 8029SOL    HW224987   5.223   3.652   0.090
 8030SOL     OW24988   4.567   4.170   0.254
 8030SOL    HW124989   4.495   4.231   0.221
 8030SOL    HW224990   4.637   4.160   0.183
 8031SOL     OW24991   4.547   6.046   2.600
 8031SOL    HW124992   4.449   6.057   2.619
 8031SOL    HW224993   4.597   6.126   2.635
 8032SOL     OW24994   5.784   4.569   5.609
 8032SOL    HW124995   5.699   4.518   5.601
 8032SOL    HW224996   5.768   4.664   5.582
 8033SOL     OW24997   5.271   3.657   6.749
 8033SOL    HW124998   5.357   3.617   6.780
 8033SOL    HW224999   5.213   3.675   6.828
 8034SOL     OW25000   6.450   1.236   5.087
 8034SOL    HW125001   6.386   1.161   5.100
 8034SOL    HW225002   6.493   1.259   5.174
 8035SOL     OW25003   4.778   0.844   5.438
 8035SOL    HW125004   4.861   0.867   5.387
 8035SOL    HW225005   4.704   0.904   5.411
 8036SOL     OW25006   0.643   3.928   2.279
 8036SOL    HW125007   0.683   3.998   2.338
 8036SOL    HW225008   0.617   3.849   2.333
 8037SOL     OW25009   1.799   3.310   1.920
 8037SOL    HW125010   1.732   3.314   1.994
 8037SOL    HW225011   1.852   3.225   1.928
 8038SOL     OW25012   4.815   0.768   2.755
 8038SOL    HW125013   4.735   0.724   2.715
 8038SOL    HW225014   4.788   0.855   2.798
 8039SOL     OW25015   0.915   0.243   3.838
 8039SOL    HW125016   0.849   0.313   3.866
 8039SOL    HW225017   0.880   0.195   3.758
 8040SOL     OW25018   1.122   6.005   0.959
 8040SOL    HW125019   1.088   6.005   1.053
 8040SOL    HW225020   1.209   6.054   0.955
 8041SOL     OW25021   3.045   2.079   2.191
 8041SOL    HW125022   3.055   2.103   2.287
 8041SOL    HW225023   2.998   2.153   2.143
 8042SOL     OW25024   3.994   3.089   3.682
 8042SOL    HW125025   3.901   3.105   3.650
 8042SOL    HW225026   4.013   3.148   3.761
 8043SOL     OW25027   3.507   6.927   1.549
 8043SOL    HW125028   3.440   6.993   1.583
 8043SOL    HW225029   3.564   6.895   1.625
 8044SOL     OW25030   3.713   3.486   0.381
 8044SOL    HW125031   3.714   3.510   0.284
 8044SOL    HW225032   3.798   3.439   0.404
 8045SOL     OW25033   5.509   0.496   1.511
 8045SOL    HW125034   5.441   0.543   1.454
 8045SOL    HW225035   5.490   0.398   1.510
 8046SOL     OW25036   6.638   5.012   0.036
 8046SOL    HW125037   6.586   4.953   0.098
 8046SOL    HW225038   6.644   5.104   0.075
 8047SOL     OW25039   3.665   5.014   4.847
 8047SOL    HW125040   3.703   4.924   4.870
 8047SOL    HW225041   3.590   5.002   4.781
 8048SOL     OW25042   5.400   0.531   5.754
 8048SOL    HW125043   5.322   0.475   5.781
 8048SOL    HW225044   5.370   0.624   5.735
 8049SOL     OW25045   1.837   0.216   1.058
 8049SOL    HW125046   1.915   0.156   1.040
 8049SOL    HW225047   1.781   0.176   1.131
 8050SOL     OW25048   1.189   4.214   2.235
 8050SOL    HW125049   1.189   4.126   2.187
 8050SOL    HW225050   1.223   4.202   2.328
 8051SOL     OW25051   4.668   5.901   3.665
 8051SOL    HW125052   4.759   5.890   3.625
 8051SOL    HW225053   4.649   5.999   3.678
 8052SOL     OW25054   4.265   1.667   1.810
 8052SOL    HW125055   4.263   1.685   1.909
 8052SOL    HW225056   4.227   1.747   1.762
 8053SOL     OW25057   3.803   4.013   3.258
 8053SOL    HW125058   3.736   4.050   3.195
 8053SOL    HW225059   3.895   4.022   3.219
 8054SOL     OW25060   5.200   6.768   4.472
 8054SOL    HW125061   5.154   6.692   4.426
 8054SOL    HW225062   5.240   6.736   4.557
 8055SOL     OW25063   0.134   0.782   6.181
 8055SOL    HW125064   0.112   0.816   6.272
 8055SOL    HW225065   0.056   0.796   6.119
 8056SOL     OW25066   4.405   1.631   4.191
 8056SOL    HW125067   4.343   1.554   4.173
 8056SOL    HW225068   4.352   1.710   4.221
 8057SOL     OW25069   2.767   2.351   3.243
 8057SOL    HW125070   2.850   2.300   3.222
 8057SOL    HW225071   2.775   2.394   3.333
 8058SOL     OW25072   4.498   0.305   3.014
 8058SOL    HW125073   4.591   0.319   2.982
 8058SOL    HW225074   4.489   0.339   3.107
 8059SOL     OW25075   4.461   2.333   4.681
 8059SOL    HW125076   4.429   2.406   4.620
 8059SOL    HW225077   4.524   2.274   4.632
 8060SOL     OW25078   0.333   1.805   4.103
 8060SOL    HW125079   0.310   1.740   4.031
 8060SOL    HW225080   0.383   1.883   4.063
 8061SOL     OW25081   6.377   6.671   1.423
 8061SOL    HW125082   6.344   6.624   1.341
 8061SOL    HW225083   6.327   6.639   1.503
 8062SOL     OW25084   3.017   4.846   4.173
 8062SOL    HW125085   3.055   4.781   4.239
 8062SOL    HW225086   2.929   4.879   4.205
 8063SOL     OW25087   1.452   2.632   0.779
 8063SOL    HW125088   1.491   2.645   0.871
 8063SOL    HW225089   1.354   2.647   0.783
 8064SOL     OW25090   6.832   4.972   1.473
 8064SOL    HW125091   6.781   4.886   1.462
 8064SOL    HW225092   6.771   5.049   1.460
 8065SOL     OW25093   4.605   6.449   3.885
 8065SOL    HW125094   4.610   6.509   3.805
 8065SOL    HW225095   4.518   6.399   3.883
 8066SOL     OW25096   0.872   1.668   5.998
 8066SOL    HW125097   0.907   1.682   5.905
 8066SOL    HW225098   0.833   1.577   6.006
 8067SOL     OW25099   4.802   3.255   1.779
 8067SOL    HW125100   4.765   3.183   1.837
 8067SOL    HW225101   4.815   3.219   1.686
 8068SOL     OW25102   5.905   4.135   6.914
 8068SOL    HW125103   5.857   4.075   6.849
 8068SOL    HW225104   5.898   4.096   7.006
 8069SOL     OW25105   1.999   6.197   1.214
 8069SOL    HW125106   1.969   6.138   1.289
 8069SOL    HW225107   1.991   6.292   1.242
 8070SOL     OW25108   2.744   3.494   0.100
 8070SOL    HW125109   2.796   3.408   0.097
 8070SOL    HW225110   2.728   3.519   0.196
 8071SOL     OW25111   3.263   6.348   4.935
 8071SOL    HW125112   3.184   6.295   4.904
 8071SOL    HW225113   3.322   6.290   4.992
 8072SOL     OW25114   3.520   0.585   6.731
 8072SOL    HW125115   3.526   0.604   6.633
 8072SOL    HW225116   3.425   0.598   6.761
 8073SOL     OW25117   4.049   6.212   6.022
 8073SOL    HW125118   4.072   6.309   6.008
 8073SOL    HW225119   4.130   6.156   6.003
 8074SOL     OW25120   2.915   2.840   6.755
 8074SOL    HW125121   2.977   2.796   6.690
 8074SOL    HW225122   2.910   2.938   6.735
 8075SOL     OW25123   6.299   1.291   1.044
 8075SOL    HW125124   6.236   1.215   1.027
 8075SOL    HW225125   6.298   1.314   1.141
 8076SOL     OW25126   4.997   2.578   5.832
 8076SOL    HW125127   5.015   2.563   5.735
 8076SOL    HW225128   4.907   2.621   5.844
 8077SOL     OW25129   1.619   5.605   1.726
 8077SOL    HW125130   1.649   5.525   1.675
 8077SOL    HW225131   1.691   5.675   1.726
 8078SOL     OW25132   6.206   1.325   6.783
 8078SOL    HW125133   6.140   1.273   6.837
 8078SOL    HW225134   6.274   1.263   6.744
 8079SOL     OW25135   5.691   1.328   3.406
 8079SOL    HW125136   5.630   1.252   3.427
 8079SOL    HW225137   5.781   1.312   3.448
 8080SOL     OW25138   0.580   4.144   6.849
 8080SOL    HW125139   0.578   4.243   6.834
 8080SOL    HW225140   0.660   4.106   6.803
 8081SOL     OW25141   4.699   0.202   4.842
 8081SOL    HW125142   4.638   0.248   4.777
 8081SOL    HW225143   4.645   0.159   4.914
 8082SOL     OW25144   6.009   0.947   1.909
 8082SOL    HW125145   6.029   0.852   1.935
 8082SOL    HW225146   5.940   0.948   1.838
 8083SOL     OW25147   5.175   3.314   2.494
 8083SOL    HW125148   5.225   3.400   2.496
 8083SOL    HW225149   5.198   3.260   2.576
 8084SOL     OW25150   5.411   0.088   0.810
 8084SOL    HW125151   5.424   7.009   0.798
 8084SOL    HW225152   5.403   0.131   0.720
 8085SOL     OW25153   6.375   0.274   2.367
 8085SOL    HW125154   6.431   0.341   2.317
 8085SOL    HW225155   6.434   0.201   2.401
 8086SOL     OW25156   4.988   1.140   4.185
 8086SOL    HW125157   4.950   1.124   4.276
 8086SOL    HW225158   4.914   1.136   4.117
 8087SOL     OW25159   2.955   1.799   1.258
 8087SOL    HW125160   2.859   1.774   1.256
 8087SOL    HW225161   2.966   1.894   1.230
 8088SOL     OW25162   5.492   1.887   1.592
 8088SOL    HW125163   5.424   1.930   1.651
 8088SOL    HW225164   5.500   1.939   1.507
 8089SOL     OW25165   5.453   2.941   0.686
 8089SOL    HW125166   5.452   2.999   0.604
 8089SOL    HW225167   5.362   2.940   0.727
 8090SOL     OW25168   4.167   2.493   6.585
 8090SOL    HW125169   4.216   2.580   6.581
 8090SOL    HW225170   4.232   2.418   6.574
 8091SOL     OW25171   2.573   3.805   6.811
 8091SOL    HW125172   2.582   3.823   6.713
 8091SOL    HW225173   2.503   3.865   6.850
 8092SOL     OW25174   0.835   2.201   4.869
 8092SOL    HW125175   0.860   2.219   4.774
 8092SOL    HW225176   0.809   2.286   4.914
 8093SOL     OW25177   4.743   6.045   1.690
 8093SOL    HW125178   4.765   6.142   1.683
 8093SOL    HW225179   4.664   6.024   1.632
 8094SOL     OW25180   2.070   3.926   4.215
 8094SOL    HW125181   2.129   3.851   4.185
 8094SOL    HW225182   1.999   3.891   4.276
 8095SOL     OW25183   5.523   4.188   4.606
 8095SOL    HW125184   5.593   4.258   4.619
 8095SOL    HW225185   5.484   4.163   4.695
 8096SOL     OW25186   2.908   5.577   3.867
 8096SOL    HW125187   2.967   5.497   3.855
 8096SOL    HW225188   2.812   5.549   3.862
 8097SOL     OW25189   4.914   6.978   3.441
 8097SOL    HW125190   4.830   7.000   3.391
 8097SOL    HW225191   4.964   0.042   3.460
 8098SOL     OW25192   1.664   6.685   4.240
 8098SOL    HW125193   1.713   6.755   4.293
 8098SOL    HW225194   1.720   6.603   4.235
 8099SOL     OW25195   5.511   0.552   3.773
 8099SOL    HW125196   5.567   0.635   3.769
 8099SOL    HW225197   5.524   0.507   3.862
 8100SOL     OW25198   0.619   6.804   6.925
 8100SOL    HW125199   0.537   6.761   6.888
 8100SOL    HW225200   0.625   6.898   6.890
 8101SOL     OW25201   2.262   0.200   4.330
 8101SOL    HW125202   2.285   0.185   4.234
 8101SOL    HW225203   2.331   0.157   4.388
 8102SOL     OW25204   1.123   4.739   5.245
 8102SOL    HW125205   1.079   4.824   5.214
 8102SOL    HW225206   1.088   4.715   5.335
 8103SOL     OW25207   4.368   0.470   0.541
 8103SOL    HW125208   4.421   0.486   0.458
 8103SOL    HW225209   4.354   0.372   0.554
 8104SOL     OW25210   2.890   6.265   5.833
 8104SOL    HW125211   2.851   6.307   5.751
 8104SOL    HW225212   2.881   6.328   5.910
 8105SOL     OW25213   1.530   2.228   2.806
 8105SOL    HW125214   1.500   2.143   2.761
 8105SOL    HW225215   1.559   2.207   2.899
 8106SOL     OW25216   2.548   5.829   3.726
 8106SOL    HW125217   2.563   5.814   3.824
 8106SOL    HW225218   2.481   5.763   3.693
 8107SOL     OW25219   1.292   5.913   5.077
 8107SOL    HW125220   1.311   5.983   5.009
 8107SOL    HW225221   1.285   5.823   5.033
 8108SOL     OW25222   5.685   2.994   5.132
 8108SOL    HW125223   5.675   2.901   5.168
 8108SOL    HW225224   5.679   3.060   5.207
 8109SOL     OW25225   1.051   3.857   4.022
 8109SOL    HW125226   1.002   3.902   3.948
 8109SOL    HW225227   1.068   3.923   4.095
 8110SOL     OW25228   3.656   6.783   0.869
 8110SOL    HW125229   3.635   6.827   0.956
 8110SOL    HW225230   3.618   6.836   0.794
 8111SOL     OW25231   4.280   0.457   5.714
 8111SOL    HW125232   4.189   0.421   5.693
 8111SOL    HW225233   4.316   0.409   5.794
 8112SOL     OW25234   1.860   1.339   4.489
 8112SOL    HW125235   1.817   1.410   4.434
 8112SOL    HW225236   1.797   1.262   4.499
 8113SOL     OW25237   2.955   3.600   6.936
 8113SOL    HW125238   3.008   3.685   6.940
 8113SOL    HW225239   2.866   3.615   6.981
 8114SOL     OW25240   1.936   2.966   1.721
 8114SOL    HW125241   1.847   2.920   1.724
 8114SOL    HW225242   1.949   3.019   1.805
 8115SOL     OW25243   4.298   1.412   1.591
 8115SOL    HW125244   4.234   1.423   1.515
 8115SOL    HW225245   4.293   1.492   1.651
 8116SOL     OW25246   4.918   0.440   4.529
 8116SOL    HW125247   4.869   0.477   4.607
 8116SOL    HW225248   4.860   0.444   4.448
 8117SOL     OW25249   2.334   1.180   4.871
 8117SOL    HW125250   2.384   1.247   4.815
 8117SOL    HW225251   2.390   1.154   4.949
 8118SOL     OW25252   6.268   3.354   5.522
 8118SOL    HW125253   6.316   3.378   5.606
 8118SOL    HW225254   6.300   3.265   5.490
 8119SOL     OW25255   6.366   5.512   5.149
 8119SOL    HW125256   6.285   5.485   5.202
 8119SOL    HW225257   6.448   5.489   5.201
 8120SOL     OW25258   3.546   4.628   6.577
 8120SOL    HW125259   3.460   4.602   6.620
 8120SOL    HW225260   3.564   4.725   6.593
 8121SOL     OW25261   0.197   5.357   2.670
 8121SOL    HW125262   0.233   5.265   2.660
 8121SOL    HW225263   0.271   5.420   2.693
 8122SOL     OW25264   0.930   5.597   2.677
 8122SOL    HW125265   0.923   5.619   2.580
 8122SOL    HW225266   1.002   5.528   2.690
 8123SOL     OW25267   0.008   6.839   7.009
 8123SOL    HW125268   0.095   6.863   0.033
 8123SOL    HW225269   6.962   6.912   0.007
 8124SOL     OW25270   0.451   5.996   1.102
 8124SOL    HW125271   0.460   5.998   1.003
 8124SOL    HW225272   0.360   5.963   1.127
 8125SOL     OW25273   0.886   6.477   2.708
 8125SOL    HW125274   0.806   6.492   2.766
 8125SOL    HW225275   0.856   6.452   2.616
 8126SOL     OW25276   6.522   3.770   2.269
 8126SOL    HW125277   6.597   3.706   2.258
 8126SOL    HW225278   6.558   3.860   2.292
 8127SOL     OW25279   2.324   6.117   0.940
 8127SOL    HW125280   2.395   6.138   0.873
 8127SOL    HW225281   2.234   6.136   0.901
 8128SOL     OW25282   2.873   2.869   0.691
 8128SOL    HW125283   2.901   2.920   0.610
 8128SOL    HW225284   2.942   2.880   0.763
 8129SOL     OW25285   4.299   1.578   6.145
 8129SOL    HW125286   4.339   1.523   6.071
 8129SOL    HW225287   4.328   1.541   6.233
 8130SOL     OW25288   0.403   4.693   6.565
 8130SOL    HW125289   0.434   4.728   6.476
 8130SOL    HW225290   0.424   4.596   6.572
 8131SOL     OW25291   2.670   0.784   0.669
 8131SOL    HW125292   2.628   0.859   0.617
 8131SOL    HW225293   2.616   0.766   0.751
 8132SOL     OW25294   5.457   6.275   6.339
 8132SOL    HW125295   5.371   6.227   6.318
 8132SOL    HW225296   5.440   6.373   6.341
 8133SOL     OW25297   3.276   4.806   1.883
 8133SOL    HW125298   3.368   4.788   1.916
 8133SOL    HW225299   3.274   4.797   1.783
 8134SOL     OW25300   1.287   1.333   4.453
 8134SOL    HW125301   1.286   1.414   4.393
 8134SOL    HW225302   1.205   1.334   4.510
 8135SOL     OW25303   2.400   5.664   1.706
 8135SOL    HW125304   2.355   5.657   1.795
 8135SOL    HW225305   2.357   5.601   1.642
 8136SOL     OW25306   4.574   4.810   2.615
 8136SOL    HW125307   4.666   4.771   2.607
 8136SOL    HW225308   4.539   4.792   2.707
 8137SOL     OW25309   1.994   1.199   4.215
 8137SOL    HW125310   2.083   1.237   4.238
 8137SOL    HW225311   1.941   1.184   4.299
 8138SOL     OW25312   5.497   2.304   0.615
 8138SOL    HW125313   5.528   2.333   0.525
 8138SOL    HW225314   5.557   2.232   0.650
 8139SOL     OW25315   1.800   2.566   3.626
 8139SOL    HW125316   1.835   2.488   3.678
 8139SOL    HW225317   1.786   2.643   3.688
 8140SOL     OW25318   3.490   6.826   0.624
 8140SOL    HW125319   3.407   6.870   0.590
 8140SOL    HW225320   3.556   6.815   0.550
 8141SOL     OW25321   4.722   6.671   5.461
 8141SOL    HW125322   4.740   6.620   5.377
 8141SOL    HW225323   4.725   6.608   5.539
 8142SOL     OW25324   1.800   5.205   0.579
 8142SOL    HW125325   1.851   5.126   0.613
 8142SOL    HW225326   1.702   5.184   0.579
 8143SOL     OW25327   5.049   5.161   0.679
 8143SOL    HW125328   4.961   5.154   0.632
 8143SOL    HW225329   5.040   5.226   0.755
 8144SOL     OW25330   0.777   6.160   5.510
 8144SOL    HW125331   0.695   6.185   5.562
 8144SOL    HW225332   0.808   6.238   5.456
 8145SOL     OW25333   4.924   4.775   0.907
 8145SOL    HW125334   4.939   4.766   1.006
 8145SOL    HW225335   4.994   4.836   0.869
 8146SOL     OW25336   5.506   0.094   5.890
 8146SOL    HW125337   5.588   0.038   5.877
 8146SOL    HW225338   5.487   0.146   5.807
 8147SOL     OW25339   6.652   0.700   0.805
 8147SOL    HW125340   6.574   0.718   0.746
 8147SOL    HW225341   6.687   0.786   0.842
 8148SOL     OW25342   4.472   4.619   6.686
 8148SOL    HW125343   4.417   4.600   6.605
 8148SOL    HW225344   4.509   4.712   6.680
 8149SOL     OW25345   1.927   6.586   3.009
 8149SOL    HW125346   1.868   6.519   2.964
 8149SOL    HW225347   2.000   6.613   2.946
 8150SOL     OW25348   0.942   4.051   0.990
 8150SOL    HW125349   0.909   4.133   0.943
 8150SOL    HW225350   1.034   4.068   1.025
 8151SOL     OW25351   5.851   5.375   3.869
 8151SOL    HW125352   5.795   5.372   3.952
 8151SOL    HW225353   5.825   5.454   3.813
 8152SOL     OW25354   5.907   3.184   3.280
 8152SOL    HW125355   5.980   3.118   3.265
 8152SOL    HW225356   5.874   3.218   3.192
 8153SOL     OW25357   0.953   1.392   2.999
 8153SOL    HW125358   1.006   1.334   3.061
 8153SOL    HW225359   0.983   1.377   2.905
 8154SOL     OW25360   3.746   6.617   2.591
 8154SOL    HW125361   3.787   6.702   2.557
 8154SOL    HW225362   3.647   6.624   2.591
 8155SOL     OW25363   1.544   4.175   2.119
 8155SOL    HW125364   1.526   4.089   2.166
 8155SOL    HW225365   1.603   4.158   2.040
 8156SOL     OW25366   4.919   6.255   1.236
 8156SOL    HW125367   4.870   6.333   1.196
 8156SOL    HW225368   4.868   6.171   1.216
 8157SOL     OW25369   6.617   4.338   6.104
 8157SOL    HW125370   6.704   4.372   6.142
 8157SOL    HW225371   6.546   4.406   6.118
 8158SOL     OW25372   5.074   4.713   0.098
 8158SOL    HW125373   4.990   4.665   0.073
 8158SOL    HW225374   5.147   4.646   0.111
 8159SOL     OW25375   3.427   5.620   4.988
 8159SOL    HW125376   3.339   5.609   4.943
 8159SOL    HW225377   3.489   5.672   4.929
 8160SOL     OW25378   4.838   0.583   3.731
 8160SOL    HW125379   4.872   0.570   3.824
 8160SOL    HW225380   4.915   0.592   3.668
 8161SOL     OW25381   5.897   3.939   6.502
 8161SOL    HW125382   5.993   3.955   6.524
 8161SOL    HW225383   5.878   3.841   6.503
 8162SOL     OW25384   6.314   5.141   6.573
 8162SOL    HW125385   6.243   5.145   6.644
 8162SOL    HW225386   6.403   5.164   6.613
 8163SOL     OW25387   2.501   4.823   5.348
 8163SOL    HW125388   2.453   4.753   5.401
 8163SOL    HW225389   2.597   4.827   5.377
 8164SOL     OW25390   4.412   1.209   0.222
 8164SOL    HW125391   4.465   1.156   0.155
 8164SOL    HW225392   4.449   1.301   0.228
 8165SOL     OW25393   6.810   3.829   6.416
 8165SOL    HW125394   6.908   3.810   6.410
 8165SOL    HW225395   6.783   3.887   6.339
 8166SOL     OW25396   1.938   0.482   3.559
 8166SOL    HW125397   1.878   0.562   3.568
 8166SOL    HW225398   1.883   0.401   3.538
 8167SOL     OW25399   0.162   0.939   2.963
 8167SOL    HW125400   0.108   0.859   2.988
 8167SOL    HW225401   0.223   0.963   3.038
 8168SOL     OW25402   2.696   6.996   1.461
 8168SOL    HW125403   2.704   0.002   1.557
 8168SOL    HW225404   2.651   6.907   1.454
 8169SOL     OW25405   3.897   2.188   0.167
 8169SOL    HW125406   3.897   2.090   0.188
 8169SOL    HW225407   3.984   2.228   0.198
 8170SOL     OW25408   6.533   4.487   1.291
 8170SOL    HW125409   6.599   4.412   1.304
 8170SOL    HW225410   6.487   4.506   1.378
 8171SOL     OW25411   2.046   1.397   6.827
 8171SOL    HW125412   2.114   1.449   6.776
 8171SOL    HW225413   2.034   1.307   6.786
 8172SOL     OW25414   0.093   1.925   1.557
 8172SOL    HW125415   0.085   2.022   1.581
 8172SOL    HW225416   0.167   1.883   1.609
 8173SOL     OW25417   5.385   1.449   2.122
 8173SOL    HW125418   5.477   1.489   2.117
 8173SOL    HW225419   5.318   1.521   2.141
 8174SOL     OW25420   0.706   6.897   2.769
 8174SOL    HW125421   0.643   6.957   2.818
 8174SOL    HW225422   0.800   6.918   2.796
 8175SOL     OW25423   0.396   2.817   4.700
 8175SOL    HW125424   0.370   2.806   4.604
 8175SOL    HW225425   0.402   2.914   4.722
 8176SOL     OW25426   2.442   4.491   1.766
 8176SOL    HW125427   2.387   4.496   1.850
 8176SOL    HW225428   2.391   4.441   1.696
 8177SOL     OW25429   4.775   0.848   3.924
 8177SOL    HW125430   4.694   0.884   3.971
 8177SOL    HW225431   4.764   0.862   3.825
 8178SOL     OW25432   3.208   6.847   0.917
 8178SOL    HW125433   3.123   6.898   0.904
 8178SOL    HW225434   3.286   6.909   0.913
 8179SOL     OW25435   5.670   0.961   4.663
 8179SOL    HW125436   5.628   1.035   4.716
 8179SOL    HW225437   5.607   0.884   4.657
 8180SOL     OW25438   5.948   0.780   6.698
 8180SOL    HW125439   5.999   0.865   6.695
 8180SOL    HW225440   6.012   0.703   6.698
 8181SOL     OW25441   1.750   1.020   0.521
 8181SOL    HW125442   1.811   0.946   0.547
 8181SOL    HW225443   1.737   1.020   0.421
 8182SOL     OW25444   3.068   3.110   5.113
 8182SOL    HW125445   3.067   3.075   5.020
 8182SOL    HW225446   3.080   3.209   5.112
 8183SOL     OW25447   6.268   2.095   4.508
 8183SOL    HW125448   6.285   2.184   4.551
 8183SOL    HW225449   6.308   2.095   4.416
 8184SOL     OW25450   0.336   6.728   0.469
 8184SOL    HW125451   0.384   6.659   0.523
 8184SOL    HW225452   0.276   6.683   0.403
 8185SOL     OW25453   2.276   0.135   0.481
 8185SOL    HW125454   2.246   0.042   0.461
 8185SOL    HW225455   2.330   0.135   0.565
 8186SOL     OW25456   2.779   4.783   5.504
 8186SOL    HW125457   2.772   4.688   5.534
 8186SOL    HW225458   2.852   4.828   5.556
 8187SOL     OW25459   2.085   1.231   4.993
 8187SOL    HW125460   2.065   1.159   5.060
 8187SOL    HW225461   2.165   1.206   4.940
 8188SOL     OW25462   4.773   2.864   3.791
 8188SOL    HW125463   4.753   2.794   3.859
 8188SOL    HW225464   4.741   2.834   3.701
 8189SOL     OW25465   5.288   4.972   2.883
 8189SOL    HW125466   5.312   4.880   2.916
 8189SOL    HW225467   5.228   5.017   2.949
 8190SOL     OW25468   4.745   4.101   4.083
 8190SOL    HW125469   4.749   4.199   4.100
 8190SOL    HW225470   4.701   4.056   4.161
 8191SOL     OW25471   3.702   5.478   2.787
 8191SOL    HW125472   3.714   5.577   2.796
 8191SOL    HW225473   3.738   5.448   2.699
 8192SOL     OW25474   2.046   5.702   2.247
 8192SOL    HW125475   1.984   5.637   2.291
 8192SOL    HW225476   2.092   5.756   2.318
 8193SOL     OW25477   6.044   5.683   5.726
 8193SOL    HW125478   6.143   5.678   5.717
 8193SOL    HW225479   6.018   5.679   5.822
 8194SOL     OW25480   4.718   0.645   1.203
 8194SOL    HW125481   4.624   0.642   1.171
 8194SOL    HW225482   4.722   0.691   1.292
 8195SOL     OW25483   6.572   0.212   3.354
 8195SOL    HW125484   6.648   0.275   3.339
 8195SOL    HW225485   6.595   0.149   3.428
 8196SOL     OW25486   4.331   5.961   0.300
 8196SOL    HW125487   4.268   5.889   0.329
 8196SOL    HW225488   4.279   6.046   0.284
 8197SOL     OW25489   3.783   1.164   0.496
 8197SOL    HW125490   3.751   1.109   0.418
 8197SOL    HW225491   3.882   1.157   0.504
 8198SOL     OW25492   3.492   6.622   2.466
 8198SOL    HW125493   3.394   6.641   2.469
 8198SOL    HW225494   3.528   6.652   2.377
 8199SOL     OW25495   5.831   3.539   5.410
 8199SOL    HW125496   5.809   3.493   5.324
 8199SOL    HW225497   5.779   3.498   5.485
 8200SOL     OW25498   5.609   4.365   1.497
 8200SOL    HW125499   5.534   4.402   1.552
 8200SOL    HW225500   5.663   4.301   1.552
 8201SOL     OW25501   6.237   0.930   5.455
 8201SOL    HW125502   6.328   0.961   5.426
 8201SOL    HW225503   6.193   1.002   5.509
 8202SOL     OW25504   0.761   5.508   3.862
 8202SOL    HW125505   0.777   5.526   3.765
 8202SOL    HW225506   0.663   5.496   3.879
 8203SOL     OW25507   2.864   2.223   6.882
 8203SOL    HW125508   2.920   2.170   6.946
 8203SOL    HW225509   2.909   2.225   6.793
 8204SOL     OW25510   3.815   4.706   6.925
 8204SOL    HW125511   3.889   4.745   6.981
 8204SOL    HW225512   3.740   4.678   6.983
 8205SOL     OW25513   0.308   4.460   0.224
 8205SOL    HW125514   0.337   4.493   0.134
 8205SOL    HW225515   0.272   4.536   0.277
 8206SOL     OW25516   4.626   2.089   0.080
 8206SOL    HW125517   4.655   2.124   0.169
 8206SOL    HW225518   4.646   1.991   0.075
 8207SOL     OW25519   2.853   3.588   4.512
 8207SOL    HW125520   2.851   3.576   4.413
 8207SOL    HW225521   2.854   3.685   4.535
 8208SOL     OW25522   0.962   0.610   1.418
 8208SOL    HW125523   0.978   0.700   1.459
 8208SOL    HW225524   0.865   0.601   1.395
 8209SOL     OW25525   6.792   1.446   4.713
 8209SOL    HW125526   6.745   1.361   4.690
 8209SOL    HW225527   6.862   1.427   4.782
 8210SOL     OW25528   2.626   1.914   0.590
 8210SOL    HW125529   2.570   1.974   0.533
 8210SOL    HW225530   2.631   1.823   0.549
 8211SOL     OW25531   3.909   4.367   1.436
 8211SOL    HW125532   3.811   4.375   1.451
 8211SOL    HW225533   3.949   4.458   1.430
 8212SOL     OW25534   1.491   2.601   2.805
 8212SOL    HW125535   1.520   2.557   2.889
 8212SOL    HW225536   1.571   2.622   2.749
 8213SOL     OW25537   6.838   4.380   1.433
 8213SOL    HW125538   6.872   4.460   1.484
 8213SOL    HW225539   6.764   4.337   1.485
 8214SOL     OW25540   5.980   5.128   3.873
 8214SOL    HW125541   6.065   5.175   3.848
 8214SOL    HW225542   5.907   5.196   3.882
 8215SOL     OW25543   3.594   5.856   5.658
 8215SOL    HW125544   3.552   5.850   5.749
 8215SOL    HW225545   3.682   5.810   5.659
 8216SOL     OW25546   5.651   5.272   4.040
 8216SOL    HW125547   5.662   5.181   4.080
 8216SOL    HW225548   5.623   5.336   4.111
 8217SOL     OW25549   1.453   4.795   0.164
 8217SOL    HW125550   1.518   4.831   0.231
 8217SOL    HW225551   1.412   4.871   0.113
 8218SOL     OW25552   0.033   6.786   6.454
 8218SOL    HW125553   0.069   6.877   6.431
 8218SOL    HW225554   6.970   6.795   6.508
 8219SOL     OW25555   4.306   2.436   0.774
 8219SOL    HW125556   4.238   2.477   0.835
 8219SOL    HW225557   4.309   2.337   0.791
 8220SOL     OW25558   3.671   2.934   3.369
 8220SOL    HW125559   3.697   2.957   3.276
 8220SOL    HW225560   3.573   2.950   3.381
 8221SOL     OW25561   5.435   6.288   4.261
 8221SOL    HW125562   5.381   6.340   4.195
 8221SOL    HW225563   5.531   6.316   4.255
 8222SOL     OW25564   5.685   1.393   1.903
 8222SOL    HW125565   5.680   1.294   1.921
 8222SOL    HW225566   5.703   1.441   1.988
 8223SOL     OW25567   1.282   4.823   5.916
 8223SOL    HW125568   1.302   4.802   5.820
 8223SOL    HW225569   1.206   4.887   5.921
 8224SOL     OW25570   6.542   0.759   2.702
 8224SOL    HW125571   6.533   0.687   2.771
 8224SOL    HW225572   6.527   0.848   2.745
 8225SOL     OW25573   3.459   1.016   0.088
 8225SOL    HW125574   3.508   0.928   0.086
 8225SOL    HW225575   3.364   1.002   0.060
 8226SOL     OW25576   4.386   7.009   1.451
 8226SOL    HW125577   4.414   6.922   1.412
 8226SOL    HW225578   4.287   7.019   1.444
 8227SOL     OW25579   6.372   2.146   3.232
 8227SOL    HW125580   6.399   2.239   3.256
 8227SOL    HW225581   6.326   2.104   3.310
 8228SOL     OW25582   6.518   2.339   5.472
 8228SOL    HW125583   6.555   2.260   5.423
 8228SOL    HW225584   6.502   2.314   5.567
 8229SOL     OW25585   4.014   3.397   0.856
 8229SOL    HW125586   3.941   3.419   0.791
 8229SOL    HW225587   4.016   3.467   0.928
 8230SOL     OW25588   4.548   0.221   5.342
 8230SOL    HW125589   4.625   0.159   5.354
 8230SOL    HW225590   4.514   0.249   5.431
 8231SOL     OW25591   3.805   5.169   0.685
 8231SOL    HW125592   3.821   5.106   0.609
 8231SOL    HW225593   3.720   5.220   0.669
 8232SOL     OW25594   4.898   1.497   1.814
 8232SOL    HW125595   4.991   1.529   1.830
 8232SOL    HW225596   4.879   1.418   1.873
 8233SOL     OW25597   1.333   6.286   6.745
 8233SOL    HW125598   1.403   6.216   6.754
 8233SOL    HW225599   1.307   6.320   6.835
 8234SOL     OW25600   2.996   4.618   6.868
 8234SOL    HW125601   3.069   4.551   6.851
 8234SOL    HW225602   2.917   4.571   6.908
 8235SOL     OW25603   0.841   3.787   6.912
 8235SOL    HW125604   0.781   3.806   6.834
 8235SOL    HW225605   0.914   3.725   6.883
 8236SOL     OW25606   0.465   4.856   0.524
 8236SOL    HW125607   0.459   4.887   0.619
 8236SOL    HW225608   0.381   4.881   0.476
 8237SOL     OW25609   4.113   6.710   4.396
 8237SOL    HW125610   4.153   6.668   4.314
 8237SOL    HW225611   4.137   6.807   4.398
 8238SOL     OW25612   0.857   5.277   6.528
 8238SOL    HW125613   0.909   5.362   6.527
 8238SOL    HW225614   0.778   5.287   6.588
 8239SOL     OW25615   5.883   1.248   5.821
 8239SOL    HW125616   5.784   1.239   5.821
 8239SOL    HW225617   5.919   1.222   5.911
 8240SOL     OW25618   3.593   4.163   2.489
 8240SOL    HW125619   3.683   4.128   2.515
 8240SOL    HW225620   3.547   4.201   2.570
 8241SOL     OW25621   4.186   0.223   6.405
 8241SOL    HW125622   4.102   0.192   6.361
 8241SOL    HW225623   4.175   0.318   6.433
 8242SOL     OW25624   0.231   4.683   5.893
 8242SOL    HW125625   0.258   4.778   5.876
 8242SOL    HW225626   0.276   4.623   5.827
 8243SOL     OW25627   0.866   2.494   0.516
 8243SOL    HW125628   0.805   2.552   0.570
 8243SOL    HW225629   0.838   2.496   0.420
 8244SOL     OW25630   0.287   0.655   4.883
 8244SOL    HW125631   0.233   0.682   4.963
 8244SOL    HW225632   0.228   0.652   4.802
 8245SOL     OW25633   4.357   1.957   2.558
 8245SOL    HW125634   4.445   1.933   2.517
 8245SOL    HW225635   4.313   1.874   2.592
 8246SOL     OW25636   1.152   2.538   5.758
 8246SOL    HW125637   1.082   2.609   5.771
 8246SOL    HW225638   1.179   2.536   5.661
 8247SOL     OW25639   1.245   6.675   2.576
 8247SOL    HW125640   1.203   6.720   2.655
 8247SOL    HW225641   1.327   6.725   2.549
 8248SOL     OW25642   6.014   4.997   4.870
 8248SOL    HW125643   6.065   5.075   4.833
 8248SOL    HW225644   6.078   4.923   4.891
 8249SOL     OW25645   1.826   2.996   5.064
 8249SOL    HW125646   1.825   2.905   5.023
 8249SOL    HW225647   1.872   2.992   5.153
 8250SOL     OW25648   3.279   3.896   1.772
 8250SOL    HW125649   3.295   3.838   1.692
 8250SOL    HW225650   3.285   3.841   1.855
 8251SOL     OW25651   5.567   3.848   3.811
 8251SOL    HW125652   5.566   3.823   3.908
 8251SOL    HW225653   5.479   3.825   3.769
 8252SOL     OW25654   2.621   1.655   5.577
 8252SOL    HW125655   2.591   1.723   5.510
 8252SOL    HW225656   2.543   1.622   5.629
 8253SOL     OW25657   4.092   4.821   5.408
 8253SOL    HW125658   4.023   4.758   5.371
 8253SOL    HW225659   4.047   4.901   5.447
 8254SOL     OW25660   4.730   4.659   5.043
 8254SOL    HW125661   4.792   4.656   5.122
 8254SOL    HW225662   4.782   4.686   4.961
 8255SOL     OW25663   2.057   0.049   4.951
 8255SOL    HW125664   2.094   0.140   4.931
 8255SOL    HW225665   1.966   0.058   4.991
 8256SOL     OW25666   6.712   6.655   2.139
 8256SOL    HW125667   6.747   6.718   2.207
 8256SOL    HW225668   6.627   6.691   2.100
 8257SOL     OW25669   5.962   3.751   3.375
 8257SOL    HW125670   6.011   3.819   3.429
 8257SOL    HW225671   5.889   3.710   3.430
 8258SOL     OW25672   5.804   2.154   0.326
 8258SOL    HW125673   5.736   2.149   0.253
 8258SOL    HW225674   5.849   2.243   0.323
 8259SOL     OW25675   3.610   1.880   3.429
 8259SOL    HW125676   3.665   1.916   3.353
 8259SOL    HW225677   3.660   1.806   3.473
 8260SOL     OW25678   2.539   6.483   1.516
 8260SOL    HW125679   2.553   6.510   1.421
 8260SOL    HW225680   2.582   6.394   1.532
 8261SOL     OW25681   5.744   0.731   2.184
 8261SOL    HW125682   5.737   0.643   2.231
 8261SOL    HW225683   5.829   0.776   2.211
 8262SOL     OW25684   0.581   3.074   0.193
 8262SOL    HW125685   0.547   3.164   0.219
 8262SOL    HW225686   0.540   3.046   0.106
 8263SOL     OW25687   0.943   2.225   6.507
 8263SOL    HW125688   0.955   2.324   6.507
 8263SOL    HW225689   1.031   2.180   6.519
 8264SOL     OW25690   2.921   6.500   2.759
 8264SOL    HW125691   2.983   6.541   2.826
 8264SOL    HW225692   2.829   6.498   2.796
 8265SOL     OW25693   0.157   0.078   0.830
 8265SOL    HW125694   0.175   7.013   0.878
 8265SOL    HW225695   0.236   0.139   0.839
 8266SOL     OW25696   2.288   1.003   3.415
 8266SOL    HW125697   2.320   1.030   3.324
 8266SOL    HW225698   2.258   1.084   3.465
 8267SOL     OW25699   1.355   2.982   1.607
 8267SOL    HW125700   1.364   2.885   1.631
 8267SOL    HW225701   1.435   3.032   1.640
 8268SOL     OW25702   2.119   6.389   5.855
 8268SOL    HW125703   2.021   6.375   5.843
 8268SOL    HW225704   2.167   6.301   5.845
 8269SOL     OW25705   4.230   1.679   2.083
 8269SOL    HW125706   4.190   1.767   2.109
 8269SOL    HW225707   4.319   1.669   2.127
 8270SOL     OW25708   2.989   6.962   5.612
 8270SOL    HW125709   2.940   6.879   5.635
 8270SOL    HW225710   3.007   6.964   5.513
 8271SOL     OW25711   0.318   0.629   3.025
 8271SOL    HW125712   0.321   0.621   2.925
 8271SOL    HW225713   0.226   0.654   3.054
 8272SOL     OW25714   5.386   2.058   2.195
 8272SOL    HW125715   5.404   1.963   2.169
 8272SOL    HW225716   5.339   2.061   2.283
 8273SOL     OW25717   3.218   0.903   7.017
 8273SOL    HW125718   3.168   0.871   6.936
 8273SOL    HW225719   3.260   0.825   0.043
 8274SOL     OW25720   5.287   5.084   4.199
 8274SOL    HW125721   5.248   5.141   4.126
 8274SOL    HW225722   5.305   5.140   4.280
 8275SOL     OW25723   5.310   1.300   5.483
 8275SOL    HW125724   5.307   1.397   5.507
 8275SOL    HW225725   5.283   1.245   5.562
 8276SOL     OW25726   0.425   2.214   3.486
 8276SOL    HW125727   0.369   2.131   3.494
 8276SOL    HW225728   0.514   2.197   3.528
 8277SOL     OW25729   0.025   6.420   0.000
 8277SOL    HW125730   0.108   6.409   6.966
 8277SOL    HW225731   0.027   6.355   0.077
 8278SOL     OW25732   2.932   2.222   5.510
 8278SOL    HW125733   2.871   2.265   5.444
 8278SOL    HW225734   3.026   2.255   5.496
 8279SOL     OW25735   1.539   6.530   4.599
 8279SOL    HW125736   1.447   6.500   4.624
 8279SOL    HW225737   1.568   6.482   4.516
 8280SOL     OW25738   2.352   3.819   0.980
 8280SOL    HW125739   2.367   3.910   1.020
 8280SOL    HW225740   2.437   3.767   0.982
 8281SOL     OW25741   3.164   4.445   1.691
 8281SOL    HW125742   3.178   4.348   1.675
 8281SOL    HW225743   3.078   4.459   1.741
 8282SOL     OW25744   4.303   3.592   6.905
 8282SOL    HW125745   4.375   3.632   6.848
 8282SOL    HW225746   4.215   3.604   6.861
 8283SOL     OW25747   1.601   5.366   6.098
 8283SOL    HW125748   1.566   5.454   6.129
 8283SOL    HW225749   1.701   5.366   6.103
 8284SOL     OW25750   0.945   3.775   1.019
 8284SOL    HW125751   1.015   3.759   1.088
 8284SOL    HW225752   0.949   3.870   0.988
 8285SOL     OW25753   3.151   4.062   4.571
 8285SOL    HW125754   3.220   4.129   4.544
 8285SOL    HW225755   3.163   4.038   4.667
 8286SOL     OW25756   5.983   2.231   6.209
 8286SOL    HW125757   5.955   2.285   6.288
 8286SOL    HW225758   6.079   2.249   6.188
 8287SOL     OW25759   2.279   5.225   4.489
 8287SOL    HW125760   2.349   5.169   4.533
 8287SOL    HW225761   2.220   5.265   4.558
 8288SOL     OW25762   3.222   1.976   1.590
 8288SOL    HW125763   3.221   2.075   1.582
 8288SOL    HW225764   3.251   1.949   1.682
 8289SOL     OW25765   0.486   5.301   0.919
 8289SOL    HW125766   0.462   5.387   0.873
 8289SOL    HW225767   0.548   5.249   0.861
 8290SOL     OW25768   5.838   1.149   1.499
 8290SOL    HW125769   5.740   1.144   1.518
 8290SOL    HW225770   5.856   1.221   1.433
 8291SOL     OW25771   4.984   6.625   5.335
 8291SOL    HW125772   4.913   6.557   5.323
 8291SOL    HW225773   5.073   6.586   5.310
 8292SOL     OW25774   2.670   6.565   6.812
 8292SOL    HW125775   2.609   6.612   6.749
 8292SOL    HW225776   2.761   6.558   6.771
 8293SOL     OW25777   3.318   6.072   0.600
 8293SOL    HW125778   3.378   6.145   0.569
 8293SOL    HW225779   3.237   6.111   0.644
 8294SOL     OW25780   5.258   3.743   5.368
 8294SOL    HW125781   5.199   3.781   5.298
 8294SOL    HW225782   5.288   3.816   5.430
 8295SOL     OW25783   5.174   5.312   1.858
 8295SOL    HW125784   5.161   5.238   1.793
 8295SOL    HW225785   5.257   5.295   1.913
 8296SOL     OW25786   1.167   4.928   6.681
 8296SOL    HW125787   1.112   4.998   6.636
 8296SOL    HW225788   1.115   4.842   6.685
 8297SOL     OW25789   6.568   2.881   2.327
 8297SOL    HW125790   6.612   2.795   2.303
 8297SOL    HW225791   6.470   2.867   2.340
 8298SOL     OW25792   6.787   1.347   1.558
 8298SOL    HW125793   6.793   1.423   1.493
 8298SOL    HW225794   6.693   1.313   1.562
 8299SOL     OW25795   6.566   2.902   1.313
 8299SOL    HW125796   6.517   2.948   1.387
 8299SOL    HW225797   6.640   2.961   1.279
 8300SOL     OW25798   0.354   5.953   4.948
 8300SOL    HW125799   0.437   5.948   4.893
 8300SOL    HW225800   0.370   5.910   5.037
 8301SOL     OW25801   3.784   1.647   1.293
 8301SOL    HW125802   3.710   1.704   1.330
 8301SOL    HW225803   3.860   1.646   1.357
 8302SOL     OW25804   5.991   6.702   6.754
 8302SOL    HW125805   5.945   6.709   6.665
 8302SOL    HW225806   5.973   6.612   6.793
 8303SOL     OW25807   6.762   0.728   3.976
 8303SOL    HW125808   6.765   0.683   3.886
 8303SOL    HW225809   6.798   0.666   4.045
 8304SOL     OW25810   0.183   3.367   0.597
 8304SOL    HW125811   0.168   3.353   0.499
 8304SOL    HW225812   0.095   3.360   0.645
 8305SOL     OW25813   4.970   5.015   4.389
 8305SOL    HW125814   4.990   4.919   4.370
 8305SOL    HW225815   4.939   5.025   4.483
 8306SOL     OW25816   6.658   2.688   6.064
 8306SOL    HW125817   6.664   2.784   6.092
 8306SOL    HW225818   6.567   2.670   6.026
 8307SOL     OW25819   3.552   5.261   1.693
 8307SOL    HW125820   3.522   5.166   1.706
 8307SOL    HW225821   3.490   5.308   1.631
 8308SOL     OW25822   3.528   5.698   1.350
 8308SOL    HW125823   3.541   5.788   1.391
 8308SOL    HW225824   3.461   5.704   1.276
 8309SOL     OW25825   6.866   4.912   4.196
 8309SOL    HW125826   6.938   4.912   4.126
 8309SOL    HW225827   6.892   4.848   4.269
 8310SOL     OW25828   6.952   4.763   0.636
 8310SOL    HW125829   0.008   4.813   0.678
 8310SOL    HW225830   6.889   4.828   0.593
 8311SOL     OW25831   0.776   1.466   4.309
 8311SOL    HW125832   0.822   1.445   4.395
 8311SOL    HW225833   0.705   1.397   4.293
 8312SOL     OW25834   5.177   0.531   7.013
 8312SOL    HW125835   5.079   0.532   0.014
 8312SOL    HW225836   5.202   0.613   6.962
 8313SOL     OW25837   5.015   0.235   1.075
 8313SOL    HW125838   5.109   0.202   1.062
 8313SOL    HW225839   4.951   0.170   1.034
 8314SOL     OW25840   4.830   0.560   0.636
 8314SOL    HW125841   4.894   0.523   0.703
 8314SOL    HW225842   4.804   0.653   0.662
 8315SOL     OW25843   4.237   2.910   1.240
 8315SOL    HW125844   4.208   3.000   1.274
 8315SOL    HW225845   4.264   2.853   1.317
 8316SOL     OW25846   0.757   2.174   1.935
 8316SOL    HW125847   0.748   2.244   2.006
 8316SOL    HW225848   0.852   2.170   1.905
 8317SOL     OW25849   1.905   2.719   2.338
 8317SOL    HW125850   2.003   2.739   2.332
 8317SOL    HW225851   1.891   2.620   2.345
 8318SOL     OW25852   4.490   1.359   4.940
 8318SOL    HW125853   4.430   1.280   4.933
 8318SOL    HW225854   4.570   1.335   4.996
 8319SOL     OW25855   1.940   1.941   0.178
 8319SOL    HW125856   1.953   1.849   0.141
 8319SOL    HW225857   1.864   1.986   0.130
 8320SOL     OW25858   3.202   3.522   1.557
 8320SOL    HW125859   3.185   3.475   1.471
 8320SOL    HW225860   3.143   3.603   1.563
 8321SOL     OW25861   6.704   0.377   6.477
 8321SOL    HW125862   6.703   0.315   6.398
 8321SOL    HW225863   6.789   0.365   6.528
 8322SOL     OW25864   6.610   6.909   0.791
 8322SOL    HW125865   6.603   6.986   0.728
 8322SOL    HW225866   6.651   6.831   0.745
 8323SOL     OW25867   5.375   5.492   2.510
 8323SOL    HW125868   5.285   5.461   2.537
 8323SOL    HW225869   5.443   5.420   2.527
 8324SOL     OW25870   5.350   6.865   1.377
 8324SOL    HW125871   5.276   6.872   1.310
 8324SOL    HW225872   5.437   6.858   1.329
 8325SOL     OW25873   2.852   3.654   5.672
 8325SOL    HW125874   2.894   3.564   5.667
 8325SOL    HW225875   2.923   3.725   5.671
 8326SOL     OW25876   5.126   3.648   5.601
 8326SOL    HW125877   5.187   3.662   5.522
 8326SOL    HW225878   5.031   3.646   5.569
 8327SOL     OW25879   6.714   1.350   6.378
 8327SOL    HW125880   6.618   1.321   6.375
 8327SOL    HW225881   6.760   1.307   6.455
 8328SOL     OW25882   2.784   6.015   5.768
 8328SOL    HW125883   2.710   6.028   5.702
 8328SOL    HW225884   2.816   6.104   5.801
 8329SOL     OW25885   0.803   2.888   6.171
 8329SOL    HW125886   0.738   2.938   6.227
 8329SOL    HW225887   0.894   2.930   6.179
 8330SOL     OW25888   2.867   1.024   0.289
 8330SOL    HW125889   2.915   1.056   0.207
 8330SOL    HW225890   2.777   0.989   0.263
 8331SOL     OW25891   3.432   1.308   1.555
 8331SOL    HW125892   3.442   1.331   1.651
 8331SOL    HW225893   3.381   1.382   1.509
 8332SOL     OW25894   5.136   5.343   2.575
 8332SOL    HW125895   5.158   5.288   2.656
 8332SOL    HW225896   5.071   5.293   2.518
 8333SOL     OW25897   0.072   6.314   6.303
 8333SOL    HW125898   0.131   6.395   6.293
 8333SOL    HW225899   6.996   6.341   6.293
 8334SOL     OW25900   3.808   1.265   3.666
 8334SOL    HW125901   3.740   1.298   3.732
 8334SOL    HW225902   3.888   1.325   3.669
 8335SOL     OW25903   6.081   6.278   6.815
 8335SOL    HW125904   6.149   6.246   6.749
 8335SOL    HW225905   6.125   6.295   6.903
 8336SOL     OW25906   7.013   5.799   3.217
 8336SOL    HW125907   0.012   5.720   3.158
 8336SOL    HW225908   6.989   5.878   3.160
 8337SOL     OW25909   1.832   6.334   2.412
 8337SOL    HW125910   1.829   6.352   2.510
 8337SOL    HW225911   1.908   6.271   2.392
 8338SOL     OW25912   2.948   5.231   2.023
 8338SOL    HW125913   3.047   5.221   2.008
 8338SOL    HW225914   2.920   5.324   2.001
 8339SOL     OW25915   5.693   0.532   1.131
 8339SOL    HW125916   5.759   0.474   1.178
 8339SOL    HW225917   5.737   0.578   1.054
 8340SOL     OW25918   5.101   2.876   1.728
 8340SOL    HW125919   5.080   2.849   1.634
 8340SOL    HW225920   5.020   2.863   1.786
 8341SOL     OW25921   2.630   6.442   0.193
 8341SOL    HW125922   2.650   6.404   0.103
 8341SOL    HW225923   2.688   6.522   0.209
 8342SOL     OW25924   4.740   6.495   1.895
 8342SOL    HW125925   4.642   6.507   1.883
 8342SOL    HW225926   4.774   6.562   1.961
 8343SOL     OW25927   1.307   5.714   5.570
 8343SOL    HW125928   1.274   5.748   5.483
 8343SOL    HW225929   1.314   5.614   5.567
 8344SOL     OW25930   4.632   6.516   5.008
 8344SOL    HW125931   4.557   6.453   4.985
 8344SOL    HW225932   4.712   6.494   4.951
 8345SOL     OW25933   4.272   1.710   3.077
 8345SOL    HW125934   4.362   1.674   3.102
 8345SOL    HW225935   4.215   1.635   3.043
 8346SOL     OW25936   3.129   4.772   0.762
 8346SOL    HW125937   3.129   4.847   0.828
 8346SOL    HW225938   3.122   4.809   0.669
 8347SOL     OW25939   3.604   5.319   4.669
 8347SOL    HW125940   3.542   5.299   4.745
 8347SOL    HW225941   3.566   5.282   4.584
 8348SOL     OW25942   2.331   0.385   2.205
 8348SOL    HW125943   2.349   0.293   2.171
 8348SOL    HW225944   2.347   0.451   2.132
 8349SOL     OW25945   5.709   6.306   1.836
 8349SOL    HW125946   5.681   6.375   1.903
 8349SOL    HW225947   5.649   6.226   1.844
 8350SOL     OW25948   4.779   0.100   5.422
 8350SOL    HW125949   4.740   0.134   5.508
 8350SOL    HW225950   4.804   0.004   5.433
 8351SOL     OW25951   5.069   4.556   4.554
 8351SOL    HW125952   5.134   4.572   4.629
 8351SOL    HW225953   5.065   4.458   4.535
 8352SOL     OW25954   0.730   0.046   3.039
 8352SOL    HW125955   0.763   0.140   3.039
 8352SOL    HW225956   0.636   0.043   3.004
 8353SOL     OW25957   0.087   3.169   1.440
 8353SOL    HW125958   0.019   3.213   1.499
 8353SOL    HW225959   0.080   3.206   1.348
 8354SOL     OW25960   3.779   6.651   6.289
 8354SOL    HW125961   3.811   6.618   6.378
 8354SOL    HW225962   3.685   6.621   6.274
 8355SOL     OW25963   3.084   0.862   6.755
 8355SOL    HW125964   3.144   0.941   6.739
 8355SOL    HW225965   2.989   0.889   6.741
 8356SOL     OW25966   1.056   6.027   1.225
 8356SOL    HW125967   1.132   6.092   1.238
 8356SOL    HW225968   0.975   6.061   1.273
 8357SOL     OW25969   4.081   0.311   4.740
 8357SOL    HW125970   4.152   0.252   4.701
 8357SOL    HW225971   4.044   0.369   4.668
 8358SOL     OW25972   1.084   4.178   5.837
 8358SOL    HW125973   1.078   4.092   5.785
 8358SOL    HW225974   1.132   4.246   5.782
 8359SOL     OW25975   3.152   1.128   5.181
 8359SOL    HW125976   3.182   1.033   5.179
 8359SOL    HW225977   3.138   1.160   5.087
 8360SOL     OW25978   3.165   5.788   1.678
 8360SOL    HW125979   3.253   5.821   1.644
 8360SOL    HW225980   3.094   5.805   1.609
 8361SOL     OW25981   3.281   0.271   2.441
 8361SOL    HW125982   3.339   0.337   2.393
 8361SOL    HW225983   3.328   0.241   2.524
 8362SOL     OW25984   3.550   2.182   0.626
 8362SOL    HW125985   3.483   2.246   0.664
 8362SOL    HW225986   3.529   2.089   0.655
 8363SOL     OW25987   0.419   2.896   6.611
 8363SOL    HW125988   0.440   2.892   6.513
 8363SOL    HW225989   0.322   2.876   6.625
 8364SOL     OW25990   0.848   3.291   2.502
 8364SOL    HW125991   0.945   3.308   2.487
 8364SOL    HW225992   0.819   3.333   2.588
 8365SOL     OW25993   2.263   4.175   1.728
 8365SOL    HW125994   2.294   4.144   1.818
 8365SOL    HW225995   2.188   4.240   1.739
 8366SOL     OW25996   2.365   6.064   2.147
 8366SOL    HW125997   2.389   6.145   2.093
 8366SOL    HW225998   2.289   6.016   2.103
 8367SOL     OW25999   4.098   6.569   3.720
 8367SOL    HW126000   4.018   6.580   3.778
 8367SOL    HW226001   4.180   6.563   3.777
 8368SOL     OW26002   2.283   6.502   6.769
 8368SOL    HW126003   2.256   6.544   6.856
 8368SOL    HW226004   2.252   6.407   6.766
 8369SOL     OW26005   2.502   6.948   6.628
 8369SOL    HW126006   2.496   6.849   6.630
 8369SOL    HW226007   2.579   6.976   6.570
 8370SOL     OW26008   2.519   1.846   5.377
 8370SOL    HW126009   2.561   1.934   5.399
 8370SOL    HW226010   2.421   1.850   5.397
 8371SOL     OW26011   2.189   4.105   0.897
 8371SOL    HW126012   2.266   4.096   0.960
 8371SOL    HW226013   2.106   4.124   0.950
 8372SOL     OW26014   0.781   5.466   2.448
 8372SOL    HW126015   0.782   5.566   2.443
 8372SOL    HW226016   0.705   5.436   2.506
 8373SOL     OW26017   1.323   6.934   3.745
 8373SOL    HW126018   1.270   6.951   3.828
 8373SOL    HW226019   1.343   6.836   3.739
 8374SOL     OW26020   6.809   1.019   5.391
 8374SOL    HW126021   6.811   1.000   5.292
 8374SOL    HW226022   6.894   1.063   5.418
 8375SOL     OW26023   4.025   6.513   5.010
 8375SOL    HW126024   4.058   6.587   4.951
 8375SOL    HW226025   4.092   6.439   5.010
 8376SOL     OW26026   1.716   0.478   4.132
 8376SOL    HW126027   1.759   0.541   4.068
 8376SOL    HW226028   1.633   0.439   4.092
 8377SOL     OW26029   5.167   6.264   1.447
 8377SOL    HW126030   5.120   6.294   1.364
 8377SOL    HW226031   5.135   6.172   1.472
 8378SOL     OW26032   4.355   4.609   2.630
 8378SOL    HW126033   4.427   4.549   2.596
 8378SOL    HW226034   4.354   4.606   2.730
 8379SOL     OW26035   5.933   2.341   1.207
 8379SOL    HW126036   5.987   2.300   1.281
 8379SOL    HW226037   5.873   2.271   1.168
 8380SOL     OW26038   6.880   0.443   2.153
 8380SOL    HW126039   6.895   0.542   2.156
 8380SOL    HW226040   6.820   0.417   2.229
 8381SOL     OW26041   0.173   2.878   4.980
 8381SOL    HW126042   0.144   2.891   5.075
 8381SOL    HW226043   0.097   2.896   4.919
 8382SOL     OW26044   2.756   0.907   2.671
 8382SOL    HW126045   2.737   0.998   2.707
 8382SOL    HW226046   2.676   0.874   2.620
 8383SOL     OW26047   2.213   0.004   5.577
 8383SOL    HW126048   2.285   0.065   5.609
 8383SOL    HW226049   2.246   6.930   5.575
 8384SOL     OW26050   0.149   0.727   0.700
 8384SOL    HW126051   0.104   0.809   0.664
 8384SOL    HW226052   0.105   0.701   0.786
 8385SOL     OW26053   6.620   1.615   1.510
 8385SOL    HW126054   6.690   1.662   1.457
 8385SOL    HW226055   6.596   1.669   1.591
 8386SOL     OW26056   1.316   4.668   2.057
 8386SOL    HW126057   1.268   4.605   2.119
 8386SOL    HW226058   1.274   4.662   1.966
 8387SOL     OW26059   1.660   1.136   2.401
 8387SOL    HW126060   1.663   1.079   2.483
 8387SOL    HW226061   1.606   1.089   2.330
 8388SOL     OW26062   2.538   6.311   0.417
 8388SOL    HW126063   2.553   6.363   0.333
 8388SOL    HW226064   2.502   6.372   0.488
 8389SOL     OW26065   6.853   3.045   2.860
 8389SOL    HW126066   6.828   3.094   2.943
 8389SOL    HW226067   6.789   3.070   2.786
 8390SOL     OW26068   3.799   1.306   6.028
 8390SOL    HW126069   3.881   1.249   6.035
 8390SOL    HW226070   3.777   1.344   6.118
 8391SOL     OW26071   6.531   4.791   0.882
 8391SOL    HW126072   6.619   4.745   0.878
 8391SOL    HW226073   6.481   4.761   0.963
 8392SOL     OW26074   6.336   3.378   4.484
 8392SOL    HW126075   6.277   3.297   4.483
 8392SOL    HW226076   6.318   3.433   4.402
 8393SOL     OW26077   0.109   0.005   3.003
 8393SOL    HW126078   0.126   6.927   2.997
 8393SOL    HW226079   0.050   0.024   3.082
 8394SOL     OW26080   6.261   2.586   0.939
 8394SOL    HW126081   6.235   2.681   0.921
 8394SOL    HW226082   6.178   2.530   0.941
 8395SOL     OW26083   3.138   0.198   5.642
 8395SOL    HW126084   3.078   0.278   5.640
 8395SOL    HW226085   3.083   0.115   5.637
 8396SOL     OW26086   4.678   5.482   3.672
 8396SOL    HW126087   4.651   5.386   3.675
 8396SOL    HW226088   4.776   5.491   3.686
 8397SOL     OW26089   1.468   0.567   2.496
 8397SOL    HW126090   1.531   0.639   2.469
 8397SOL    HW226091   1.410   0.542   2.418
 8398SOL     OW26092   3.927   2.258   6.020
 8398SOL    HW126093   4.023   2.230   6.012
 8398SOL    HW226094   3.921   2.357   6.026
 8399SOL     OW26095   5.734   7.017   6.732
 8399SOL    HW126096   5.721   0.011   6.830
 8399SOL    HW226097   5.823   0.033   6.704
 8400SOL     OW26098   1.903   0.919   3.829
 8400SOL    HW126099   1.849   0.994   3.870
 8400SOL    HW226100   1.898   0.925   3.730
 8401SOL     OW26101   2.619   1.162   5.442
 8401SOL    HW126102   2.658   1.103   5.372
 8401SOL    HW226103   2.599   1.108   5.524
 8402SOL     OW26104   5.033   1.785   6.565
 8402SOL    HW126105   5.065   1.769   6.471
 8402SOL    HW226106   5.075   1.716   6.625
 8403SOL     OW26107   6.916   3.469   4.024
 8403SOL    HW126108   6.947   3.375   4.033
 8403SOL    HW226109   6.860   3.478   3.942
 8404SOL     OW26110   3.837   6.656   5.707
 8404SOL    HW126111   3.898   6.732   5.728
 8404SOL    HW226112   3.754   6.664   5.762
 8405SOL     OW26113   2.155   1.348   5.675
 8405SOL    HW126114   2.228   1.317   5.613
 8405SOL    HW226115   2.166   1.304   5.764
 8406SOL     OW26116   4.257   0.466   0.091
 8406SOL    HW126117   4.316   0.451   0.169
 8406SOL    HW226118   4.249   0.564   0.072
 8407SOL     OW26119   3.665   6.476   3.227
 8407SOL    HW126120   3.633   6.382   3.234
 8407SOL    HW226121   3.664   6.519   3.317
 8408SOL     OW26122   5.395   4.247   1.113
 8408SOL    HW126123   5.371   4.344   1.116
 8408SOL    HW226124   5.452   4.225   1.192
 8409SOL     OW26125   4.691   1.344   3.430
 8409SOL    HW126126   4.780   1.374   3.397
 8409SOL    HW226127   4.627   1.421   3.429
 8410SOL     OW26128   5.788   0.843   1.816
 8410SOL    HW126129   5.726   0.846   1.894
 8410SOL    HW226130   5.738   0.812   1.735
 8411SOL     OW26131   0.762   5.216   0.141
 8411SOL    HW126132   0.789   5.293   0.199
 8411SOL    HW226133   0.690   5.163   0.187
 8412SOL     OW26134   3.437   2.666   0.976
 8412SOL    HW126135   3.505   2.660   1.049
 8412SOL    HW226136   3.400   2.575   0.958
 8413SOL     OW26137   4.968   5.782   6.718
 8413SOL    HW126138   4.884   5.728   6.714
 8413SOL    HW226139   4.985   5.809   6.813
 8414SOL     OW26140   3.346   6.989   3.731
 8414SOL    HW126141   3.339   6.903   3.781
 8414SOL    HW226142   3.321   6.974   3.636
 8415SOL     OW26143   0.540   5.815   3.973
 8415SOL    HW126144   0.556   5.753   3.896
 8415SOL    HW226145   0.597   5.788   4.050
 8416SOL     OW26146   6.190   2.481   3.062
 8416SOL    HW126147   6.192   2.400   3.122
 8416SOL    HW226148   6.250   2.551   3.100
 8417SOL     OW26149   0.757   3.168   5.744
 8417SOL    HW126150   0.673   3.191   5.793
 8417SOL    HW226151   0.818   3.247   5.743
 8418SOL     OW26152   6.199   5.595   1.482
 8418SOL    HW126153   6.208   5.673   1.420
 8418SOL    HW226154   6.146   5.523   1.437
 8419SOL     OW26155   5.797   0.311   1.875
 8419SOL    HW126156   5.706   0.311   1.834
 8419SOL    HW226157   5.862   0.269   1.812
 8420SOL     OW26158   4.148   0.351   0.903
 8420SOL    HW126159   4.189   0.302   0.826
 8420SOL    HW226160   4.049   0.335   0.903
 8421SOL     OW26161   3.081   5.782   0.008
 8421SOL    HW126162   3.119   5.855   6.971
 8421SOL    HW226163   3.101   5.694   6.986
 8422SOL     OW26164   4.401   1.342   2.023
 8422SOL    HW126165   4.431   1.253   1.989
 8422SOL    HW226166   4.455   1.415   1.981
 8423SOL     OW26167   3.216   4.980   5.853
 8423SOL    HW126168   3.193   5.032   5.771
 8423SOL    HW226169   3.198   5.036   5.934
 8424SOL     OW26170   1.744   2.368   2.638
 8424SOL    HW126171   1.667   2.376   2.701
 8424SOL    HW226172   1.814   2.308   2.677
 8425SOL     OW26173   4.184   4.541   6.177
 8425SOL    HW126174   4.282   4.535   6.160
 8425SOL    HW226175   4.157   4.473   6.246
 8426SOL     OW26176   3.885   3.307   2.992
 8426SOL    HW126177   3.792   3.291   3.025
 8426SOL    HW226178   3.950   3.270   3.058
 8427SOL     OW26179   3.926   3.953   3.784
 8427SOL    HW126180   3.886   4.030   3.834
 8427SOL    HW226181   3.904   3.961   3.687
 8428SOL     OW26182   0.597   5.783   1.295
 8428SOL    HW126183   0.529   5.742   1.234
 8428SOL    HW226184   0.582   5.882   1.298
 8429SOL     OW26185   1.639   5.939   5.342
 8429SOL    HW126186   1.598   6.027   5.316
 8429SOL    HW226187   1.672   5.945   5.436
 8430SOL     OW26188   3.714   5.234   4.034
 8430SOL    HW126189   3.655   5.301   4.079
 8430SOL    HW226190   3.657   5.165   3.989
 8431SOL     OW26191   3.667   3.365   0.914
 8431SOL    HW126192   3.730   3.308   0.861
 8431SOL    HW226193   3.641   3.317   0.998
 8432SOL     OW26194   5.894   6.098   5.190
 8432SOL    HW126195   5.918   6.022   5.249
 8432SOL    HW226196   5.848   6.064   5.108
 8433SOL     OW26197   4.466   3.103   0.540
 8433SOL    HW126198   4.451   3.197   0.571
 8433SOL    HW226199   4.428   3.039   0.607
 8434SOL     OW26200   2.795   0.490   4.563
 8434SOL    HW126201   2.762   0.397   4.579
 8434SOL    HW226202   2.824   0.530   4.650
 8435SOL     OW26203   6.082   0.702   1.970
 8435SOL    HW126204   6.150   0.659   1.911
 8435SOL    HW226205   5.999   0.646   1.972
 8436SOL     OW26206   3.038   6.471   3.252
 8436SOL    HW126207   2.979   6.399   3.218
 8436SOL    HW226208   2.986   6.557   3.258
 8437SOL     OW26209   2.284   1.061   3.891
 8437SOL    HW126210   2.357   1.034   3.953
 8437SOL    HW226211   2.250   0.980   3.842
 8438SOL     OW26212   2.183   4.182   2.678
 8438SOL    HW126213   2.271   4.228   2.676
 8438SOL    HW226214   2.181   4.117   2.754
 8439SOL     OW26215   6.216   5.200   2.754
 8439SOL    HW126216   6.301   5.239   2.718
 8439SOL    HW226217   6.198   5.113   2.710
 8440SOL     OW26218   2.464   1.537   3.665
 8440SOL    HW126219   2.480   1.636   3.662
 8440SOL    HW226220   2.461   1.501   3.572
 8441SOL     OW26221   5.386   0.006   0.327
 8441SOL    HW126222   5.349   6.941   0.290
 8441SOL    HW226223   5.374   0.079   0.259
 8442SOL     OW26224   3.520   2.317   5.444
 8442SOL    HW126225   3.471   2.242   5.400
 8442SOL    HW226226   3.617   2.310   5.422
 8443SOL     OW26227   2.447   4.460   3.771
 8443SOL    HW126228   2.484   4.431   3.859
 8443SOL    HW226229   2.468   4.557   3.757
 8444SOL     OW26230   3.041   6.714   4.486
 8444SOL    HW126231   3.129   6.689   4.446
 8444SOL    HW226232   3.002   6.634   4.532
 8445SOL     OW26233   2.723   0.539   1.512
 8445SOL    HW126234   2.813   0.497   1.510
 8445SOL    HW226235   2.655   0.476   1.475
 8446SOL     OW26236   5.404   5.779   6.016
 8446SOL    HW126237   5.448   5.700   6.058
 8446SOL    HW226238   5.410   5.858   6.078
 8447SOL     OW26239   4.424   1.703   2.293
 8447SOL    HW126240   4.433   1.640   2.369
 8447SOL    HW226241   4.449   1.795   2.323
 8448SOL     OW26242   3.718   6.214   4.047
 8448SOL    HW126243   3.648   6.156   4.090
 8448SOL    HW226244   3.674   6.295   4.008
 8449SOL     OW26245   0.125   3.559   3.497
 8449SOL    HW126246   0.047   3.544   3.558
 8449SOL    HW226247   0.187   3.481   3.503
 8450SOL     OW26248   0.784   0.377   1.235
 8450SOL    HW126249   0.876   0.390   1.198
 8450SOL    HW226250   0.752   0.463   1.276
 8451SOL     OW26251   3.494   1.699   0.204
 8451SOL    HW126252   3.435   1.651   0.139
 8451SOL    HW226253   3.445   1.714   0.289
 8452SOL     OW26254   5.992   2.542   3.606
 8452SOL    HW126255   6.000   2.638   3.581
 8452SOL    HW226256   6.082   2.499   3.603
 8453SOL     OW26257   0.249   4.923   0.382
 8453SOL    HW126258   0.195   4.982   0.442
 8453SOL    HW226259   0.224   4.940   0.287
 8454SOL     OW26260   0.056   5.593   1.277
 8454SOL    HW126261   6.983   5.627   1.288
 8454SOL    HW226262   0.105   5.601   1.363
 8455SOL     OW26263   0.093   1.722   1.889
 8455SOL    HW126264   0.132   1.656   1.824
 8455SOL    HW226265   0.155   1.732   1.966
 8456SOL     OW26266   4.383   6.062   3.396
 8456SOL    HW126267   4.457   6.035   3.333
 8456SOL    HW226268   4.297   6.067   3.345
 8457SOL     OW26269   0.228   6.753   4.637
 8457SOL    HW126270   0.218   6.727   4.541
 8457SOL    HW226271   0.142   6.739   4.685
 8458SOL     OW26272   3.036   0.605   0.346
 8458SOL    HW126273   2.962   0.636   0.407
 8458SOL    HW226274   3.000   0.593   0.254
 8459SOL     OW26275   2.884   5.644   2.327
 8459SOL    HW126276   2.904   5.591   2.410
 8459SOL    HW226277   2.959   5.707   2.308
 8460SOL     OW26278   4.560   4.353   5.134
 8460SOL    HW126279   4.480   4.378   5.080
 8460SOL    HW226280   4.530   4.312   5.220
 8461SOL     OW26281   0.742   3.505   4.819
 8461SOL    HW126282   0.801   3.576   4.780
 8461SOL    HW226283   0.673   3.547   4.877
 8462SOL     OW26284   2.181   2.510   6.743
 8462SOL    HW126285   2.106   2.520   6.808
 8462SOL    HW226286   2.178   2.585   6.676
 8463SOL     OW26287   0.182   0.227   1.451
 8463SOL    HW126288   0.194   0.311   1.504
 8463SOL    HW226289   0.267   0.175   1.451
 8464SOL     OW26290   5.651   4.563   4.374
 8464SOL    HW126291   5.629   4.509   4.455
 8464SOL    HW226292   5.739   4.609   4.387
 8465SOL     OW26293   0.981   3.351   0.615
 8465SOL    HW126294   1.077   3.380   0.613
 8465SOL    HW226295   0.967   3.279   0.547
 8466SOL     OW26296   0.656   6.908   4.481
 8466SOL    HW126297   0.599   6.866   4.552
 8466SOL    HW226298   0.607   6.907   4.394
 8467SOL     OW26299   3.249   6.590   0.553
 8467SOL    HW126300   3.151   6.581   0.571
 8467SOL    HW226301   3.300   6.580   0.639
 8468SOL     OW26302   3.706   1.890   0.257
 8468SOL    HW126303   3.645   1.969   0.264
 8468SOL    HW226304   3.653   1.808   0.240
 8469SOL     OW26305   4.005   2.085   6.644
 8469SOL    HW126306   3.963   2.056   6.730
 8469SOL    HW226307   3.939   2.136   6.589
 8470SOL     OW26308   1.253   3.555   0.107
 8470SOL    HW126309   1.173   3.568   0.165
 8470SOL    HW226310   1.336   3.556   0.162
 8471SOL     OW26311   3.063   1.426   2.882
 8471SOL    HW126312   3.119   1.467   2.811
 8471SOL    HW226313   3.102   1.448   2.972
 8472SOL     OW26314   0.431   0.618   4.586
 8472SOL    HW126315   0.474   0.594   4.673
 8472SOL    HW226316   0.503   0.632   4.517
 8473SOL     OW26317   5.939   4.761   6.468
 8473SOL    HW126318   5.905   4.833   6.408
 8473SOL    HW226319   5.927   4.672   6.424
 8474SOL     OW26320   3.213   3.189   2.240
 8474SOL    HW126321   3.119   3.165   2.217
 8474SOL    HW226322   3.224   3.289   2.232
 8475SOL     OW26323   0.529   1.771   3.187
 8475SOL    HW126324   0.526   1.871   3.188
 8475SOL    HW226325   0.539   1.739   3.093
 8476SOL     OW26326   6.431   0.983   1.417
 8476SOL    HW126327   6.364   1.051   1.444
 8476SOL    HW226328   6.385   0.895   1.400
 8477SOL     OW26329   4.408   6.719   2.604
 8477SOL    HW126330   4.373   6.790   2.664
 8477SOL    HW226331   4.338   6.694   2.537
 8478SOL     OW26332   1.377   0.696   5.997
 8478SOL    HW126333   1.405   0.688   6.093
 8478SOL    HW226334   1.457   0.682   5.938
 8479SOL     OW26335   6.416   2.532   1.172
 8479SOL    HW126336   6.423   2.433   1.161
 8479SOL    HW226337   6.369   2.571   1.093
 8480SOL     OW26338   4.025   0.937   0.089
 8480SOL    HW126339   3.998   0.975   0.001
 8480SOL    HW226340   4.053   1.011   0.150
 8481SOL     OW26341   4.782   1.695   3.883
 8481SOL    HW126342   4.685   1.687   3.904
 8481SOL    HW226343   4.834   1.706   3.968
 8482SOL     OW26344   3.607   6.745   3.269
 8482SOL    HW126345   3.608   6.708   3.362
 8482SOL    HW226346   3.631   6.842   3.272
 8483SOL     OW26347   4.318   5.447   2.212
 8483SOL    HW126348   4.384   5.521   2.221
 8483SOL    HW226349   4.340   5.374   2.277
 8484SOL     OW26350   0.655   5.445   3.155
 8484SOL    HW126351   0.718   5.368   3.148
 8484SOL    HW226352   0.584   5.437   3.085
 8485SOL     OW26353   2.996   3.719   6.650
 8485SOL    HW126354   2.927   3.646   6.644
 8485SOL    HW226355   3.076   3.685   6.701
 8486SOL     OW26356   4.859   1.330   2.818
 8486SOL    HW126357   4.913   1.271   2.878
 8486SOL    HW226358   4.918   1.403   2.783
 8487SOL     OW26359   5.702   0.869   6.801
 8487SOL    HW126360   5.790   0.839   6.764
 8487SOL    HW226361   5.654   0.791   6.842
 8488SOL     OW26362   5.932   4.802   5.164
 8488SOL    HW126363   6.011   4.804   5.225
 8488SOL    HW226364   5.872   4.726   5.189
 8489SOL     OW26365   6.105   0.803   1.288
 8489SOL    HW126366   6.084   0.730   1.224
 8489SOL    HW226367   6.022   0.832   1.334
 8490SOL     OW26368   4.141   6.966   4.176
 8490SOL    HW126369   4.240   6.978   4.169
 8490SOL    HW226370   4.112   6.896   4.111
 8491SOL     OW26371   1.879   0.185   1.417
 8491SOL    HW126372   1.821   0.266   1.415
 8491SOL    HW226373   1.823   0.103   1.405
 8492SOL     OW26374   4.112   4.022   0.140
 8492SOL    HW126375   4.068   4.070   0.064
 8492SOL    HW226376   4.085   4.064   0.226
 8493SOL     OW26377   2.865   2.061   6.322
 8493SOL    HW126378   2.954   2.050   6.278
 8493SOL    HW226379   2.803   2.111   6.261
 8494SOL     OW26380   2.814   4.966   0.713
 8494SOL    HW126381   2.768   4.915   0.785
 8494SOL    HW226382   2.880   5.029   0.754
 8495SOL     OW26383   6.653   4.106   0.692
 8495SOL    HW126384   6.684   4.089   0.785
 8495SOL    HW226385   6.703   4.047   0.629
 8496SOL     OW26386   0.451   2.021   1.845
 8496SOL    HW126387   0.523   1.984   1.786
 8496SOL    HW226388   0.449   2.120   1.837
 8497SOL     OW26389   6.305   0.737   4.183
 8497SOL    HW126390   6.286   0.686   4.100
 8497SOL    HW226391   6.330   0.832   4.160
 8498SOL     OW26392   0.488   6.047   2.662
 8498SOL    HW126393   0.469   5.969   2.720
 8498SOL    HW226394   0.408   6.107   2.659
 8499SOL     OW26395   2.481   5.531   6.809
 8499SOL    HW126396   2.422   5.459   6.772
 8499SOL    HW226397   2.448   5.558   6.899
 8500SOL     OW26398   2.101   0.171   5.363
 8500SOL    HW126399   2.151   0.101   5.415
 8500SOL    HW226400   2.063   0.238   5.426
 8501SOL     OW26401   0.737   2.985   0.498
 8501SOL    HW126402   0.654   2.956   0.546
 8501SOL    HW226403   0.740   2.942   0.408
 8502SOL     OW26404   1.620   5.033   1.264
 8502SOL    HW126405   1.718   5.027   1.282
 8502SOL    HW226406   1.577   5.097   1.327
 8503SOL     OW26407   1.235   6.338   3.417
 8503SOL    HW126408   1.252   6.240   3.428
 8503SOL    HW226409   1.138   6.353   3.396
 8504SOL     OW26410   2.370   5.590   3.675
 8504SOL    HW126411   2.278   5.614   3.707
 8504SOL    HW226412   2.394   5.498   3.709
 8505SOL     OW26413   4.899   3.783   3.971
 8505SOL    HW126414   4.931   3.868   4.013
 8505SOL    HW226415   4.942   3.705   4.016
 8506SOL     OW26416   6.656   1.245   0.366
 8506SOL    HW126417   6.601   1.220   0.446
 8506SOL    HW226418   6.739   1.291   0.395
 8507SOL     OW26419   3.084   1.237   5.720
 8507SOL    HW126420   3.000   1.290   5.705
 8507SOL    HW226421   3.107   1.187   5.637
 8508SOL     OW26422   0.023   2.411   4.863
 8508SOL    HW126423   0.072   2.487   4.821
 8508SOL    HW226424   0.079   2.372   4.937
 8509SOL     OW26425   4.970   1.599   3.582
 8509SOL    HW126426   4.986   1.532   3.509
 8509SOL    HW226427   4.967   1.552   3.670
 8510SOL     OW26428   5.023   4.362   3.075
 8510SOL    HW126429   5.027   4.285   3.138
 8510SOL    HW226430   5.114   4.380   3.038
 8511SOL     OW26431   5.816   3.765   1.936
 8511SOL    HW126432   5.767   3.811   1.863
 8511SOL    HW226433   5.803   3.666   1.929
 8512SOL     OW26434   3.072   2.310   0.863
 8512SOL    HW126435   3.061   2.218   0.825
 8512SOL    HW226436   3.050   2.308   0.960
 8513SOL     OW26437   4.802   4.087   1.535
 8513SOL    HW126438   4.722   4.116   1.589
 8513SOL    HW226439   4.883   4.089   1.593
 8514SOL     OW26440   3.083   1.718   3.902
 8514SOL    HW126441   3.060   1.792   3.839
 8514SOL    HW226442   3.130   1.756   3.982
 8515SOL     OW26443   6.026   1.508   6.673
 8515SOL    HW126444   5.944   1.454   6.655
 8515SOL    HW226445   6.103   1.447   6.694
 8516SOL     OW26446   6.552   1.605   1.138
 8516SOL    HW126447   6.478   1.667   1.112
 8516SOL    HW226448   6.519   1.510   1.135
 8517SOL     OW26449   1.603   3.314   6.360
 8517SOL    HW126450   1.544   3.234   6.368
 8517SOL    HW226451   1.607   3.343   6.264
 8518SOL     OW26452   4.736   4.439   6.149
 8518SOL    HW126453   4.759   4.342   6.158
 8518SOL    HW226454   4.786   4.491   6.219
 8519SOL     OW26455   1.661   4.683   1.309
 8519SOL    HW126456   1.587   4.686   1.243
 8519SOL    HW226457   1.723   4.760   1.294
 8520SOL     OW26458   3.567   3.478   6.541
 8520SOL    HW126459   3.624   3.554   6.574
 8520SOL    HW226460   3.482   3.475   6.594
 8521SOL     OW26461   2.303   4.786   5.593
 8521SOL    HW126462   2.231   4.807   5.659
 8521SOL    HW226463   2.388   4.830   5.622
 8522SOL     OW26464   1.514   6.442   1.372
 8522SOL    HW126465   1.598   6.486   1.406
 8522SOL    HW226466   1.435   6.484   1.416
 8523SOL     OW26467   2.037   6.561   6.930
 8523SOL    HW126468   1.950   6.585   6.973
 8523SOL    HW226469   2.029   6.471   6.887
 8524SOL     OW26470   0.386   2.612   5.470
 8524SOL    HW126471   0.394   2.545   5.396
 8524SOL    HW226472   0.444   2.585   5.546
 8525SOL     OW26473   6.180   4.038   1.737
 8525SOL    HW126474   6.179   4.047   1.638
 8525SOL    HW226475   6.192   3.942   1.762
 8526SOL     OW26476   4.172   6.204   6.864
 8526SOL    HW126477   4.107   6.140   6.904
 8526SOL    HW226478   4.154   6.214   6.767
 8527SOL     OW26479   3.226   1.085   6.707
 8527SOL    HW126480   3.197   1.141   6.629
 8527SOL    HW226481   3.305   1.127   6.750
 8528SOL     OW26482   4.275   0.937   6.580
 8528SOL    HW126483   4.324   0.908   6.662
 8528SOL    HW226484   4.282   1.036   6.569
 8529SOL     OW26485   1.228   0.032   0.777
 8529SOL    HW126486   1.311   7.004   0.805
 8529SOL    HW226487   1.150   7.019   0.830
 8530SOL     OW26488   4.183   4.166   5.499
 8530SOL    HW126489   4.126   4.166   5.417
 8530SOL    HW226490   4.149   4.234   5.563
 8531SOL     OW26491   6.299   4.872   2.655
 8531SOL    HW126492   6.395   4.850   2.667
 8531SOL    HW226493   6.262   4.823   2.576
 8532SOL     OW26494   4.390   5.240   4.562
 8532SOL    HW126495   4.438   5.320   4.527
 8532SOL    HW226496   4.431   5.157   4.524
 8533SOL     OW26497   1.949   6.172   0.037
 8533SOL    HW126498   1.926   6.124   0.122
 8533SOL    HW226499   2.045   6.198   0.039
 8534SOL     OW26500   6.043   2.347   4.344
 8534SOL    HW126501   6.129   2.331   4.296
 8534SOL    HW226502   6.006   2.436   4.318
 8535SOL     OW26503   6.558   0.804   2.981
 8535SOL    HW126504   6.489   0.859   3.026
 8535SOL    HW226505   6.646   0.852   2.982
 8536SOL     OW26506   0.151   2.087   4.865
 8536SOL    HW126507   0.243   2.095   4.903
 8536SOL    HW226508   0.131   2.168   4.809
 8537SOL     OW26509   5.557   0.666   3.177
 8537SOL    HW126510   5.564   0.593   3.109
 8537SOL    HW226511   5.637   0.726   3.170
 8538SOL     OW26512   1.255   0.966   0.247
 8538SOL    HW126513   1.165   0.939   0.281
 8538SOL    HW226514   1.326   0.916   0.297
 8539SOL     OW26515   6.486   0.656   2.448
 8539SOL    HW126516   6.386   0.657   2.442
 8539SOL    HW226517   6.515   0.687   2.539
 8540SOL     OW26518   5.212   0.456   6.205
 8540SOL    HW126519   5.219   0.556   6.208
 8540SOL    HW226520   5.184   0.428   6.113
 8541SOL     OW26521   2.798   1.650   3.802
 8541SOL    HW126522   2.894   1.668   3.828
 8541SOL    HW226523   2.760   1.582   3.864
 8542SOL     OW26524   4.255   4.532   6.513
 8542SOL    HW126525   4.256   4.458   6.445
 8542SOL    HW226526   4.210   4.612   6.474
 8543SOL     OW26527   2.613   1.440   1.374
 8543SOL    HW126528   2.697   1.387   1.388
 8543SOL    HW226529   2.601   1.502   1.452
 8544SOL     OW26530   5.463   3.302   3.774
 8544SOL    HW126531   5.471   3.398   3.749
 8544SOL    HW226532   5.376   3.266   3.743
 8545SOL     OW26533   4.557   0.080   5.096
 8545SOL    HW126534   4.474   0.025   5.088
 8545SOL    HW226535   4.544   0.151   5.165
 8546SOL     OW26536   5.697   1.955   4.325
 8546SOL    HW126537   5.746   2.042   4.328
 8546SOL    HW226538   5.741   1.894   4.259
 8547SOL     OW26539   1.427   6.660   6.143
 8547SOL    HW126540   1.414   6.565   6.170
 8547SOL    HW226541   1.417   6.719   6.224
 8548SOL     OW26542   6.108   2.505   6.108
 8548SOL    HW126543   6.114   2.432   6.177
 8548SOL    HW226544   6.035   2.484   6.044
 8549SOL     OW26545   1.278   2.976   4.044
 8549SOL    HW126546   1.192   3.001   4.087
 8549SOL    HW226547   1.265   2.966   3.945
 8550SOL     OW26548   2.054   4.701   0.130
 8550SOL    HW126549   2.079   4.739   0.219
 8550SOL    HW226550   2.008   4.771   0.076
 8551SOL     OW26551   3.653   3.993   5.913
 8551SOL    HW126552   3.657   3.923   5.842
 8551SOL    HW226553   3.569   3.983   5.967
 8552SOL     OW26554   2.148   6.937   3.749
 8552SOL    HW126555   2.143   6.884   3.664
 8552SOL    HW226556   2.118   0.011   3.730
 8553SOL     OW26557   5.146   4.680   6.457
 8553SOL    HW126558   5.147   4.581   6.473
 8553SOL    HW226559   5.237   4.718   6.470
 8554SOL     OW26560   0.730   4.834   0.416
 8554SOL    HW126561   0.632   4.844   0.430
 8554SOL    HW226562   0.748   4.810   0.320
 8555SOL     OW26563   1.523   0.615   1.797
 8555SOL    HW126564   1.502   0.683   1.726
 8555SOL    HW226565   1.586   0.655   1.863
 8556SOL     OW26566   0.719   6.584   4.961
 8556SOL    HW126567   0.679   6.559   5.049
 8556SOL    HW226568   0.732   6.683   4.957
 8557SOL     OW26569   5.946   0.302   2.589
 8557SOL    HW126570   5.936   0.210   2.553
 8557SOL    HW226571   6.011   0.353   2.533
 8558SOL     OW26572   2.904   5.716   3.402
 8558SOL    HW126573   2.861   5.765   3.477
 8558SOL    HW226574   2.965   5.646   3.439
 8559SOL     OW26575   6.780   0.390   1.908
 8559SOL    HW126576   6.795   0.399   2.006
 8559SOL    HW226577   6.867   0.373   1.862
 8560SOL     OW26578   0.220   6.012   2.051
 8560SOL    HW126579   0.175   6.061   1.976
 8560SOL    HW226580   0.219   6.069   2.133
 8561SOL     OW26581   3.732   0.400   2.292
 8561SOL    HW126582   3.760   0.306   2.309
 8561SOL    HW226583   3.634   0.402   2.272
 8562SOL     OW26584   4.170   6.298   5.018
 8562SOL    HW126585   4.194   6.277   5.113
 8562SOL    HW226586   4.187   6.218   4.961
 8563SOL     OW26587   2.819   4.775   0.160
 8563SOL    HW126588   2.851   4.808   0.250
 8563SOL    HW226589   2.871   4.694   0.134
 8564SOL     OW26590   3.117   1.150   4.020
 8564SOL    HW126591   3.051   1.214   3.981
 8564SOL    HW226592   3.158   1.096   3.946
 8565SOL     OW26593   4.359   5.535   1.359
 8565SOL    HW126594   4.261   5.523   1.342
 8565SOL    HW226595   4.411   5.498   1.282
 8566SOL     OW26596   1.390   0.465   1.273
 8566SOL    HW126597   1.294   0.465   1.301
 8566SOL    HW226598   1.446   0.432   1.349
 8567SOL     OW26599   6.590   1.454   2.655
 8567SOL    HW126600   6.522   1.423   2.721
 8567SOL    HW226601   6.610   1.381   2.590
 8568SOL     OW26602   5.625   1.145   5.852
 8568SOL    HW126603   5.541   1.189   5.883
 8568SOL    HW226604   5.617   1.046   5.863
 8569SOL     OW26605   4.833   1.588   5.723
 8569SOL    HW126606   4.884   1.648   5.786
 8569SOL    HW226607   4.878   1.499   5.718
 8570SOL     OW26608   1.051   2.423   5.163
 8570SOL    HW126609   0.968   2.402   5.213
 8570SOL    HW226610   1.078   2.344   5.107
 8571SOL     OW26611   1.363   5.153   5.651
 8571SOL    HW126612   1.282   5.211   5.652
 8571SOL    HW226613   1.380   5.117   5.743
 8572SOL     OW26614   3.321   5.145   6.515
 8572SOL    HW126615   3.333   5.154   6.416
 8572SOL    HW226616   3.403   5.179   6.561
 8573SOL     OW26617   3.205   6.417   5.796
 8573SOL    HW126618   3.197   6.514   5.820
 8573SOL    HW226619   3.268   6.372   5.860
 8574SOL     OW26620   0.044   5.868   5.900
 8574SOL    HW126621   0.002   5.955   5.876
 8574SOL    HW226622   6.993   5.798   5.905
 8575SOL     OW26623   3.078   2.638   5.647
 8575SOL    HW126624   3.176   2.645   5.628
 8575SOL    HW226625   3.036   2.729   5.640
 8576SOL     OW26626   1.446   5.855   6.993
 8576SOL    HW126627   1.511   5.926   7.018
 8576SOL    HW226628   1.491   5.789   6.932
 8577SOL     OW26629   0.405   6.035   4.409
 8577SOL    HW126630   0.306   6.017   4.409
 8577SOL    HW226631   0.427   6.101   4.337
 8578SOL     OW26632   5.421   0.574   4.377
 8578SOL    HW126633   5.520   0.560   4.391
 8578SOL    HW226634   5.398   0.553   4.282
 8579SOL     OW26635   1.291   0.227   3.216
 8579SOL    HW126636   1.220   0.228   3.286
 8579SOL    HW226637   1.357   0.155   3.237
 8580SOL     OW26638   2.277   6.815   2.497
 8580SOL    HW126639   2.266   6.819   2.596
 8580SOL    HW226640   2.274   6.908   2.460
 8581SOL     OW26641   3.201   3.346   1.826
 8581SOL    HW126642   3.222   3.400   1.745
 8581SOL    HW226643   3.102   3.335   1.833
 8582SOL     OW26644   4.135   4.766   2.534
 8582SOL    HW126645   4.050   4.772   2.586
 8582SOL    HW226646   4.190   4.690   2.569
 8583SOL     OW26647   5.815   0.402   4.986
 8583SOL    HW126648   5.765   0.453   4.916
 8583SOL    HW226649   5.831   0.308   4.954
 8584SOL     OW26650   0.221   3.741   5.801
 8584SOL    HW126651   0.128   3.743   5.765
 8584SOL    HW226652   0.279   3.689   5.739
 8585SOL     OW26653   0.698   6.234   5.951
 8585SOL    HW126654   0.618   6.202   6.002
 8585SOL    HW226655   0.676   6.239   5.854
 8586SOL     OW26656   3.072   0.400   3.637
 8586SOL    HW126657   2.997   0.427   3.577
 8586SOL    HW226658   3.060   0.305   3.664
 8587SOL     OW26659   1.803   6.883   2.870
 8587SOL    HW126660   1.742   6.832   2.809
 8587SOL    HW226661   1.879   6.920   2.817
 8588SOL     OW26662   3.027   0.392   0.123
 8588SOL    HW126663   2.927   0.391   0.132
 8588SOL    HW226664   3.067   0.342   0.200
 8589SOL     OW26665   5.138   2.725   4.744
 8589SOL    HW126666   5.046   2.749   4.715
 8589SOL    HW226667   5.197   2.714   4.664
 8590SOL     OW26668   6.730   6.672   3.916
 8590SOL    HW126669   6.653   6.667   3.979
 8590SOL    HW226670   6.762   6.579   3.895
 8591SOL     OW26671   0.800   4.677   6.318
 8591SOL    HW126672   0.827   4.746   6.386
 8591SOL    HW226673   0.741   4.609   6.361
 8592SOL     OW26674   0.182   3.538   6.802
 8592SOL    HW126675   0.112   3.492   6.857
 8592SOL    HW226676   0.258   3.566   6.860
 8593SOL     OW26677   1.735   0.680   1.972
 8593SOL    HW126678   1.777   0.770   1.977
 8593SOL    HW226679   1.683   0.662   2.055
 8594SOL     OW26680   3.903   3.085   4.953
 8594SOL    HW126681   3.814   3.119   4.924
 8594SOL    HW226682   3.972   3.157   4.943
 8595SOL     OW26683   1.824   2.109   3.117
 8595SOL    HW126684   1.737   2.069   3.145
 8595SOL    HW226685   1.899   2.056   3.156
 8596SOL     OW26686   6.222   5.241   3.525
 8596SOL    HW126687   6.253   5.149   3.501
 8596SOL    HW226688   6.295   5.307   3.508
 8597SOL     OW26689   4.645   1.428   1.062
 8597SOL    HW126690   4.709   1.352   1.070
 8597SOL    HW226691   4.568   1.401   1.003
 8598SOL     OW26692   0.014   5.973   0.980
 8598SOL    HW126693   0.099   5.986   1.031
 8598SOL    HW226694   0.000   5.875   0.962
 8599SOL     OW26695   1.106   2.618   3.917
 8599SOL    HW126696   1.040   2.663   3.977
 8599SOL    HW226697   1.069   2.613   3.824
 8600SOL     OW26698   5.589   5.138   5.613
 8600SOL    HW126699   5.548   5.223   5.646
 8600SOL    HW226700   5.683   5.132   5.646
 8601SOL     OW26701   1.130   0.939   5.384
 8601SOL    HW126702   1.048   0.945   5.328
 8601SOL    HW226703   1.132   0.849   5.429
 8602SOL     OW26704   3.164   5.656   3.520
 8602SOL    HW126705   3.235   5.727   3.518
 8602SOL    HW226706   3.199   5.575   3.567
 8603SOL     OW26707   3.980   5.554   0.425
 8603SOL    HW126708   3.957   5.500   0.345
 8603SOL    HW226709   3.985   5.495   0.505
 8604SOL     OW26710   0.425   3.156   3.701
 8604SOL    HW126711   0.492   3.103   3.751
 8604SOL    HW226712   0.338   3.106   3.697
 8605SOL     OW26713   3.229   5.137   4.514
 8605SOL    HW126714   3.169   5.145   4.434
 8605SOL    HW226715   3.190   5.071   4.578
 8606SOL     OW26716   2.003   4.534   6.388
 8606SOL    HW126717   1.966   4.448   6.425
 8606SOL    HW226718   1.945   4.566   6.313
 8607SOL     OW26719   3.828   5.697   0.587
 8607SOL    HW126720   3.742   5.715   0.539
 8607SOL    HW226721   3.882   5.632   0.533
 8608SOL     OW26722   4.595   5.006   3.087
 8608SOL    HW126723   4.541   5.090   3.092
 8608SOL    HW226724   4.660   5.002   3.162
 8609SOL     OW26725   5.336   1.030   3.297
 8609SOL    HW126726   5.420   1.027   3.243
 8609SOL    HW226727   5.259   0.996   3.243
 8610SOL     OW26728   1.384   1.668   2.278
 8610SOL    HW126729   1.313   1.731   2.310
 8610SOL    HW226730   1.436   1.633   2.355
 8611SOL     OW26731   2.013   1.852   4.064
 8611SOL    HW126732   2.099   1.824   4.108
 8611SOL    HW226733   1.998   1.795   3.983
 8612SOL     OW26734   3.416   3.091   0.442
 8612SOL    HW126735   3.364   3.127   0.519
 8612SOL    HW226736   3.353   3.053   0.374
 8613SOL     OW26737   2.346   2.011   1.390
 8613SOL    HW126738   2.444   1.995   1.377
 8613SOL    HW226739   2.333   2.075   1.466
 8614SOL     OW26740   0.598   3.396   2.798
 8614SOL    HW126741   0.513   3.448   2.800
 8614SOL    HW226742   0.582   3.306   2.760
 8615SOL     OW26743   4.996   1.780   5.497
 8615SOL    HW126744   5.031   1.845   5.564
 8615SOL    HW226745   5.071   1.726   5.460
 8616SOL     OW26746   2.397   5.165   1.305
 8616SOL    HW126747   2.333   5.094   1.334
 8616SOL    HW226748   2.478   5.162   1.363
 8617SOL     OW26749   6.821   0.942   6.617
 8617SOL    HW126750   6.819   0.894   6.529
 8617SOL    HW226751   6.838   1.039   6.602
 8618SOL     OW26752   6.059   6.470   1.199
 8618SOL    HW126753   5.970   6.476   1.154
 8618SOL    HW226754   6.049   6.423   1.287
 8619SOL     OW26755   3.458   4.901   2.190
 8619SOL    HW126756   3.362   4.907   2.162
 8619SOL    HW226757   3.498   4.817   2.152
 8620SOL     OW26758   0.871   0.054   3.626
 8620SOL    HW126759   0.931   0.009   3.693
 8620SOL    HW226760   0.872   0.002   3.541
 8621SOL     OW26761   6.269   1.249   3.181
 8621SOL    HW126762   6.218   1.211   3.258
 8621SOL    HW226763   6.224   1.225   3.095
 8622SOL     OW26764   4.899   3.776   0.582
 8622SOL    HW126765   4.916   3.687   0.538
 8622SOL    HW226766   4.882   3.845   0.511
 8623SOL     OW26767   0.957   3.990   3.411
 8623SOL    HW126768   0.911   4.076   3.387
 8623SOL    HW226769   0.891   3.915   3.407
 8624SOL     OW26770   1.332   3.835   3.871
 8624SOL    HW126771   1.233   3.851   3.874
 8624SOL    HW226772   1.358   3.805   3.779
 8625SOL     OW26773   4.841   0.001   4.706
 8625SOL    HW126774   4.810   6.988   4.795
 8625SOL    HW226775   4.831   0.101   4.702
 8626SOL     OW26776   3.703   2.885   5.059
 8626SOL    HW126777   3.791   2.930   5.041
 8626SOL    HW226778   3.652   2.876   4.973
 8627SOL     OW26779   0.169   0.842   3.749
 8627SOL    HW126780   0.212   0.916   3.697
 8627SOL    HW226781   0.105   0.792   3.690
 8628SOL     OW26782   5.696   0.110   1.261
 8628SOL    HW126783   5.758   0.098   1.183
 8628SOL    HW226784   5.748   0.113   1.346
 8629SOL     OW26785   1.527   5.029   5.442
 8629SOL    HW126786   1.460   5.084   5.490
 8629SOL    HW226787   1.503   5.023   5.345
 8630SOL     OW26788   5.649   4.489   4.117
 8630SOL    HW126789   5.677   4.393   4.124
 8630SOL    HW226790   5.646   4.530   4.209
 8631SOL     OW26791   3.109   5.831   6.067
 8631SOL    HW126792   3.083   5.782   6.150
 8631SOL    HW226793   3.185   5.784   6.022
 8632SOL     OW26794   3.055   6.960   4.088
 8632SOL    HW126795   3.075   0.028   4.047
 8632SOL    HW226796   3.135   6.928   4.140
 8633SOL     OW26797   5.419   1.571   4.505
 8633SOL    HW126798   5.457   1.652   4.549
 8633SOL    HW226799   5.369   1.599   4.422
 8634SOL     OW26800   5.382   3.140   0.499
 8634SOL    HW126801   5.426   3.206   0.437
 8634SOL    HW226802   5.297   3.108   0.458
 8635SOL     OW26803   6.145   4.587   6.199
 8635SOL    HW126804   6.080   4.540   6.139
 8635SOL    HW226805   6.107   4.677   6.224
 8636SOL     OW26806   4.978   6.053   0.550
 8636SOL    HW126807   5.026   6.055   0.462
 8636SOL    HW226808   5.011   5.976   0.605
 8637SOL     OW26809   2.084   1.233   0.054
 8637SOL    HW126810   2.173   1.231   0.009
 8637SOL    HW226811   2.014   1.199   7.012
 8638SOL     OW26812   2.870   3.102   6.690
 8638SOL    HW126813   2.832   3.123   6.600
 8638SOL    HW226814   2.840   3.172   6.755
 8639SOL     OW26815   5.941   2.016   1.649
 8639SOL    HW126816   5.916   2.035   1.554
 8639SOL    HW226817   5.887   2.073   1.710
 8640SOL     OW26818   4.448   3.948   0.888
 8640SOL    HW126819   4.354   3.916   0.900
 8640SOL    HW226820   4.454   4.003   0.804
 8641SOL     OW26821   6.320   5.085   4.408
 8641SOL    HW126822   6.284   5.166   4.454
 8641SOL    HW226823   6.392   5.044   4.464
 8642SOL     OW26824   3.607   1.237   2.751
 8642SOL    HW126825   3.572   1.217   2.842
 8642SOL    HW226826   3.559   1.180   2.683
 8643SOL     OW26827   3.733   0.303   6.411
 8643SOL    HW126828   3.772   0.350   6.490
 8643SOL    HW226829   3.633   0.305   6.417
 8644SOL     OW26830   4.589   2.475   5.701
 8644SOL    HW126831   4.624   2.457   5.609
 8644SOL    HW226832   4.517   2.409   5.723
 8645SOL     OW26833   4.589   4.445   1.367
 8645SOL    HW126834   4.524   4.508   1.324
 8645SOL    HW226835   4.657   4.416   1.299
 8646SOL     OW26836   6.474   1.344   1.735
 8646SOL    HW126837   6.474   1.324   1.637
 8646SOL    HW226838   6.426   1.431   1.751
 8647SOL     OW26839   2.516   5.266   5.822
 8647SOL    HW126840   2.520   5.225   5.913
 8647SOL    HW226841   2.426   5.309   5.808
 8648SOL     OW26842   6.179   0.759   3.850
 8648SOL    HW126843   6.178   0.675   3.905
 8648SOL    HW226844   6.201   0.735   3.755
 8649SOL     OW26845   5.466   4.408   6.918
 8649SOL    HW126846   5.384   4.354   6.899
 8649SOL    HW226847   5.518   4.420   6.833
 8650SOL     OW26848   2.136   4.025   6.135
 8650SOL    HW126849   2.221   3.980   6.163
 8650SOL    HW226850   2.130   4.025   6.035
 8651SOL     OW26851   3.425   1.199   0.883
 8651SOL    HW126852   3.360   1.275   0.883
 8651SOL    HW226853   3.492   1.213   0.810
 8652SOL     OW26854   1.391   3.740   3.611
 8652SOL    HW126855   1.320   3.730   3.541
 8652SOL    HW226856   1.444   3.655   3.617
 8653SOL     OW26857   5.694   1.171   6.800
 8653SOL    HW126858   5.707   1.074   6.783
 8653SOL    HW226859   5.690   1.220   6.713
 8654SOL     OW26860   1.287   5.669   1.151
 8654SOL    HW126861   1.373   5.631   1.115
 8654SOL    HW226862   1.307   5.721   1.234
 8655SOL     OW26863   5.837   1.421   3.685
 8655SOL    HW126864   5.857   1.342   3.627
 8655SOL    HW226865   5.876   1.407   3.776
 8656SOL     OW26866   6.267   1.171   0.199
 8656SOL    HW126867   6.191   1.227   0.166
 8656SOL    HW226868   6.347   1.228   0.213
 8657SOL     OW26869   4.771   4.850   0.251
 8657SOL    HW126870   4.838   4.811   0.314
 8657SOL    HW226871   4.818   4.891   0.173
 8658SOL     OW26872   4.212   6.434   0.015
 8658SOL    HW126873   4.162   6.506   6.986
 8658SOL    HW226874   4.207   6.349   6.983
 8659SOL     OW26875   4.155   1.775   3.308
 8659SOL    HW126876   4.181   1.745   3.216
 8659SOL    HW226877   4.111   1.700   3.356
 8660SOL     OW26878   5.995   3.775   0.797
 8660SOL    HW126879   6.004   3.825   0.711
 8660SOL    HW226880   5.975   3.678   0.777
 8661SOL     OW26881   5.707   4.116   1.174
 8661SOL    HW126882   5.793   4.162   1.197
 8661SOL    HW226883   5.719   4.058   1.094
 8662SOL     OW26884   4.751   5.859   1.401
 8662SOL    HW126885   4.751   5.900   1.310
 8662SOL    HW226886   4.671   5.889   1.452
 8663SOL     OW26887   2.656   5.981   0.964
 8663SOL    HW126888   2.563   5.953   0.938
 8663SOL    HW226889   2.709   5.900   0.991
 8664SOL     OW26890   2.857   6.082   1.139
 8664SOL    HW126891   2.934   6.140   1.114
 8664SOL    HW226892   2.806   6.057   1.057
 8665SOL     OW26893   5.348   6.021   4.934
 8665SOL    HW126894   5.400   5.944   4.896
 8665SOL    HW226895   5.311   5.995   5.023
 8666SOL     OW26896   4.729   1.811   4.266
 8666SOL    HW126897   4.804   1.768   4.216
 8666SOL    HW226898   4.722   1.770   4.357
 8667SOL     OW26899   4.901   2.704   3.194
 8667SOL    HW126900   4.949   2.690   3.108
 8667SOL    HW226901   4.829   2.772   3.182
 8668SOL     OW26902   5.857   3.617   3.000
 8668SOL    HW126903   5.800   3.691   3.036
 8668SOL    HW226904   5.813   3.579   2.918
 8669SOL     OW26905   2.257   6.189   0.084
 8669SOL    HW126906   2.274   6.286   0.065
 8669SOL    HW226907   2.306   6.134   0.016
 8670SOL     OW26908   3.632   4.626   5.580
 8670SOL    HW126909   3.544   4.582   5.594
 8670SOL    HW226910   3.622   4.725   5.590
 8671SOL     OW26911   5.492   1.891   3.249
 8671SOL    HW126912   5.399   1.855   3.242
 8671SOL    HW226913   5.489   1.991   3.250
 8672SOL     OW26914   1.945   5.080   3.690
 8672SOL    HW126915   1.876   5.145   3.722
 8672SOL    HW226916   2.007   5.058   3.765
 8673SOL     OW26917   6.873   1.910   6.896
 8673SOL    HW126918   6.925   1.863   6.967
 8673SOL    HW226919   6.933   1.975   6.849
 8674SOL     OW26920   5.779   5.480   2.582
 8674SOL    HW126921   5.723   5.561   2.568
 8674SOL    HW226922   5.719   5.401   2.600
 8675SOL     OW26923   3.191   2.104   4.622
 8675SOL    HW126924   3.177   2.012   4.585
 8675SOL    HW226925   3.107   2.158   4.609
 8676SOL     OW26926   4.009   0.434   2.549
 8676SOL    HW126927   4.091   0.379   2.567
 8676SOL    HW226928   3.928   0.383   2.578
 8677SOL     OW26929   2.886   6.419   5.598
 8677SOL    HW126930   2.976   6.375   5.602
 8677SOL    HW226931   2.838   6.389   5.516
 8678SOL     OW26932   6.975   0.084   1.349
 8678SOL    HW126933   6.944   0.157   1.288
 8678SOL    HW226934   0.051   0.099   1.373
 8679SOL     OW26935   6.159   2.474   3.895
 8679SOL    HW126936   6.178   2.385   3.853
 8679SOL    HW226937   6.074   2.469   3.947
 8680SOL     OW26938   1.097   4.228   1.920
 8680SOL    HW126939   1.115   4.231   2.019
 8680SOL    HW226940   1.124   4.315   1.878
 8681SOL     OW26941   4.894   5.387   6.686
 8681SOL    HW126942   4.866   5.483   6.682
 8681SOL    HW226943   4.848   5.336   6.613
 8682SOL     OW26944   4.912   6.706   1.678
 8682SOL    HW126945   4.868   6.795   1.665
 8682SOL    HW226946   4.843   6.639   1.705
 8683SOL     OW26947   1.847   2.457   2.368
 8683SOL    HW126948   1.809   2.388   2.429
 8683SOL    HW226949   1.937   2.427   2.335
 8684SOL     OW26950   0.880   2.763   4.722
 8684SOL    HW126951   0.878   2.663   4.728
 8684SOL    HW226952   0.815   2.793   4.651
 8685SOL     OW26953   0.576   2.245   5.403
 8685SOL    HW126954   0.518   2.231   5.484
 8685SOL    HW226955   0.625   2.160   5.383
 8686SOL     OW26956   0.005   0.912   1.249
 8686SOL    HW126957   0.090   0.888   1.203
 8686SOL    HW226958   0.021   0.987   1.313
 8687SOL     OW26959   3.754   5.749   2.819
 8687SOL    HW126960   3.668   5.749   2.870
 8687SOL    HW226961   3.831   5.755   2.883
 8688SOL     OW26962   2.932   6.021   6.784
 8688SOL    HW126963   2.944   6.068   6.871
 8688SOL    HW226964   2.861   6.067   6.731
 8689SOL     OW26965   3.241   4.188   1.628
 8689SOL    HW126966   3.289   4.200   1.715
 8689SOL    HW226967   3.152   4.145   1.645
 8690SOL     OW26968   1.546   2.957   3.219
 8690SOL    HW126969   1.485   3.008   3.157
 8690SOL    HW226970   1.641   2.972   3.191
 8691SOL     OW26971   3.341   1.932   6.822
 8691SOL    HW126972   3.366   1.943   6.726
 8691SOL    HW226973   3.406   1.981   6.879
 8692SOL     OW26974   2.160   1.258   3.430
 8692SOL    HW126975   2.195   1.351   3.416
 8692SOL    HW226976   2.099   1.257   3.510
 8693SOL     OW26977   6.537   1.377   6.985
 8693SOL    HW126978   6.518   1.279   6.987
 8693SOL    HW226979   6.476   1.424   0.029
 8694SOL     OW26980   4.144   1.228   5.031
 8694SOL    HW126981   4.175   1.322   5.020
 8694SOL    HW226982   4.066   1.211   4.971
 8695SOL     OW26983   4.059   2.698   5.853
 8695SOL    HW126984   4.105   2.726   5.769
 8695SOL    HW226985   3.965   2.733   5.853
 8696SOL     OW26986   2.173   6.088   0.554
 8696SOL    HW126987   2.134   5.997   0.570
 8696SOL    HW226988   2.242   6.082   0.482
 8697SOL     OW26989   6.780   3.001   0.292
 8697SOL    HW126990   6.828   3.087   0.274
 8697SOL    HW226991   6.810   2.933   0.226
 8698SOL     OW26992   5.891   5.750   4.522
 8698SOL    HW126993   5.871   5.829   4.580
 8698SOL    HW226994   5.910   5.671   4.580
 8699SOL     OW26995   2.050   2.418   5.210
 8699SOL    HW126996   2.025   2.515   5.199
 8699SOL    HW226997   2.069   2.378   5.120
 8700SOL     OW26998   0.932   0.525   4.435
 8700SOL    HW126999   0.986   0.442   4.447
 8700SOL    HW227000   0.892   0.526   4.343
 8701SOL     OW27001   1.747   0.781   0.356
 8701SOL    HW127002   1.727   0.707   0.292
 8701SOL    HW227003   1.755   0.867   0.306
 8702SOL     OW27004   5.429   4.371   0.338
 8702SOL    HW127005   5.489   4.365   0.258
 8702SOL    HW227006   5.482   4.362   0.422
 8703SOL     OW27007   3.238   5.747   0.795
 8703SOL    HW127008   3.268   5.810   0.866
 8703SOL    HW227009   3.139   5.734   0.801
 8704SOL     OW27010   0.141   3.335   2.579
 8704SOL    HW127011   0.200   3.376   2.648
 8704SOL    HW227012   0.154   3.382   2.492
 8705SOL     OW27013   5.015   0.714   0.469
 8705SOL    HW127014   5.106   0.672   0.471
 8705SOL    HW227015   4.947   0.648   0.499
 8706SOL     OW27016   4.511   2.161   5.889
 8706SOL    HW127017   4.470   2.084   5.938
 8706SOL    HW227018   4.609   2.166   5.909
 8707SOL     OW27019   6.507   2.447   6.836
 8707SOL    HW127020   6.580   2.410   6.779
 8707SOL    HW227021   6.498   2.545   6.820
 8708SOL     OW27022   4.151   1.746   2.393
 8708SOL    HW127023   4.085   1.702   2.454
 8708SOL    HW227024   4.200   1.675   2.342
 8709SOL     OW27025   6.890   5.724   0.557
 8709SOL    HW127026   6.907   5.649   0.620
 8709SOL    HW227027   6.976   5.770   0.536
 8710SOL     OW27028   2.175   2.774   3.946
 8710SOL    HW127029   2.267   2.777   3.986
 8710SOL    HW227030   2.113   2.830   4.001
 8711SOL     OW27031   1.337   5.879   3.202
 8711SOL    HW127032   1.397   5.959   3.205
 8711SOL    HW227033   1.391   5.796   3.203
 8712SOL     OW27034   4.035   2.216   4.838
 8712SOL    HW127035   4.108   2.167   4.789
 8712SOL    HW227036   4.071   2.302   4.874
 8713SOL     OW27037   0.436   3.792   3.964
 8713SOL    HW127038   0.454   3.887   3.938
 8713SOL    HW227039   0.406   3.741   3.884
 8714SOL     OW27040   1.241   1.228   6.184
 8714SOL    HW127041   1.288   1.175   6.255
 8714SOL    HW227042   1.209   1.165   6.113
 8715SOL     OW27043   4.815   0.932   1.000
 8715SOL    HW127044   4.873   0.980   1.066
 8715SOL    HW227045   4.726   0.914   1.041
 8716SOL     OW27046   0.366   0.237   1.012
 8716SOL    HW127047   0.343   0.164   1.077
 8716SOL    HW227048   0.463   0.230   0.987
 8717SOL     OW27049   3.636   3.364   3.620
 8717SOL    HW127050   3.543   3.347   3.588
 8717SOL    HW227051   3.698   3.366   3.541
 8718SOL     OW27052   0.646   4.250   4.501
 8718SOL    HW127053   0.573   4.316   4.485
 8718SOL    HW227054   0.735   4.294   4.489
 8719SOL     OW27055   2.655   0.081   6.277
 8719SOL    HW127056   2.694   0.063   6.368
 8719SOL    HW227057   2.659   0.179   6.258
 8720SOL     OW27058   6.382   5.353   5.853
 8720SOL    HW127059   6.386   5.439   5.904
 8720SOL    HW227060   6.316   5.292   5.896
 8721SOL     OW27061   6.876   2.413   2.864
 8721SOL    HW127062   6.951   2.358   2.901
 8721SOL    HW227063   6.797   2.354   2.848
 8722SOL     OW27064   3.723   1.356   6.302
 8722SOL    HW127065   3.633   1.391   6.328
 8722SOL    HW227066   3.733   1.262   6.333
 8723SOL     OW27067   4.911   5.643   1.425
 8723SOL    HW127068   4.927   5.650   1.327
 8723SOL    HW227069   4.857   5.721   1.456
 8724SOL     OW27070   5.604   0.206   6.125
 8724SOL    HW127071   5.609   0.306   6.123
 8724SOL    HW227072   5.549   0.173   6.049
 8725SOL     OW27073   2.166   0.172   6.907
 8725SOL    HW127074   2.091   0.122   6.949
 8725SOL    HW227075   2.147   0.270   6.910
 8726SOL     OW27076   6.573   0.191   2.176
 8726SOL    HW127077   6.562   0.276   2.124
 8726SOL    HW227078   6.488   0.139   2.175
 8727SOL     OW27079   0.457   5.876   2.063
 8727SOL    HW127080   0.531   5.942   2.050
 8727SOL    HW227081   0.373   5.912   2.021
 8728SOL     OW27082   4.175   0.465   4.189
 8728SOL    HW127083   4.077   0.481   4.188
 8728SOL    HW227084   4.221   0.540   4.237
 8729SOL     OW27085   4.945   6.171   4.076
 8729SOL    HW127086   4.893   6.098   4.121
 8729SOL    HW227087   5.026   6.132   4.032
 8730SOL     OW27088   6.385   4.024   2.567
 8730SOL    HW127089   6.359   3.930   2.546
 8730SOL    HW227090   6.390   4.036   2.666
 8731SOL     OW27091   2.222   2.802   2.673
 8731SOL    HW127092   2.141   2.763   2.716
 8731SOL    HW227093   2.303   2.749   2.699
 8732SOL     OW27094   5.543   4.285   1.840
 8732SOL    HW127095   5.562   4.383   1.851
 8732SOL    HW227096   5.448   4.266   1.865
 8733SOL     OW27097   2.303   5.396   1.557
 8733SOL    HW127098   2.279   5.366   1.464
 8733SOL    HW227099   2.397   5.369   1.576
 8734SOL     OW27100   1.466   4.562   2.284
 8734SOL    HW127101   1.507   4.528   2.199
 8734SOL    HW227102   1.368   4.544   2.283
 8735SOL     OW27103   1.218   1.991   0.431
 8735SOL    HW127104   1.119   2.007   0.424
 8735SOL    HW227105   1.249   1.943   0.349
 8736SOL     OW27106   0.437   6.141   6.089
 8736SOL    HW127107   0.397   6.226   6.056
 8736SOL    HW227108   0.448   6.146   6.188
 8737SOL     OW27109   2.450   6.333   5.974
 8737SOL    HW127110   2.492   6.419   5.948
 8737SOL    HW227111   2.372   6.351   6.035
 8738SOL     OW27112   2.038   5.259   4.281
 8738SOL    HW127113   2.065   5.168   4.311
 8738SOL    HW227114   1.991   5.306   4.356
 8739SOL     OW27115   5.713   5.374   6.145
 8739SOL    HW127116   5.798   5.394   6.096
 8739SOL    HW227117   5.715   5.281   6.181
 8740SOL     OW27118   5.310   0.825   5.430
 8740SOL    HW127119   5.313   0.775   5.343
 8740SOL    HW227120   5.403   0.845   5.460
 8741SOL     OW27121   2.808   1.207   1.325
 8741SOL    HW127122   2.881   1.267   1.293
 8741SOL    HW227123   2.753   1.177   1.248
 8742SOL     OW27124   5.663   6.278   1.548
 8742SOL    HW127125   5.575   6.318   1.525
 8742SOL    HW227126   5.683   6.293   1.645
 8743SOL     OW27127   1.720   0.625   2.288
 8743SOL    HW127128   1.745   0.713   2.328
 8743SOL    HW227129   1.800   0.582   2.247
 8744SOL     OW27130   3.858   2.829   6.037
 8744SOL    HW127131   3.905   2.878   6.110
 8744SOL    HW227132   3.857   2.885   5.954
 8745SOL     OW27133   6.112   3.105   5.891
 8745SOL    HW127134   6.204   3.105   5.851
 8745SOL    HW227135   6.044   3.123   5.820
 8746SOL     OW27136   5.093   3.649   5.014
 8746SOL    HW127137   5.105   3.738   5.059
 8746SOL    HW227138   4.997   3.635   4.992
 8747SOL     OW27139   0.201   2.359   2.437
 8747SOL    HW127140   0.295   2.355   2.469
 8747SOL    HW227141   0.139   2.351   2.515
 8748SOL     OW27142   6.928   1.802   5.155
 8748SOL    HW127143   6.970   1.827   5.067
 8748SOL    HW227144   6.891   1.884   5.199
 8749SOL     OW27145   2.587   0.558   6.552
 8749SOL    HW127146   2.517   0.535   6.485
 8749SOL    HW227147   2.611   0.655   6.543
 8750SOL     OW27148   3.116   3.354   5.455
 8750SOL    HW127149   3.083   3.365   5.361
 8750SOL    HW227150   3.182   3.427   5.475
 8751SOL     OW27151   6.572   0.240   2.935
 8751SOL    HW127152   6.498   0.193   2.887
 8751SOL    HW227153   6.660   0.216   2.893
 8752SOL     OW27154   2.528   4.799   0.297
 8752SOL    HW127155   2.575   4.779   0.211
 8752SOL    HW227156   2.592   4.788   0.373
 8753SOL     OW27157   4.917   1.621   5.013
 8753SOL    HW127158   5.003   1.664   5.038
 8753SOL    HW227159   4.849   1.638   5.085
 8754SOL     OW27160   1.306   2.600   4.853
 8754SOL    HW127161   1.229   2.660   4.830
 8754SOL    HW227162   1.332   2.615   4.949
 8755SOL     OW27163   2.766   0.746   0.421
 8755SOL    HW127164   2.729   0.752   0.514
 8755SOL    HW227165   2.717   0.810   0.361
 8756SOL     OW27166   1.981   3.002   3.640
 8756SOL    HW127167   1.945   2.933   3.577
 8756SOL    HW227168   1.905   3.056   3.675
 8757SOL     OW27169   4.528   6.278   5.684
 8757SOL    HW127170   4.520   6.303   5.781
 8757SOL    HW227171   4.551   6.180   5.677
 8758SOL     OW27172   4.561   6.759   2.136
 8758SOL    HW127173   4.493   6.686   2.127
 8758SOL    HW227174   4.558   6.796   2.229
 8759SOL     OW27175   3.826   2.379   0.382
 8759SOL    HW127176   3.874   2.451   0.331
 8759SOL    HW227177   3.733   2.370   0.347
 8760SOL     OW27178   1.601   1.294   5.094
 8760SOL    HW127179   1.643   1.384   5.097
 8760SOL    HW227180   1.607   1.257   5.001
 8761SOL     OW27181   5.059   1.903   2.558
 8761SOL    HW127182   5.149   1.873   2.526
 8761SOL    HW227183   4.991   1.885   2.487
 8762SOL     OW27184   0.774   4.415   1.848
 8762SOL    HW127185   0.675   4.427   1.838
 8762SOL    HW227186   0.803   4.334   1.796
 8763SOL     OW27187   5.949   6.225   6.116
 8763SOL    HW127188   6.033   6.275   6.095
 8763SOL    HW227189   5.940   6.214   6.215
 8764SOL     OW27190   4.890   1.064   4.498
 8764SOL    HW127191   4.827   1.082   4.573
 8764SOL    HW227192   4.983   1.089   4.525
 8765SOL     OW27193   6.264   6.304   5.333
 8765SOL    HW127194   6.285   6.373   5.264
 8765SOL    HW227195   6.311   6.326   5.418
 8766SOL     OW27196   4.414   4.570   3.746
 8766SOL    HW127197   4.479   4.510   3.793
 8766SOL    HW227198   4.347   4.605   3.811
 8767SOL     OW27199   4.077   6.970   2.989
 8767SOL    HW127200   4.002   6.961   2.923
 8767SOL    HW227201   4.040   6.964   3.082
 8768SOL     OW27202   1.136   2.897   0.571
 8768SOL    HW127203   1.120   2.828   0.642
 8768SOL    HW227204   1.062   2.965   0.574
 8769SOL     OW27205   1.460   6.760   4.430
 8769SOL    HW127206   1.523   6.705   4.485
 8769SOL    HW227207   1.469   6.737   4.334
 8770SOL     OW27208   5.446   3.688   2.072
 8770SOL    HW127209   5.378   3.618   2.048
 8770SOL    HW227210   5.529   3.643   2.107
 8771SOL     OW27211   1.200   0.469   6.298
 8771SOL    HW127212   1.151   0.523   6.365
 8771SOL    HW227213   1.163   0.487   6.207
 8772SOL     OW27214   4.879   6.222   6.625
 8772SOL    HW127215   4.934   6.144   6.597
 8772SOL    HW227216   4.825   6.197   6.706
 8773SOL     OW27217   4.358   2.378   3.815
 8773SOL    HW127218   4.286   2.330   3.865
 8773SOL    HW227219   4.446   2.337   3.836
 8774SOL     OW27220   1.846   1.479   6.976
 8774SOL    HW127221   1.938   1.447   6.954
 8774SOL    HW227222   1.845   1.518   0.048
 8775SOL     OW27223   6.599   0.168   4.954
 8775SOL    HW127224   6.513   0.218   4.957
 8775SOL    HW227225   6.675   0.230   4.972
 8776SOL     OW27226   3.925   3.672   5.269
 8776SOL    HW127227   3.936   3.753   5.212
 8776SOL    HW227228   3.946   3.695   5.364
 8777SOL     OW27229   0.129   3.791   1.326
 8777SOL    HW127230   0.039   3.834   1.327
 8777SOL    HW227231   0.193   3.847   1.275
 8778SOL     OW27232   5.990   1.994   4.556
 8778SOL    HW127233   6.086   2.021   4.546
 8778SOL    HW227234   5.933   2.049   4.496
 8779SOL     OW27235   3.238   5.118   2.259
 8779SOL    HW127236   3.232   5.199   2.201
 8779SOL    HW227237   3.146   5.083   2.277
 8780SOL     OW27238   0.974   5.404   3.337
 8780SOL    HW127239   0.960   5.484   3.394
 8780SOL    HW227240   0.993   5.433   3.243
 8781SOL     OW27241   6.196   2.052   3.454
 8781SOL    HW127242   6.161   1.999   3.531
 8781SOL    HW227243   6.130   2.049   3.379
 8782SOL     OW27244   5.177   6.855   2.138
 8782SOL    HW127245   5.181   6.955   2.139
 8782SOL    HW227246   5.114   6.823   2.209
 8783SOL     OW27247   6.590   4.053   3.598
 8783SOL    HW127248   6.532   4.118   3.648
 8783SOL    HW227249   6.533   3.997   3.537
 8784SOL     OW27250   5.873   4.358   6.394
 8784SOL    HW127251   5.874   4.379   6.296
 8784SOL    HW227252   5.805   4.287   6.412
 8785SOL     OW27253   6.627   3.638   6.540
 8785SOL    HW127254   6.704   3.691   6.505
 8785SOL    HW227255   6.658   3.583   6.618
 8786SOL     OW27256   2.052   6.702   0.452
 8786SOL    HW127257   2.089   6.618   0.413
 8786SOL    HW227258   2.113   6.778   0.433
 8787SOL     OW27259   2.527   2.810   1.718
 8787SOL    HW127260   2.520   2.734   1.653
 8787SOL    HW227261   2.437   2.852   1.730
 8788SOL     OW27262   0.153   2.186   5.658
 8788SOL    HW127263   0.172   2.132   5.740
 8788SOL    HW227264   0.153   2.283   5.682
 8789SOL     OW27265   6.147   6.986   5.561
 8789SOL    HW127266   6.058   6.941   5.568
 8789SOL    HW227267   6.138   0.063   5.581
 8790SOL     OW27268   0.021   0.828   6.744
 8790SOL    HW127269   6.974   0.900   6.728
 8790SOL    HW227270   7.011   0.744   6.698
 8791SOL     OW27271   5.960   6.875   4.876
 8791SOL    HW127272   5.864   6.856   4.857
 8791SOL    HW227273   5.975   6.877   4.975
 8792SOL     OW27274   3.298   6.391   3.269
 8792SOL    HW127275   3.208   6.432   3.286
 8792SOL    HW227276   3.285   6.301   3.226
 8793SOL     OW27277   1.142   5.109   3.598
 8793SOL    HW127278   1.058   5.126   3.649
 8793SOL    HW227279   1.123   5.115   3.500
 8794SOL     OW27280   4.201   6.746   1.916
 8794SOL    HW127281   4.290   6.792   1.922
 8794SOL    HW227282   4.208   6.668   1.855
 8795SOL     OW27283   1.068   6.638   4.996
 8795SOL    HW127284   1.039   6.698   4.921
 8795SOL    HW227285   1.114   6.692   5.066
 8796SOL     OW27286   4.290   1.667   4.595
 8796SOL    HW127287   4.220   1.697   4.530
 8796SOL    HW227288   4.315   1.572   4.576
 8797SOL     OW27289   0.634   0.274   5.224
 8797SOL    HW127290   0.651   0.185   5.266
 8797SOL    HW227291   0.541   0.304   5.247
 8798SOL     OW27292   5.058   5.271   5.562
 8798SOL    HW127293   4.982   5.208   5.578
 8798SOL    HW227294   5.023   5.365   5.553
 8799SOL     OW27295   1.995   4.245   3.807
 8799SOL    HW127296   2.072   4.303   3.783
 8799SOL    HW227297   1.982   4.246   3.906
 8800SOL     OW27298   6.203   4.491   5.429
 8800SOL    HW127299   6.148   4.569   5.458
 8800SOL    HW227300   6.156   4.443   5.355
 8801SOL     OW27301   0.828   1.458   4.820
 8801SOL    HW127302   0.802   1.512   4.900
 8801SOL    HW227303   0.754   1.461   4.753
 8802SOL     OW27304   1.641   0.086   1.211
 8802SOL    HW127305   1.634   7.009   1.189
 8802SOL    HW227306   1.549   0.124   1.222
 8803SOL     OW27307   0.413   5.404   6.116
 8803SOL    HW127308   0.349   5.419   6.040
 8803SOL    HW227309   0.363   5.368   6.195
 8804SOL     OW27310   3.378   0.873   2.294
 8804SOL    HW127311   3.353   0.925   2.213
 8804SOL    HW227312   3.365   0.776   2.277
 8805SOL     OW27313   2.621   6.991   4.356
 8805SOL    HW127314   2.656   0.064   4.365
 8805SOL    HW227315   2.690   6.933   4.312
 8806SOL     OW27316   2.445   5.155   1.898
 8806SOL    HW127317   2.528   5.179   1.847
 8806SOL    HW227318   2.375   5.226   1.882
 8807SOL     OW27319   5.368   0.298   6.584
 8807SOL    HW127320   5.350   0.245   6.667
 8807SOL    HW227321   5.354   0.240   6.504
 8808SOL     OW27322   5.430   2.405   0.063
 8808SOL    HW127323   5.481   2.486   0.034
 8808SOL    HW227324   5.337   2.409   0.025
 8809SOL     OW27325   4.630   5.176   3.723
 8809SOL    HW127326   4.650   5.114   3.647
 8809SOL    HW227327   4.531   5.183   3.735
 8810SOL     OW27328   5.557   0.731   6.323
 8810SOL    HW127329   5.474   0.766   6.368
 8810SOL    HW227330   5.598   0.660   6.380
 8811SOL     OW27331   2.665   1.441   3.926
 8811SOL    HW127332   2.619   1.409   3.844
 8811SOL    HW227333   2.654   1.374   3.999
 8812SOL     OW27334   2.074   6.756   1.351
 8812SOL    HW127335   2.143   6.828   1.350
 8812SOL    HW227336   1.996   6.786   1.406
 8813SOL     OW27337   1.339   4.492   1.545
 8813SOL    HW127338   1.349   4.584   1.583
 8813SOL    HW227339   1.242   4.471   1.533
 8814SOL     OW27340   5.646   0.505   0.526
 8814SOL    HW127341   5.589   0.579   0.559
 8814SOL    HW227342   5.589   0.438   0.477
 8815SOL     OW27343   6.710   6.208   0.899
 8815SOL    HW127344   6.740   6.273   0.969
 8815SOL    HW227345   6.692   6.257   0.814
 8816SOL     OW27346   1.456   0.824   0.424
 8816SOL    HW127347   1.555   0.810   0.420
 8816SOL    HW227348   1.426   0.827   0.519
 8817SOL     OW27349   0.875   6.228   5.024
 8817SOL    HW127350   0.894   6.319   5.060
 8817SOL    HW227351   0.941   6.163   5.061
 8818SOL     OW27352   0.535   3.620   4.580
 8818SOL    HW127353   0.632   3.614   4.604
 8818SOL    HW227354   0.483   3.555   4.636
 8819SOL     OW27355   5.145   4.853   4.803
 8819SOL    HW127356   5.215   4.845   4.732
 8819SOL    HW227357   5.188   4.879   4.889
 8820SOL     OW27358   2.142   0.902   5.524
 8820SOL    HW127359   2.051   0.931   5.553
 8820SOL    HW227360   2.164   0.945   5.436
 8821SOL     OW27361   2.938   6.370   0.339
 8821SOL    HW127362   2.938   6.291   0.278
 8821SOL    HW227363   2.899   6.344   0.428
 8822SOL     OW27364   0.551   0.282   4.944
 8822SOL    HW127365   0.515   0.234   5.024
 8822SOL    HW227366   0.640   0.321   4.967
 8823SOL     OW27367   2.211   1.063   1.102
 8823SOL    HW127368   2.169   1.151   1.123
 8823SOL    HW227369   2.281   1.042   1.170
 8824SOL     OW27370   0.911   3.439   1.041
 8824SOL    HW127371   0.895   3.340   1.036
 8824SOL    HW227372   0.843   3.481   1.101
 8825SOL     OW27373   1.398   0.456   3.306
 8825SOL    HW127374   1.435   0.538   3.261
 8825SOL    HW227375   1.388   0.383   3.239
 8826SOL     OW27376   6.469   3.091   0.813
 8826SOL    HW127377   6.555   3.041   0.803
 8826SOL    HW227378   6.486   3.189   0.803
 8827SOL     OW27379   3.646   1.042   3.248
 8827SOL    HW127380   3.622   0.985   3.327
 8827SOL    HW227381   3.685   1.128   3.280
 8828SOL     OW27382   4.371   5.379   5.143
 8828SOL    HW127383   4.293   5.357   5.084
 8828SOL    HW227384   4.391   5.477   5.137
 8829SOL     OW27385   6.448   2.322   0.593
 8829SOL    HW127386   6.498   2.401   0.629
 8829SOL    HW227387   6.434   2.255   0.666
 8830SOL     OW27388   0.527   1.551   2.125
 8830SOL    HW127389   0.454   1.616   2.103
 8830SOL    HW227390   0.598   1.555   2.055
 8831SOL     OW27391   5.256   1.333   4.274
 8831SOL    HW127392   5.247   1.250   4.219
 8831SOL    HW227393   5.311   1.400   4.225
 8832SOL     OW27394   0.100   6.082   2.866
 8832SOL    HW127395   0.004   6.102   2.885
 8832SOL    HW227396   0.154   6.099   2.948
 8833SOL     OW27397   2.501   6.195   5.724
 8833SOL    HW127398   2.482   6.263   5.794
 8833SOL    HW227399   2.493   6.103   5.764
 8834SOL     OW27400   5.488   3.415   4.757
 8834SOL    HW127401   5.401   3.426   4.804
 8834SOL    HW227402   5.537   3.337   4.795
 8835SOL     OW27403   5.718   0.926   6.199
 8835SOL    HW127404   5.653   0.850   6.212
 8835SOL    HW227405   5.670   1.013   6.211
 8836SOL     OW27406   4.345   2.351   6.887
 8836SOL    HW127407   4.405   2.415   6.840
 8836SOL    HW227408   4.302   2.290   6.821
 8837SOL     OW27409   0.272   6.296   3.466
 8837SOL    HW127410   0.221   6.216   3.434
 8837SOL    HW227411   0.320   6.338   3.390
 8838SOL     OW27412   2.508   4.541   2.886
 8838SOL    HW127413   2.442   4.614   2.866
 8838SOL    HW227414   2.516   4.482   2.806
 8839SOL     OW27415   5.172   5.106   3.076
 8839SOL    HW127416   5.255   5.146   3.113
 8839SOL    HW227417   5.102   5.102   3.147
 8840SOL     OW27418   6.831   2.002   1.741
 8840SOL    HW127419   6.831   1.917   1.795
 8840SOL    HW227420   6.925   2.037   1.737
 8841SOL     OW27421   0.360   0.355   5.697
 8841SOL    HW127422   0.456   0.384   5.703
 8841SOL    HW227423   0.301   0.435   5.706
 8842SOL     OW27424   2.981   3.109   2.154
 8842SOL    HW127425   2.896   3.057   2.168
 8842SOL    HW227426   3.036   3.064   2.084
 8843SOL     OW27427   2.036   3.384   5.487
 8843SOL    HW127428   2.001   3.319   5.419
 8843SOL    HW227429   2.027   3.477   5.453
 8844SOL     OW27430   5.961   2.439   6.688
 8844SOL    HW127431   5.866   2.410   6.700
 8844SOL    HW227432   6.002   2.457   6.777
 8845SOL     OW27433   3.880   3.645   0.195
 8845SOL    HW127434   3.894   3.714   0.124
 8845SOL    HW227435   3.964   3.634   0.247
 8846SOL     OW27436   3.361   5.940   3.667
 8846SOL    HW127437   3.453   5.958   3.703
 8846SOL    HW227438   3.366   5.928   3.568
 8847SOL     OW27439   2.812   1.746   3.002
 8847SOL    HW127440   2.838   1.683   3.075
 8847SOL    HW227441   2.777   1.831   3.042
 8848SOL     OW27442   2.596   0.862   2.062
 8848SOL    HW127443   2.583   0.955   2.028
 8848SOL    HW227444   2.619   0.802   1.986
 8849SOL     OW27445   3.720   6.190   3.211
 8849SOL    HW127446   3.734   6.123   3.284
 8849SOL    HW227447   3.710   6.143   3.124
 8850SOL     OW27448   1.622   2.550   0.082
 8850SOL    HW127449   1.694   2.580   0.020
 8850SOL    HW227450   1.597   2.624   0.144
 8851SOL     OW27451   1.168   3.961   3.046
 8851SOL    HW127452   1.121   3.873   3.036
 8851SOL    HW227453   1.206   3.968   3.138
 8852SOL     OW27454   0.554   2.104   4.998
 8852SOL    HW127455   0.577   2.008   4.983
 8852SOL    HW227456   0.636   2.160   4.988
 8853SOL     OW27457   2.999   0.720   1.771
 8853SOL    HW127458   2.997   0.625   1.804
 8853SOL    HW227459   3.028   0.780   1.846
 8854SOL     OW27460   2.093   2.508   5.489
 8854SOL    HW127461   2.143   2.564   5.556
 8854SOL    HW227462   2.158   2.452   5.438
 8855SOL     OW27463   6.459   4.934   1.181
 8855SOL    HW127464   6.432   4.848   1.136
 8855SOL    HW227465   6.555   4.929   1.208
 8856SOL     OW27466   0.921   6.358   6.707
 8856SOL    HW127467   0.926   6.458   6.704
 8856SOL    HW227468   0.987   6.320   6.642
 8857SOL     OW27469   6.377   1.664   4.179
 8857SOL    HW127470   6.360   1.750   4.228
 8857SOL    HW227471   6.428   1.683   4.095
 8858SOL     OW27472   6.906   3.825   4.411
 8858SOL    HW127473   6.968   3.889   4.366
 8858SOL    HW227474   6.923   3.733   4.378
 8859SOL     OW27475   1.352   1.449   4.088
 8859SOL    HW127476   1.329   1.522   4.024
 8859SOL    HW227477   1.270   1.420   4.136
 8860SOL     OW27478   7.020   2.491   1.420
 8860SOL    HW127479   0.017   2.396   1.397
 8860SOL    HW227480   0.073   2.526   1.479
 8861SOL     OW27481   3.732   1.237   5.761
 8861SOL    HW127482   3.744   1.248   5.859
 8861SOL    HW227483   3.821   1.235   5.716
 8862SOL     OW27484   5.876   6.727   3.820
 8862SOL    HW127485   5.962   6.774   3.801
 8862SOL    HW227486   5.834   6.697   3.734
 8863SOL     OW27487   2.891   4.755   3.724
 8863SOL    HW127488   2.831   4.753   3.804
 8863SOL    HW227489   2.843   4.719   3.644
 8864SOL     OW27490   3.442   4.729   6.333
 8864SOL    HW127491   3.414   4.663   6.403
 8864SOL    HW227492   3.503   4.797   6.375
 8865SOL     OW27493   2.973   0.950   4.627
 8865SOL    HW127494   2.924   0.997   4.701
 8865SOL    HW227495   3.069   0.976   4.630
 8866SOL     OW27496   5.495   6.659   2.791
 8866SOL    HW127497   5.424   6.621   2.851
 8866SOL    HW227498   5.453   6.714   2.719
 8867SOL     OW27499   5.825   4.642   3.719
 8867SOL    HW127500   5.863   4.715   3.775
 8867SOL    HW227501   5.854   4.653   3.624
 8868SOL     OW27502   0.014   2.953   2.248
 8868SOL    HW127503   0.076   2.890   2.200
 8868SOL    HW227504   0.028   2.945   2.346
 8869SOL     OW27505   3.956   5.879   5.170
 8869SOL    HW127506   4.006   5.965   5.180
 8869SOL    HW227507   4.013   5.804   5.203
 8870SOL     OW27508   2.313   6.778   2.075
 8870SOL    HW127509   2.308   6.688   2.032
 8870SOL    HW227510   2.386   6.779   2.143
 8871SOL     OW27511   2.017   0.101   3.561
 8871SOL    HW127512   1.987   0.159   3.485
 8871SOL    HW227513   2.062   0.157   3.630
 8872SOL     OW27514   1.460   5.045   5.917
 8872SOL    HW127515   1.497   4.954   5.931
 8872SOL    HW227516   1.375   5.055   5.968
 8873SOL     OW27517   2.184   0.037   2.302
 8873SOL    HW127518   2.168   6.998   2.223
 8873SOL    HW227519   2.099   0.083   2.327
 8874SOL     OW27520   2.139   5.828   2.009
 8874SOL    HW127521   2.112   5.844   2.104
 8874SOL    HW227522   2.190   5.742   2.003
 8875SOL     OW27523   6.517   3.313   4.695
 8875SOL    HW127524   6.484   3.353   4.610
 8875SOL    HW227525   6.587   3.373   4.735
 8876SOL     OW27526   2.610   0.810   5.824
 8876SOL    HW127527   2.633   0.857   5.910
 8876SOL    HW227528   2.574   0.877   5.759
 8877SOL     OW27529   2.312   2.511   4.011
 8877SOL    HW127530   2.229   2.455   4.021
 8877SOL    HW227531   2.319   2.574   4.089
 8878SOL     OW27532   3.885   4.856   1.312
 8878SOL    HW127533   3.954   4.784   1.304
 8878SOL    HW227534   3.795   4.815   1.321
 8879SOL     OW27535   4.697   5.016   2.475
 8879SOL    HW127536   4.642   5.100   2.473
 8879SOL    HW227537   4.650   4.947   2.531
 8880SOL     OW27538   4.018   6.758   4.710
 8880SOL    HW127539   3.982   6.693   4.642
 8880SOL    HW227540   4.114   6.735   4.730
 8881SOL     OW27541   5.379   5.821   4.395
 8881SOL    HW127542   5.365   5.920   4.392
 8881SOL    HW227543   5.424   5.791   4.311
 8882SOL     OW27544   4.985   1.036   1.184
 8882SOL    HW127545   4.911   1.074   1.240
 8882SOL    HW227546   5.071   1.042   1.234
 8883SOL     OW27547   1.977   6.418   6.266
 8883SOL    HW127548   1.884   6.395   6.294
 8883SOL    HW227549   1.995   6.515   6.285
 8884SOL     OW27550   5.981   3.403   5.814
 8884SOL    HW127551   6.048   3.476   5.827
 8884SOL    HW227552   5.950   3.370   5.904
 8885SOL     OW27553   4.994   4.518   0.820
 8885SOL    HW127554   4.966   4.465   0.900
 8885SOL    HW227555   4.951   4.608   0.823
 8886SOL     OW27556   3.200   5.817   5.480
 8886SOL    HW127557   3.271   5.814   5.410
 8886SOL    HW227558   3.177   5.913   5.500
 8887SOL     OW27559   4.083   0.796   0.620
 8887SOL    HW127560   4.175   0.815   0.586
 8887SOL    HW227561   4.080   0.702   0.656
 8888SOL     OW27562   2.330   2.010   5.111
 8888SOL    HW127563   2.391   2.075   5.156
 8888SOL    HW227564   2.356   2.001   5.015
 8889SOL     OW27565   6.500   6.789   7.000
 8889SOL    HW127566   6.597   6.771   6.979
 8889SOL    HW227567   6.477   6.747   0.067
 8890SOL     OW27568   0.338   5.863   5.625
 8890SOL    HW127569   0.371   5.891   5.715
 8890SOL    HW227570   0.282   5.937   5.586
 8891SOL     OW27571   3.814   3.844   0.376
 8891SOL    HW127572   3.818   3.766   0.315
 8891SOL    HW227573   3.824   3.813   0.471
 8892SOL     OW27574   3.399   4.925   3.523
 8892SOL    HW127575   3.477   4.947   3.464
 8892SOL    HW227576   3.415   4.963   3.614
 8893SOL     OW27577   1.197   4.955   4.824
 8893SOL    HW127578   1.184   4.858   4.804
 8893SOL    HW227579   1.113   4.994   4.861
 8894SOL     OW27580   3.162   2.153   6.703
 8894SOL    HW127581   3.184   2.090   6.778
 8894SOL    HW227582   3.227   2.230   6.704
 8895SOL     OW27583   6.772   2.060   1.480
 8895SOL    HW127584   6.698   2.124   1.501
 8895SOL    HW227585   6.800   2.013   1.564
 8896SOL     OW27586   2.168   3.100   4.852
 8896SOL    HW127587   2.120   3.026   4.804
 8896SOL    HW227588   2.227   3.061   4.922
 8897SOL     OW27589   2.436   2.340   3.640
 8897SOL    HW127590   2.375   2.263   3.624
 8897SOL    HW227591   2.386   2.413   3.687
 8898SOL     OW27592   5.157   3.159   2.259
 8898SOL    HW127593   5.141   3.215   2.340
 8898SOL    HW227594   5.073   3.152   2.205
 8899SOL     OW27595   1.886   4.567   0.376
 8899SOL    HW127596   1.943   4.648   0.389
 8899SOL    HW227597   1.854   4.563   0.282
 8900SOL     OW27598   5.150   3.237   3.185
 8900SOL    HW127599   5.179   3.161   3.243
 8900SOL    HW227600   5.092   3.299   3.238
 8901SOL     OW27601   0.591   1.276   4.214
 8901SOL    HW127602   0.623   1.182   4.226
 8901SOL    HW227603   0.525   1.279   4.140
 8902SOL     OW27604   1.067   5.635   0.077
 8902SOL    HW127605   1.166   5.625   0.075
 8902SOL    HW227606   1.042   5.726   0.045
 8903SOL     OW27607   0.748   2.170   4.082
 8903SOL    HW127608   0.687   2.154   4.160
 8903SOL    HW227609   0.810   2.245   4.103
 8904SOL     OW27610   0.637   1.072   4.737
 8904SOL    HW127611   0.575   1.003   4.774
 8904SOL    HW227612   0.603   1.103   4.648
 8905SOL     OW27613   2.227   3.076   2.821
 8905SOL    HW127614   2.238   2.981   2.791
 8905SOL    HW227615   2.181   3.129   2.749
 8906SOL     OW27616   0.817   6.144   1.350
 8906SOL    HW127617   0.764   6.103   1.275
 8906SOL    HW227618   0.772   6.227   1.381
 8907SOL     OW27619   3.365   2.954   5.715
 8907SOL    HW127620   3.288   3.017   5.726
 8907SOL    HW227621   3.451   3.003   5.732
 8908SOL     OW27622   1.742   6.237   0.459
 8908SOL    HW127623   1.643   6.249   0.467
 8908SOL    HW227624   1.785   6.326   0.446
 8909SOL     OW27625   2.882   1.199   6.002
 8909SOL    HW127626   2.941   1.272   6.036
 8909SOL    HW227627   2.937   1.136   5.947
 8910SOL     OW27628   0.655   2.778   5.388
 8910SOL    HW127629   0.601   2.727   5.321
 8910SOL    HW227630   0.717   2.715   5.436
 8911SOL     OW27631   4.923   3.282   5.006
 8911SOL    HW127632   4.857   3.326   5.068
 8911SOL    HW227633   4.927   3.334   4.921
 8912SOL     OW27634   2.508   3.379   6.327
 8912SOL    HW127635   2.597   3.337   6.345
 8912SOL    HW227636   2.459   3.391   6.413
 8913SOL     OW27637   4.282   5.100   6.665
 8913SOL    HW127638   4.209   5.112   6.597
 8913SOL    HW227639   4.248   5.042   6.739
 8914SOL     OW27640   4.848   0.581   4.772
 8914SOL    HW127641   4.854   0.667   4.721
 8914SOL    HW227642   4.751   0.561   4.791
 8915SOL     OW27643   1.897   2.108   4.142
 8915SOL    HW127644   1.836   2.085   4.218
 8915SOL    HW227645   1.932   2.024   4.101
 8916SOL     OW27646   6.533   2.991   6.804
 8916SOL    HW127647   6.620   2.979   6.851
 8916SOL    HW227648   6.461   2.942   6.853
 8917SOL     OW27649   5.536   2.571   0.789
 8917SOL    HW127650   5.457   2.603   0.841
 8917SOL    HW227651   5.514   2.483   0.746
 8918SOL     OW27652   0.989   4.812   0.548
 8918SOL    HW127653   1.017   4.904   0.576
 8918SOL    HW227654   0.912   4.819   0.484
 8919SOL     OW27655   5.153   4.271   0.140
 8919SOL    HW127656   5.063   4.297   0.104
 8919SOL    HW227657   5.181   4.185   0.099
 8920SOL     OW27658   0.149   2.062   6.879
 8920SOL    HW127659   0.223   2.053   6.945
 8920SOL    HW227660   0.152   2.152   6.837
 8921SOL     OW27661   1.798   3.204   2.193
 8921SOL    HW127662   1.890   3.172   2.216
 8921SOL    HW227663   1.780   3.290   2.242
 8922SOL     OW27664   4.033   5.509   2.138
 8922SOL    HW127665   4.028   5.562   2.053
 8922SOL    HW227666   4.128   5.480   2.154
 8923SOL     OW27667   1.404   1.604   6.793
 8923SOL    HW127668   1.320   1.602   6.740
 8923SOL    HW227669   1.482   1.594   6.731
 8924SOL     OW27670   4.057   5.357   5.095
 8924SOL    HW127671   4.080   5.314   5.182
 8924SOL    HW227672   3.961   5.340   5.074
 8925SOL     OW27673   0.713   0.774   2.558
 8925SOL    HW127674   0.649   0.815   2.623
 8925SOL    HW227675   0.794   0.832   2.550
 8926SOL     OW27676   6.880   3.167   5.890
 8926SOL    HW127677   6.957   3.201   5.837
 8926SOL    HW227678   6.828   3.102   5.835
 8927SOL     OW27679   6.007   1.132   4.220
 8927SOL    HW127680   6.097   1.167   4.249
 8927SOL    HW227681   6.020   1.061   4.152
 8928SOL     OW27682   1.387   0.343   6.015
 8928SOL    HW127683   1.429   0.431   6.039
 8928SOL    HW227684   1.367   0.292   6.098
 8929SOL     OW27685   5.759   2.060   5.125
 8929SOL    HW127686   5.736   2.102   5.213
 8929SOL    HW227687   5.831   1.992   5.139
 8930SOL     OW27688   1.008   2.803   3.601
 8930SOL    HW127689   0.913   2.829   3.621
 8930SOL    HW227690   1.014   2.704   3.589
 8931SOL     OW27691   3.053   3.700   1.129
 8931SOL    HW127692   3.092   3.763   1.062
 8931SOL    HW227693   2.954   3.705   1.127
 8932SOL     OW27694   6.081   2.008   2.329
 8932SOL    HW127695   6.020   1.933   2.305
 8932SOL    HW227696   6.030   2.094   2.324
 8933SOL     OW27697   2.532   2.771   6.157
 8933SOL    HW127698   2.610   2.791   6.097
 8933SOL    HW227699   2.558   2.791   6.252
 8934SOL     OW27700   2.671   5.343   4.717
 8934SOL    HW127701   2.705   5.365   4.808
 8934SOL    HW227702   2.747   5.307   4.661
 8935SOL     OW27703   0.621   4.466   0.270
 8935SOL    HW127704   0.529   4.437   0.246
 8935SOL    HW227705   0.638   4.448   0.367
 8936SOL     OW27706   1.142   4.529   1.852
 8936SOL    HW127707   1.057   4.574   1.824
 8936SOL    HW227708   1.216   4.558   1.791
 8937SOL     OW27709   0.524   0.178   5.936
 8937SOL    HW127710   0.608   0.217   5.972
 8937SOL    HW227711   0.471   0.249   5.889
 8938SOL     OW27712   0.380   5.986   0.835
 8938SOL    HW127713   0.308   6.049   0.864
 8938SOL    HW227714   0.441   6.033   0.771
 8939SOL     OW27715   5.017   2.691   3.923
 8939SOL    HW127716   4.922   2.695   3.955
 8939SOL    HW227717   5.022   2.729   3.831
 8940SOL     OW27718   0.326   1.145   2.455
 8940SOL    HW127719   0.284   1.104   2.537
 8940SOL    HW227720   0.389   1.079   2.414
 8941SOL     OW27721   6.815   2.429   5.261
 8941SOL    HW127722   6.776   2.485   5.334
 8941SOL    HW227723   6.872   2.487   5.203
 8942SOL     OW27724   7.007   4.435   5.054
 8942SOL    HW127725   0.084   4.441   5.079
 8942SOL    HW227726   6.990   4.487   4.971
 8943SOL     OW27727   3.603   4.250   6.135
 8943SOL    HW127728   3.530   4.318   6.144
 8943SOL    HW227729   3.686   4.295   6.101
 8944SOL     OW27730   5.320   4.644   5.153
 8944SOL    HW127731   5.410   4.666   5.190
 8944SOL    HW227732   5.330   4.609   5.060
 8945SOL     OW27733   0.545   0.567   3.128
 8945SOL    HW127734   0.613   0.628   3.087
 8945SOL    HW227735   0.454   0.589   3.091
 8946SOL     OW27736   3.348   1.335   5.211
 8946SOL    HW127737   3.412   1.321   5.135
 8946SOL    HW227738   3.301   1.248   5.231
 8947SOL     OW27739   1.991   3.547   5.257
 8947SOL    HW127740   1.946   3.627   5.218
 8947SOL    HW227741   2.084   3.540   5.220
 8948SOL     OW27742   6.581   6.708   4.295
 8948SOL    HW127743   6.619   6.616   4.286
 8948SOL    HW227744   6.651   6.770   4.331
 8949SOL     OW27745   2.513   6.896   0.971
 8949SOL    HW127746   2.586   6.955   1.005
 8949SOL    HW227747   2.536   6.801   0.990
 8950SOL     OW27748   4.527   4.297   6.390
 8950SOL    HW127749   4.454   4.360   6.362
 8950SOL    HW227750   4.593   4.346   6.447
 8951SOL     OW27751   0.747   2.040   5.336
 8951SOL    HW127752   0.685   1.962   5.324
 8951SOL    HW227753   0.797   2.056   5.250
 8952SOL     OW27754   1.219   6.934   2.224
 8952SOL    HW127755   1.291   6.881   2.267
 8952SOL    HW227756   1.257   7.019   2.188
 8953SOL     OW27757   1.328   4.283   6.590
 8953SOL    HW127758   1.425   4.299   6.609
 8953SOL    HW227759   1.312   4.185   6.577
 8954SOL     OW27760   0.980   0.163   6.109
 8954SOL    HW127761   0.954   0.066   6.108
 8954SOL    HW227762   1.030   0.183   6.193
 8955SOL     OW27763   0.455   5.251   2.407
 8955SOL    HW127764   0.387   5.198   2.355
 8955SOL    HW227765   0.490   5.196   2.482
 8956SOL     OW27766   0.947   1.923   6.583
 8956SOL    HW127767   0.935   1.954   6.678
 8956SOL    HW227768   0.938   1.824   6.579
 8957SOL     OW27769   2.876   4.149   1.639
 8957SOL    HW127770   2.929   4.131   1.722
 8957SOL    HW227771   2.815   4.227   1.656
 8958SOL     OW27772   0.075   0.681   4.705
 8958SOL    HW127773   0.062   0.582   4.706
 8958SOL    HW227774   7.007   0.726   4.691
 8959SOL     OW27775   1.818   4.863   1.653
 8959SOL    HW127776   1.795   4.789   1.590
 8959SOL    HW227777   1.751   4.937   1.644
 8960SOL     OW27778   4.442   4.929   2.883
 8960SOL    HW127779   4.503   4.961   2.956
 8960SOL    HW227780   4.391   4.849   2.915
 8961SOL     OW27781   2.834   1.468   4.775
 8961SOL    HW127782   2.910   1.458   4.710
 8961SOL    HW227783   2.776   1.387   4.771
 8962SOL     OW27784   6.986   6.189   1.897
 8962SOL    HW127785   6.977   6.247   1.978
 8962SOL    HW227786   0.001   6.244   1.821
 8963SOL     OW27787   4.942   6.406   4.225
 8963SOL    HW127788   4.932   6.314   4.186
 8963SOL    HW227789   4.852   6.439   4.254
 8964SOL     OW27790   4.929   3.565   3.316
 8964SOL    HW127791   4.930   3.465   3.318
 8964SOL    HW227792   4.988   3.600   3.389
 8965SOL     OW27793   2.526   4.727   0.660
 8965SOL    HW127794   2.452   4.667   0.690
 8965SOL    HW227795   2.505   4.821   0.688
 8966SOL     OW27796   6.808   3.954   6.175
 8966SOL    HW127797   6.893   3.904   6.158
 8966SOL    HW227798   6.764   3.974   6.088
 8967SOL     OW27799   3.640   0.126   2.097
 8967SOL    HW127800   3.598   0.204   2.145
 8967SOL    HW227801   3.708   0.159   2.032
 8968SOL     OW27802   5.112   5.312   3.364
 8968SOL    HW127803   5.082   5.217   3.367
 8968SOL    HW227804   5.087   5.358   3.449
 8969SOL     OW27805   6.660   1.234   4.615
 8969SOL    HW127806   6.593   1.265   4.683
 8969SOL    HW227807   6.617   1.168   4.554
 8970SOL     OW27808   3.004   3.378   0.189
 8970SOL    HW127809   3.024   3.469   0.153
 8970SOL    HW227810   2.998   3.312   0.114
 8971SOL     OW27811   4.754   5.455   2.159
 8971SOL    HW127812   4.698   5.373   2.152
 8971SOL    HW227813   4.841   5.439   2.111
 8972SOL     OW27814   4.979   4.218   6.740
 8972SOL    HW127815   4.989   4.316   6.759
 8972SOL    HW227816   4.907   4.181   6.798
 8973SOL     OW27817   1.197   3.285   2.178
 8973SOL    HW127818   1.190   3.365   2.119
 8973SOL    HW227819   1.185   3.311   2.273
 8974SOL     OW27820   1.922   4.520   5.774
 8974SOL    HW127821   2.003   4.536   5.717
 8974SOL    HW227822   1.840   4.542   5.721
 8975SOL     OW27823   2.237   6.946   6.529
 8975SOL    HW127824   2.325   6.931   6.574
 8975SOL    HW227825   2.250   6.946   6.430
 8976SOL     OW27826   0.277   4.943   5.090
 8976SOL    HW127827   0.208   5.016   5.096
 8976SOL    HW227828   0.293   4.906   5.182
 8977SOL     OW27829   6.014   2.220   0.082
 8977SOL    HW127830   5.942   2.261   0.138
 8977SOL    HW227831   5.974   2.176   0.002
 8978SOL     OW27832   5.705   0.090   5.413
 8978SOL    HW127833   5.638   0.100   5.340
 8978SOL    HW227834   5.775   0.161   5.404
 8979SOL     OW27835   1.103   3.468   4.658
 8979SOL    HW127836   1.076   3.375   4.681
 8979SOL    HW227837   1.197   3.485   4.689
 8980SOL     OW27838   2.442   2.928   5.692
 8980SOL    HW127839   2.436   2.983   5.608
 8980SOL    HW227840   2.529   2.879   5.694
 8981SOL     OW27841   4.249   1.999   5.530
 8981SOL    HW127842   4.289   1.915   5.564
 8981SOL    HW227843   4.197   1.980   5.446
 8982SOL     OW27844   1.521   2.410   1.240
 8982SOL    HW127845   1.455   2.397   1.166
 8982SOL    HW227846   1.496   2.492   1.292
 8983SOL     OW27847   1.790   6.650   0.050
 8983SOL    HW127848   1.753   6.738   0.022
 8983SOL    HW227849   1.739   6.577   0.005
 8984SOL     OW27850   0.016   0.401   4.734
 8984SOL    HW127851   0.071   0.342   4.794
 8984SOL    HW227852   0.026   0.370   4.639
 8985SOL     OW27853   2.223   3.741   0.463
 8985SOL    HW127854   2.297   3.710   0.523
 8985SOL    HW227855   2.135   3.711   0.501
 8986SOL     OW27856   5.277   5.056   2.360
 8986SOL    HW127857   5.325   5.100   2.435
 8986SOL    HW227858   5.178   5.061   2.376
 8987SOL     OW27859   4.650   6.784   1.797
 8987SOL    HW127860   4.718   6.739   1.855
 8987SOL    HW227861   4.560   6.777   1.840
 8988SOL     OW27862   1.460   4.039   5.054
 8988SOL    HW127863   1.368   4.012   5.024
 8988SOL    HW227864   1.485   4.125   5.011
 8989SOL     OW27865   5.021   3.755   0.849
 8989SOL    HW127866   4.965   3.781   0.770
 8989SOL    HW227867   5.114   3.735   0.819
 8990SOL     OW27868   1.534   5.949   3.815
 8990SOL    HW127869   1.473   5.944   3.894
 8990SOL    HW227870   1.584   6.036   3.816
 8991SOL     OW27871   1.873   2.218   5.986
 8991SOL    HW127872   1.848   2.286   6.055
 8991SOL    HW227873   1.970   2.195   5.995
 8992SOL     OW27874   5.358   1.478   6.918
 8992SOL    HW127875   5.403   1.559   6.955
 8992SOL    HW227876   5.294   1.441   6.986
 8993SOL     OW27877   5.497   2.752   2.038
 8993SOL    HW127878   5.421   2.696   2.074
 8993SOL    HW227879   5.480   2.848   2.061
 8994SOL     OW27880   1.269   4.348   4.469
 8994SOL    HW127881   1.172   4.356   4.444
 8994SOL    HW227882   1.280   4.276   4.537
 8995SOL     OW27883   1.549   2.965   0.247
 8995SOL    HW127884   1.530   2.867   0.252
 8995SOL    HW227885   1.474   3.016   0.290
 8996SOL     OW27886   6.032   5.310   0.409
 8996SOL    HW127887   6.013   5.262   0.494
 8996SOL    HW227888   6.088   5.391   0.427
 8997SOL     OW27889   5.109   1.684   6.234
 8997SOL    HW127890   5.114   1.630   6.151
 8997SOL    HW227891   5.198   1.728   6.250
 8998SOL     OW27892   5.852   3.836   3.887
 8998SOL    HW127893   5.754   3.847   3.870
 8998SOL    HW227894   5.866   3.775   3.965
 8999SOL     OW27895   4.701   5.975   6.440
 8999SOL    HW127896   4.633   5.907   6.414
 8999SOL    HW227897   4.666   6.067   6.418
 9000SOL     OW27898   1.731   4.105   1.112
 9000SOL    HW127899   1.635   4.132   1.124
 9000SOL    HW227900   1.739   4.006   1.127
 9001SOL     OW27901   1.552   5.562   2.219
 9001SOL    HW127902   1.650   5.556   2.241
 9001SOL    HW227903   1.541   5.589   2.123
 9002SOL     OW27904   0.403   5.185   5.459
 9002SOL    HW127905   0.313   5.182   5.504
 9002SOL    HW227906   0.462   5.116   5.501
 9003SOL     OW27907   5.616   3.241   1.643
 9003SOL    HW127908   5.692   3.212   1.586
 9003SOL    HW227909   5.620   3.340   1.657
 9004SOL     OW27910   4.041   6.282   1.300
 9004SOL    HW127911   4.018   6.366   1.348
 9004SOL    HW227912   4.133   6.288   1.262
 9005SOL     OW27913   5.629   2.796   4.442
 9005SOL    HW127914   5.591   2.817   4.352
 9005SOL    HW227915   5.629   2.697   4.455
 9006SOL     OW27916   2.616   5.411   1.378
 9006SOL    HW127917   2.630   5.500   1.421
 9006SOL    HW227918   2.615   5.340   1.449
 9007SOL     OW27919   3.196   1.308   3.511
 9007SOL    HW127920   3.240   1.219   3.501
 9007SOL    HW227921   3.098   1.299   3.499
 9008SOL     OW27922   1.441   5.579   3.686
 9008SOL    HW127923   1.433   5.625   3.598
 9008SOL    HW227924   1.374   5.506   3.692
 9009SOL     OW27925   3.094   6.561   0.876
 9009SOL    HW127926   3.054   6.578   0.786
 9009SOL    HW227927   3.126   6.647   0.915
 9010SOL     OW27928   1.391   6.483   4.274
 9010SOL    HW127929   1.293   6.496   4.286
 9010SOL    HW227930   1.424   6.543   4.201
 9011SOL     OW27931   5.001   1.889   2.261
 9011SOL    HW127932   4.919   1.855   2.215
 9011SOL    HW227933   5.010   1.987   2.246
 9012SOL     OW27934   2.116   3.990   0.349
 9012SOL    HW127935   2.041   3.982   0.283
 9012SOL    HW227936   2.160   3.901   0.361
 9013SOL     OW27937   0.298   6.591   5.120
 9013SOL    HW127938   0.307   6.690   5.131
 9013SOL    HW227939   0.334   6.545   5.201
 9014SOL     OW27940   6.548   2.017   0.190
 9014SOL    HW127941   6.486   2.070   0.247
 9014SOL    HW227942   6.642   2.045   0.208
 9015SOL     OW27943   4.496   1.553   1.874
 9015SOL    HW127944   4.412   1.591   1.836
 9015SOL    HW227945   4.575   1.602   1.836
 9016SOL     OW27946   0.341   6.744   6.852
 9016SOL    HW127947   0.252   6.712   6.821
 9016SOL    HW227948   0.345   6.740   6.952
 9017SOL     OW27949   4.240   1.871   3.708
 9017SOL    HW127950   4.173   1.923   3.656
 9017SOL    HW227951   4.282   1.929   3.776
 9018SOL     OW27952   3.890   2.801   6.833
 9018SOL    HW127953   3.873   2.824   6.928
 9018SOL    HW227954   3.871   2.704   6.817
 9019SOL     OW27955   1.512   5.652   1.954
 9019SOL    HW127956   1.454   5.732   1.970
 9019SOL    HW227957   1.546   5.654   1.861
 9020SOL     OW27958   0.087   3.621   0.447
 9020SOL    HW127959   0.117   3.550   0.384
 9020SOL    HW227960   0.097   3.589   0.541
 9021SOL     OW27961   6.730   6.729   3.338
 9021SOL    HW127962   6.720   6.826   3.361
 9021SOL    HW227963   6.669   6.707   3.262
 9022SOL     OW27964   3.299   1.455   6.694
 9022SOL    HW127965   3.365   1.387   6.662
 9022SOL    HW227966   3.348   1.529   6.742
 9023SOL     OW27967   3.384   2.887   2.596
 9023SOL    HW127968   3.289   2.913   2.581
 9023SOL    HW227969   3.443   2.945   2.539
 9024SOL     OW27970   0.808   4.413   4.903
 9024SOL    HW127971   0.907   4.402   4.892
 9024SOL    HW227972   0.763   4.326   4.880
 9025SOL     OW27973   0.780   5.349   0.981
 9025SOL    HW127974   0.694   5.388   0.947
 9025SOL    HW227975   0.760   5.263   1.028
 9026SOL     OW27976   3.844   2.960   0.569
 9026SOL    HW127977   3.762   2.967   0.512
 9026SOL    HW227978   3.855   2.865   0.599
 9027SOL     OW27979   1.627   2.534   3.058
 9027SOL    HW127980   1.678   2.605   3.009
 9027SOL    HW227981   1.689   2.458   3.078
 9028SOL     OW27982   3.102   3.680   5.272
 9028SOL    HW127983   3.022   3.738   5.256
 9028SOL    HW227984   3.077   3.584   5.262
 9029SOL     OW27985   4.290   6.667   4.744
 9029SOL    HW127986   4.310   6.598   4.675
 9029SOL    HW227987   4.376   6.702   4.782
 9030SOL     OW27988   2.809   1.628   3.505
 9030SOL    HW127989   2.870   1.683   3.448
 9030SOL    HW227990   2.808   1.665   3.598
 9031SOL     OW27991   3.792   6.434   4.313
 9031SOL    HW127992   3.857   6.387   4.372
 9031SOL    HW227993   3.703   6.390   4.320
 9032SOL     OW27994   3.847   3.739   0.636
 9032SOL    HW127995   3.793   3.655   0.641
 9032SOL    HW227996   3.944   3.716   0.622
 9033SOL     OW27997   0.115   3.838   2.894
 9033SOL    HW127998   0.071   3.801   2.975
 9033SOL    HW227999   0.054   3.830   2.815
 9034SOL     OW28000   3.192   6.896   5.221
 9034SOL    HW128001   3.291   6.906   5.215
 9034SOL    HW228002   3.157   6.854   5.138
 9035SOL     OW28003   2.039   4.988   6.591
 9035SOL    HW128004   2.079   5.029   6.509
 9035SOL    HW228005   2.110   4.942   6.644
 9036SOL     OW28006   1.538   1.727   5.366
 9036SOL    HW128007   1.584   1.638   5.370
 9036SOL    HW228008   1.581   1.790   5.432
 9037SOL     OW28009   1.027   3.922   4.719
 9037SOL    HW128010   0.998   3.827   4.732
 9037SOL    HW228011   1.003   3.975   4.800
 9038SOL     OW28012   4.073   0.983   5.773
 9038SOL    HW128013   4.111   0.904   5.820
 9038SOL    HW228014   3.996   0.954   5.716
 9039SOL     OW28015   2.012   5.619   5.163
 9039SOL    HW128016   2.065   5.557   5.220
 9039SOL    HW228017   1.925   5.640   5.209
 9040SOL     OW28018   3.535   2.147   2.754
 9040SOL    HW128019   3.452   2.094   2.739
 9040SOL    HW228020   3.521   2.241   2.723
 9041SOL     OW28021   1.009   2.080   1.699
 9041SOL    HW128022   1.009   2.135   1.783
 9041SOL    HW228023   1.100   2.081   1.658
 9042SOL     OW28024   3.685   0.006   5.302
 9042SOL    HW128025   3.770   0.036   5.345
 9042SOL    HW228026   3.690   6.928   5.284
 9043SOL     OW28027   1.214   0.520   0.061
 9043SOL    HW128028   1.207   0.575   0.144
 9043SOL    HW228029   1.246   0.577   7.006
 9044SOL     OW28030   6.262   0.688   0.341
 9044SOL    HW128031   6.195   0.680   0.415
 9044SOL    HW228032   6.263   0.603   0.288
 9045SOL     OW28033   2.569   1.946   2.533
 9045SOL    HW128034   2.549   1.978   2.626
 9045SOL    HW228035   2.607   2.022   2.480
 9046SOL     OW28036   3.347   3.460   2.882
 9046SOL    HW128037   3.327   3.370   2.921
 9046SOL    HW228038   3.444   3.465   2.857
 9047SOL     OW28039   1.967   4.099   5.000
 9047SOL    HW128040   2.066   4.105   5.011
 9047SOL    HW228041   1.933   4.183   4.957
 9048SOL     OW28042   5.564   3.410   5.931
 9048SOL    HW128043   5.550   3.501   5.970
 9048SOL    HW228044   5.499   3.396   5.855
 9049SOL     OW28045   3.577   6.730   5.850
 9049SOL    HW128046   3.544   6.819   5.882
 9049SOL    HW228047   3.514   6.694   5.781
 9050SOL     OW28048   0.356   3.135   0.587
 9050SOL    HW128049   0.283   3.203   0.581
 9050SOL    HW228050   0.440   3.173   0.548
 9051SOL     OW28051   3.909   0.209   0.880
 9051SOL    HW128052   3.818   0.214   0.921
 9051SOL    HW228053   3.899   0.186   0.783
 9052SOL     OW28054   2.810   2.296   4.309
 9052SOL    HW128055   2.788   2.202   4.281
 9052SOL    HW228056   2.729   2.354   4.298
 9053SOL     OW28057   2.293   0.607   2.782
 9053SOL    HW128058   2.268   0.613   2.878
 9053SOL    HW228059   2.295   0.511   2.754
 9054SOL     OW28060   3.101   6.242   3.697
 9054SOL    HW128061   3.060   6.176   3.633
 9054SOL    HW228062   3.157   6.193   3.763
 9055SOL     OW28063   6.402   2.686   4.087
 9055SOL    HW128064   6.458   2.701   4.005
 9055SOL    HW228065   6.308   2.666   4.060
 9056SOL     OW28066   0.351   2.311   1.700
 9056SOL    HW128067   0.308   2.241   1.643
 9056SOL    HW228068   0.450   2.297   1.701
 9057SOL     OW28069   4.993   3.557   6.363
 9057SOL    HW128070   4.951   3.625   6.303
 9057SOL    HW228071   5.083   3.532   6.328
 9058SOL     OW28072   2.444   1.060   1.886
 9058SOL    HW128073   2.371   1.126   1.870
 9058SOL    HW228074   2.517   1.074   1.820
 9059SOL     OW28075   1.163   1.745   3.587
 9059SOL    HW128076   1.197   1.660   3.626
 9059SOL    HW228077   1.210   1.763   3.500
 9060SOL     OW28078   6.126   2.925   3.951
 9060SOL    HW128079   6.183   2.856   3.907
 9060SOL    HW228080   6.031   2.893   3.956
 9061SOL     OW28081   2.182   5.268   1.837
 9061SOL    HW128082   2.188   5.338   1.766
 9061SOL    HW228083   2.116   5.198   1.809
 9062SOL     OW28084   1.986   6.702   2.170
 9062SOL    HW128085   1.913   6.672   2.230
 9062SOL    HW228086   2.074   6.691   2.216
 9063SOL     OW28087   3.498   0.479   3.645
 9063SOL    HW128088   3.484   0.446   3.739
 9063SOL    HW228089   3.561   0.417   3.598
 9064SOL     OW28090   6.239   2.389   5.369
 9064SOL    HW128091   6.333   2.360   5.386
 9064SOL    HW228092   6.233   2.431   5.279
 9065SOL     OW28093   3.952   0.194   6.260
 9065SOL    HW128094   3.955   0.262   6.186
 9065SOL    HW228095   3.886   0.223   6.329
 9066SOL     OW28096   4.658   6.550   0.647
 9066SOL    HW128097   4.634   6.489   0.572
 9066SOL    HW228098   4.717   6.502   0.712
 9067SOL     OW28099   0.891   0.176   4.702
 9067SOL    HW128100   0.973   0.180   4.646
 9067SOL    HW228101   0.810   0.189   4.644
 9068SOL     OW28102   2.370   6.722   4.840
 9068SOL    HW128103   2.413   6.649   4.787
 9068SOL    HW228104   2.312   6.682   4.910
 9069SOL     OW28105   1.505   3.498   1.478
 9069SOL    HW128106   1.416   3.456   1.495
 9069SOL    HW228107   1.527   3.489   1.380
 9070SOL     OW28108   1.174   3.082   4.906
 9070SOL    HW128109   1.177   3.067   5.005
 9070SOL    HW228110   1.231   3.160   4.883
 9071SOL     OW28111   5.978   6.486   1.865
 9071SOL    HW128112   5.905   6.419   1.879
 9071SOL    HW228113   6.065   6.447   1.896
 9072SOL     OW28114   6.783   1.755   1.026
 9072SOL    HW128115   6.716   1.688   0.993
 9072SOL    HW228116   6.775   1.762   1.126
 9073SOL     OW28117   2.892   6.998   3.044
 9073SOL    HW128118   2.941   0.065   3.043
 9073SOL    HW228119   2.958   6.923   3.044
 9074SOL     OW28120   1.091   1.469   1.817
 9074SOL    HW128121   1.130   1.437   1.730
 9074SOL    HW228122   1.099   1.569   1.821
 9075SOL     OW28123   0.070   1.313   2.066
 9075SOL    HW128124   0.094   1.404   2.031
 9075SOL    HW228125   0.127   1.292   2.146
 9076SOL     OW28126   0.260   2.693   5.816
 9076SOL    HW128127   0.260   2.747   5.732
 9076SOL    HW228128   0.324   2.733   5.882
 9077SOL     OW28129   4.821   0.472   0.276
 9077SOL    HW128130   4.750   0.541   0.292
 9077SOL    HW228131   4.778   0.385   0.250
 9078SOL     OW28132   4.169   3.675   5.530
 9078SOL    HW128133   4.091   3.719   5.573
 9078SOL    HW228134   4.238   3.744   5.506
 9079SOL     OW28135   2.791   0.243   4.316
 9079SOL    HW128136   2.812   0.244   4.414
 9079SOL    HW228137   2.870   0.208   4.266
 9080SOL     OW28138   4.524   2.639   6.172
 9080SOL    HW128139   4.538   2.643   6.271
 9080SOL    HW228140   4.483   2.551   6.148
 9081SOL     OW28141   4.095   0.514   2.302
 9081SOL    HW128142   4.003   0.548   2.284
 9081SOL    HW228143   4.096   0.464   2.388
 9082SOL     OW28144   2.004   0.466   5.254
 9082SOL    HW128145   1.914   0.430   5.229
 9082SOL    HW228146   2.054   0.491   5.171
 9083SOL     OW28147   3.342   5.186   6.250
 9083SOL    HW128148   3.346   5.098   6.203
 9083SOL    HW228149   3.272   5.244   6.207
 9084SOL     OW28150   3.418   3.768   3.110
 9084SOL    HW128151   3.410   3.864   3.134
 9084SOL    HW228152   3.327   3.729   3.095
 9085SOL     OW28153   2.667   0.671   1.758
 9085SOL    HW128154   2.744   0.730   1.784
 9085SOL    HW228155   2.694   0.613   1.682
 9086SOL     OW28156   0.810   4.578   6.905
 9086SOL    HW128157   0.760   4.664   6.905
 9086SOL    HW228158   0.877   4.578   6.980
 9087SOL     OW28159   4.856   2.576   1.282
 9087SOL    HW128160   4.773   2.528   1.251
 9087SOL    HW228161   4.930   2.510   1.291
 9088SOL     OW28162   6.918   6.786   1.533
 9088SOL    HW128163   6.876   6.702   1.500
 9088SOL    HW228164   6.847   6.851   1.560
 9089SOL     OW28165   5.472   5.686   5.337
 9089SOL    HW128166   5.426   5.601   5.311
 9089SOL    HW228167   5.492   5.685   5.436
 9090SOL     OW28168   6.354   1.641   4.914
 9090SOL    HW128169   6.443   1.627   4.959
 9090SOL    HW228170   6.300   1.705   4.968
 9091SOL     OW28171   2.956   4.107   0.496
 9091SOL    HW128172   2.886   4.156   0.548
 9091SOL    HW228173   2.926   4.096   0.402
 9092SOL     OW28174   6.608   0.689   6.871
 9092SOL    HW128175   6.573   0.675   6.778
 9092SOL    HW228176   6.544   0.648   6.936
 9093SOL     OW28177   1.132   6.040   5.432
 9093SOL    HW128178   1.178   5.962   5.389
 9093SOL    HW228179   1.196   6.085   5.494
 9094SOL     OW28180   6.572   4.988   3.077
 9094SOL    HW128181   6.540   5.073   3.035
 9094SOL    HW228182   6.526   4.975   3.165
 9095SOL     OW28183   5.115   4.884   6.260
 9095SOL    HW128184   5.206   4.907   6.225
 9095SOL    HW228185   5.125   4.822   6.338
 9096SOL     OW28186   6.579   4.913   2.632
 9096SOL    HW128187   6.624   4.932   2.545
 9096SOL    HW228188   6.603   4.984   2.698
 9097SOL     OW28189   2.137   1.963   0.389
 9097SOL    HW128190   2.081   1.942   0.309
 9097SOL    HW228191   2.098   1.918   0.470
 9098SOL     OW28192   2.993   1.818   4.814
 9098SOL    HW128193   3.043   1.892   4.859
 9098SOL    HW228194   3.022   1.730   4.852
 9099SOL     OW28195   2.742   3.148   5.590
 9099SOL    HW128196   2.716   3.079   5.658
 9099SOL    HW228197   2.700   3.126   5.502
 9100SOL     OW28198   0.248   3.799   3.276
 9100SOL    HW128199   0.258   3.806   3.375
 9100SOL    HW228200   0.279   3.709   3.246
 9101SOL     OW28201   2.399   2.369   1.777
 9101SOL    HW128202   2.480   2.425   1.796
 9101SOL    HW228203   2.387   2.302   1.851
 9102SOL     OW28204   3.163   6.928   2.105
 9102SOL    HW128205   3.199   6.920   2.198
 9102SOL    HW228206   3.237   6.951   2.042
 9103SOL     OW28207   5.873   1.819   6.627
 9103SOL    HW128208   5.928   1.874   6.564
 9103SOL    HW228209   5.897   1.843   6.721
 9104SOL     OW28210   6.654   6.701   1.345
 9104SOL    HW128211   6.697   6.629   1.398
 9104SOL    HW228212   6.554   6.697   1.356
 9105SOL     OW28213   0.677   0.247   5.567
 9105SOL    HW128214   0.664   0.311   5.643
 9105SOL    HW228215   0.600   0.182   5.566
 9106SOL     OW28216   6.159   3.045   1.252
 9106SOL    HW128217   6.226   2.993   1.199
 9106SOL    HW228218   6.088   2.983   1.287
 9107SOL     OW28219   1.820   0.309   6.566
 9107SOL    HW128220   1.781   0.264   6.646
 9107SOL    HW228221   1.920   0.305   6.572
 9108SOL     OW28222   4.812   4.308   5.091
 9108SOL    HW128223   4.814   4.209   5.107
 9108SOL    HW228224   4.718   4.342   5.104
 9109SOL     OW28225   4.900   3.293   3.006
 9109SOL    HW128226   4.987   3.293   2.956
 9109SOL    HW228227   4.838   3.226   2.964
 9110SOL     OW28228   1.693   5.266   4.234
 9110SOL    HW128229   1.768   5.216   4.191
 9110SOL    HW228230   1.706   5.266   4.333
 9111SOL     OW28231   4.596   2.743   6.759
 9111SOL    HW128232   4.532   2.809   6.800
 9111SOL    HW228233   4.688   2.783   6.760
 9112SOL     OW28234   1.283   5.053   2.463
 9112SOL    HW128235   1.192   5.046   2.504
 9112SOL    HW228236   1.299   4.973   2.405
 9113SOL     OW28237   4.966   2.026   2.987
 9113SOL    HW128238   5.042   2.084   3.017
 9113SOL    HW228239   4.894   2.083   2.948
 9114SOL     OW28240   0.464   5.677   3.513
 9114SOL    HW128241   0.515   5.739   3.573
 9114SOL    HW228242   0.439   5.725   3.429
 9115SOL     OW28243   5.836   5.481   5.283
 9115SOL    HW128244   5.845   5.514   5.190
 9115SOL    HW228245   5.833   5.558   5.346
 9116SOL     OW28246   0.302   0.236   2.994
 9116SOL    HW128247   0.350   0.256   2.908
 9116SOL    HW228248   0.228   0.171   2.976
 9117SOL     OW28249   3.931   2.507   6.385
 9117SOL    HW128250   3.868   2.556   6.445
 9117SOL    HW228251   4.025   2.529   6.411
 9118SOL     OW28252   6.634   3.459   0.189
 9118SOL    HW128253   6.589   3.524   0.251
 9118SOL    HW228254   6.655   3.504   0.103
 9119SOL     OW28255   4.126   1.429   1.387
 9119SOL    HW128256   4.072   1.368   1.444
 9119SOL    HW228257   4.088   1.522   1.393
 9120SOL     OW28258   6.513   2.749   5.137
 9120SOL    HW128259   6.502   2.709   5.046
 9120SOL    HW228260   6.433   2.806   5.158
 9121SOL     OW28261   3.680   6.381   5.665
 9121SOL    HW128262   3.717   6.462   5.619
 9121SOL    HW228263   3.739   6.303   5.648
 9122SOL     OW28264   2.314   4.012   1.946
 9122SOL    HW128265   2.405   4.009   1.987
 9122SOL    HW228266   2.245   3.991   2.015
 9123SOL     OW28267   1.768   0.269   4.319
 9123SOL    HW128268   1.755   0.350   4.262
 9123SOL    HW228269   1.862   0.236   4.308
 9124SOL     OW28270   3.500   5.402   1.960
 9124SOL    HW128271   3.585   5.358   1.990
 9124SOL    HW228272   3.478   5.371   1.867
 9125SOL     OW28273   4.308   4.536   1.202
 9125SOL    HW128274   4.374   4.606   1.229
 9125SOL    HW228275   4.303   4.531   1.102
 9126SOL     OW28276   4.769   4.194   1.002
 9126SOL    HW128277   4.758   4.275   1.061
 9126SOL    HW228278   4.837   4.213   0.932
 9127SOL     OW28279   0.060   2.488   5.485
 9127SOL    HW128280   6.995   2.437   5.472
 9127SOL    HW228281   0.084   2.490   5.582
 9128SOL     OW28282   6.169   2.513   4.640
 9128SOL    HW128283   6.222   2.568   4.705
 9128SOL    HW228284   6.193   2.541   4.546
 9129SOL     OW28285   0.128   1.946   0.694
 9129SOL    HW128286   0.150   1.855   0.731
 9129SOL    HW228287   0.195   2.012   0.728
 9130SOL     OW28288   0.619   4.459   5.894
 9130SOL    HW128289   0.599   4.440   5.990
 9130SOL    HW228290   0.719   4.464   5.882
 9131SOL     OW28291   5.215   3.415   6.675
 9131SOL    HW128292   5.115   3.410   6.670
 9131SOL    HW228293   5.243   3.510   6.669
 9132SOL     OW28294   0.535   4.399   4.219
 9132SOL    HW128295   0.533   4.492   4.182
 9132SOL    HW228296   0.512   4.402   4.316
 9133SOL     OW28297   3.274   0.787   0.902
 9133SOL    HW128298   3.237   0.756   0.815
 9133SOL    HW228299   3.358   0.840   0.885
 9134SOL     OW28300   4.212   5.901   1.815
 9134SOL    HW128301   4.277   5.865   1.748
 9134SOL    HW228302   4.164   5.980   1.777
 9135SOL     OW28303   1.588   6.052   1.495
 9135SOL    HW128304   1.660   6.078   1.559
 9135SOL    HW228305   1.615   6.078   1.402
 9136SOL     OW28306   4.331   5.843   5.468
 9136SOL    HW128307   4.326   5.797   5.379
 9136SOL    HW228308   4.427   5.849   5.497
 9137SOL     OW28309   4.368   0.337   5.936
 9137SOL    HW128310   4.429   0.258   5.926
 9137SOL    HW228311   4.354   0.356   6.033
 9138SOL     OW28312   2.025   3.123   0.284
 9138SOL    HW128313   2.101   3.163   0.335
 9138SOL    HW228314   2.021   3.164   0.193
 9139SOL     OW28315   0.816   1.207   1.597
 9139SOL    HW128316   0.763   1.269   1.655
 9139SOL    HW228317   0.848   1.256   1.516
 9140SOL     OW28318   0.578   4.919   2.366
 9140SOL    HW128319   0.582   4.958   2.458
 9140SOL    HW228320   0.513   4.843   2.365
 9141SOL     OW28321   6.935   5.816   6.621
 9141SOL    HW128322   6.855   5.817   6.681
 9141SOL    HW228323   6.934   5.898   6.563
 9142SOL     OW28324   0.322   2.822   2.762
 9142SOL    HW128325   0.287   2.907   2.722
 9142SOL    HW228326   0.370   2.770   2.691
 9143SOL     OW28327   0.740   4.038   1.159
 9143SOL    HW128328   0.818   4.050   1.097
 9143SOL    HW228329   0.662   4.089   1.124
 9144SOL     OW28330   2.734   4.689   4.711
 9144SOL    HW128331   2.767   4.648   4.796
 9144SOL    HW228332   2.650   4.740   4.729
 9145SOL     OW28333   1.448   6.761   6.776
 9145SOL    HW128334   1.381   6.835   6.770
 9145SOL    HW228335   1.452   6.713   6.688
 9146SOL     OW28336   5.266   2.657   3.056
 9146SOL    HW128337   5.207   2.577   3.068
 9146SOL    HW228338   5.347   2.631   3.003
 9147SOL     OW28339   6.432   1.041   4.851
 9147SOL    HW128340   6.373   1.116   4.824
 9147SOL    HW228341   6.393   0.994   4.930
 9148SOL     OW28342   5.699   0.307   2.173
 9148SOL    HW128343   5.787   0.273   2.141
 9148SOL    HW228344   5.628   0.288   2.106
 9149SOL     OW28345   5.383   3.310   2.195
 9149SOL    HW128346   5.404   3.349   2.284
 9149SOL    HW228347   5.293   3.267   2.197
 9150SOL     OW28348   3.396   4.149   0.656
 9150SOL    HW128349   3.297   4.142   0.648
 9150SOL    HW228350   3.420   4.234   0.705
 9151SOL     OW28351   2.163   3.841   3.798
 9151SOL    HW128352   2.213   3.864   3.714
 9151SOL    HW228353   2.172   3.743   3.816
 9152SOL     OW28354   1.961   4.236   4.072
 9152SOL    HW128355   1.907   4.228   4.156
 9152SOL    HW228356   2.051   4.194   4.086
 9153SOL     OW28357   0.700   3.639   6.476
 9153SOL    HW128358   0.713   3.546   6.441
 9153SOL    HW228359   0.653   3.635   6.564
 9154SOL     OW28360   4.766   5.138   3.307
 9154SOL    HW128361   4.724   5.118   3.395
 9154SOL    HW228362   4.860   5.103   3.306
 9155SOL     OW28363   1.908   4.493   3.017
 9155SOL    HW128364   1.989   4.449   2.978
 9155SOL    HW228365   1.883   4.447   3.102
 9156SOL     OW28366   6.550   2.523   0.741
 9156SOL    HW128367   6.478   2.541   0.807
 9156SOL    HW228368   6.638   2.515   0.789
 9157SOL     OW28369   3.266   4.007   6.505
 9157SOL    HW128370   3.264   3.965   6.414
 9157SOL    HW228371   3.287   4.104   6.496
 9158SOL     OW28372   6.359   4.807   4.598
 9158SOL    HW128373   6.446   4.842   4.563
 9158SOL    HW228374   6.341   4.717   4.558
 9159SOL     OW28375   2.055   6.760   3.153
 9159SOL    HW128376   1.980   6.710   3.109
 9159SOL    HW228377   2.018   6.818   3.226
 9160SOL     OW28378   0.559   4.982   6.446
 9160SOL    HW128379   0.503   4.948   6.370
 9160SOL    HW228380   0.655   4.985   6.418
 9161SOL     OW28381   5.888   5.093   3.137
 9161SOL    HW128382   5.804   5.124   3.181
 9161SOL    HW228383   5.936   5.172   3.098
 9162SOL     OW28384   3.914   0.930   2.806
 9162SOL    HW128385   3.963   0.849   2.774
 9162SOL    HW228386   3.961   0.969   2.885
 9163SOL     OW28387   6.866   2.802   1.967
 9163SOL    HW128388   6.880   2.724   2.028
 9163SOL    HW228389   6.816   2.773   1.886
 9164SOL     OW28390   1.660   0.544   6.756
 9164SOL    HW128391   1.657   0.588   6.846
 9164SOL    HW228392   1.568   0.542   6.717
 9165SOL     OW28393   5.139   2.485   5.601
 9165SOL    HW128394   5.228   2.440   5.600
 9165SOL    HW228395   5.072   2.429   5.553
 9166SOL     OW28396   4.034   5.432   0.894
 9166SOL    HW128397   3.974   5.511   0.887
 9166SOL    HW228398   4.110   5.453   0.955
 9167SOL     OW28399   1.216   2.159   6.536
 9167SOL    HW128400   1.246   2.096   6.607
 9167SOL    HW228401   1.284   2.161   6.463
 9168SOL     OW28402   6.510   5.724   6.166
 9168SOL    HW128403   6.586   5.661   6.151
 9168SOL    HW228404   6.493   5.733   6.264
 9169SOL     OW28405   6.622   6.103   6.365
 9169SOL    HW128406   6.653   6.095   6.460
 9169SOL    HW228407   6.656   6.025   6.312
 9170SOL     OW28408   1.818   1.484   6.254
 9170SOL    HW128409   1.757   1.557   6.285
 9170SOL    HW228410   1.913   1.513   6.264
 9171SOL     OW28411   2.321   5.228   0.766
 9171SOL    HW128412   2.290   5.248   0.860
 9171SOL    HW228413   2.349   5.313   0.722
 9172SOL     OW28414   4.589   1.643   5.000
 9172SOL    HW128415   4.528   1.714   4.965
 9172SOL    HW228416   4.547   1.554   4.986
 9173SOL     OW28417   6.863   3.220   4.187
 9173SOL    HW128418   6.804   3.277   4.244
 9173SOL    HW228419   6.919   3.161   4.245
 9174SOL     OW28420   0.668   6.059   6.906
 9174SOL    HW128421   0.617   6.118   6.969
 9174SOL    HW228422   0.702   5.979   6.955
 9175SOL     OW28423   1.490   6.275   0.556
 9175SOL    HW128424   1.501   6.186   0.600
 9175SOL    HW228425   1.496   6.348   0.624
 9176SOL     OW28426   2.197   0.478   2.420
 9176SOL    HW128427   2.233   0.432   2.339
 9176SOL    HW228428   2.269   0.482   2.490
 9177SOL     OW28429   1.870   2.815   4.152
 9177SOL    HW128430   1.868   2.864   4.239
 9177SOL    HW228431   1.828   2.872   4.081
 9178SOL     OW28432   2.129   5.511   6.494
 9178SOL    HW128433   2.066   5.457   6.549
 9178SOL    HW228434   2.218   5.465   6.490
 9179SOL     OW28435   2.930   5.869   4.455
 9179SOL    HW128436   2.932   5.967   4.436
 9179SOL    HW228437   2.840   5.832   4.434
 9180SOL     OW28438   6.455   1.990   4.060
 9180SOL    HW128439   6.550   2.012   4.080
 9180SOL    HW228440   6.443   1.980   3.961
 9181SOL     OW28441   4.946   2.579   3.431
 9181SOL    HW128442   4.937   2.633   3.347
 9181SOL    HW228443   4.855   2.567   3.472
 9182SOL     OW28444   2.526   1.181   2.979
 9182SOL    HW128445   2.495   1.105   3.036
 9182SOL    HW228446   2.602   1.152   2.921
 9183SOL     OW28447   4.677   3.714   6.551
 9183SOL    HW128448   4.657   3.752   6.461
 9183SOL    HW228449   4.673   3.614   6.548
 9184SOL     OW28450   3.304   2.069   0.824
 9184SOL    HW128451   3.271   2.048   0.916
 9184SOL    HW228452   3.226   2.090   0.764
 9185SOL     OW28453   0.174   7.016   6.348
 9185SOL    HW128454   0.090   7.011   6.296
 9185SOL    HW228455   0.241   0.052   6.300
 9186SOL     OW28456   4.925   0.561   5.883
 9186SOL    HW128457   4.894   0.654   5.898
 9186SOL    HW228458   4.920   0.539   5.786
 9187SOL     OW28459   4.290   1.886   6.853
 9187SOL    HW128460   4.258   1.935   6.934
 9187SOL    HW228461   4.313   1.951   6.781
 9188SOL     OW28462   1.556   0.919   1.329
 9188SOL    HW128463   1.473   0.865   1.340
 9188SOL    HW228464   1.592   0.908   1.236
 9189SOL     OW28465   3.325   1.092   3.419
 9189SOL    HW128466   3.339   1.150   3.339
 9189SOL    HW228467   3.288   1.003   3.390
 9190SOL     OW28468   6.196   4.051   5.302
 9190SOL    HW128469   6.114   4.068   5.357
 9190SOL    HW228470   6.273   4.030   5.362
 9191SOL     OW28471   5.240   0.125   6.769
 9191SOL    HW128472   5.184   0.181   6.830
 9191SOL    HW228473   5.181   0.072   6.708
 9192SOL     OW28474   5.887   3.802   5.869
 9192SOL    HW128475   5.975   3.787   5.824
 9192SOL    HW228476   5.896   3.781   5.967
 9193SOL     OW28477   3.204   3.463   3.793
 9193SOL    HW128478   3.184   3.430   3.701
 9193SOL    HW228479   3.242   3.555   3.788
 9194SOL     OW28480   3.550   6.127   2.210
 9194SOL    HW128481   3.500   6.200   2.256
 9194SOL    HW228482   3.604   6.075   2.277
 9195SOL     OW28483   1.683   2.680   3.861
 9195SOL    HW128484   1.587   2.667   3.837
 9195SOL    HW228485   1.709   2.615   3.932
 9196SOL     OW28486   4.620   0.299   3.998
 9196SOL    HW128487   4.545   0.364   4.012
 9196SOL    HW228488   4.659   0.312   3.907
 9197SOL     OW28489   2.681   3.627   0.358
 9197SOL    HW128490   2.604   3.580   0.400
 9197SOL    HW228491   2.762   3.618   0.416
 9198SOL     OW28492   5.854   4.390   6.124
 9198SOL    HW128493   5.756   4.369   6.131
 9198SOL    HW228494   5.867   4.463   6.056
 9199SOL     OW28495   0.932   3.263   6.394
 9199SOL    HW128496   0.837   3.293   6.383
 9199SOL    HW228497   0.940   3.212   6.480
 9200SOL     OW28498   1.089   6.062   0.295
 9200SOL    HW128499   1.065   6.159   0.302
 9200SOL    HW228500   1.183   6.048   0.328
 9201SOL     OW28501   0.914   3.986   1.421
 9201SOL    HW128502   0.975   3.909   1.441
 9201SOL    HW228503   0.879   3.978   1.328
 9202SOL     OW28504   2.430   5.644   4.946
 9202SOL    HW128505   2.505   5.611   4.888
 9202SOL    HW228506   2.410   5.575   5.016
 9203SOL     OW28507   5.055   1.964   6.293
 9203SOL    HW128508   5.059   1.901   6.215
 9203SOL    HW228509   4.963   2.002   6.299
 9204SOL     OW28510   5.819   4.095   3.358
 9204SOL    HW128511   5.770   4.053   3.434
 9204SOL    HW228512   5.786   4.188   3.344
 9205SOL     OW28513   5.091   3.484   2.742
 9205SOL    HW128514   5.119   3.451   2.832
 9205SOL    HW228515   4.994   3.466   2.728
 9206SOL     OW28516   3.306   0.566   4.665
 9206SOL    HW128517   3.238   0.498   4.692
 9206SOL    HW228518   3.280   0.608   4.579
 9207SOL     OW28519   3.521   6.104   5.875
 9207SOL    HW128520   3.498   6.155   5.792
 9207SOL    HW228521   3.617   6.119   5.898
 9208SOL     OW28522   4.876   3.235   2.249
 9208SOL    HW128523   4.780   3.242   2.274
 9208SOL    HW228524   4.888   3.264   2.154
 9209SOL     OW28525   4.031   1.389   1.834
 9209SOL    HW128526   4.118   1.408   1.880
 9209SOL    HW228527   3.991   1.306   1.872
 9210SOL     OW28528   2.303   0.251   1.776
 9210SOL    HW128529   2.278   0.252   1.873
 9210SOL    HW228530   2.377   0.316   1.760
 9211SOL     OW28531   5.591   1.586   6.287
 9211SOL    HW128532   5.642   1.663   6.324
 9211SOL    HW228533   5.655   1.518   6.250
 9212SOL     OW28534   4.636   4.428   4.814
 9212SOL    HW128535   4.707   4.469   4.870
 9212SOL    HW228536   4.547   4.441   4.857
 9213SOL     OW28537   6.095   6.893   4.419
 9213SOL    HW128538   6.076   6.833   4.497
 9213SOL    HW228539   6.188   6.929   4.426
 9214SOL     OW28540   1.308   2.323   4.843
 9214SOL    HW128541   1.300   2.422   4.850
 9214SOL    HW228542   1.329   2.298   4.748
 9215SOL     OW28543   6.917   4.477   2.324
 9215SOL    HW128544   6.930   4.494   2.226
 9215SOL    HW228545   7.004   4.449   2.364
 9216SOL     OW28546   2.396   6.531   4.647
 9216SOL    HW128547   2.436   6.510   4.558
 9216SOL    HW228548   2.340   6.454   4.676
 9217SOL     OW28549   5.571   1.143   6.273
 9217SOL    HW128550   5.537   1.236   6.286
 9217SOL    HW228551   5.609   1.109   6.360
 9218SOL     OW28552   4.382   0.230   6.580
 9218SOL    HW128553   4.306   0.217   6.516
 9218SOL    HW228554   4.397   0.328   6.595
 9219SOL     OW28555   4.094   2.950   5.323
 9219SOL    HW128556   4.181   2.996   5.305
 9219SOL    HW228557   4.018   3.005   5.288
 9220SOL     OW28558   2.315   5.994   3.054
 9220SOL    HW128559   2.390   6.002   2.989
 9220SOL    HW228560   2.294   5.898   3.070
 9221SOL     OW28561   2.329   0.752   5.898
 9221SOL    HW128562   2.425   0.765   5.873
 9221SOL    HW228563   2.273   0.747   5.816
 9222SOL     OW28564   2.492   4.469   4.041
 9222SOL    HW128565   2.528   4.511   4.125
 9222SOL    HW228566   2.421   4.403   4.064
 9223SOL     OW28567   0.955   3.165   3.929
 9223SOL    HW128568   0.893   3.211   3.865
 9223SOL    HW228569   0.979   3.227   4.003
 9224SOL     OW28570   1.143   3.485   3.750
 9224SOL    HW128571   1.208   3.513   3.679
 9224SOL    HW228572   1.192   3.447   3.828
 9225SOL     OW28573   3.427   6.378   6.008
 9225SOL    HW128574   3.482   6.329   6.076
 9225SOL    HW228575   3.353   6.427   6.053
 9226SOL     OW28576   1.104   0.065   1.614
 9226SOL    HW128577   1.117   6.986   1.616
 9226SOL    HW228578   1.022   0.089   1.666
 9227SOL     OW28579   1.270   5.293   1.203
 9227SOL    HW128580   1.300   5.293   1.107
 9227SOL    HW228581   1.291   5.205   1.245
 9228SOL     OW28582   2.326   2.567   6.371
 9228SOL    HW128583   2.291   2.653   6.335
 9228SOL    HW228584   2.269   2.492   6.339
 9229SOL     OW28585   1.189   5.261   6.662
 9229SOL    HW128586   1.153   5.205   6.588
 9229SOL    HW228587   1.125   5.259   6.739
 9230SOL     OW28588   4.585   2.423   3.998
 9230SOL    HW128589   4.656   2.373   4.049
 9230SOL    HW228590   4.495   2.401   4.036
 9231SOL     OW28591   0.662   5.147   5.784
 9231SOL    HW128592   0.577   5.180   5.825
 9231SOL    HW228593   0.739   5.196   5.823
 9232SOL     OW28594   1.860   4.917   1.308
 9232SOL    HW128595   1.909   4.939   1.392
 9232SOL    HW228596   1.922   4.870   1.245
 9233SOL     OW28597   0.948   6.733   0.811
 9233SOL    HW128598   1.004   6.795   0.756
 9233SOL    HW228599   0.866   6.708   0.760
 9234SOL     OW28600   2.216   5.210   1.036
 9234SOL    HW128601   2.197   5.124   1.083
 9234SOL    HW228602   2.131   5.248   0.999
 9235SOL     OW28603   2.402   2.520   3.438
 9235SOL    HW128604   2.439   2.458   3.507
 9235SOL    HW228605   2.345   2.589   3.483
 9236SOL     OW28606   2.182   3.508   7.016
 9236SOL    HW128607   2.158   3.597   0.036
 9236SOL    HW228608   2.175   3.514   6.916
 9237SOL     OW28609   6.899   6.229   2.934
 9237SOL    HW128610   6.961   6.302   2.904
 9237SOL    HW228611   6.806   6.265   2.942
 9238SOL     OW28612   2.407   2.946   5.955
 9238SOL    HW128613   2.414   2.945   5.855
 9238SOL    HW228614   2.405   2.851   5.989
 9239SOL     OW28615   6.847   4.584   6.763
 9239SOL    HW128616   6.866   4.615   6.856
 9239SOL    HW228617   6.749   4.572   6.751
 9240SOL     OW28618   5.232   3.453   2.989
 9240SOL    HW128619   5.249   3.545   3.025
 9240SOL    HW228620   5.225   3.389   3.065
 9241SOL     OW28621   0.141   5.627   0.154
 9241SOL    HW128622   0.161   5.655   0.060
 9241SOL    HW228623   0.049   5.590   0.159
 9242SOL     OW28624   1.779   2.436   1.785
 9242SOL    HW128625   1.785   2.524   1.737
 9242SOL    HW228626   1.750   2.451   1.879
 9243SOL     OW28627   1.280   0.553   1.900
 9243SOL    HW128628   1.370   0.578   1.865
 9243SOL    HW228629   1.235   0.633   1.939
 9244SOL     OW28630   2.818   6.423   6.072
 9244SOL    HW128631   2.721   6.447   6.068
 9244SOL    HW228632   2.841   6.393   6.164
 9245SOL     OW28633   1.137   3.993   3.614
 9245SOL    HW128634   1.192   3.910   3.606
 9245SOL    HW228635   1.071   3.996   3.539
 9246SOL     OW28636   5.915   0.438   3.966
 9246SOL    HW128637   5.921   0.361   4.030
 9246SOL    HW228638   5.859   0.510   4.006
 9247SOL     OW28639   3.946   5.334   2.850
 9247SOL    HW128640   4.021   5.387   2.889
 9247SOL    HW228641   3.859   5.380   2.868
 9248SOL     OW28642   2.921   1.441   5.108
 9248SOL    HW128643   2.837   1.459   5.056
 9248SOL    HW228644   2.899   1.428   5.204
 9249SOL     OW28645   3.876   4.616   1.687
 9249SOL    HW128646   3.869   4.704   1.640
 9249SOL    HW228647   3.787   4.590   1.723
 9250SOL     OW28648   6.859   4.013   3.671
 9250SOL    HW128649   6.777   4.034   3.617
 9250SOL    HW228650   6.936   3.997   3.609
 9251SOL     OW28651   3.630   2.697   1.158
 9251SOL    HW128652   3.679   2.644   1.227
 9251SOL    HW228653   3.691   2.715   1.081
 9252SOL     OW28654   4.875   0.814   5.022
 9252SOL    HW128655   4.782   0.795   5.053
 9252SOL    HW228656   4.902   0.905   5.053
 9253SOL     OW28657   5.759   4.847   5.541
 9253SOL    HW128658   5.786   4.899   5.460
 9253SOL    HW228659   5.662   4.823   5.534
 9254SOL     OW28660   5.349   4.213   2.161
 9254SOL    HW128661   5.347   4.115   2.144
 9254SOL    HW228662   5.436   4.239   2.202
 9255SOL     OW28663   5.827   3.641   6.500
 9255SOL    HW128664   5.899   3.673   6.437
 9255SOL    HW228665   5.805   3.546   6.479
 9256SOL     OW28666   2.167   7.013   2.018
 9256SOL    HW128667   2.069   7.002   2.035
 9256SOL    HW228668   2.212   6.925   2.025
 9257SOL     OW28669   6.129   5.908   3.248
 9257SOL    HW128670   6.126   6.007   3.229
 9257SOL    HW228671   6.192   5.891   3.324
 9258SOL     OW28672   3.505   3.343   0.594
 9258SOL    HW128673   3.552   3.297   0.670
 9258SOL    HW228674   3.423   3.388   0.629
 9259SOL     OW28675   1.824   1.665   0.222
 9259SOL    HW128676   1.906   1.609   0.215
 9259SOL    HW228677   1.815   1.702   0.314
 9260SOL     OW28678   6.955   3.063   6.149
 9260SOL    HW128679   6.997   2.973   6.131
 9260SOL    HW228680   6.951   3.115   6.064
 9261SOL     OW28681   4.760   1.113   0.102
 9261SOL    HW128682   4.750   1.121   0.201
 9261SOL    HW228683   4.792   1.201   0.065
 9262SOL     OW28684   0.702   7.012   4.841
 9262SOL    HW128685   0.786   0.010   4.891
 9262SOL    HW228686   0.718   0.004   4.743
 9263SOL     OW28687   3.168   5.573   2.975
 9263SOL    HW128688   3.251   5.587   2.920
 9263SOL    HW228689   3.188   5.593   3.070
 9264SOL     OW28690   4.993   3.696   6.592
 9264SOL    HW128691   5.080   3.745   6.594
 9264SOL    HW228692   4.972   3.668   6.498
 9265SOL     OW28693   4.178   2.036   6.330
 9265SOL    HW128694   4.243   1.982   6.383
 9265SOL    HW228695   4.216   2.127   6.314
 9266SOL     OW28696   0.329   5.708   0.901
 9266SOL    HW128697   0.342   5.799   0.861
 9266SOL    HW228698   0.370   5.639   0.840
 9267SOL     OW28699   0.984   1.985   4.073
 9267SOL    HW128700   0.900   2.037   4.056
 9267SOL    HW228701   1.047   1.998   3.997
 9268SOL     OW28702   1.170   6.432   2.637
 9268SOL    HW128703   1.211   6.520   2.615
 9268SOL    HW228704   1.075   6.445   2.665
 9269SOL     OW28705   4.323   0.357   6.212
 9269SOL    HW128706   4.285   0.449   6.226
 9269SOL    HW228707   4.267   0.290   6.261
 9270SOL     OW28708   3.374   1.001   5.514
 9270SOL    HW128709   3.405   0.977   5.422
 9270SOL    HW228710   3.292   1.058   5.507
 9271SOL     OW28711   0.496   0.156   0.594
 9271SOL    HW128712   0.431   0.231   0.600
 9271SOL    HW228713   0.536   0.139   0.685
 9272SOL     OW28714   0.631   6.498   6.910
 9272SOL    HW128715   0.561   6.440   6.952
 9272SOL    HW228716   0.695   6.529   6.981
 9273SOL     OW28717   5.157   6.166   3.729
 9273SOL    HW128718   5.079   6.104   3.740
 9273SOL    HW228719   5.146   6.218   3.644
 9274SOL     OW28720   0.120   3.069   0.360
 9274SOL    HW128721   0.055   3.063   0.436
 9274SOL    HW228722   0.208   3.032   0.388
 9275SOL     OW28723   6.974   6.809   0.519
 9275SOL    HW128724   6.982   6.779   0.424
 9275SOL    HW228725   6.964   6.908   0.523
 9276SOL     OW28726   2.953   4.518   0.185
 9276SOL    HW128727   2.922   4.513   0.280
 9276SOL    HW228728   2.889   4.469   0.126
 9277SOL     OW28729   4.101   4.820   3.195
 9277SOL    HW128730   4.196   4.808   3.226
 9277SOL    HW228731   4.051   4.875   3.262
 9278SOL     OW28732   6.998   0.429   5.752
 9278SOL    HW128733   0.039   0.353   5.732
 9278SOL    HW228734   6.915   0.422   5.697
 9279SOL     OW28735   3.452   6.155   1.740
 9279SOL    HW128736   3.385   6.086   1.712
 9279SOL    HW228737   3.474   6.214   1.662
 9280SOL     OW28738   2.172   2.426   1.947
 9280SOL    HW128739   2.268   2.402   1.961
 9280SOL    HW228740   2.152   2.429   1.849
 9281SOL     OW28741   3.383   3.672   5.977
 9281SOL    HW128742   3.461   3.724   5.943
 9281SOL    HW228743   3.298   3.719   5.953
 9282SOL     OW28744   4.512   1.038   4.330
 9282SOL    HW128745   4.577   1.056   4.405
 9282SOL    HW228746   4.476   1.125   4.297
 9283SOL     OW28747   5.485   0.457   6.304
 9283SOL    HW128748   5.385   0.453   6.304
 9283SOL    HW228749   5.515   0.543   6.263
 9284SOL     OW28750   2.981   3.917   4.819
 9284SOL    HW128751   2.918   3.937   4.743
 9284SOL    HW228752   2.964   3.825   4.853
 9285SOL     OW28753   5.489   3.482   1.196
 9285SOL    HW128754   5.515   3.386   1.200
 9285SOL    HW228755   5.399   3.490   1.155
 9286SOL     OW28756   5.118   5.596   0.604
 9286SOL    HW128757   5.201   5.652   0.600
 9286SOL    HW228758   5.143   5.499   0.613
 9287SOL     OW28759   2.323   4.230   5.592
 9287SOL    HW128760   2.226   4.251   5.584
 9287SOL    HW228761   2.348   4.163   5.522
 9288SOL     OW28762   4.577   2.499   3.209
 9288SOL    HW128763   4.556   2.428   3.142
 9288SOL    HW228764   4.661   2.476   3.258
 9289SOL     OW28765   4.714   0.807   6.431
 9289SOL    HW128766   4.761   0.870   6.493
 9289SOL    HW228767   4.761   0.719   6.430
 9290SOL     OW28768   6.237   0.518   3.990
 9290SOL    HW128769   6.288   0.455   3.931
 9290SOL    HW228770   6.146   0.481   4.007
 9291SOL     OW28771   1.139   6.250   5.828
 9291SOL    HW128772   1.055   6.236   5.880
 9291SOL    HW228773   1.169   6.163   5.790
 9292SOL     OW28774   1.584   1.117   6.737
 9292SOL    HW128775   1.613   1.212   6.728
 9292SOL    HW228776   1.490   1.107   6.703
 9293SOL     OW28777   5.100   2.493   6.556
 9293SOL    HW128778   5.085   2.568   6.491
 9293SOL    HW228779   5.025   2.490   6.622
 9294SOL     OW28780   4.943   1.336   0.312
 9294SOL    HW128781   5.039   1.347   0.335
 9294SOL    HW228782   4.898   1.279   0.381
 9295SOL     OW28783   0.065   0.738   5.281
 9295SOL    HW128784   0.143   0.777   5.230
 9295SOL    HW228785   0.027   0.662   5.228
 9296SOL     OW28786   2.365   3.729   0.688
 9296SOL    HW128787   2.357   3.763   0.781
 9296SOL    HW228788   2.427   3.650   0.685
 9297SOL     OW28789   1.036   6.038   3.051
 9297SOL    HW128790   1.121   6.089   3.036
 9297SOL    HW228791   0.965   6.071   2.988
 9298SOL     OW28792   1.243   6.771   5.961
 9298SOL    HW128793   1.325   6.738   6.007
 9298SOL    HW228794   1.162   6.737   6.009
 9299SOL     OW28795   2.024   1.203   3.933
 9299SOL    HW128796   2.000   1.195   4.029
 9299SOL    HW228797   2.105   1.148   3.913
 9300SOL     OW28798   0.215   5.850   5.284
 9300SOL    HW128799   0.309   5.882   5.296
 9300SOL    HW228800   0.199   5.770   5.342
 9301SOL     OW28801   0.196   4.153   4.574
 9301SOL    HW128802   0.111   4.125   4.618
 9301SOL    HW228803   0.178   4.229   4.511
 9302SOL     OW28804   2.324   2.826   4.731
 9302SOL    HW128805   2.227   2.832   4.756
 9302SOL    HW228806   2.374   2.779   4.804
 9303SOL     OW28807   3.356   4.434   0.587
 9303SOL    HW128808   3.363   4.484   0.500
 9303SOL    HW228809   3.277   4.373   0.584
 9304SOL     OW28810   4.943   5.151   1.001
 9304SOL    HW128811   4.958   5.247   0.980
 9304SOL    HW228812   4.904   5.105   0.922
 9305SOL     OW28813   3.586   1.656   0.543
 9305SOL    HW128814   3.611   1.584   0.477
 9305SOL    HW228815   3.521   1.718   0.500
 9306SOL     OW28816   6.767   3.527   4.719
 9306SOL    HW128817   6.681   3.571   4.693
 9306SOL    HW228818   6.833   3.597   4.747
 9307SOL     OW28819   1.724   3.918   0.480
 9307SOL    HW128820   1.798   3.980   0.506
 9307SOL    HW228821   1.715   3.919   0.380
 9308SOL     OW28822   1.297   4.866   1.293
 9308SOL    HW128823   1.361   4.837   1.364
 9308SOL    HW228824   1.203   4.850   1.325
 9309SOL     OW28825   4.425   6.451   6.318
 9309SOL    HW128826   4.476   6.522   6.270
 9309SOL    HW228827   4.345   6.491   6.362
 9310SOL     OW28828   5.051   5.700   5.627
 9310SOL    HW128829   5.132   5.700   5.685
 9310SOL    HW228830   5.002   5.786   5.637
 9311SOL     OW28831   4.443   4.242   1.472
 9311SOL    HW128832   4.475   4.324   1.425
 9311SOL    HW228833   4.501   4.223   1.551
 9312SOL     OW28834   1.758   2.405   1.363
 9312SOL    HW128835   1.835   2.404   1.298
 9312SOL    HW228836   1.674   2.429   1.315
 9313SOL     OW28837   0.902   0.825   1.743
 9313SOL    HW128838   0.865   0.734   1.722
 9313SOL    HW228839   0.989   0.837   1.697
 9314SOL     OW28840   5.596   3.454   0.570
 9314SOL    HW128841   5.653   3.419   0.644
 9314SOL    HW228842   5.594   3.388   0.495
 9315SOL     OW28843   6.263   0.841   6.530
 9315SOL    HW128844   6.281   0.859   6.433
 9315SOL    HW228845   6.226   0.749   6.540
 9316SOL     OW28846   6.209   0.058   4.892
 9316SOL    HW128847   6.155   6.999   4.863
 9316SOL    HW228848   6.255   0.038   4.979
 9317SOL     OW28849   3.213   5.194   3.593
 9317SOL    HW128850   3.168   5.114   3.632
 9317SOL    HW228851   3.173   5.214   3.503
 9318SOL     OW28852   4.614   5.952   0.232
 9318SOL    HW128853   4.516   5.928   0.228
 9318SOL    HW228854   4.633   6.001   0.317
 9319SOL     OW28855   2.495   3.185   0.698
 9319SOL    HW128856   2.425   3.120   0.667
 9319SOL    HW228857   2.565   3.137   0.751
 9320SOL     OW28858   4.716   6.904   5.892
 9320SOL    HW128859   4.637   6.845   5.875
 9320SOL    HW228860   4.700   6.993   5.848
 9321SOL     OW28861   0.870   2.077   5.104
 9321SOL    HW128862   0.857   2.147   5.034
 9321SOL    HW228863   0.923   2.002   5.067
 9322SOL     OW28864   6.350   4.876   6.036
 9322SOL    HW128865   6.428   4.831   5.990
 9322SOL    HW228866   6.276   4.810   6.048
 9323SOL     OW28867   2.411   2.670   4.528
 9323SOL    HW128868   2.447   2.611   4.600
 9323SOL    HW228869   2.344   2.733   4.567
 9324SOL     OW28870   1.970   3.687   0.581
 9324SOL    HW128871   1.984   3.759   0.649
 9324SOL    HW228872   1.878   3.693   0.544
 9325SOL     OW28873   2.015   6.213   1.567
 9325SOL    HW128874   2.098   6.193   1.619
 9325SOL    HW228875   1.952   6.265   1.625
 9326SOL     OW28876   3.552   5.547   0.244
 9326SOL    HW128877   3.480   5.571   0.309
 9326SOL    HW228878   3.592   5.459   0.270
 9327SOL     OW28879   4.834   7.014   2.984
 9327SOL    HW128880   4.785   0.071   3.024
 9327SOL    HW228881   4.856   0.013   2.889
 9328SOL     OW28882   2.159   6.888   5.117
 9328SOL    HW128883   2.125   6.947   5.043
 9328SOL    HW228884   2.248   6.921   5.148
 9329SOL     OW28885   0.207   5.657   6.901
 9329SOL    HW128886   0.305   5.642   6.889
 9329SOL    HW228887   0.158   5.627   6.819
 9330SOL     OW28888   0.755   7.019   6.794
 9330SOL    HW128889   0.732   0.084   6.746
 9330SOL    HW228890   0.765   6.945   6.729
 9331SOL     OW28891   1.894   2.632   5.196
 9331SOL    HW128892   1.933   2.717   5.230
 9331SOL    HW228893   1.813   2.608   5.250
 9332SOL     OW28894   4.343   5.567   0.185
 9332SOL    HW128895   4.392   5.520   0.111
 9332SOL    HW228896   4.372   5.530   0.273
 9333SOL     OW28897   3.550   5.943   0.797
 9333SOL    HW128898   3.522   5.882   0.724
 9333SOL    HW228899   3.471   5.995   0.830
 9334SOL     OW28900   5.286   0.410   4.157
 9334SOL    HW128901   5.239   0.445   4.238
 9334SOL    HW228902   5.230   0.340   4.113
 9335SOL     OW28903   1.993   2.083   0.867
 9335SOL    HW128904   2.046   2.000   0.882
 9335SOL    HW228905   2.028   2.157   0.925
 9336SOL     OW28906   5.826   6.948   4.403
 9336SOL    HW128907   5.919   6.913   4.389
 9336SOL    HW228908   5.799   7.001   4.323
 9337SOL     OW28909   4.914   0.532   0.024
 9337SOL    HW128910   4.863   0.517   0.108
 9337SOL    HW228911   4.852   0.525   6.965
 9338SOL     OW28912   0.293   5.890   0.161
 9338SOL    HW128913   0.260   5.871   0.069
 9338SOL    HW228914   0.356   5.817   0.190
 9339SOL     OW28915   5.596   5.217   0.395
 9339SOL    HW128916   5.575   5.269   0.312
 9339SOL    HW228917   5.677   5.161   0.379
 9340SOL     OW28918   3.853   4.862   2.679
 9340SOL    HW128919   3.910   4.926   2.731
 9340SOL    HW228920   3.776   4.912   2.638
 9341SOL     OW28921   6.586   4.563   6.699
 9341SOL    HW128922   6.509   4.613   6.740
 9341SOL    HW228923   6.572   4.555   6.600
 9342SOL     OW28924   3.052   0.772   4.979
 9342SOL    HW128925   3.095   0.684   4.959
 9342SOL    HW228926   3.122   0.841   4.996
 9343SOL     OW28927   5.073   3.490   2.231
 9343SOL    HW128928   5.003   3.455   2.168
 9343SOL    HW228929   5.129   3.557   2.183
 9344SOL     OW28930   5.273   5.278   6.663
 9344SOL    HW128931   5.336   5.212   6.623
 9344SOL    HW228932   5.257   5.352   6.598
 9345SOL     OW28933   6.471   5.845   6.726
 9345SOL    HW128934   6.448   5.880   6.817
 9345SOL    HW228935   6.387   5.819   6.678
 9346SOL     OW28936   4.853   5.681   2.475
 9346SOL    HW128937   4.759   5.708   2.498
 9346SOL    HW228938   4.894   5.750   2.416
 9347SOL     OW28939   3.561   5.778   0.571
 9347SOL    HW128940   3.553   5.681   0.552
 9347SOL    HW228941   3.498   5.829   0.512
 9348SOL     OW28942   2.600   5.353   3.267
 9348SOL    HW128943   2.596   5.401   3.355
 9348SOL    HW228944   2.694   5.323   3.250
 9349SOL     OW28945   6.413   5.518   2.254
 9349SOL    HW128946   6.434   5.615   2.266
 9349SOL    HW228947   6.318   5.508   2.225
 9350SOL     OW28948   6.882   1.300   3.880
 9350SOL    HW128949   6.842   1.362   3.812
 9350SOL    HW228950   6.850   1.325   3.971
 9351SOL     OW28951   2.420   0.975   5.693
 9351SOL    HW128952   2.384   1.007   5.780
 9351SOL    HW228953   2.352   0.990   5.621
 9352SOL     OW28954   1.547   2.860   5.344
 9352SOL    HW128955   1.477   2.802   5.386
 9352SOL    HW228956   1.538   2.953   5.379
 9353SOL     OW28957   1.627   4.434   2.069
 9353SOL    HW128958   1.689   4.418   1.992
 9353SOL    HW228959   1.582   4.348   2.094
 9354SOL     OW28960   6.098   1.501   1.120
 9354SOL    HW128961   6.115   1.600   1.124
 9354SOL    HW228962   6.126   1.467   1.030
 9355SOL     OW28963   6.130   1.176   3.805
 9355SOL    HW128964   6.157   1.268   3.776
 9355SOL    HW228965   6.037   1.157   3.771
 9356SOL     OW28966   4.611   5.238   2.207
 9356SOL    HW128967   4.563   5.203   2.287
 9356SOL    HW228968   4.564   5.207   2.124
 9357SOL     OW28969   2.350   4.436   6.955
 9357SOL    HW128970   2.327   4.391   0.022
 9357SOL    HW228971   2.437   4.401   6.922
 9358SOL     OW28972   5.515   3.519   1.675
 9358SOL    HW128973   5.434   3.461   1.671
 9358SOL    HW228974   5.507   3.582   1.753
 9359SOL     OW28975   0.235   3.342   5.337
 9359SOL    HW128976   0.262   3.424   5.286
 9359SOL    HW228977   0.230   3.264   5.274
 9360SOL     OW28978   1.292   0.036   5.950
 9360SOL    HW128979   1.289   6.956   5.957
 9360SOL    HW228980   1.297   0.075   6.041
 9361SOL     OW28981   2.622   0.198   3.370
 9361SOL    HW128982   2.659   0.189   3.278
 9361SOL    HW228983   2.682   0.152   3.436
 9362SOL     OW28984   1.398   1.270   1.854
 9362SOL    HW128985   1.404   1.352   1.911
 9362SOL    HW228986   1.423   1.292   1.760
 9363SOL     OW28987   4.003   5.256   2.017
 9363SOL    HW128988   3.984   5.337   2.074
 9363SOL    HW228989   3.983   5.277   1.922
 9364SOL     OW28990   4.029   3.399   6.190
 9364SOL    HW128991   3.962   3.328   6.207
 9364SOL    HW228992   3.982   3.485   6.168
 9365SOL     OW28993   2.186   1.732   5.075
 9365SOL    HW128994   2.232   1.770   4.994
 9365SOL    HW228995   2.235   1.761   5.157
 9366SOL     OW28996   3.099   1.856   6.905
 9366SOL    HW128997   3.191   1.896   6.896
 9366SOL    HW228998   3.062   1.836   6.814
 9367SOL     OW28999   7.000   6.229   3.769
 9367SOL    HW129000   6.917   6.174   3.767
 9367SOL    HW229001   0.050   6.180   3.821
 9368SOL     OW29002   2.974   1.846   3.332
 9368SOL    HW129003   2.936   1.877   3.245
 9368SOL    HW229004   3.041   1.772   3.315
 9369SOL     OW29005   0.295   0.618   5.983
 9369SOL    HW129006   0.369   0.560   6.018
 9369SOL    HW229007   0.253   0.668   6.059
 9370SOL     OW29008   5.325   0.264   2.309
 9370SOL    HW129009   5.415   0.238   2.345
 9370SOL    HW229010   5.253   0.226   2.368
 9371SOL     OW29011   2.177   5.234   0.357
 9371SOL    HW129012   2.262   5.233   0.305
 9371SOL    HW229013   2.183   5.167   0.431
 9372SOL     OW29014   5.874   5.991   3.020
 9372SOL    HW129015   5.829   6.048   2.951
 9372SOL    HW229016   5.877   5.896   2.988
 9373SOL     OW29017   4.716   2.169   2.881
 9373SOL    HW129018   4.650   2.104   2.844
 9373SOL    HW229019   4.708   2.256   2.832
 9374SOL     OW29020   6.001   3.003   6.958
 9374SOL    HW129021   6.065   2.931   6.986
 9374SOL    HW229022   5.962   2.980   6.869
 9375SOL     OW29023   6.767   1.662   3.685
 9375SOL    HW129024   6.751   1.572   3.724
 9375SOL    HW229025   6.727   1.666   3.593
 9376SOL     OW29026   2.765   3.706   1.192
 9376SOL    HW129027   2.707   3.701   1.110
 9376SOL    HW229028   2.722   3.653   1.266
 9377SOL     OW29029   1.375   5.571   4.148
 9377SOL    HW129030   1.381   5.568   4.248
 9377SOL    HW229031   1.443   5.508   4.109
 9378SOL     OW29032   0.965   0.328   5.449
 9378SOL    HW129033   0.955   0.238   5.493
 9378SOL    HW229034   0.877   0.374   5.447
 9379SOL     OW29035   4.575   5.187   5.232
 9379SOL    HW129036   4.653   5.248   5.216
 9379SOL    HW229037   4.491   5.232   5.202
 9380SOL     OW29038   5.815   4.677   4.916
 9380SOL    HW129039   5.829   4.727   4.830
 9380SOL    HW229040   5.803   4.743   4.991
 9381SOL     OW29041   2.106   3.132   5.613
 9381SOL    HW129042   2.111   3.209   5.549
 9381SOL    HW229043   2.162   3.152   5.693
 9382SOL     OW29044   3.499   1.750   2.781
 9382SOL    HW129045   3.531   1.663   2.745
 9382SOL    HW229046   3.418   1.734   2.838
 9383SOL     OW29047   2.832   6.393   4.826
 9383SOL    HW129048   2.741   6.415   4.861
 9383SOL    HW229049   2.870   6.316   4.879
 9384SOL     OW29050   3.773   6.216   1.307
 9384SOL    HW129051   3.868   6.246   1.296
 9384SOL    HW229052   3.734   6.197   1.217
 9385SOL     OW29053   4.417   1.469   2.462
 9385SOL    HW129054   4.324   1.435   2.470
 9385SOL    HW229055   4.461   1.467   2.552
 9386SOL     OW29056   2.101   6.356   5.260
 9386SOL    HW129057   2.149   6.294   5.322
 9386SOL    HW229058   2.004   6.331   5.256
 9387SOL     OW29059   3.657   0.476   6.947
 9387SOL    HW129060   3.691   0.568   6.966
 9387SOL    HW229061   3.594   0.479   6.869
 9388SOL     OW29062   1.952   5.567   2.611
 9388SOL    HW129063   1.905   5.570   2.523
 9388SOL    HW229064   1.920   5.488   2.663
 9389SOL     OW29065   1.919   6.724   5.452
 9389SOL    HW129066   1.990   6.666   5.414
 9389SOL    HW229067   1.918   6.812   5.404
 9390SOL     OW29068   4.079   5.768   4.593
 9390SOL    HW129069   4.145   5.762   4.667
 9390SOL    HW229070   4.074   5.680   4.545
 9391SOL     OW29071   2.319   0.704   5.119
 9391SOL    HW129072   2.238   0.653   5.090
 9391SOL    HW229073   2.394   0.640   5.133
 9392SOL     OW29074   6.917   0.594   5.126
 9392SOL    HW129075   6.908   0.686   5.089
 9392SOL    HW229076   6.863   0.531   5.071
 9393SOL     OW29077   3.097   1.106   5.465
 9393SOL    HW129078   3.004   1.089   5.499
 9393SOL    HW229079   3.093   1.130   5.368
 9394SOL     OW29080   6.490   1.722   2.302
 9394SOL    HW129081   6.398   1.682   2.313
 9394SOL    HW229082   6.509   1.782   2.380
 9395SOL     OW29083   2.643   2.580   0.434
 9395SOL    HW129084   2.719   2.573   0.499
 9395SOL    HW229085   2.561   2.611   0.482
 9396SOL     OW29086   0.462   5.442   3.398
 9396SOL    HW129087   0.465   5.528   3.449
 9396SOL    HW229088   0.525   5.447   3.320
 9397SOL     OW29089   2.878   0.212   0.549
 9397SOL    HW129090   2.818   0.266   0.489
 9397SOL    HW229091   2.849   0.116   0.547
 9398SOL     OW29092   1.680   0.142   5.539
 9398SOL    HW129093   1.652   0.088   5.460
 9398SOL    HW229094   1.768   0.109   5.573
 9399SOL     OW29095   0.416   1.624   0.082
 9399SOL    HW129096   0.499   1.675   0.062
 9399SOL    HW229097   0.381   1.582   7.018
 9400SOL     OW29098   5.632   2.650   1.428
 9400SOL    HW129099   5.679   2.734   1.456
 9400SOL    HW229100   5.699   2.578   1.412
 9401SOL     OW29101   4.152   6.730   3.199
 9401SOL    HW129102   4.109   6.652   3.155
 9401SOL    HW229103   4.243   6.705   3.232
 9402SOL     OW29104   1.029   4.779   4.607
 9402SOL    HW129105   1.055   4.737   4.519
 9402SOL    HW229106   1.055   4.875   4.607
 9403SOL     OW29107   5.479   1.435   3.224
 9403SOL    HW129108   5.436   1.481   3.302
 9403SOL    HW229109   5.559   1.384   3.256
 9404SOL     OW29110   0.588   3.209   5.979
 9404SOL    HW129111   0.605   3.180   6.073
 9404SOL    HW229112   0.524   3.285   5.978
 9405SOL     OW29113   0.469   6.129   2.292
 9405SOL    HW129114   0.516   6.070   2.226
 9405SOL    HW229115   0.393   6.080   2.333
 9406SOL     OW29116   0.084   3.266   6.386
 9406SOL    HW129117   0.042   3.183   6.421
 9406SOL    HW229118   0.148   3.303   6.454
 9407SOL     OW29119   2.483   5.139   3.496
 9407SOL    HW129120   2.524   5.220   3.455
 9407SOL    HW229121   2.555   5.076   3.525
 9408SOL     OW29122   3.860   1.877   6.170
 9408SOL    HW129123   3.883   1.914   6.259
 9408SOL    HW229124   3.943   1.866   6.115
 9409SOL     OW29125   5.965   4.581   5.964
 9409SOL    HW129126   5.979   4.678   5.948
 9409SOL    HW229127   5.960   4.533   5.876
 9410SOL     OW29128   3.443   6.552   1.714
 9410SOL    HW129129   3.345   6.532   1.710
 9410SOL    HW229130   3.492   6.492   1.651
 9411SOL     OW29131   3.893   3.786   1.446
 9411SOL    HW129132   3.981   3.809   1.404
 9411SOL    HW229133   3.902   3.788   1.546
 9412SOL     OW29134   0.340   3.286   1.562
 9412SOL    HW129135   0.362   3.272   1.659
 9412SOL    HW229136   0.255   3.239   1.539
 9413SOL     OW29137   3.946   6.233   4.437
 9413SOL    HW129138   4.033   6.235   4.389
 9413SOL    HW229139   3.895   6.151   4.411
 9414SOL     OW29140   3.208   1.010   3.740
 9414SOL    HW129141   3.299   1.014   3.699
 9414SOL    HW229142   3.156   0.935   3.700
 9415SOL     OW29143   2.567   0.019   2.623
 9415SOL    HW129144   2.606   6.996   2.705
 9415SOL    HW229145   2.585   0.118   2.627
 9416SOL     OW29146   0.715   1.520   1.140
 9416SOL    HW129147   0.742   1.616   1.146
 9416SOL    HW229148   0.706   1.495   1.043
 9417SOL     OW29149   3.972   6.880   5.775
 9417SOL    HW129150   3.932   6.969   5.755
 9417SOL    HW229151   4.042   6.890   5.846
 9418SOL     OW29152   3.111   6.684   1.309
 9418SOL    HW129153   3.164   6.681   1.224
 9418SOL    HW229154   3.108   6.778   1.343
 9419SOL     OW29155   2.777   4.989   5.927
 9419SOL    HW129156   2.756   4.999   5.830
 9419SOL    HW229157   2.708   5.036   5.982
 9420SOL     OW29158   0.041   2.119   4.149
 9420SOL    HW129159   0.086   2.053   4.088
 9420SOL    HW229160   0.054   2.212   4.113
 9421SOL     OW29161   2.540   6.473   4.876
 9421SOL    HW129162   2.508   6.384   4.909
 9421SOL    HW229163   2.504   6.489   4.783
 9422SOL     OW29164   4.238   6.001   2.677
 9422SOL    HW129165   4.202   5.916   2.636
 9422SOL    HW229166   4.174   6.076   2.659
 9423SOL     OW29167   4.403   0.774   3.238
 9423SOL    HW129168   4.333   0.736   3.298
 9423SOL    HW229169   4.491   0.732   3.258
 9424SOL     OW29170   5.011   0.923   5.311
 9424SOL    HW129171   5.004   0.970   5.223
 9424SOL    HW229172   5.105   0.891   5.325
 9425SOL     OW29173   0.608   3.829   6.048
 9425SOL    HW129174   0.701   3.860   6.068
 9425SOL    HW229175   0.603   3.798   5.953
 9426SOL     OW29176   2.535   1.891   0.273
 9426SOL    HW129177   2.633   1.887   0.254
 9426SOL    HW229178   2.512   1.984   0.303
 9427SOL     OW29179   3.366   5.320   4.885
 9427SOL    HW129180   3.414   5.264   4.952
 9427SOL    HW229181   3.366   5.415   4.915
 9428SOL     OW29182   5.204   1.037   0.927
 9428SOL    HW129183   5.163   0.947   0.909
 9428SOL    HW229184   5.163   1.105   0.866
 9429SOL     OW29185   1.966   4.513   2.096
 9429SOL    HW129186   1.940   4.569   2.017
 9429SOL    HW229187   2.066   4.506   2.100
 9430SOL     OW29188   0.107   4.479   1.799
 9430SOL    HW129189   0.104   4.382   1.776
 9430SOL    HW229190   0.193   4.519   1.767
 9431SOL     OW29191   5.630   3.956   0.744
 9431SOL    HW129192   5.591   3.873   0.784
 9431SOL    HW229193   5.589   4.036   0.788
 9432SOL     OW29194   5.411   0.807   2.632
 9432SOL    HW129195   5.391   0.718   2.590
 9432SOL    HW229196   5.372   0.880   2.576
 9433SOL     OW29197   3.412   4.936   3.821
 9433SOL    HW129198   3.441   5.030   3.804
 9433SOL    HW229199   3.335   4.936   3.886
 9434SOL     OW29200   5.417   5.235   3.101
 9434SOL    HW129201   5.396   5.244   3.198
 9434SOL    HW229202   5.484   5.161   3.088
 9435SOL     OW29203   0.690   2.022   4.481
 9435SOL    HW129204   0.637   1.972   4.550
 9435SOL    HW229205   0.779   1.978   4.469
 9436SOL     OW29206   1.239   3.901   2.145
 9436SOL    HW129207   1.309   3.871   2.080
 9436SOL    HW229208   1.149   3.891   2.105
 9437SOL     OW29209   1.723   6.461   3.378
 9437SOL    HW129210   1.647   6.440   3.317
 9437SOL    HW229211   1.788   6.386   3.377
 9438SOL     OW29212   0.818   6.858   1.869
 9438SOL    HW129213   0.863   6.930   1.921
 9438SOL    HW229214   0.798   6.781   1.929
 9439SOL     OW29215   0.343   2.361   2.142
 9439SOL    HW129216   0.282   2.283   2.125
 9439SOL    HW229217   0.366   2.405   2.055
 9440SOL     OW29218   4.576   5.916   4.360
 9440SOL    HW129219   4.581   5.890   4.456
 9440SOL    HW229220   4.567   5.834   4.303
 9441SOL     OW29221   1.777   3.637   4.857
 9441SOL    HW129222   1.744   3.719   4.904
 9441SOL    HW229223   1.794   3.659   4.761
 9442SOL     OW29224   4.975   3.411   0.114
 9442SOL    HW129225   4.964   3.350   0.036
 9442SOL    HW229226   4.885   3.441   0.147
 9443SOL     OW29227   2.632   5.678   1.412
 9443SOL    HW129228   2.672   5.762   1.376
 9443SOL    HW229229   2.582   5.698   1.496
 9444SOL     OW29230   1.577   3.895   6.353
 9444SOL    HW129231   1.539   3.806   6.380
 9444SOL    HW229232   1.675   3.897   6.373
 9445SOL     OW29233   5.690   3.477   2.752
 9445SOL    HW129234   5.674   3.553   2.689
 9445SOL    HW229235   5.603   3.445   2.789
 9446SOL     OW29236   6.448   6.743   3.764
 9446SOL    HW129237   6.533   6.746   3.817
 9446SOL    HW229238   6.370   6.753   3.826
 9447SOL     OW29239   6.257   3.359   3.120
 9447SOL    HW129240   6.210   3.446   3.106
 9447SOL    HW229241   6.259   3.337   3.217
 9448SOL     OW29242   6.825   6.712   6.279
 9448SOL    HW129243   6.821   6.712   6.379
 9448SOL    HW229244   6.760   6.779   6.242
 9449SOL     OW29245   6.453   5.778   6.421
 9449SOL    HW129246   6.470   5.872   6.450
 9449SOL    HW229247   6.412   5.726   6.496
 9450SOL     OW29248   3.438   5.031   4.676
 9450SOL    HW129249   3.496   4.969   4.623
 9450SOL    HW229250   3.380   5.084   4.614
 9451SOL     OW29251   3.683   5.957   6.084
 9451SOL    HW129252   3.699   5.950   6.182
 9451SOL    HW229253   3.640   5.873   6.051
 9452SOL     OW29254   0.776   3.549   0.808
 9452SOL    HW129255   0.847   3.550   0.878
 9452SOL    HW229256   0.818   3.536   0.718
 9453SOL     OW29257   2.081   4.997   3.919
 9453SOL    HW129258   2.026   4.934   3.975
 9453SOL    HW229259   2.177   4.971   3.924
 9454SOL     OW29260   2.148   3.411   5.996
 9454SOL    HW129261   2.071   3.392   6.058
 9454SOL    HW229262   2.234   3.396   6.046
 9455SOL     OW29263   4.035   1.847   2.743
 9455SOL    HW129264   4.004   1.757   2.710
 9455SOL    HW229265   3.955   1.902   2.768
 9456SOL     OW29266   0.757   4.232   0.179
 9456SOL    HW129267   0.838   4.289   0.193
 9456SOL    HW229268   0.785   4.141   0.150
 9457SOL     OW29269   2.307   4.028   5.408
 9457SOL    HW129270   2.367   3.999   5.333
 9457SOL    HW229271   2.229   3.965   5.414
 9458SOL     OW29272   1.415   3.099   6.420
 9458SOL    HW129273   1.350   3.151   6.476
 9458SOL    HW229274   1.366   3.043   6.353
 9459SOL     OW29275   5.885   4.668   2.861
 9459SOL    HW129276   5.880   4.578   2.903
 9459SOL    HW229277   5.948   4.726   2.913
 9460SOL     OW29278   6.604   1.636   5.030
 9460SOL    HW129279   6.659   1.686   4.963
 9460SOL    HW229280   6.572   1.699   5.101
 9461SOL     OW29281   6.690   1.967   2.999
 9461SOL    HW129282   6.596   1.953   2.971
 9461SOL    HW229283   6.751   1.956   2.921
 9462SOL     OW29284   2.001   3.671   3.382
 9462SOL    HW129285   1.976   3.767   3.391
 9462SOL    HW229286   1.957   3.619   3.455
 9463SOL     OW29287   0.675   0.876   1.324
 9463SOL    HW129288   0.689   0.905   1.418
 9463SOL    HW229289   0.756   0.897   1.269
 9464SOL     OW29290   5.836   6.528   0.781
 9464SOL    HW129291   5.798   6.620   0.792
 9464SOL    HW229292   5.936   6.533   0.778
 9465SOL     OW29293   0.571   6.488   3.109
 9465SOL    HW129294   0.507   6.502   3.033
 9465SOL    HW229295   0.586   6.390   3.122
 9466SOL     OW29296   3.729   4.078   5.209
 9466SOL    HW129297   3.686   4.146   5.268
 9466SOL    HW229298   3.714   3.987   5.247
 9467SOL     OW29299   1.439   2.450   1.817
 9467SOL    HW129300   1.499   2.430   1.740
 9467SOL    HW229301   1.489   2.440   1.903
 9468SOL     OW29302   5.832   2.635   5.994
 9468SOL    HW129303   5.886   2.609   6.074
 9468SOL    HW229304   5.795   2.726   6.007
 9469SOL     OW29305   5.684   5.810   1.411
 9469SOL    HW129306   5.598   5.761   1.394
 9469SOL    HW229307   5.753   5.778   1.346
 9470SOL     OW29308   4.709   3.950   5.740
 9470SOL    HW129309   4.665   3.871   5.697
 9470SOL    HW229310   4.798   3.923   5.776
 9471SOL     OW29311   5.871   1.270   4.438
 9471SOL    HW129312   5.776   1.290   4.413
 9471SOL    HW229313   5.920   1.235   4.358
 9472SOL     OW29314   5.938   2.893   4.262
 9472SOL    HW129315   5.988   2.970   4.221
 9472SOL    HW229316   5.841   2.900   4.239
 9473SOL     OW29317   2.577   4.905   5.696
 9473SOL    HW129318   2.636   4.852   5.635
 9473SOL    HW229319   2.546   4.988   5.649
 9474SOL     OW29320   6.399   2.824   0.126
 9474SOL    HW129321   6.485   2.779   0.104
 9474SOL    HW229322   6.415   2.921   0.145
 9475SOL     OW29323   3.141   3.680   0.342
 9475SOL    HW129324   3.055   3.722   0.313
 9475SOL    HW229325   3.189   3.741   0.404
 9476SOL     OW29326   2.858   3.345   4.997
 9476SOL    HW129327   2.764   3.321   5.022
 9476SOL    HW229328   2.866   3.346   4.897
 9477SOL     OW29329   0.535   3.151   2.663
 9477SOL    HW129330   0.549   3.149   2.564
 9477SOL    HW229331   0.438   3.135   2.683
 9478SOL     OW29332   4.741   3.295   5.728
 9478SOL    HW129333   4.643   3.316   5.720
 9478SOL    HW229334   4.761   3.210   5.678
 9479SOL     OW29335   5.689   6.213   6.970
 9479SOL    HW129336   5.622   6.225   6.896
 9479SOL    HW229337   5.703   6.300   7.016
 9480SOL     OW29338   5.058   3.988   0.470
 9480SOL    HW129339   5.054   3.984   0.570
 9480SOL    HW229340   5.095   4.076   0.442
 9481SOL     OW29341   5.834   3.553   1.519
 9481SOL    HW129342   5.743   3.585   1.490
 9481SOL    HW229343   5.883   3.515   1.441
 9482SOL     OW29344   6.609   0.498   2.838
 9482SOL    HW129345   6.577   0.426   2.900
 9482SOL    HW229346   6.634   0.579   2.891
 9483SOL     OW29347   1.695   1.770   1.424
 9483SOL    HW129348   1.656   1.748   1.334
 9483SOL    HW229349   1.715   1.686   1.474
 9484SOL     OW29350   4.020   1.064   3.029
 9484SOL    HW129351   3.992   1.158   3.050
 9484SOL    HW229352   4.012   1.008   3.111
 9485SOL     OW29353   0.827   0.193   2.484
 9485SOL    HW129354   0.848   0.170   2.579
 9485SOL    HW229355   0.887   0.141   2.424
 9486SOL     OW29356   2.496   4.948   1.639
 9486SOL    HW129357   2.416   4.891   1.621
 9486SOL    HW229358   2.548   4.910   1.716
 9487SOL     OW29359   2.976   3.327   3.326
 9487SOL    HW129360   2.951   3.299   3.419
 9487SOL    HW229361   2.932   3.414   3.305
 9488SOL     OW29362   2.282   6.171   1.199
 9488SOL    HW129363   2.307   6.150   1.104
 9488SOL    HW229364   2.185   6.192   1.204
 9489SOL     OW29365   4.013   4.051   1.489
 9489SOL    HW129366   3.927   4.014   1.452
 9489SOL    HW229367   4.090   3.998   1.453
 9490SOL     OW29368   6.200   5.896   1.073
 9490SOL    HW129369   6.217   5.838   0.994
 9490SOL    HW229370   6.157   5.982   1.043
 9491SOL     OW29371   6.870   4.445   3.647
 9491SOL    HW129372   6.948   4.438   3.709
 9491SOL    HW229373   6.899   4.478   3.558
 9492SOL     OW29374   3.625   2.929   3.086
 9492SOL    HW129375   3.717   2.942   3.050
 9492SOL    HW229376   3.562   2.912   3.010
 9493SOL     OW29377   4.289   5.302   4.104
 9493SOL    HW129378   4.382   5.317   4.137
 9493SOL    HW229379   4.280   5.207   4.073
 9494SOL     OW29380   4.458   4.647   1.636
 9494SOL    HW129381   4.412   4.692   1.559
 9494SOL    HW229382   4.526   4.583   1.600
 9495SOL     OW29383   5.751   1.785   4.859
 9495SOL    HW129384   5.836   1.775   4.808
 9495SOL    HW229385   5.764   1.753   4.953
 9496SOL     OW29386   5.477   4.809   0.992
 9496SOL    HW129387   5.460   4.902   0.957
 9496SOL    HW229388   5.418   4.745   0.943
 9497SOL     OW29389   6.007   4.707   0.014
 9497SOL    HW129390   5.913   4.682   0.038
 9497SOL    HW229391   6.054   4.627   6.995
 9498SOL     OW29392   5.218   0.311   5.571
 9498SOL    HW129393   5.300   0.261   5.544
 9498SOL    HW229394   5.191   0.374   5.497
 9499SOL     OW29395   2.700   4.190   5.938
 9499SOL    HW129396   2.606   4.221   5.920
 9499SOL    HW229397   2.698   4.115   6.003
 9500SOL     OW29398   4.349   0.520   1.496
 9500SOL    HW129399   4.387   0.536   1.405
 9500SOL    HW229400   4.346   0.607   1.547
 9501SOL     OW29401   3.381   1.581   4.857
 9501SOL    HW129402   3.352   1.582   4.953
 9501SOL    HW229403   3.443   1.657   4.841
 9502SOL     OW29404   0.298   2.041   4.300
 9502SOL    HW129405   0.297   1.946   4.268
 9502SOL    HW229406   0.218   2.089   4.265
 9503SOL     OW29407   0.402   1.419   1.203
 9503SOL    HW129408   0.484   1.361   1.196
 9503SOL    HW229409   0.330   1.369   1.250
 9504SOL     OW29410   0.589   1.789   0.458
 9504SOL    HW129411   0.604   1.692   0.478
 9504SOL    HW229412   0.546   1.833   0.538
 9505SOL     OW29413   5.417   4.063   4.184
 9505SOL    HW129414   5.509   4.027   4.168
 9505SOL    HW229415   5.420   4.133   4.256
 9506SOL     OW29416   0.597   3.624   6.724
 9506SOL    HW129417   0.558   3.650   6.813
 9506SOL    HW229418   0.579   3.528   6.706
 9507SOL     OW29419   1.492   1.067   3.776
 9507SOL    HW129420   1.420   1.100   3.837
 9507SOL    HW229421   1.579   1.062   3.827
 9508SOL     OW29422   5.705   3.400   0.808
 9508SOL    HW129423   5.637   3.332   0.835
 9508SOL    HW229424   5.720   3.464   0.883
 9509SOL     OW29425   0.636   0.425   5.776
 9509SOL    HW129426   0.648   0.515   5.734
 9509SOL    HW229427   0.690   0.422   5.861
 9510SOL     OW29428   0.767   4.429   2.147
 9510SOL    HW129429   0.704   4.502   2.176
 9510SOL    HW229430   0.777   4.431   2.048
 9511SOL     OW29431   0.402   1.425   6.889
 9511SOL    HW129432   0.370   1.349   6.945
 9511SOL    HW229433   0.479   1.396   6.834
 9512SOL     OW29434   5.725   1.100   2.231
 9512SOL    HW129435   5.783   1.051   2.166
 9512SOL    HW229436   5.765   1.094   2.322
 9513SOL     OW29437   1.677   3.206   5.328
 9513SOL    HW129438   1.653   3.148   5.406
 9513SOL    HW229439   1.775   3.199   5.310
 9514SOL     OW29440   2.584   4.696   6.911
 9514SOL    HW129441   2.526   4.705   6.830
 9514SOL    HW229442   2.543   4.748   6.986
 9515SOL     OW29443   1.294   5.896   0.504
 9515SOL    HW129444   1.288   5.821   0.438
 9515SOL    HW229445   1.316   5.859   0.594
 9516SOL     OW29446   5.589   3.643   5.168
 9516SOL    HW129447   5.548   3.663   5.079
 9516SOL    HW229448   5.612   3.729   5.214
 9517SOL     OW29449   1.779   4.497   0.150
 9517SOL    HW129450   1.806   4.506   0.054
 9517SOL    HW229451   1.730   4.410   0.163
 9518SOL     OW29452   1.141   2.308   0.322
 9518SOL    HW129453   1.081   2.238   0.283
 9518SOL    HW229454   1.178   2.365   0.249
 9519SOL     OW29455   3.747   3.358   4.040
 9519SOL    HW129456   3.697   3.438   4.007
 9519SOL    HW229457   3.684   3.295   4.086
 9520SOL     OW29458   7.002   1.192   2.592
 9520SOL    HW129459   6.932   1.209   2.522
 9520SOL    HW229460   0.049   1.266   2.591
 9521SOL     OW29461   3.714   4.246   1.166
 9521SOL    HW129462   3.691   4.343   1.174
 9521SOL    HW229463   3.712   4.204   1.256
 9522SOL     OW29464   4.562   5.748   2.478
 9522SOL    HW129465   4.542   5.723   2.383
 9522SOL    HW229466   4.546   5.845   2.491
 9523SOL     OW29467   2.409   4.984   5.162
 9523SOL    HW129468   2.441   4.930   5.241
 9523SOL    HW229469   2.417   4.929   5.079
 9524SOL     OW29470   2.293   2.596   0.041
 9524SOL    HW129471   2.277   2.627   0.135
 9524SOL    HW229472   2.381   2.550   0.036
 9525SOL     OW29473   2.000   2.186   5.346
 9525SOL    HW129474   1.922   2.204   5.405
 9525SOL    HW229475   2.022   2.268   5.293
 9526SOL     OW29476   5.990   4.188   1.258
 9526SOL    HW129477   5.974   4.157   1.352
 9526SOL    HW229478   6.085   4.216   1.248
 9527SOL     OW29479   1.962   0.747   5.356
 9527SOL    HW129480   1.940   0.650   5.346
 9527SOL    HW229481   2.042   0.757   5.415
 9528SOL     OW29482   6.946   1.746   0.137
 9528SOL    HW129483   6.858   1.701   0.122
 9528SOL    HW229484   7.017   1.677   0.153
 9529SOL     OW29485   5.996   3.661   6.112
 9529SOL    HW129486   5.902   3.632   6.134
 9529SOL    HW229487   6.047   3.676   6.197
 9530SOL     OW29488   1.423   3.218   3.685
 9530SOL    HW129489   1.355   3.197   3.755
 9530SOL    HW229490   1.406   3.161   3.605
 9531SOL     OW29491   5.006   4.199   2.230
 9531SOL    HW129492   5.027   4.211   2.327
 9531SOL    HW229493   5.042   4.111   2.199
 9532SOL     OW29494   0.056   5.345   1.126
 9532SOL    HW129495   7.019   5.368   1.047
 9532SOL    HW229496   0.045   5.416   1.196
 9533SOL     OW29497   0.621   5.926   4.877
 9533SOL    HW129498   0.648   6.003   4.820
 9533SOL    HW229499   0.676   5.846   4.854
 9534SOL     OW29500   6.280   4.228   5.099
 9534SOL    HW129501   6.246   4.166   5.170
 9534SOL    HW229502   6.379   4.238   5.110
 9535SOL     OW29503   2.237   0.410   5.672
 9535SOL    HW129504   2.149   0.368   5.651
 9535SOL    HW229505   2.269   0.463   5.594
 9536SOL     OW29506   2.944   3.952   5.203
 9536SOL    HW129507   2.978   3.983   5.292
 9536SOL    HW229508   3.004   3.986   5.131
 9537SOL     OW29509   2.306   0.448   4.192
 9537SOL    HW129510   2.406   0.451   4.187
 9537SOL    HW229511   2.279   0.374   4.253
 9538SOL     OW29512   5.393   1.086   4.468
 9538SOL    HW129513   5.402   1.034   4.383
 9538SOL    HW229514   5.480   1.131   4.488
 9539SOL     OW29515   3.417   4.156   4.522
 9539SOL    HW129516   3.453   4.249   4.511
 9539SOL    HW229517   3.465   4.111   4.597
 9540SOL     OW29518   5.865   4.722   3.987
 9540SOL    HW129519   5.937   4.789   3.968
 9540SOL    HW229520   5.777   4.768   3.990
 9541SOL     OW29521   2.813   0.409   6.010
 9541SOL    HW129522   2.823   0.376   6.104
 9541SOL    HW229523   2.800   0.331   5.948
 9542SOL     OW29524   5.025   4.431   4.962
 9542SOL    HW129525   5.107   4.392   5.004
 9542SOL    HW229526   4.944   4.382   4.994
 9543SOL     OW29527   3.577   0.709   6.068
 9543SOL    HW129528   3.527   0.793   6.088
 9543SOL    HW229529   3.518   0.630   6.086
 9544SOL     OW29530   5.824   2.770   3.873
 9544SOL    HW129531   5.787   2.819   3.795
 9544SOL    HW229532   5.827   2.672   3.853
 9545SOL     OW29533   5.817   5.751   3.503
 9545SOL    HW129534   5.915   5.740   3.522
 9545SOL    HW229535   5.799   5.724   3.408
 9546SOL     OW29536   3.521   2.205   5.794
 9546SOL    HW129537   3.602   2.234   5.845
 9546SOL    HW229538   3.455   2.280   5.788
 9547SOL     OW29539   2.287   5.317   4.147
 9547SOL    HW129540   2.188   5.304   4.155
 9547SOL    HW229541   2.322   5.355   4.232
 9548SOL     OW29542   0.204   4.536   5.261
 9548SOL    HW129543   0.130   4.591   5.301
 9548SOL    HW229544   0.178   4.440   5.260
 9549SOL     OW29545   3.227   2.244   1.557
 9549SOL    HW129546   3.278   2.275   1.477
 9549SOL    HW229547   3.134   2.282   1.554
 9550SOL     OW29548   0.235   0.616   0.135
 9550SOL    HW129549   0.197   0.608   0.227
 9550SOL    HW229550   0.193   0.693   0.087
 9551SOL     OW29551   6.269   2.738   6.176
 9551SOL    HW129552   6.221   2.650   6.165
 9551SOL    HW229553   6.219   2.809   6.128
 9552SOL     OW29554   2.195   6.311   4.609
 9552SOL    HW129555   2.241   6.229   4.644
 9552SOL    HW229556   2.104   6.318   4.651
 9553SOL     OW29557   5.923   2.376   6.412
 9553SOL    HW129558   5.824   2.387   6.419
 9553SOL    HW229559   5.967   2.409   6.495
 9554SOL     OW29560   3.053   0.190   3.030
 9554SOL    HW129561   3.132   0.236   2.989
 9554SOL    HW229562   3.007   0.254   3.092
 9555SOL     OW29563   0.857   1.555   2.273
 9555SOL    HW129564   0.894   1.471   2.313
 9555SOL    HW229565   0.862   1.550   2.173
 9556SOL     OW29566   1.731   4.143   1.895
 9556SOL    HW129567   1.710   4.070   1.829
 9556SOL    HW229568   1.727   4.232   1.849
 9557SOL     OW29569   6.639   6.165   1.607
 9557SOL    HW129570   6.633   6.263   1.624
 9557SOL    HW229571   6.677   6.119   1.687
 9558SOL     OW29572   5.937   6.053   5.880
 9558SOL    HW129573   5.841   6.027   5.866
 9558SOL    HW229574   5.949   6.089   5.972
 9559SOL     OW29575   0.496   4.552   0.861
 9559SOL    HW129576   0.566   4.599   0.807
 9559SOL    HW229577   0.503   4.579   0.957
 9560SOL     OW29578   2.745   0.969   3.430
 9560SOL    HW129579   2.773   0.915   3.509
 9560SOL    HW229580   2.662   1.021   3.453
 9561SOL     OW29581   1.947   0.736   0.866
 9561SOL    HW129582   2.019   0.751   0.934
 9561SOL    HW229583   1.901   0.650   0.886
 9562SOL     OW29584   2.633   0.485   5.675
 9562SOL    HW129585   2.647   0.401   5.729
 9562SOL    HW229586   2.627   0.563   5.737
 9563SOL     OW29587   0.089   6.348   0.756
 9563SOL    HW129588   0.058   6.396   0.674
 9563SOL    HW229589   0.037   6.263   0.767
 9564SOL     OW29590   2.478   1.087   0.897
 9564SOL    HW129591   2.402   1.101   0.961
 9564SOL    HW229592   2.484   0.990   0.873
 9565SOL     OW29593   4.325   1.176   4.789
 9565SOL    HW129594   4.225   1.183   4.795
 9565SOL    HW229595   4.355   1.089   4.828
 9566SOL     OW29596   2.836   5.142   6.895
 9566SOL    HW129597   2.775   5.208   6.852
 9566SOL    HW229598   2.789   5.055   6.905
 9567SOL     OW29599   4.780   5.018   0.783
 9567SOL    HW129600   4.686   5.011   0.815
 9567SOL    HW229601   4.827   4.931   0.799
 9568SOL     OW29602   4.219   2.785   6.292
 9568SOL    HW129603   4.260   2.860   6.241
 9568SOL    HW229604   4.193   2.712   6.228
 9569SOL     OW29605   6.458   1.155   2.312
 9569SOL    HW129606   6.368   1.193   2.334
 9569SOL    HW229607   6.506   1.134   2.397
 9570SOL     OW29608   0.622   3.422   1.798
 9570SOL    HW129609   0.631   3.471   1.885
 9570SOL    HW229610   0.530   3.383   1.790
 9571SOL     OW29611   3.449   3.698   6.295
 9571SOL    HW129612   3.424   3.720   6.200
 9571SOL    HW229613   3.510   3.619   6.295
 9572SOL     OW29614   2.369   4.771   2.174
 9572SOL    HW129615   2.321   4.801   2.092
 9572SOL    HW229616   2.442   4.708   2.149
 9573SOL     OW29617   0.974   2.688   6.802
 9573SOL    HW129618   0.941   2.671   6.709
 9573SOL    HW229619   1.007   2.782   6.810
 9574SOL     OW29620   3.998   3.554   3.040
 9574SOL    HW129621   3.937   3.486   2.998
 9574SOL    HW229622   4.039   3.515   3.122
 9575SOL     OW29623   0.451   1.140   1.429
 9575SOL    HW129624   0.477   1.106   1.519
 9575SOL    HW229625   0.355   1.168   1.430
 9576SOL     OW29626   1.950   1.473   1.496
 9576SOL    HW129627   1.858   1.513   1.494
 9576SOL    HW229628   1.982   1.459   1.402
 9577SOL     OW29629   1.094   0.445   6.065
 9577SOL    HW129630   1.085   0.475   5.970
 9577SOL    HW229631   1.059   0.352   6.074
 9578SOL     OW29632   0.673   4.036   3.267
 9578SOL    HW129633   0.738   3.974   3.311
 9578SOL    HW229634   0.601   4.060   3.332
 9579SOL     OW29635   1.428   5.041   3.165
 9579SOL    HW129636   1.490   5.018   3.240
 9579SOL    HW229637   1.464   5.119   3.114
 9580SOL     OW29638   4.981   3.599   1.075
 9580SOL    HW129639   4.990   3.645   0.987
 9580SOL    HW229640   4.918   3.521   1.066
 9581SOL     OW29641   0.548   6.217   5.686
 9581SOL    HW129642   0.538   6.315   5.672
 9581SOL    HW229643   0.505   6.168   5.610
 9582SOL     OW29644   4.473   5.348   5.942
 9582SOL    HW129645   4.436   5.261   5.976
 9582SOL    HW229646   4.496   5.339   5.845
 9583SOL     OW29647   3.643   4.337   1.507
 9583SOL    HW129648   3.654   4.326   1.605
 9583SOL    HW229649   3.576   4.271   1.472
 9584SOL     OW29650   0.145   5.276   6.679
 9584SOL    HW129651   0.078   5.259   6.607
 9584SOL    HW229652   0.236   5.251   6.647
 9585SOL     OW29653   6.345   6.910   4.604
 9585SOL    HW129654   6.425   6.968   4.619
 9585SOL    HW229655   6.375   6.821   4.567
 9586SOL     OW29656   5.458   4.480   2.442
 9586SOL    HW129657   5.515   4.508   2.520
 9586SOL    HW229658   5.506   4.410   2.389
 9587SOL     OW29659   0.782   0.611   1.655
 9587SOL    HW129660   0.684   0.609   1.674
 9587SOL    HW229661   0.809   0.526   1.610
 9588SOL     OW29662   6.781   1.023   1.174
 9588SOL    HW129663   6.877   1.002   1.194
 9588SOL    HW229664   6.727   1.009   1.257
 9589SOL     OW29665   2.542   4.949   6.637
 9589SOL    HW129666   2.614   4.916   6.698
 9589SOL    HW229667   2.563   5.042   6.607
 9590SOL     OW29668   6.388   2.752   1.974
 9590SOL    HW129669   6.390   2.676   2.039
 9590SOL    HW229670   6.477   2.798   1.975
 9591SOL     OW29671   3.099   6.004   5.686
 9591SOL    HW129672   3.001   5.991   5.698
 9591SOL    HW229673   3.147   5.975   5.769
 9592SOL     OW29674   3.722   4.471   0.560
 9592SOL    HW129675   3.667   4.390   0.540
 9592SOL    HW229676   3.666   4.537   0.610
 9593SOL     OW29677   0.481   0.974   5.951
 9593SOL    HW129678   0.468   0.879   5.980
 9593SOL    HW229679   0.418   1.033   6.001
 9594SOL     OW29680   1.132   5.078   2.841
 9594SOL    HW129681   1.078   5.161   2.850
 9594SOL    HW229682   1.099   5.025   2.763
 9595SOL     OW29683   0.700   3.218   4.866
 9595SOL    HW129684   0.675   3.315   4.859
 9595SOL    HW229685   0.699   3.190   4.962
 9596SOL     OW29686   0.373   5.455   6.445
 9596SOL    HW129687   0.294   5.512   6.422
 9596SOL    HW229688   0.457   5.503   6.420
 9597SOL     OW29689   0.895   4.251   1.491
 9597SOL    HW129690   0.819   4.238   1.555
 9597SOL    HW229691   0.909   4.168   1.438
 9598SOL     OW29692   1.628   4.231   3.900
 9598SOL    HW129693   1.575   4.216   3.984
 9598SOL    HW229694   1.725   4.243   3.923
 9599SOL     OW29695   3.178   0.300   4.785
 9599SOL    HW129696   3.240   0.257   4.850
 9599SOL    HW229697   3.108   0.234   4.756
 9600SOL     OW29698   2.470   6.653   6.647
 9600SOL    HW129699   2.411   6.583   6.687
 9600SOL    HW229700   2.493   6.627   6.553
 9601SOL     OW29701   4.778   4.023   0.741
 9601SOL    HW129702   4.780   3.983   0.650
 9601SOL    HW229703   4.845   4.097   0.747
 9602SOL     OW29704   6.345   5.127   6.108
 9602SOL    HW129705   6.344   5.027   6.102
 9602SOL    HW229706   6.436   5.159   6.132
 9603SOL     OW29707   3.579   1.963   3.832
 9603SOL    HW129708   3.551   2.005   3.746
 9603SOL    HW229709   3.550   1.867   3.833
 9604SOL     OW29710   4.727   0.468   6.643
 9604SOL    HW129711   4.747   0.374   6.617
 9604SOL    HW229712   4.813   0.516   6.661
 9605SOL     OW29713   0.775   5.286   3.554
 9605SOL    HW129714   0.839   5.225   3.600
 9605SOL    HW229715   0.820   5.329   3.476
 9606SOL     OW29716   1.717   6.534   6.789
 9606SOL    HW129717   1.786   6.461   6.795
 9606SOL    HW229718   1.705   6.561   6.694
 9607SOL     OW29719   1.625   1.923   0.679
 9607SOL    HW129720   1.541   1.973   0.657
 9607SOL    HW229721   1.703   1.984   0.668
 9608SOL     OW29722   6.872   5.242   3.017
 9608SOL    HW129723   6.951   5.284   2.972
 9608SOL    HW229724   6.857   5.287   3.105
 9609SOL     OW29725   2.572   4.385   6.813
 9609SOL    HW129726   2.571   4.478   6.774
 9609SOL    HW229727   2.587   4.319   6.740
 9610SOL     OW29728   1.504   5.005   4.167
 9610SOL    HW129729   1.463   4.940   4.232
 9610SOL    HW229730   1.604   5.004   4.179
 9611SOL     OW29731   0.656   6.322   6.613
 9611SOL    HW129732   0.720   6.344   6.687
 9611SOL    HW229733   0.615   6.407   6.579
 9612SOL     OW29734   0.684   4.024   1.562
 9612SOL    HW129735   0.760   4.011   1.499
 9612SOL    HW229736   0.604   3.975   1.528
 9613SOL     OW29737   5.009   6.324   3.105
 9613SOL    HW129738   5.103   6.301   3.132
 9613SOL    HW229739   4.975   6.396   3.165
 9614SOL     OW29740   2.950   1.906   0.493
 9614SOL    HW129741   2.967   1.987   0.437
 9614SOL    HW229742   2.854   1.903   0.520
 9615SOL     OW29743   1.516   0.007   0.055
 9615SOL    HW129744   1.441   6.963   0.074
 9615SOL    HW229745   1.545   0.051   0.140
 9616SOL     OW29746   4.268   3.842   1.582
 9616SOL    HW129747   4.197   3.865   1.515
 9616SOL    HW229748   4.231   3.854   1.675
 9617SOL     OW29749   2.253   2.875   3.032
 9617SOL    HW129750   2.236   2.922   3.119
 9617SOL    HW229751   2.305   2.935   2.971
 9618SOL     OW29752   3.928   0.011   5.435
 9618SOL    HW129753   4.006   6.986   5.392
 9618SOL    HW229754   3.953   0.039   5.528
 9619SOL     OW29755   0.985   0.236   0.347
 9619SOL    HW129756   0.902   0.265   0.395
 9619SOL    HW229757   1.009   0.142   0.375
 9620SOL     OW29758   4.536   2.072   6.810
 9620SOL    HW129759   4.442   2.099   6.791
 9620SOL    HW229760   4.562   2.101   6.902
 9621SOL     OW29761   1.189   0.985   1.840
 9621SOL    HW129762   1.146   1.068   1.805
 9621SOL    HW229763   1.251   1.009   1.915
 9622SOL     OW29764   6.571   0.946   6.772
 9622SOL    HW129765   6.585   0.859   6.819
 9622SOL    HW229766   6.648   0.964   6.711
 9623SOL     OW29767   3.101   4.469   6.076
 9623SOL    HW129768   3.108   4.553   6.021
 9623SOL    HW229769   3.055   4.398   6.023
 9624SOL     OW29770   0.119   4.726   2.204
 9624SOL    HW129771   0.139   4.723   2.106
 9624SOL    HW229772   0.083   4.637   2.233
 9625SOL     OW29773   5.265   5.399   0.317
 9625SOL    HW129774   5.331   5.405   0.242
 9625SOL    HW229775   5.195   5.470   0.304
 9626SOL     OW29776   3.209   6.259   0.021
 9626SOL    HW129777   3.111   6.267   0.000
 9626SOL    HW229778   3.232   6.321   0.097
 9627SOL     OW29779   6.817   6.017   3.118
 9627SOL    HW129780   6.825   6.016   3.218
 9627SOL    HW229781   6.826   6.110   3.084
 9628SOL     OW29782   5.508   4.790   0.427
 9628SOL    HW129783   5.596   4.762   0.467
 9628SOL    HW229784   5.510   4.775   0.328
 9629SOL     OW29785   0.474   6.935   2.647
 9629SOL    HW129786   0.463   6.874   2.568
 9629SOL    HW229787   0.568   6.932   2.679
 9630SOL     OW29788   6.362   6.096   6.162
 9630SOL    HW129789   6.338   6.166   6.094
 9630SOL    HW229790   6.448   6.123   6.207
 9631SOL     OW29791   6.233   6.828   6.827
 9631SOL    HW129792   6.311   6.819   6.890
 9631SOL    HW229793   6.156   6.774   6.863
 9632SOL     OW29794   2.224   5.574   2.722
 9632SOL    HW129795   2.252   5.622   2.805
 9632SOL    HW229796   2.131   5.601   2.697
 9633SOL     OW29797   5.348   5.077   0.121
 9633SOL    HW129798   5.413   5.098   0.194
 9633SOL    HW229799   5.275   5.018   0.156
 9634SOL     OW29800   0.614   0.030   3.705
 9634SOL    HW129801   0.714   0.033   3.692
 9634SOL    HW229802   0.571   7.014   3.622
 9635SOL     OW29803   1.411   4.639   5.549
 9635SOL    HW129804   1.498   4.684   5.530
 9635SOL    HW229805   1.346   4.706   5.584
 9636SOL     OW29806   3.909   2.136   6.365
 9636SOL    HW129807   4.007   2.128   6.386
 9636SOL    HW229808   3.897   2.188   6.281
 9637SOL     OW29809   2.967   1.784   6.698
 9637SOL    HW129810   2.911   1.712   6.738
 9637SOL    HW229811   2.913   1.868   6.689
 9638SOL     OW29812   6.876   3.263   6.736
 9638SOL    HW129813   6.881   3.325   6.658
 9638SOL    HW229814   6.824   3.182   6.710
 9639SOL     OW29815   3.922   1.576   2.100
 9639SOL    HW129816   3.888   1.557   2.192
 9639SOL    HW229817   4.001   1.638   2.106
 9640SOL     OW29818   3.024   1.798   2.841
 9640SOL    HW129819   2.944   1.766   2.892
 9640SOL    HW229820   3.003   1.800   2.743
 9641SOL     OW29821   5.113   6.147   1.067
 9641SOL    HW129822   5.053   6.108   0.997
 9641SOL    HW229823   5.059   6.176   1.145
 9642SOL     OW29824   3.314   6.115   5.392
 9642SOL    HW129825   3.236   6.176   5.397
 9642SOL    HW229826   3.399   6.169   5.390
 9643SOL     OW29827   5.861   4.753   4.444
 9643SOL    HW129828   5.796   4.808   4.495
 9643SOL    HW229829   5.951   4.798   4.444
 9644SOL     OW29830   1.281   4.853   5.645
 9644SOL    HW129831   1.195   4.846   5.594
 9644SOL    HW229832   1.320   4.943   5.631
 9645SOL     OW29833   3.932   4.819   4.018
 9645SOL    HW129834   3.874   4.876   4.075
 9645SOL    HW229835   4.017   4.798   4.067
 9646SOL     OW29836   2.819   4.811   2.164
 9646SOL    HW129837   2.804   4.736   2.099
 9646SOL    HW229838   2.837   4.895   2.113
 9647SOL     OW29839   6.657   5.185   1.432
 9647SOL    HW129840   6.576   5.221   1.384
 9647SOL    HW229841   6.719   5.261   1.454
 9648SOL     OW29842   3.867   2.085   6.854
 9648SOL    HW129843   3.865   2.012   6.921
 9648SOL    HW229844   3.775   2.121   6.840
 9649SOL     OW29845   2.808   5.793   0.062
 9649SOL    HW129846   2.907   5.808   0.066
 9649SOL    HW229847   2.781   5.771   6.988
 9650SOL     OW29848   5.154   4.768   3.149
 9650SOL    HW129849   5.225   4.755   3.079
 9650SOL    HW229850   5.161   4.697   3.218
 9651SOL     OW29851   6.978   0.578   6.671
 9651SOL    HW129852   6.968   0.553   6.767
 9651SOL    HW229853   0.001   0.503   6.621
 9652SOL     OW29854   2.103   4.724   0.389
 9652SOL    HW129855   2.130   4.773   0.472
 9652SOL    HW229856   2.168   4.651   0.371
 9653SOL     OW29857   4.094   5.143   4.826
 9653SOL    HW129858   4.119   5.234   4.792
 9653SOL    HW229859   3.998   5.126   4.806
 9654SOL     OW29860   4.111   3.564   1.643
 9654SOL    HW129861   4.097   3.481   1.696
 9654SOL    HW229862   4.061   3.640   1.685
 9655SOL     OW29863   0.415   2.062   6.982
 9655SOL    HW129864   0.406   2.014   0.050
 9655SOL    HW229865   0.451   1.999   6.913
 9656SOL     OW29866   3.446   2.355   0.897
 9656SOL    HW129867   3.514   2.305   0.951
 9656SOL    HW229868   3.355   2.317   0.915
 9657SOL     OW29869   6.434   2.012   3.736
 9657SOL    HW129870   6.487   2.034   3.654
 9657SOL    HW229871   6.402   1.917   3.731
 9658SOL     OW29872   6.169   1.513   2.832
 9658SOL    HW129873   6.239   1.584   2.818
 9658SOL    HW229874   6.113   1.538   2.911
 9659SOL     OW29875   0.213   4.124   6.920
 9659SOL    HW129876   0.189   4.213   6.880
 9659SOL    HW229877   0.218   4.132   7.019
 9660SOL     OW29878   0.387   5.645   1.180
 9660SOL    HW129879   0.368   5.659   1.083
 9660SOL    HW229880   0.375   5.548   1.202
 9661SOL     OW29881   3.864   6.361   1.864
 9661SOL    HW129882   3.865   6.437   1.799
 9661SOL    HW229883   3.876   6.275   1.814
 9662SOL     OW29884   4.778   2.873   5.178
 9662SOL    HW129885   4.873   2.903   5.183
 9662SOL    HW229886   4.742   2.892   5.087
 9663SOL     OW29887   0.830   6.536   4.389
 9663SOL    HW129888   0.867   6.589   4.313
 9663SOL    HW229889   0.904   6.502   4.446
 9664SOL     OW29890   6.026   6.230   3.850
 9664SOL    HW129891   5.930   6.249   3.872
 9664SOL    HW229892   6.033   6.194   3.758
 9665SOL     OW29893   5.557   5.608   0.032
 9665SOL    HW129894   5.528   5.578   6.961
 9665SOL    HW229895   5.477   5.644   0.081
 9666SOL     OW29896   5.730   4.490   1.276
 9666SOL    HW129897   5.719   4.588   1.294
 9666SOL    HW229898   5.677   4.437   1.342
 9667SOL     OW29899   3.712   3.528   4.533
 9667SOL    HW129900   3.721   3.499   4.629
 9667SOL    HW229901   3.674   3.453   4.479
 9668SOL     OW29902   6.461   1.570   6.733
 9668SOL    HW129903   6.374   1.576   6.782
 9668SOL    HW229904   6.478   1.474   6.708
 9669SOL     OW29905   1.355   0.242   1.953
 9669SOL    HW129906   1.451   0.222   1.937
 9669SOL    HW229907   1.341   0.341   1.946
 9670SOL     OW29908   5.424   4.741   6.447
 9670SOL    HW129909   5.437   4.643   6.436
 9670SOL    HW229910   5.489   4.776   6.514
 9671SOL     OW29911   6.083   5.454   6.711
 9671SOL    HW129912   6.002   5.488   6.758
 9671SOL    HW229913   6.060   5.434   6.616
 9672SOL     OW29914   1.094   6.223   4.792
 9672SOL    HW129915   1.041   6.296   4.747
 9672SOL    HW229916   1.040   6.139   4.794
 9673SOL     OW29917   6.118   3.789   0.217
 9673SOL    HW129918   6.048   3.731   0.259
 9673SOL    HW229919   6.105   3.791   0.118
 9674SOL     OW29920   2.413   5.635   3.374
 9674SOL    HW129921   2.507   5.666   3.354
 9674SOL    HW229922   2.395   5.645   3.472
 9675SOL     OW29923   5.966   1.961   0.425
 9675SOL    HW129924   5.928   1.873   0.453
 9675SOL    HW229925   5.892   2.020   0.392
 9676SOL     OW29926   1.279   3.639   5.122
 9676SOL    HW129927   1.306   3.564   5.183
 9676SOL    HW229928   1.279   3.725   5.173
 9677SOL     OW29929   1.813   5.685   5.311
 9677SOL    HW129930   1.741   5.692   5.242
 9677SOL    HW229931   1.793   5.747   5.387
 9678SOL     OW29932   3.310   3.238   3.013
 9678SOL    HW129933   3.218   3.219   3.048
 9678SOL    HW229934   3.378   3.211   3.082
 9679SOL     OW29935   1.909   0.913   2.531
 9679SOL    HW129936   1.838   0.982   2.515
 9679SOL    HW229937   1.948   0.925   2.622
 9680SOL     OW29938   5.797   0.813   3.060
 9680SOL    HW129939   5.879   0.801   3.004
 9680SOL    HW229940   5.803   0.899   3.109
 9681SOL     OW29941   3.933   1.399   0.051
 9681SOL    HW129942   4.001   1.424   0.120
 9681SOL    HW229943   3.842   1.421   0.085
 9682SOL     OW29944   5.114   5.120   3.869
 9682SOL    HW129945   5.019   5.090   3.857
 9682SOL    HW229946   5.115   5.217   3.892
 9683SOL     OW29947   2.905   5.492   0.961
 9683SOL    HW129948   2.815   5.459   0.931
 9683SOL    HW229949   2.977   5.438   0.917
 9684SOL     OW29950   0.557   2.586   4.773
 9684SOL    HW129951   0.533   2.665   4.716
 9684SOL    HW229952   0.556   2.613   4.869
 9685SOL     OW29953   1.829   3.803   0.892
 9685SOL    HW129954   1.821   3.783   0.989
 9685SOL    HW229955   1.923   3.828   0.871
 9686SOL     OW29956   6.925   1.683   0.468
 9686SOL    HW129957   6.963   1.756   0.411
 9686SOL    HW229958   6.918   1.714   0.562
 9687SOL     OW29959   2.122   0.676   4.242
 9687SOL    HW129960   2.179   0.744   4.288
 9687SOL    HW229961   2.175   0.594   4.223
 9688SOL     OW29962   6.612   1.999   3.277
 9688SOL    HW129963   6.671   1.996   3.196
 9688SOL    HW229964   6.524   2.041   3.252
 9689SOL     OW29965   1.876   6.061   0.281
 9689SOL    HW129966   1.806   6.001   0.242
 9689SOL    HW229967   1.837   6.112   0.358
 9690SOL     OW29968   5.682   5.947   6.615
 9690SOL    HW129969   5.756   5.893   6.655
 9690SOL    HW229970   5.594   5.916   6.651
 9691SOL     OW29971   3.113   4.860   2.126
 9691SOL    HW129972   3.139   4.798   2.051
 9691SOL    HW229973   3.023   4.835   2.160
 9692SOL     OW29974   3.394   5.344   3.148
 9692SOL    HW129975   3.416   5.347   3.050
 9692SOL    HW229976   3.315   5.284   3.162
 9693SOL     OW29977   6.418   5.880   1.644
 9693SOL    HW129978   6.477   5.906   1.567
 9693SOL    HW229979   6.376   5.961   1.684
 9694SOL     OW29980   2.389   0.690   6.795
 9694SOL    HW129981   2.466   0.753   6.802
 9694SOL    HW229982   2.423   0.599   6.772
 9695SOL     OW29983   6.915   3.466   1.802
 9695SOL    HW129984   6.968   3.407   1.863
 9695SOL    HW229985   6.866   3.534   1.856
 9696SOL     OW29986   5.153   3.425   1.267
 9696SOL    HW129987   5.055   3.412   1.280
 9696SOL    HW229988   5.170   3.470   1.180
 9697SOL     OW29989   6.810   6.309   6.623
 9697SOL    HW129990   6.865   6.268   6.551
 9697SOL    HW229991   6.725   6.344   6.585
 9698SOL     OW29992   5.021   1.793   5.826
 9698SOL    HW129993   5.038   1.851   5.747
 9698SOL    HW229994   5.030   1.846   5.910
 9699SOL     OW29995   7.009   4.753   6.608
 9699SOL    HW129996   6.960   4.702   6.678
 9699SOL    HW229997   6.949   4.823   6.568
 9700SOL     OW29998   4.311   5.131   4.985
 9700SOL    HW129999   4.233   5.109   4.926
 9700SOL    HW230000   4.384   5.172   4.930
 9701SOL     OW30001   3.855   5.057   5.220
 9701SOL    HW130002   3.874   4.976   5.165
 9701SOL    HW230003   3.871   5.139   5.164
 9702SOL     OW30004   5.164   0.746   6.847
 9702SOL    HW130005   5.150   0.793   6.760
 9702SOL    HW230006   5.166   0.813   6.922
 9703SOL     OW30007   4.203   5.051   4.396
 9703SOL    HW130008   4.303   5.053   4.401
 9703SOL    HW230009   4.168   4.982   4.459
 9704SOL     OW30010   2.655   0.860   3.152
 9704SOL    HW130011   2.661   0.882   3.250
 9704SOL    HW230012   2.743   0.879   3.109
 9705SOL     OW30013   4.603   5.584   6.479
 9705SOL    HW130014   4.555   5.627   6.402
 9705SOL    HW230015   4.701   5.600   6.471
 9706SOL     OW30016   0.827   2.641   0.941
 9706SOL    HW130017   0.847   2.675   1.033
 9706SOL    HW230018   0.803   2.544   0.946
 9707SOL     OW30019   6.286   4.200   1.333
 9707SOL    HW130020   6.371   4.181   1.382
 9707SOL    HW230021   6.306   4.256   1.252
 9708SOL     OW30022   1.326   2.110   2.451
 9708SOL    HW130023   1.426   2.121   2.453
 9708SOL    HW230024   1.283   2.201   2.451
 9709SOL     OW30025   5.893   6.213   2.719
 9709SOL    HW130026   5.984   6.172   2.715
 9709SOL    HW230027   5.836   6.176   2.646
 9710SOL     OW30028   0.506   1.618   1.780
 9710SOL    HW130029   0.554   1.701   1.753
 9710SOL    HW230030   0.555   1.538   1.746
 9711SOL     OW30031   2.390   3.927   6.254
 9711SOL    HW130032   2.476   3.922   6.202
 9711SOL    HW230033   2.362   3.834   6.281
 9712SOL     OW30034   6.049   4.876   5.922
 9712SOL    HW130035   5.962   4.904   5.880
 9712SOL    HW230036   6.125   4.917   5.871
 9713SOL     OW30037   1.317   4.959   3.762
 9713SOL    HW130038   1.240   4.988   3.705
 9713SOL    HW230039   1.336   5.031   3.830
 9714SOL     OW30040   2.981   0.880   1.550
 9714SOL    HW130041   2.979   0.824   1.633
 9714SOL    HW230042   3.048   0.841   1.486
 9715SOL     OW30043   5.192   4.435   6.145
 9715SOL    HW130044   5.268   4.479   6.191
 9715SOL    HW230045   5.140   4.503   6.094
 9716SOL     OW30046   4.248   2.745   6.567
 9716SOL    HW130047   4.248   2.769   6.470
 9716SOL    HW230048   4.300   2.814   6.618
 9717SOL     OW30049   5.542   5.690   5.648
 9717SOL    HW130050   5.462   5.730   5.692
 9717SOL    HW230051   5.609   5.762   5.629
 9718SOL     OW30052   4.990   2.790   1.313
 9718SOL    HW130053   4.936   2.706   1.307
 9718SOL    HW230054   4.935   2.866   1.277
 9719SOL     OW30055   0.283   2.094   6.463
 9719SOL    HW130056   0.313   2.016   6.518
 9719SOL    HW230057   0.199   2.131   6.503
 9720SOL     OW30058   6.960   5.495   2.243
 9720SOL    HW130059   6.996   5.460   2.330
 9720SOL    HW230060   6.863   5.474   2.236
 9721SOL     OW30061   0.562   3.228   1.314
 9721SOL    HW130062   0.660   3.226   1.333
 9721SOL    HW230063   0.526   3.320   1.332
 9722SOL     OW30064   6.971   0.248   4.275
 9722SOL    HW130065   6.927   0.217   4.359
 9722SOL    HW230066   6.983   0.171   4.213
 9723SOL     OW30067   2.353   6.072   3.594
 9723SOL    HW130068   2.443   6.107   3.568
 9723SOL    HW230069   2.308   6.136   3.656
 9724SOL     OW30070   2.088   3.487   0.282
 9724SOL    HW130071   2.078   3.497   0.381
 9724SOL    HW230072   2.185   3.477   0.260
 9725SOL     OW30073   3.417   4.245   6.410
 9725SOL    HW130074   3.490   4.194   6.364
 9725SOL    HW230075   3.398   4.329   6.359
 9726SOL     OW30076   5.108   0.811   3.831
 9726SOL    HW130077   5.106   0.820   3.731
 9726SOL    HW230078   5.021   0.845   3.869
 9727SOL     OW30079   0.648   3.402   5.503
 9727SOL    HW130080   0.603   3.330   5.556
 9727SOL    HW230081   0.623   3.394   5.407
 9728SOL     OW30082   0.176   0.395   6.313
 9728SOL    HW130083   0.083   0.431   6.321
 9728SOL    HW230084   0.185   0.343   6.228
 9729SOL     OW30085   0.861   4.223   3.330
 9729SOL    HW130086   0.913   4.248   3.248
 9729SOL    HW230087   0.763   4.222   3.308
 9730SOL     OW30088   0.474   3.343   3.291
 9730SOL    HW130089   0.547   3.342   3.222
 9730SOL    HW230090   0.423   3.257   3.287
 9731SOL     OW30091   4.602   3.994   1.218
 9731SOL    HW130092   4.503   3.979   1.222
 9731SOL    HW230093   4.638   4.000   1.311
 9732SOL     OW30094   5.467   5.986   3.233
 9732SOL    HW130095   5.566   5.983   3.221
 9732SOL    HW230096   5.437   5.906   3.286
 9733SOL     OW30097   5.396   5.040   0.800
 9733SOL    HW130098   5.439   5.125   0.829
 9733SOL    HW230099   5.415   5.026   0.702
 9734SOL     OW30100   6.163   1.248   2.720
 9734SOL    HW130101   6.064   1.236   2.718
 9734SOL    HW230102   6.185   1.344   2.734
 9735SOL     OW30103   1.813   4.374   3.233
 9735SOL    HW130104   1.815   4.457   3.289
 9735SOL    HW230105   1.852   4.298   3.286
 9736SOL     OW30106   5.873   1.623   5.985
 9736SOL    HW130107   5.915   1.635   6.075
 9736SOL    HW230108   5.943   1.627   5.915
 9737SOL     OW30109   6.561   3.017   4.366
 9737SOL    HW130110   6.561   3.044   4.462
 9737SOL    HW230111   6.467   3.016   4.332
 9738SOL     OW30112   1.994   0.358   1.919
 9738SOL    HW130113   1.930   0.293   1.879
 9738SOL    HW230114   1.986   0.447   1.874
 9739SOL     OW30115   6.138   5.295   2.407
 9739SOL    HW130116   6.202   5.220   2.419
 9739SOL    HW230117   6.045   5.262   2.422
 9740SOL     OW30118   6.168   2.086   4.094
 9740SOL    HW130119   6.247   2.037   4.131
 9740SOL    HW230120   6.162   2.070   3.995
 9741SOL     OW30121   5.143   1.893   2.831
 9741SOL    HW130122   5.140   1.912   2.733
 9741SOL    HW230123   5.064   1.935   2.875
 9742SOL     OW30124   3.627   0.461   1.822
 9742SOL    HW130125   3.534   0.431   1.845
 9742SOL    HW230126   3.632   0.481   1.724
 9743SOL     OW30127   1.046   1.665   4.595
 9743SOL    HW130128   1.136   1.679   4.554
 9743SOL    HW230129   1.020   1.569   4.586
 9744SOL     OW30130   0.359   0.504   2.470
 9744SOL    HW130131   0.435   0.559   2.436
 9744SOL    HW230132   0.276   0.525   2.417
 9745SOL     OW30133   6.459   3.163   6.082
 9745SOL    HW130134   6.541   3.216   6.104
 9745SOL    HW230135   6.388   3.181   6.150
 9746SOL     OW30136   6.497   1.009   6.171
 9746SOL    HW130137   6.432   0.934   6.180
 9746SOL    HW230138   6.537   1.030   6.260
 9747SOL     OW30139   1.662   0.286   1.910
 9747SOL    HW130140   1.694   0.218   1.844
 9747SOL    HW230141   1.653   0.375   1.864
 9748SOL     OW30142   1.035   1.410   3.496
 9748SOL    HW130143   1.041   1.441   3.401
 9748SOL    HW230144   1.103   1.459   3.551
 9749SOL     OW30145   2.245   1.860   5.317
 9749SOL    HW130146   2.166   1.883   5.374
 9749SOL    HW230147   2.246   1.919   5.237
 9750SOL     OW30148   5.672   4.923   3.669
 9750SOL    HW130149   5.652   4.903   3.765
 9750SOL    HW230150   5.714   5.014   3.662
 9751SOL     OW30151   1.733   1.282   0.466
 9751SOL    HW130152   1.741   1.183   0.479
 9751SOL    HW230153   1.810   1.327   0.511
 9752SOL     OW30154   5.481   1.932   0.133
 9752SOL    HW130155   5.550   1.929   0.061
 9752SOL    HW230156   5.410   1.864   0.114
 9753SOL     OW30157   6.320   5.459   5.500
 9753SOL    HW130158   6.292   5.429   5.591
 9753SOL    HW230159   6.249   5.437   5.434
 9754SOL     OW30160   0.991   1.362   6.148
 9754SOL    HW130161   1.055   1.285   6.152
 9754SOL    HW230162   0.913   1.337   6.091
 9755SOL     OW30163   3.948   3.913   5.444
 9755SOL    HW130164   3.925   3.948   5.535
 9755SOL    HW230165   3.977   3.989   5.386
 9756SOL     OW30166   5.897   3.262   0.234
 9756SOL    HW130167   5.841   3.232   0.311
 9756SOL    HW230168   5.847   3.247   0.148
 9757SOL     OW30169   5.631   3.560   3.291
 9757SOL    HW130170   5.607   3.599   3.203
 9757SOL    HW230171   5.554   3.507   3.327
 9758SOL     OW30172   2.973   0.155   6.874
 9758SOL    HW130173   2.956   0.144   6.972
 9758SOL    HW230174   2.890   0.135   6.823
 9759SOL     OW30175   2.429   0.063   6.903
 9759SOL    HW130176   2.346   0.112   6.929
 9759SOL    HW230177   2.423   0.035   6.807
 9760SOL     OW30178   4.663   3.361   5.345
 9760SOL    HW130179   4.704   3.420   5.275
 9760SOL    HW230180   4.686   3.266   5.326
 9761SOL     OW30181   6.178   0.188   1.818
 9761SOL    HW130182   6.090   0.211   1.775
 9761SOL    HW230183   6.235   0.139   1.753
 9762SOL     OW30184   2.585   1.902   4.243
 9762SOL    HW130185   2.603   1.804   4.237
 9762SOL    HW230186   2.662   1.953   4.205
 9763SOL     OW30187   4.427   2.074   1.919
 9763SOL    HW130188   4.476   2.113   1.996
 9763SOL    HW230189   4.441   2.132   1.838
 9764SOL     OW30190   0.765   2.824   3.358
 9764SOL    HW130191   0.803   2.737   3.390
 9764SOL    HW230192   0.733   2.814   3.263
 9765SOL     OW30193   6.371   1.967   3.013
 9765SOL    HW130194   6.374   2.021   3.096
 9765SOL    HW230195   6.343   1.874   3.034
 9766SOL     OW30196   2.946   0.455   3.122
 9766SOL    HW130197   2.861   0.421   3.084
 9766SOL    HW230198   2.995   0.508   3.052
 9767SOL     OW30199   5.260   1.994   5.332
 9767SOL    HW130200   5.303   1.978   5.420
 9767SOL    HW230201   5.297   2.078   5.291
 9768SOL     OW30202   4.866   1.733   2.450
 9768SOL    HW130203   4.880   1.797   2.375
 9768SOL    HW230204   4.769   1.708   2.456
 9769SOL     OW30205   2.229   1.055   2.241
 9769SOL    HW130206   2.153   1.049   2.176
 9769SOL    HW230207   2.259   1.150   2.249
 9770SOL     OW30208   5.427   0.380   6.944
 9770SOL    HW130209   5.479   0.389   6.859
 9770SOL    HW230210   5.348   0.441   6.941
 9771SOL     OW30211   3.403   4.970   1.395
 9771SOL    HW130212   3.431   4.993   1.488
 9771SOL    HW230213   3.457   5.022   1.329
 9772SOL     OW30214   1.536   5.864   2.954
 9772SOL    HW130215   1.523   5.925   3.032
 9772SOL    HW230216   1.630   5.830   2.953
 9773SOL     OW30217   5.396   6.487   4.501
 9773SOL    HW130218   5.371   6.547   4.578
 9773SOL    HW230219   5.364   6.528   4.416
 9774SOL     OW30220   6.219   4.835   1.550
 9774SOL    HW130221   6.240   4.924   1.510
 9774SOL    HW230222   6.226   4.840   1.650
 9775SOL     OW30223   2.540   1.150   3.474
 9775SOL    HW130224   2.514   1.233   3.424
 9775SOL    HW230225   2.532   1.166   3.572
 9776SOL     OW30226   0.195   5.874   4.755
 9776SOL    HW130227   0.235   5.915   4.837
 9776SOL    HW230228   0.263   5.815   4.711
 9777SOL     OW30229   5.419   4.936   6.255
 9777SOL    HW130230   5.370   5.018   6.285
 9777SOL    HW230231   5.427   4.872   6.331
 9778SOL     OW30232   0.313   0.799   3.403
 9778SOL    HW130233   0.371   0.741   3.460
 9778SOL    HW230234   0.217   0.779   3.421
 9779SOL     OW30235   2.097   1.406   5.202
 9779SOL    HW130236   2.016   1.416   5.260
 9779SOL    HW230237   2.077   1.341   5.128
 9780SOL     OW30238   2.624   1.978   1.374
 9780SOL    HW130239   2.643   1.922   1.294
 9780SOL    HW230240   2.655   1.931   1.457
 9781SOL     OW30241   1.083   3.638   4.162
 9781SOL    HW130242   1.174   3.617   4.197
 9781SOL    HW230243   1.086   3.724   4.110
 9782SOL     OW30244   6.920   0.611   1.121
 9782SOL    HW130245   6.829   0.614   1.162
 9782SOL    HW230246   6.977   0.546   1.172
 9783SOL     OW30247   5.329   2.459   2.634
 9783SOL    HW130248   5.246   2.488   2.586
 9783SOL    HW230249   5.315   2.368   2.673
 9784SOL     OW30250   3.675   1.599   3.583
 9784SOL    HW130251   3.748   1.585   3.650
 9784SOL    HW230252   3.586   1.597   3.630
 9785SOL     OW30253   0.032   4.037   5.314
 9785SOL    HW130254   0.034   3.959   5.251
 9785SOL    HW230255   6.981   4.023   5.382
 9786SOL     OW30256   2.351   4.850   6.439
 9786SOL    HW130257   2.397   4.912   6.503
 9786SOL    HW230258   2.307   4.776   6.489
 9787SOL     OW30259   4.697   3.743   1.728
 9787SOL    HW130260   4.765   3.670   1.719
 9787SOL    HW230261   4.731   3.812   1.792
 9788SOL     OW30262   0.191   0.422   3.533
 9788SOL    HW130263   0.284   0.442   3.563
 9788SOL    HW230264   0.127   0.441   3.609
 9789SOL     OW30265   1.252   5.921   6.681
 9789SOL    HW130266   1.351   5.915   6.673
 9789SOL    HW230267   1.211   5.935   6.591
 9790SOL     OW30268   5.642   4.219   6.205
 9790SOL    HW130269   5.646   4.179   6.297
 9790SOL    HW230270   5.710   4.175   6.147
 9791SOL     OW30271   0.262   1.419   2.909
 9791SOL    HW130272   0.322   1.373   2.974
 9791SOL    HW230273   0.258   1.366   2.824
 9792SOL     OW30274   5.724   5.411   1.896
 9792SOL    HW130275   5.796   5.399   1.965
 9792SOL    HW230276   5.738   5.345   1.822
 9793SOL     OW30277   5.326   4.949   3.603
 9793SOL    HW130278   5.355   4.886   3.530
 9793SOL    HW230279   5.366   5.039   3.587
 9794SOL     OW30280   6.563   4.159   6.324
 9794SOL    HW130281   6.572   4.213   6.240
 9794SOL    HW230282   6.642   4.099   6.334
 9795SOL     OW30283   1.300   1.673   3.910
 9795SOL    HW130284   1.227   1.692   3.975
 9795SOL    HW230285   1.372   1.742   3.920
 9796SOL     OW30286   4.001   2.828   1.137
 9796SOL    HW130287   4.091   2.843   1.176
 9796SOL    HW230288   3.944   2.908   1.153
 9797SOL     OW30289   3.077   4.474   6.631
 9797SOL    HW130290   3.099   4.410   6.705
 9797SOL    HW230291   2.978   4.479   6.620
 9798SOL     OW30292   2.154   0.813   1.006
 9798SOL    HW130293   2.170   0.908   1.034
 9798SOL    HW230294   2.222   0.754   1.050
 9799SOL     OW30295   3.404   3.370   3.503
 9799SOL    HW130296   3.420   3.309   3.425
 9799SOL    HW230297   3.305   3.380   3.518
 9800SOL     OW30298   3.263   6.570   5.370
 9800SOL    HW130299   3.350   6.545   5.327
 9800SOL    HW230300   3.282   6.616   5.458
 9801SOL     OW30301   4.469   4.589   0.528
 9801SOL    HW130302   4.562   4.562   0.550
 9801SOL    HW230303   4.406   4.513   0.547
 9802SOL     OW30304   0.746   2.493   2.743
 9802SOL    HW130305   0.800   2.572   2.714
 9802SOL    HW230306   0.785   2.454   2.826
 9803SOL     OW30307   6.243   1.627   6.866
 9803SOL    HW130308   6.244   1.714   6.916
 9803SOL    HW230309   6.170   1.630   6.798
 9804SOL     OW30310   0.735   5.597   3.357
 9804SOL    HW130311   0.776   5.679   3.317
 9804SOL    HW230312   0.687   5.546   3.286
 9805SOL     OW30313   0.901   5.918   5.529
 9805SOL    HW130314   0.845   5.997   5.556
 9805SOL    HW230315   0.986   5.951   5.486
 9806SOL     OW30316   1.108   1.862   0.179
 9806SOL    HW130317   1.143   1.826   0.093
 9806SOL    HW230318   1.061   1.790   0.229
 9807SOL     OW30319   2.115   2.776   6.944
 9807SOL    HW130320   2.049   2.777   7.018
 9807SOL    HW230321   2.183   2.705   6.961
 9808SOL     OW30322   5.923   1.105   5.542
 9808SOL    HW130323   5.844   1.047   5.561
 9808SOL    HW230324   5.945   1.159   5.623
 9809SOL     OW30325   1.056   1.902   6.125
 9809SOL    HW130326   1.132   1.900   6.060
 9809SOL    HW230327   1.091   1.911   6.218
 9810SOL     OW30328   2.680   2.131   4.105
 9810SOL    HW130329   2.597   2.178   4.074
 9810SOL    HW230330   2.757   2.159   4.049
 9811SOL     OW30331   6.295   5.510   4.128
 9811SOL    HW130332   6.247   5.519   4.215
 9811SOL    HW230333   6.235   5.463   4.062
 9812SOL     OW30334   3.299   2.610   6.177
 9812SOL    HW130335   3.343   2.596   6.088
 9812SOL    HW230336   3.220   2.549   6.185
 9813SOL     OW30337   5.915   6.491   6.898
 9813SOL    HW130338   5.850   6.470   6.971
 9813SOL    HW230339   5.941   6.406   6.852
 9814SOL     OW30340   0.629   1.349   6.737
 9814SOL    HW130341   0.662   1.440   6.765
 9814SOL    HW230342   0.654   1.332   6.642
 9815SOL     OW30343   6.764   3.042   2.274
 9815SOL    HW130344   6.850   3.001   2.243
 9815SOL    HW230345   6.703   2.970   2.307
 9816SOL     OW30346   6.707   1.254   6.106
 9816SOL    HW130347   6.717   1.308   6.189
 9816SOL    HW230348   6.723   1.157   6.127
 9817SOL     OW30349   2.902   5.673   2.041
 9817SOL    HW130350   2.996   5.682   2.009
 9817SOL    HW230351   2.900   5.622   2.127
 9818SOL     OW30352   1.731   1.109   3.935
 9818SOL    HW130353   1.769   1.201   3.925
 9818SOL    HW230354   1.697   1.097   4.028
 9819SOL     OW30355   5.161   3.143   5.094
 9819SOL    HW130356   5.087   3.190   5.046
 9819SOL    HW230357   5.242   3.138   5.034
 9820SOL     OW30358   3.445   2.960   6.545
 9820SOL    HW130359   3.540   2.989   6.537
 9820SOL    HW230360   3.386   3.025   6.497
 9821SOL     OW30361   4.161   1.518   0.898
 9821SOL    HW130362   4.136   1.553   0.807
 9821SOL    HW230363   4.120   1.577   0.968
 9822SOL     OW30364   3.577   5.691   4.132
 9822SOL    HW130365   3.558   5.754   4.207
 9822SOL    HW230366   3.550   5.734   4.045
 9823SOL     OW30367   1.943   0.177   2.351
 9823SOL    HW130368   1.983   0.260   2.311
 9823SOL    HW230369   1.936   0.188   2.450
 9824SOL     OW30370   2.127   5.961   5.240
 9824SOL    HW130371   2.048   5.927   5.188
 9824SOL    HW230372   2.211   5.933   5.194
 9825SOL     OW30373   5.564   6.169   5.017
 9825SOL    HW130374   5.609   6.092   5.063
 9825SOL    HW230375   5.488   6.135   4.962
 9826SOL     OW30376   3.725   6.761   5.262
 9826SOL    HW130377   3.687   6.714   5.341
 9826SOL    HW230378   3.754   6.694   5.193
 9827SOL     OW30379   1.967   3.940   3.199
 9827SOL    HW130380   1.926   3.944   3.291
 9827SOL    HW230381   1.895   3.928   3.131
 9828SOL     OW30382   3.131   2.047   4.866
 9828SOL    HW130383   3.130   2.122   4.931
 9828SOL    HW230384   3.147   2.082   4.774
 9829SOL     OW30385   4.612   5.668   6.051
 9829SOL    HW130386   4.709   5.689   6.052
 9829SOL    HW230387   4.598   5.577   6.011
 9830SOL     OW30388   5.068   1.701   1.666
 9830SOL    HW130389   5.139   1.711   1.597
 9830SOL    HW230390   4.981   1.678   1.621
 9831SOL     OW30391   0.879   4.669   1.890
 9831SOL    HW130392   0.814   4.740   1.866
 9831SOL    HW230393   0.837   4.579   1.878
 9832SOL     OW30394   4.409   5.544   3.502
 9832SOL    HW130395   4.382   5.627   3.551
 9832SOL    HW230396   4.498   5.512   3.535
 9833SOL     OW30397   3.471   2.872   3.569
 9833SOL    HW130398   3.418   2.836   3.493
 9833SOL    HW230399   3.569   2.869   3.546
 9834SOL     OW30400   1.653   4.769   5.824
 9834SOL    HW130401   1.723   4.838   5.807
 9834SOL    HW230402   1.684   4.681   5.787
 9835SOL     OW30403   3.948   3.073   4.563
 9835SOL    HW130404   3.925   3.164   4.600
 9835SOL    HW230405   4.034   3.042   4.605
 9836SOL     OW30406   0.658   4.620   4.764
 9836SOL    HW130407   0.733   4.568   4.805
 9836SOL    HW230408   0.695   4.681   4.694
 9837SOL     OW30409   5.875   1.275   2.689
 9837SOL    HW130410   5.813   1.265   2.611
 9837SOL    HW230411   5.831   1.330   2.760
 9838SOL     OW30412   1.539   0.032   0.677
 9838SOL    HW130413   1.534   6.967   0.730
 9838SOL    HW230414   1.578   0.104   0.734
 9839SOL     OW30415   4.382   6.913   3.062
 9839SOL    HW130416   4.405   6.877   3.152
 9839SOL    HW230417   4.282   6.913   3.050
 9840SOL     OW30418   4.572   1.673   0.343
 9840SOL    HW130419   4.647   1.608   0.361
 9840SOL    HW230420   4.576   1.747   0.409
 9841SOL     OW30421   0.782   4.857   3.311
 9841SOL    HW130422   0.878   4.857   3.336
 9841SOL    HW230423   0.759   4.770   3.268
 9842SOL     OW30424   3.802   3.057   0.172
 9842SOL    HW130425   3.753   3.012   0.247
 9842SOL    HW230426   3.751   3.138   0.142
 9843SOL     OW30427   0.099   0.084   1.933
 9843SOL    HW130428   0.118   7.008   1.954
 9843SOL    HW230429   0.051   0.126   2.011
 9844SOL     OW30430   5.899   0.824   3.869
 9844SOL    HW130431   5.858   0.793   3.955
 9844SOL    HW230432   5.999   0.823   3.877
 9845SOL     OW30433   1.026   2.700   3.179
 9845SOL    HW130434   1.028   2.780   3.120
 9845SOL    HW230435   0.934   2.660   3.178
 9846SOL     OW30436   4.787   1.550   0.449
 9846SOL    HW130437   4.858   1.614   0.479
 9846SOL    HW230438   4.813   1.510   0.362
 9847SOL     OW30439   3.616   2.978   2.279
 9847SOL    HW130440   3.560   2.904   2.242
 9847SOL    HW230441   3.663   2.946   2.361
 9848SOL     OW30442   3.360   4.476   5.380
 9848SOL    HW130443   3.349   4.386   5.339
 9848SOL    HW230444   3.275   4.528   5.371
 9849SOL     OW30445   0.988   6.710   0.031
 9849SOL    HW130446   1.009   6.612   0.033
 9849SOL    HW230447   0.914   6.730   0.094
 9850SOL     OW30448   6.847   0.583   3.479
 9850SOL    HW130449   6.782   0.611   3.408
 9850SOL    HW230450   6.798   0.561   3.563
 9851SOL     OW30451   3.109   6.323   4.544
 9851SOL    HW130452   3.061   6.410   4.550
 9851SOL    HW230453   3.079   6.273   4.463
 9852SOL     OW30454   1.347   1.059   5.489
 9852SOL    HW130455   1.381   1.113   5.412
 9852SOL    HW230456   1.260   1.015   5.464
 9853SOL     OW30457   6.928   3.528   5.231
 9853SOL    HW130458   6.924   3.440   5.279
 9853SOL    HW230459   6.882   3.519   5.143
 9854SOL     OW30460   0.773   5.270   4.842
 9854SOL    HW130461   0.725   5.294   4.926
 9854SOL    HW230462   0.819   5.351   4.806
 9855SOL     OW30463   1.122   3.385   0.888
 9855SOL    HW130464   1.044   3.424   0.937
 9855SOL    HW230465   1.207   3.413   0.932
 9856SOL     OW30466   5.615   4.524   3.830
 9856SOL    HW130467   5.636   4.505   3.926
 9856SOL    HW230468   5.688   4.578   3.789
 9857SOL     OW30469   5.808   3.015   2.719
 9857SOL    HW130470   5.734   3.005   2.785
 9857SOL    HW230471   5.829   3.112   2.707
 9858SOL     OW30472   0.761   6.515   1.633
 9858SOL    HW130473   0.792   6.610   1.633
 9858SOL    HW230474   0.722   6.492   1.544
 9859SOL     OW30475   6.475   4.810   4.898
 9859SOL    HW130476   6.477   4.847   4.990
 9859SOL    HW230477   6.381   4.797   4.868
 9860SOL     OW30478   1.240   2.145   5.058
 9860SOL    HW130479   1.310   2.167   5.125
 9860SOL    HW230480   1.249   2.206   4.979
 9861SOL     OW30481   3.160   0.832   3.407
 9861SOL    HW130482   3.216   0.750   3.396
 9861SOL    HW230483   3.101   0.821   3.487
 9862SOL     OW30484   2.713   3.894   0.731
 9862SOL    HW130485   2.636   3.932   0.680
 9862SOL    HW230486   2.786   3.870   0.667
 9863SOL     OW30487   3.124   5.609   1.114
 9863SOL    HW130488   3.089   5.653   1.197
 9863SOL    HW230489   3.049   5.568   1.063
 9864SOL     OW30490   2.924   0.424   5.656
 9864SOL    HW130491   2.826   0.434   5.638
 9864SOL    HW230492   2.949   0.478   5.736
 9865SOL     OW30493   0.649   6.100   5.196
 9865SOL    HW130494   0.704   6.029   5.238
 9865SOL    HW230495   0.674   6.110   5.100
 9866SOL     OW30496   6.129   4.466   5.142
 9866SOL    HW130497   6.205   4.531   5.144
 9866SOL    HW230498   6.163   4.377   5.110
 9867SOL     OW30499   6.369   2.137   2.768
 9867SOL    HW130500   6.295   2.133   2.836
 9867SOL    HW230501   6.434   2.208   2.794
 9868SOL     OW30502   0.601   3.617   4.111
 9868SOL    HW130503   0.675   3.564   4.070
 9868SOL    HW230504   0.575   3.691   4.049
 9869SOL     OW30505   0.641   2.631   1.197
 9869SOL    HW130506   0.626   2.541   1.158
 9869SOL    HW230507   0.623   2.628   1.296
 9870SOL     OW30508   4.282   0.425   2.870
 9870SOL    HW130509   4.208   0.378   2.918
 9870SOL    HW230510   4.370   0.396   2.909
 9871SOL     OW30511   6.688   3.249   6.166
 9871SOL    HW130512   6.782   3.222   6.146
 9871SOL    HW230513   6.687   3.305   6.249
 9872SOL     OW30514   2.136   5.474   4.927
 9872SOL    HW130515   2.199   5.401   4.952
 9872SOL    HW230516   2.107   5.523   5.009
 9873SOL     OW30517   2.261   2.365   6.201
 9873SOL    HW130518   2.192   2.347   6.130
 9873SOL    HW230519   2.352   2.369   6.158
 9874SOL     OW30520   0.345   3.389   4.691
 9874SOL    HW130521   0.260   3.372   4.642
 9874SOL    HW230522   0.327   3.388   4.790
 9875SOL     OW30523   0.092   5.713   2.224
 9875SOL    HW130524   0.050   5.782   2.165
 9875SOL    HW230525   0.032   5.634   2.232
 9876SOL     OW30526   4.984   0.343   3.894
 9876SOL    HW130527   4.946   0.411   3.956
 9876SOL    HW230528   4.970   0.252   3.933
 9877SOL     OW30529   6.963   4.740   4.437
 9877SOL    HW130530   6.998   4.794   4.514
 9877SOL    HW230531   0.018   4.688   4.396
 9878SOL     OW30532   2.158   3.511   6.731
 9878SOL    HW130533   2.128   3.424   6.770
 9878SOL    HW230534   2.107   3.528   6.647
 9879SOL     OW30535   0.563   4.759   5.708
 9879SOL    HW130536   0.547   4.668   5.668
 9879SOL    HW230537   0.650   4.758   5.756
 9880SOL     OW30538   2.619   0.920   0.220
 9880SOL    HW130539   2.621   0.895   0.123
 9880SOL    HW230540   2.529   0.959   0.243
 9881SOL     OW30541   5.897   0.569   4.642
 9881SOL    HW130542   5.989   0.603   4.662
 9881SOL    HW230543   5.848   0.552   4.728
 9882SOL     OW30544   3.686   3.468   4.826
 9882SOL    HW130545   3.706   3.484   4.923
 9882SOL    HW230546   3.598   3.510   4.804
 9883SOL     OW30547   2.214   6.215   1.783
 9883SOL    HW130548   2.309   6.185   1.789
 9883SOL    HW230549   2.176   6.222   1.876
 9884SOL     OW30550   3.166   2.767   6.616
 9884SOL    HW130551   3.169   2.819   6.530
 9884SOL    HW230552   3.178   2.670   6.597
 9885SOL     OW30553   0.647   3.304   4.175
 9885SOL    HW130554   0.677   3.340   4.264
 9885SOL    HW230555   0.677   3.365   4.102
 9886SOL     OW30556   6.085   6.953   2.087
 9886SOL    HW130557   6.131   6.911   2.165
 9886SOL    HW230558   6.020   6.888   2.048
 9887SOL     OW30559   3.610   0.000   0.201
 9887SOL    HW130560   3.625   0.099   0.197
 9887SOL    HW230561   3.525   6.998   0.152
 9888SOL     OW30562   5.972   6.192   3.185
 9888SOL    HW130563   6.008   6.271   3.135
 9888SOL    HW230564   5.925   6.131   3.121
 9889SOL     OW30565   0.558   5.048   2.598
 9889SOL    HW130566   0.628   5.095   2.653
 9889SOL    HW230567   0.483   5.019   2.657
 9890SOL     OW30568   6.003   2.994   0.339
 9890SOL    HW130569   5.984   3.063   0.269
 9890SOL    HW230570   6.027   3.039   0.425
 9891SOL     OW30571   5.101   4.789   1.436
 9891SOL    HW130572   5.128   4.708   1.488
 9891SOL    HW230573   5.089   4.866   1.498
 9892SOL     OW30574   2.322   5.254   3.697
 9892SOL    HW130575   2.243   5.311   3.677
 9892SOL    HW230576   2.355   5.211   3.613
 9893SOL     OW30577   6.999   5.635   2.668
 9893SOL    HW130578   6.989   5.554   2.611
 9893SOL    HW230579   0.051   5.693   2.631
 9894SOL     OW30580   2.787   1.269   6.568
 9894SOL    HW130581   2.775   1.346   6.505
 9894SOL    HW230582   2.849   1.295   6.641
 9895SOL     OW30583   5.807   2.000   5.644
 9895SOL    HW130584   5.888   2.012   5.701
 9895SOL    HW230585   5.819   1.919   5.586
 9896SOL     OW30586   4.217   2.726   0.966
 9896SOL    HW130587   4.300   2.772   0.996
 9896SOL    HW230588   4.137   2.773   1.002
 9897SOL     OW30589   5.381   1.468   2.501
 9897SOL    HW130590   5.445   1.404   2.458
 9897SOL    HW230591   5.426   1.511   2.579
 9898SOL     OW30592   0.695   5.200   5.399
 9898SOL    HW130593   0.686   5.109   5.438
 9898SOL    HW230594   0.612   5.223   5.347
 9899SOL     OW30595   6.261   4.090   2.145
 9899SOL    HW130596   6.327   4.023   2.111
 9899SOL    HW230597   6.204   4.122   2.070
 9900SOL     OW30598   1.905   2.105   2.367
 9900SOL    HW130599   1.955   2.028   2.328
 9900SOL    HW230600   1.865   2.077   2.455
 9901SOL     OW30601   1.110   2.450   0.538
 9901SOL    HW130602   1.013   2.473   0.541
 9901SOL    HW230603   1.128   2.391   0.459
 9902SOL     OW30604   3.304   3.201   0.886
 9902SOL    HW130605   3.372   3.130   0.907
 9902SOL    HW230606   3.226   3.191   0.948
 9903SOL     OW30607   4.691   0.594   2.093
 9903SOL    HW130608   4.614   0.532   2.078
 9903SOL    HW230609   4.730   0.577   2.183
 9904SOL     OW30610   0.420   3.846   6.601
 9904SOL    HW130611   0.487   3.783   6.642
 9904SOL    HW230612   0.412   3.827   6.503
 9905SOL     OW30613   1.788   6.591   0.684
 9905SOL    HW130614   1.702   6.635   0.658
 9905SOL    HW230615   1.833   6.644   0.756
 9906SOL     OW30616   1.474   2.900   7.005
 9906SOL    HW130617   1.533   2.856   6.937
 9906SOL    HW230618   1.530   2.928   0.063
 9907SOL     OW30619   2.700   6.313   3.368
 9907SOL    HW130620   2.613   6.281   3.331
 9907SOL    HW230621   2.770   6.311   3.296
 9908SOL     OW30622   0.956   3.443   6.205
 9908SOL    HW130623   0.946   3.382   6.283
 9908SOL    HW230624   0.954   3.390   6.120
 9909SOL     OW30625   3.519   0.933   3.051
 9909SOL    HW130626   3.595   0.896   2.997
 9909SOL    HW230627   3.555   0.992   3.123
 9910SOL     OW30628   0.080   4.938   1.466
 9910SOL    HW130629   0.137   4.855   1.463
 9910SOL    HW230630   7.004   4.913   1.452
 9911SOL     OW30631   4.621   5.385   3.272
 9911SOL    HW130632   4.649   5.291   3.292
 9911SOL    HW230633   4.682   5.424   3.203
 9912SOL     OW30634   3.987   0.663   2.714
 9912SOL    HW130635   3.891   0.682   2.691
 9912SOL    HW230636   4.024   0.596   2.651
 9913SOL     OW30637   5.823   2.868   1.797
 9913SOL    HW130638   5.858   2.877   1.704
 9913SOL    HW230639   5.755   2.795   1.800
 9914SOL     OW30640   0.897   0.627   5.561
 9914SOL    HW130641   0.804   0.663   5.566
 9914SOL    HW230642   0.907   0.572   5.478
 9915SOL     OW30643   5.683   3.967   4.149
 9915SOL    HW130644   5.726   4.023   4.079
 9915SOL    HW230645   5.661   3.877   4.110
 9916SOL     OW30646   2.670   2.085   3.365
 9916SOL    HW130647   2.682   2.159   3.299
 9916SOL    HW230648   2.579   2.092   3.406
 9917SOL     OW30649   3.124   3.065   4.819
 9917SOL    HW130650   3.089   3.083   4.727
 9917SOL    HW230651   3.189   2.990   4.815
 9918SOL     OW30652   1.439   1.255   0.114
 9918SOL    HW130653   1.353   1.274   0.161
 9918SOL    HW230654   1.514   1.300   0.163
 9919SOL     OW30655   2.133   5.034   2.395
 9919SOL    HW130656   2.213   5.093   2.403
 9919SOL    HW230657   2.131   4.970   2.471
 9920SOL     OW30658   3.497   0.877   2.620
 9920SOL    HW130659   3.577   0.848   2.567
 9920SOL    HW230660   3.473   0.971   2.595
 9921SOL     OW30661   6.416   6.076   3.770
 9921SOL    HW130662   6.466   6.024   3.700
 9921SOL    HW230663   6.338   6.023   3.802
 9922SOL     OW30664   4.248   4.248   0.787
 9922SOL    HW130665   4.182   4.173   0.784
 9922SOL    HW230666   4.337   4.215   0.754
 9923SOL     OW30667   6.646   2.692   0.105
 9923SOL    HW130668   6.611   2.607   0.067
 9923SOL    HW230669   6.684   2.676   0.196
 9924SOL     OW30670   5.707   1.737   1.731
 9924SOL    HW130671   5.688   1.642   1.707
 9924SOL    HW230672   5.639   1.796   1.687
 9925SOL     OW30673   2.053   4.430   5.168
 9925SOL    HW130674   2.122   4.359   5.167
 9925SOL    HW230675   2.065   4.488   5.249
 9926SOL     OW30676   3.322   2.347   1.327
 9926SOL    HW130677   3.409   2.299   1.337
 9926SOL    HW230678   3.337   2.446   1.336
 9927SOL     OW30679   1.027   2.410   1.231
 9927SOL    HW130680   1.056   2.501   1.262
 9927SOL    HW230681   1.076   2.340   1.283
 9928SOL     OW30682   6.030   4.305   2.250
 9928SOL    HW130683   6.063   4.227   2.197
 9928SOL    HW230684   5.991   4.273   2.336
 9929SOL     OW30685   2.789   4.173   5.464
 9929SOL    HW130686   2.734   4.117   5.400
 9929SOL    HW230687   2.781   4.269   5.438
 9930SOL     OW30688   6.620   0.443   5.886
 9930SOL    HW130689   6.599   0.346   5.883
 9930SOL    HW230690   6.566   0.492   5.817
 9931SOL     OW30691   6.933   5.779   5.251
 9931SOL    HW130692   6.906   5.683   5.253
 9931SOL    HW230693   0.009   5.788   5.278
 9932SOL     OW30694   1.381   2.097   0.616
 9932SOL    HW130695   1.331   2.060   0.538
 9932SOL    HW230696   1.378   2.197   0.613
 9933SOL     OW30697   2.770   0.841   3.674
 9933SOL    HW130698   2.766   0.899   3.755
 9933SOL    HW230699   2.722   0.755   3.692
 9934SOL     OW30700   6.124   1.997   0.194
 9934SOL    HW130701   6.093   2.081   0.149
 9934SOL    HW230702   6.096   1.999   0.290
 9935SOL     OW30703   3.053   2.090   0.706
 9935SOL    HW130704   3.028   2.061   0.614
 9935SOL    HW230705   2.977   2.073   0.768
 9936SOL     OW30706   5.506   4.500   6.172
 9936SOL    HW130707   5.570   4.575   6.189
 9936SOL    HW230708   5.504   4.480   6.074
 9937SOL     OW30709   1.071   0.884   2.974
 9937SOL    HW130710   1.098   0.811   2.911
 9937SOL    HW230711   1.144   0.952   2.980
 9938SOL     OW30712   5.270   0.575   3.663
 9938SOL    HW130713   5.337   0.558   3.735
 9938SOL    HW230714   5.301   0.651   3.606
 9939SOL     OW30715   1.362   3.424   1.027
 9939SOL    HW130716   1.398   3.333   1.007
 9939SOL    HW230717   1.430   3.476   1.079
 9940SOL     OW30718   6.927   0.221   3.573
 9940SOL    HW130719   6.981   0.288   3.624
 9940SOL    HW230720   6.878   0.266   3.498
 9941SOL     OW30721   3.738   5.481   4.858
 9941SOL    HW130722   3.738   5.579   4.838
 9941SOL    HW230723   3.681   5.434   4.790
 9942SOL     OW30724   4.848   4.680   2.546
 9942SOL    HW130725   4.868   4.693   2.643
 9942SOL    HW230726   4.916   4.730   2.492
 9943SOL     OW30727   0.928   4.479   6.222
 9943SOL    HW130728   1.016   4.485   6.270
 9943SOL    HW230729   0.876   4.563   6.237
 9944SOL     OW30730   6.832   5.501   6.622
 9944SOL    HW130731   6.925   5.534   6.636
 9944SOL    HW230732   6.767   5.569   6.656
 9945SOL     OW30733   5.684   4.158   6.465
 9945SOL    HW130734   5.764   4.098   6.467
 9945SOL    HW230735   5.628   4.141   6.546
 9946SOL     OW30736   5.756   6.958   3.198
 9946SOL    HW130737   5.704   6.891   3.250
 9946SOL    HW230738   5.710   6.976   3.111
 9947SOL     OW30739   1.581   1.082   3.367
 9947SOL    HW130740   1.569   1.072   3.268
 9947SOL    HW230741   1.615   1.174   3.387
 9948SOL     OW30742   6.838   5.524   5.230
 9948SOL    HW130743   6.754   5.491   5.274
 9948SOL    HW230744   6.905   5.450   5.226
 9949SOL     OW30745   0.306   5.373   4.302
 9949SOL    HW130746   0.334   5.453   4.249
 9949SOL    HW230747   0.381   5.306   4.304
 9950SOL     OW30748   6.561   5.248   6.250
 9950SOL    HW130749   6.586   5.306   6.327
 9950SOL    HW230750   6.607   5.160   6.257
 9951SOL     OW30751   1.732   2.670   2.585
 9951SOL    HW130752   1.768   2.585   2.545
 9951SOL    HW230753   1.755   2.747   2.527
 9952SOL     OW30754   0.703   3.739   2.041
 9952SOL    HW130755   0.680   3.813   2.105
 9952SOL    HW230756   0.740   3.778   1.957
 9953SOL     OW30757   6.250   2.542   3.511
 9953SOL    HW130758   6.301   2.463   3.478
 9953SOL    HW230759   6.314   2.615   3.535
 9954SOL     OW30760   2.218   1.600   5.402
 9954SOL    HW130761   2.203   1.526   5.337
 9954SOL    HW230762   2.210   1.688   5.355
 9955SOL     OW30763   4.665   3.290   6.778
 9955SOL    HW130764   4.758   3.307   6.745
 9955SOL    HW230765   4.662   3.300   6.878
 9956SOL     OW30766   0.567   4.145   2.105
 9956SOL    HW130767   0.611   4.064   2.144
 9956SOL    HW230768   0.576   4.143   2.006
 9957SOL     OW30769   5.470   0.270   1.198
 9957SOL    HW130770   5.429   0.304   1.283
 9957SOL    HW230771   5.557   0.226   1.219
 9958SOL     OW30772   3.504   5.591   6.182
 9958SOL    HW130773   3.405   5.584   6.176
 9958SOL    HW230774   3.532   5.584   6.278
 9959SOL     OW30775   4.539   3.390   1.606
 9959SOL    HW130776   4.497   3.476   1.638
 9959SOL    HW230777   4.508   3.315   1.664
 9960SOL     OW30778   0.085   5.981   1.367
 9960SOL    HW130779   0.093   6.006   1.464
 9960SOL    HW230780   0.020   5.905   1.357
 9961SOL     OW30781   2.113   4.712   2.506
 9961SOL    HW130782   2.055   4.737   2.429
 9961SOL    HW230783   2.089   4.620   2.537
 9962SOL     OW30784   3.649   0.817   1.492
 9962SOL    HW130785   3.677   0.827   1.587
 9962SOL    HW230786   3.674   0.900   1.441
 9963SOL     OW30787   2.512   2.336   0.392
 9963SOL    HW130788   2.517   2.367   0.487
 9963SOL    HW230789   2.575   2.390   0.336
 9964SOL     OW30790   3.484   5.011   6.071
 9964SOL    HW130791   3.565   5.063   6.044
 9964SOL    HW230792   3.501   4.913   6.057
 9965SOL     OW30793   3.697   5.585   4.554
 9965SOL    HW130794   3.659   5.643   4.626
 9965SOL    HW230795   3.663   5.492   4.565
 9966SOL     OW30796   2.741   4.996   2.406
 9966SOL    HW130797   2.697   4.986   2.317
 9966SOL    HW230798   2.743   5.093   2.432
 9967SOL     OW30799   6.302   5.658   2.993
 9967SOL    HW130800   6.205   5.660   3.016
 9967SOL    HW230801   6.343   5.747   3.016
 9968SOL     OW30802   4.710   5.666   6.785
 9968SOL    HW130803   4.660   5.753   6.793
 9968SOL    HW230804   4.657   5.602   6.730
 9969SOL     OW30805   1.548   2.983   4.717
 9969SOL    HW130806   1.619   3.035   4.765
 9969SOL    HW230807   1.472   3.043   4.694
 9970SOL     OW30808   6.075   5.052   1.769
 9970SOL    HW130809   6.148   4.987   1.748
 9970SOL    HW230810   5.986   5.010   1.750
 9971SOL     OW30811   1.308   3.016   1.341
 9971SOL    HW130812   1.331   3.010   1.438
 9971SOL    HW230813   1.392   3.020   1.287
 9972SOL     OW30814   2.811   3.980   1.255
 9972SOL    HW130815   2.798   3.886   1.226
 9972SOL    HW230816   2.731   4.012   1.305
 9973SOL     OW30817   4.923   2.808   4.570
 9973SOL    HW130818   4.830   2.778   4.595
 9973SOL    HW230819   4.929   2.907   4.579
 9974SOL     OW30820   6.675   1.650   3.419
 9974SOL    HW130821   6.615   1.727   3.440
 9974SOL    HW230822   6.650   1.612   3.330
 9975SOL     OW30823   0.704   5.642   6.237
 9975SOL    HW130824   0.677   5.571   6.171
 9975SOL    HW230825   0.671   5.731   6.205
 9976SOL     OW30826   0.925   5.043   5.730
 9976SOL    HW130827   0.979   5.085   5.802
 9976SOL    HW230828   0.843   5.098   5.712
 9977SOL     OW30829   5.040   4.805   5.816
 9977SOL    HW130830   5.115   4.741   5.835
 9977SOL    HW230831   4.954   4.756   5.812
 9978SOL     OW30832   0.141   2.063   5.238
 9978SOL    HW130833   0.175   2.130   5.172
 9978SOL    HW230834   0.170   1.971   5.210
 9979SOL     OW30835   6.077   4.178   6.101
 9979SOL    HW130836   6.076   4.161   6.199
 9979SOL    HW230837   6.000   4.238   6.077
 9980SOL     OW30838   2.060   0.398   1.138
 9980SOL    HW130839   1.981   0.339   1.152
 9980SOL    HW230840   2.040   0.489   1.174
 9981SOL     OW30841   1.809   2.203   1.079
 9981SOL    HW130842   1.860   2.174   0.998
 9981SOL    HW230843   1.739   2.270   1.052
 9982SOL     OW30844   1.244   0.807   4.392
 9982SOL    HW130845   1.210   0.783   4.483
 9982SOL    HW230846   1.284   0.726   4.350
 9983SOL     OW30847   6.717   1.830   2.164
 9983SOL    HW130848   6.803   1.822   2.215
 9983SOL    HW230849   6.646   1.778   2.212
 9984SOL     OW30850   0.705   6.086   0.402
 9984SOL    HW130851   0.763   6.007   0.424
 9984SOL    HW230852   0.754   6.147   0.340
 9985SOL     OW30853   2.763   5.131   1.264
 9985SOL    HW130854   2.788   5.227   1.275
 9985SOL    HW230855   2.699   5.121   1.188
 9986SOL     OW30856   6.089   4.772   0.991
 9986SOL    HW130857   6.131   4.689   0.956
 9986SOL    HW230858   6.107   4.780   1.089
 9987SOL     OW30859   5.734   2.746   2.171
 9987SOL    HW130860   5.817   2.710   2.128
 9987SOL    HW230861   5.656   2.733   2.110
 9988SOL     OW30862   6.790   5.218   4.135
 9988SOL    HW130863   6.824   5.309   4.157
 9988SOL    HW230864   6.830   5.151   4.199
 9989SOL     OW30865   6.099   3.911   2.312
 9989SOL    HW130866   6.178   3.972   2.323
 9989SOL    HW230867   6.042   3.945   2.237
 9990SOL     OW30868   2.140   6.389   3.316
 9990SOL    HW130869   2.059   6.414   3.263
 9990SOL    HW230870   2.145   6.289   3.324
 9991SOL     OW30871   2.076   3.582   3.895
 9991SOL    HW130872   2.061   3.484   3.901
 9991SOL    HW230873   1.987   3.629   3.898
 9992SOL     OW30874   3.319   3.461   0.814
 9992SOL    HW130875   3.412   3.497   0.825
 9992SOL    HW230876   3.313   3.372   0.861
 9993SOL     OW30877   3.848   6.566   3.868
 9993SOL    HW130878   3.759   6.529   3.893
 9993SOL    HW230879   3.842   6.666   3.859
 9994SOL     OW30880   6.976   3.857   2.662
 9994SOL    HW130881   6.928   3.787   2.609
 9994SOL    HW230882   6.967   3.945   2.616
 9995SOL     OW30883   3.467   1.464   3.383
 9995SOL    HW130884   3.402   1.459   3.459
 9995SOL    HW230885   3.471   1.557   3.348
 9996SOL     OW30886   3.022   4.175   1.169
 9996SOL    HW130887   2.969   4.091   1.162
 9996SOL    HW230888   3.112   4.162   1.129
 9997SOL     OW30889   5.948   0.620   2.793
 9997SOL    HW130890   5.927   0.711   2.758
 9997SOL    HW230891   5.871   0.559   2.774
 9998SOL     OW30892   5.462   3.805   1.820
 9998SOL    HW130893   5.480   3.788   1.917
 9998SOL    HW230894   5.548   3.824   1.773
 9999SOL     OW30895   6.958   6.238   4.862
 9999SOL    HW130896   6.886   6.188   4.814
 9999SOL    HW230897   7.004   6.176   4.926
10000SOL     OW30898   5.712   2.106   0.645
10000SOL    HW130899   5.794   2.108   0.703
10000SOL    HW230900   5.740   2.108   0.549
10001SOL     OW30901   3.344   0.337   1.564
10001SOL    HW130902   3.412   0.323   1.492
10001SOL    HW230903   3.299   0.426   1.550
10002SOL     OW30904   1.860   1.229   1.555
10002SOL    HW130905   1.893   1.317   1.522
10002SOL    HW230906   1.929   1.187   1.614
10003SOL     OW30907   3.121   2.112   2.465
10003SOL    HW130908   3.206   2.134   2.418
10003SOL    HW230909   3.129   2.022   2.508
10004SOL     OW30910   5.378   3.124   5.268
10004SOL    HW130911   5.363   3.025   5.275
10004SOL    HW230912   5.294   3.168   5.235
10005SOL     OW30913   3.529   5.692   2.942
10005SOL    HW130914   3.497   5.597   2.940
10005SOL    HW230915   3.466   5.749   2.891
10006SOL     OW30916   5.818   6.878   5.500
10006SOL    HW130917   5.744   6.821   5.538
10006SOL    HW230918   5.777   6.954   5.450
10007SOL     OW30919   1.043   2.961   4.229
10007SOL    HW130920   1.042   2.935   4.325
10007SOL    HW230921   0.993   3.047   4.218
10008SOL     OW30922   4.660   1.085   3.319
10008SOL    HW130923   4.675   1.173   3.363
10008SOL    HW230924   4.619   1.021   3.385
10009SOL     OW30925   2.015   4.325   1.727
10009SOL    HW130926   1.951   4.384   1.777
10009SOL    HW230927   2.050   4.373   1.647
10010SOL     OW30928   2.468   6.150   0.686
10010SOL    HW130929   2.475   6.052   0.667
10010SOL    HW230930   2.393   6.189   0.633
10011SOL     OW30931   0.226   4.343   6.751
10011SOL    HW130932   0.305   4.388   6.793
10011SOL    HW230933   0.257   4.264   6.697
10012SOL     OW30934   5.257   0.083   2.079
10012SOL    HW130935   5.297   0.115   2.165
10012SOL    HW230936   5.223   0.161   2.026
10013SOL     OW30937   1.890   2.903   4.410
10013SOL    HW130938   1.917   2.979   4.470
10013SOL    HW230939   1.910   2.816   4.456
10014SOL     OW30940   1.273   0.524   1.548
10014SOL    HW130941   1.222   0.503   1.632
10014SOL    HW230942   1.346   0.457   1.536
10015SOL     OW30943   4.559   5.061   0.455
10015SOL    HW130944   4.553   4.970   0.415
10015SOL    HW230945   4.500   5.067   0.535
10016SOL     OW30946   2.467   1.185   4.457
10016SOL    HW130947   2.504   1.117   4.520
10016SOL    HW230948   2.517   1.271   4.469
10017SOL     OW30949   1.640   1.386   2.629
10017SOL    HW130950   1.728   1.431   2.621
10017SOL    HW230951   1.652   1.287   2.617
10018SOL     OW30952   6.883   4.752   5.891
10018SOL    HW130953   6.844   4.781   5.979
10018SOL    HW230954   6.906   4.655   5.895
10019SOL     OW30955   7.002   1.419   2.982
10019SOL    HW130956   0.078   1.422   2.957
10019SOL    HW230957   6.955   1.350   2.927
10020SOL     OW30958   0.119   1.305   1.705
10020SOL    HW130959   0.025   1.316   1.737
10020SOL    HW230960   0.175   1.267   1.779
10021SOL     OW30961   0.705   3.007   2.790
10021SOL    HW130962   0.783   3.067   2.809
10021SOL    HW230963   0.645   3.051   2.723
10022SOL     OW30964   3.382   6.625   0.790
10022SOL    HW130965   3.410   6.713   0.754
10022SOL    HW230966   3.302   6.637   0.849
10023SOL     OW30967   2.304   5.662   4.478
10023SOL    HW130968   2.254   5.644   4.563
10023SOL    HW230969   2.374   5.731   4.494
10024SOL     OW30970   1.533   5.871   2.366
10024SOL    HW130971   1.508   5.792   2.309
10024SOL    HW230972   1.518   5.849   2.462
10025SOL     OW30973   1.326   2.824   2.392
10025SOL    HW130974   1.303   2.754   2.324
10025SOL    HW230975   1.393   2.888   2.353
10026SOL     OW30976   5.122   0.153   3.441
10026SOL    HW130977   5.083   0.207   3.366
10026SOL    HW230978   5.210   0.192   3.467
10027SOL     OW30979   0.817   2.505   4.708
10027SOL    HW130980   0.727   2.540   4.733
10027SOL    HW230981   0.808   2.413   4.668
10028SOL     OW30982   2.135   1.541   1.952
10028SOL    HW130983   2.049   1.545   1.899
10028SOL    HW230984   2.210   1.518   1.891
10029SOL     OW30985   1.812   2.337   3.806
10029SOL    HW130986   1.722   2.361   3.841
10029SOL    HW230987   1.872   2.312   3.882
10030SOL     OW30988   3.316   0.532   5.206
10030SOL    HW130989   3.408   0.498   5.224
10030SOL    HW230990   3.250   0.459   5.225
10031SOL     OW30991   5.369   4.555   4.692
10031SOL    HW130992   5.431   4.509   4.628
10031SOL    HW230993   5.360   4.651   4.665
10032SOL     OW30994   4.597   0.649   5.623
10032SOL    HW130995   4.685   0.658   5.575
10032SOL    HW230996   4.608   0.588   5.702
10033SOL     OW30997   4.645   2.601   4.289
10033SOL    HW130998   4.741   2.582   4.307
10033SOL    HW230999   4.588   2.525   4.320
10034SOL     OW31000   3.042   0.259   4.184
10034SOL    HW131001   2.986   0.342   4.183
10034SOL    HW231002   3.072   0.238   4.091
10035SOL     OW31003   6.793   4.716   0.866
10035SOL    HW131004   6.840   4.722   0.778
10035SOL    HW231005   6.819   4.794   0.924
10036SOL     OW31006   6.463   0.799   0.596
10036SOL    HW131007   6.439   0.850   0.679
10036SOL    HW231008   6.443   0.855   0.515
10037SOL     OW31009   6.245   0.933   0.052
10037SOL    HW131010   6.237   0.928   6.972
10037SOL    HW231011   6.259   1.027   0.080
10038SOL     OW31012   4.053   6.706   6.555
10038SOL    HW131013   4.098   6.787   6.517
10038SOL    HW231014   3.954   6.717   6.549
10039SOL     OW31015   4.372   6.677   5.214
10039SOL    HW131016   4.392   6.581   5.235
10039SOL    HW231017   4.456   6.731   5.225
10040SOL     OW31018   4.138   5.699   6.257
10040SOL    HW131019   4.181   5.632   6.197
10040SOL    HW231020   4.184   5.787   6.249
10041SOL     OW31021   4.949   5.968   6.515
10041SOL    HW131022   4.963   5.908   6.594
10041SOL    HW231023   4.852   5.978   6.497
10042SOL     OW31024   1.085   1.777   5.375
10042SOL    HW131025   1.049   1.868   5.397
10042SOL    HW231026   1.142   1.783   5.292
10043SOL     OW31027   0.207   1.583   4.302
10043SOL    HW131028   0.265   1.627   4.232
10043SOL    HW231029   0.141   1.650   4.337
10044SOL     OW31030   2.438   2.054   3.535
10044SOL    HW131031   2.374   1.978   3.548
10044SOL    HW231032   2.519   2.039   3.592
10045SOL     OW31033   5.187   6.732   3.566
10045SOL    HW131034   5.119   6.724   3.493
10045SOL    HW231035   5.146   6.779   3.644
10046SOL     OW31036   1.177   3.685   1.526
10046SOL    HW131037   1.078   3.696   1.519
10046SOL    HW231038   1.199   3.587   1.529
10047SOL     OW31039   6.212   4.005   4.722
10047SOL    HW131040   6.184   3.938   4.654
10047SOL    HW231041   6.136   4.067   4.741
10048SOL     OW31042   4.673   2.070   2.539
10048SOL    HW131043   4.758   2.057   2.591
10048SOL    HW231044   4.612   2.132   2.589
10049SOL     OW31045   0.359   0.456   6.730
10049SOL    HW131046   0.363   0.424   6.825
10049SOL    HW231047   0.429   0.527   6.717
10050SOL     OW31048   6.798   2.275   4.786
10050SOL    HW131049   6.882   2.328   4.790
10050SOL    HW231050   6.724   2.333   4.752
10051SOL     OW31051   6.196   2.416   5.002
10051SOL    HW131052   6.105   2.380   5.023
10051SOL    HW231053   6.258   2.340   4.981
10052SOL     OW31054   3.008   2.064   2.885
10052SOL    HW131055   3.016   1.967   2.863
10052SOL    HW231056   2.983   2.115   2.803
10053SOL     OW31057   3.653   6.020   1.874
10053SOL    HW131058   3.598   6.093   1.834
10053SOL    HW231059   3.709   5.977   1.804
10054SOL     OW31060   4.703   5.182   6.206
10054SOL    HW131061   4.604   5.176   6.192
10054SOL    HW231062   4.741   5.090   6.214
10055SOL     OW31063   6.144   2.610   5.209
10055SOL    HW131064   6.217   2.678   5.209
10055SOL    HW231065   6.139   2.566   5.119
10056SOL     OW31066   5.831   4.784   1.334
10056SOL    HW131067   5.808   4.853   1.265
10056SOL    HW231068   5.756   4.775   1.399
10057SOL     OW31069   3.982   2.155   4.546
10057SOL    HW131070   4.080   2.153   4.562
10057SOL    HW231071   3.933   2.126   4.629
10058SOL     OW31072   0.644   3.972   4.525
10058SOL    HW131073   0.553   3.952   4.560
10058SOL    HW231074   0.664   4.069   4.538
10059SOL     OW31075   5.437   6.461   1.161
10059SOL    HW131076   5.368   6.427   1.097
10059SOL    HW231077   5.393   6.506   1.238
10060SOL     OW31078   1.890   1.502   1.804
10060SOL    HW131079   1.832   1.579   1.775
10060SOL    HW231080   1.931   1.459   1.724
10061SOL     OW31081   5.525   1.159   4.795
10061SOL    HW131082   5.440   1.211   4.801
10061SOL    HW231083   5.602   1.222   4.785
10062SOL     OW31084   6.489   0.221   4.459
10062SOL    HW131085   6.513   0.162   4.383
10062SOL    HW231086   6.572   0.266   4.493
10063SOL     OW31087   1.801   1.417   3.951
10063SOL    HW131088   1.784   1.506   3.908
10063SOL    HW231089   1.899   1.405   3.964
10064SOL     OW31090   5.136   6.760   6.936
10064SOL    HW131091   5.107   6.775   0.011
10064SOL    HW231092   5.235   6.763   6.931
10065SOL     OW31093   1.870   6.751   2.490
10065SOL    HW131094   1.777   6.784   2.505
10065SOL    HW231095   1.935   6.808   2.541
10066SOL     OW31096   0.713   1.376   3.120
10066SOL    HW131097   0.805   1.388   3.081
10066SOL    HW231098   0.698   1.280   3.141
10067SOL     OW31099   6.326   4.261   4.740
10067SOL    HW131100   6.414   4.274   4.785
10067SOL    HW231101   6.298   4.166   4.748
10068SOL     OW31102   6.607   3.021   2.635
10068SOL    HW131103   6.614   2.994   2.539
10068SOL    HW231104   6.526   3.078   2.648
10069SOL     OW31105   1.895   5.443   3.822
10069SOL    HW131106   1.795   5.450   3.814
10069SOL    HW231107   1.919   5.358   3.868
10070SOL     OW31108   6.623   6.960   5.144
10070SOL    HW131109   6.643   0.018   5.085
10070SOL    HW231110   6.699   6.945   5.207
10071SOL     OW31111   6.207   5.648   3.836
10071SOL    HW131112   6.155   5.580   3.887
10071SOL    HW231113   6.291   5.607   3.801
10072SOL     OW31114   0.243   6.552   4.086
10072SOL    HW131115   0.187   6.569   4.005
10072SOL    HW231116   0.242   6.454   4.106
10073SOL     OW31117   6.227   4.751   5.209
10073SOL    HW131118   6.315   4.716   5.240
10073SOL    HW231119   6.208   4.839   5.255
10074SOL     OW31120   1.444   0.919   5.705
10074SOL    HW131121   1.409   0.969   5.626
10074SOL    HW231122   1.420   0.968   5.789
10075SOL     OW31123   1.445   2.986   3.494
10075SOL    HW131124   1.345   2.992   3.499
10075SOL    HW231125   1.471   2.942   3.408
10076SOL     OW31126   6.834   0.345   3.365
10076SOL    HW131127   6.816   0.341   3.267
10076SOL    HW231128   6.859   0.438   3.391
10077SOL     OW31129   3.838   3.206   6.258
10077SOL    HW131130   3.904   3.132   6.250
10077SOL    HW231131   3.747   3.172   6.234
10078SOL     OW31132   0.229   5.349   3.692
10078SOL    HW131133   0.307   5.310   3.741
10078SOL    HW231134   0.252   5.441   3.662
10079SOL     OW31135   0.038   3.632   2.292
10079SOL    HW131136   6.967   3.611   2.256
10079SOL    HW231137   0.063   3.725   2.267
10080SOL     OW31138   3.486   0.929   5.263
10080SOL    HW131139   3.510   0.990   5.188
10080SOL    HW231140   3.568   0.879   5.292
10081SOL     OW31141   6.942   0.233   0.701
10081SOL    HW131142   6.954   0.301   0.773
10081SOL    HW231143   7.015   0.165   0.704
10082SOL     OW31144   6.891   4.863   1.834
10082SOL    HW131145   6.884   4.945   1.777
10082SOL    HW231146   6.842   4.788   1.791
10083SOL     OW31147   5.248   0.794   3.118
10083SOL    HW131148   5.232   0.799   3.020
10083SOL    HW231149   5.339   0.756   3.135
10084SOL     OW31150   2.878   1.402   5.729
10084SOL    HW131151   2.811   1.332   5.751
10084SOL    HW231152   2.874   1.475   5.797
10085SOL     OW31153   1.644   6.287   2.182
10085SOL    HW131154   1.669   6.358   2.115
10085SOL    HW231155   1.699   6.300   2.265
10086SOL     OW31156   5.553   5.342   2.650
10086SOL    HW131157   5.526   5.246   2.644
10086SOL    HW231158   5.538   5.375   2.743
10087SOL     OW31159   0.357   0.203   3.424
10087SOL    HW131160   0.281   0.263   3.446
10087SOL    HW231161   0.393   0.227   3.334
10088SOL     OW31162   6.590   0.601   1.087
10088SOL    HW131163   6.588   0.666   1.163
10088SOL    HW231164   6.639   0.641   1.010
10089SOL     OW31165   3.174   1.862   2.104
10089SOL    HW131166   3.137   1.769   2.099
10089SOL    HW231167   3.105   1.923   2.143
10090SOL     OW31168   1.266   4.366   1.287
10090SOL    HW131169   1.344   4.418   1.322
10090SOL    HW231170   1.185   4.386   1.343
10091SOL     OW31171   1.540   3.770   5.712
10091SOL    HW131172   1.485   3.853   5.702
10091SOL    HW231173   1.567   3.736   5.621
10092SOL     OW31174   1.957   3.224   5.294
10092SOL    HW131175   1.974   3.319   5.267
10092SOL    HW231176   2.042   3.172   5.290
10093SOL     OW31177   6.690   3.617   5.024
10093SOL    HW131178   6.615   3.677   4.996
10093SOL    HW231179   6.772   3.639   4.973
10094SOL     OW31180   2.257   5.586   1.915
10094SOL    HW131181   2.171   5.556   1.874
10094SOL    HW231182   2.286   5.520   1.985
10095SOL     OW31183   5.628   1.550   5.304
10095SOL    HW131184   5.565   1.484   5.262
10095SOL    HW231185   5.702   1.501   5.349
10096SOL     OW31186   5.023   5.052   2.452
10096SOL    HW131187   4.923   5.058   2.440
10096SOL    HW231188   5.043   5.043   2.550
10097SOL     OW31189   0.776   1.034   0.637
10097SOL    HW131190   0.874   1.033   0.614
10097SOL    HW231191   0.750   0.944   0.672
10098SOL     OW31192   2.773   0.734   5.103
10098SOL    HW131193   2.739   0.659   5.160
10098SOL    HW231194   2.850   0.703   5.049
10099SOL     OW31195   6.896   4.957   0.957
10099SOL    HW131196   6.890   5.048   0.915
10099SOL    HW231197   6.988   4.944   0.994
10100SOL     OW31198   5.092   0.520   4.874
10100SOL    HW131199   5.104   0.432   4.828
10100SOL    HW231200   5.013   0.567   4.836
10101SOL     OW31201   5.795   4.253   1.672
10101SOL    HW131202   5.783   4.181   1.740
10101SOL    HW231203   5.794   4.342   1.717
10102SOL     OW31204   1.350   1.106   2.075
10102SOL    HW131205   1.386   1.169   2.006
10102SOL    HW231206   1.424   1.077   2.136
10103SOL     OW31207   2.600   0.855   6.504
10103SOL    HW131208   2.519   0.910   6.526
10103SOL    HW231209   2.606   0.843   6.405
10104SOL     OW31210   1.598   2.048   4.016
10104SOL    HW131211   1.667   2.101   4.064
10104SOL    HW231212   1.639   1.963   3.981
10105SOL     OW31213   1.408   0.749   0.692
10105SOL    HW131214   1.437   0.750   0.787
10105SOL    HW231215   1.337   0.680   0.679
10106SOL     OW31216   4.165   6.544   1.150
10106SOL    HW131217   4.262   6.563   1.140
10106SOL    HW231218   4.143   6.457   1.105
10107SOL     OW31219   6.885   1.186   6.559
10107SOL    HW131220   6.876   1.250   6.635
10107SOL    HW231221   6.960   1.216   6.499
10108SOL     OW31222   6.542   6.452   0.487
10108SOL    HW131223   6.612   6.505   0.438
10108SOL    HW231224   6.564   6.450   0.584
10109SOL     OW31225   4.979   0.198   0.607
10109SOL    HW131226   4.986   0.251   0.523
10109SOL    HW231227   4.964   0.260   0.684
10110SOL     OW31228   3.842   6.000   4.397
10110SOL    HW131229   3.825   5.910   4.359
10110SOL    HW231230   3.853   5.993   4.496
10111SOL     OW31231   5.195   3.778   3.510
10111SOL    HW131232   5.179   3.680   3.518
10111SOL    HW231233   5.229   3.814   3.597
10112SOL     OW31234   5.714   3.914   3.567
10112SOL    HW131235   5.659   3.878   3.642
10112SOL    HW231236   5.671   3.893   3.479
10113SOL     OW31237   4.540   0.109   5.996
10113SOL    HW131238   4.614   0.111   5.929
10113SOL    HW231239   4.573   0.067   6.081
10114SOL     OW31240   5.843   1.363   0.952
10114SOL    HW131241   5.846   1.282   1.011
10114SOL    HW231242   5.860   1.337   0.857
10115SOL     OW31243   3.603   1.572   4.520
10115SOL    HW131244   3.578   1.647   4.581
10115SOL    HW231245   3.645   1.609   4.437
10116SOL     OW31246   0.443   6.449   0.872
10116SOL    HW131247   0.458   6.358   0.833
10116SOL    HW231248   0.410   6.511   0.801
10117SOL     OW31249   6.215   6.219   5.862
10117SOL    HW131250   6.168   6.301   5.830
10117SOL    HW231251   6.189   6.141   5.804
10118SOL     OW31252   2.065   4.959   2.686
10118SOL    HW131253   2.047   5.056   2.668
10118SOL    HW231254   2.156   4.949   2.726
10119SOL     OW31255   0.452   6.104   4.679
10119SOL    HW131256   0.407   6.081   4.593
10119SOL    HW231257   0.411   6.052   4.754
10120SOL     OW31258   1.718   3.894   4.959
10120SOL    HW131259   1.639   3.936   5.003
10120SOL    HW231260   1.791   3.962   4.950
10121SOL     OW31261   6.496   3.998   6.714
10121SOL    HW131262   6.418   4.051   6.679
10121SOL    HW231263   6.565   4.061   6.749
10122SOL     OW31264   6.248   3.477   1.446
10122SOL    HW131265   6.337   3.504   1.408
10122SOL    HW231266   6.243   3.377   1.452
10123SOL     OW31267   5.696   0.076   6.982
10123SOL    HW131268   5.728   0.043   0.050
10123SOL    HW231269   5.635   0.154   6.995
10124SOL     OW31270   1.437   4.135   0.234
10124SOL    HW131271   1.413   4.048   0.278
10124SOL    HW231272   1.409   4.211   0.292
10125SOL     OW31273   2.003   1.590   2.171
10125SOL    HW131274   2.057   1.553   2.096
10125SOL    HW231275   2.011   1.529   2.251
10126SOL     OW31276   0.129   6.630   6.244
10126SOL    HW131277   0.083   6.682   6.316
10126SOL    HW231278   0.090   6.655   6.155
10127SOL     OW31279   2.821   4.855   6.458
10127SOL    HW131280   2.740   4.799   6.476
10127SOL    HW231281   2.904   4.801   6.475
10128SOL     OW31282   2.753   1.040   1.526
10128SOL    HW131283   2.760   1.109   1.454
10128SOL    HW231284   2.815   0.964   1.507
10129SOL     OW31285   5.638   1.993   2.411
10129SOL    HW131286   5.544   2.027   2.416
10129SOL    HW231287   5.644   1.904   2.455
10130SOL     OW31288   1.458   3.528   1.854
10130SOL    HW131289   1.501   3.502   1.941
10130SOL    HW231290   1.505   3.484   1.778
10131SOL     OW31291   1.006   6.950   4.247
10131SOL    HW131292   0.970   7.020   4.185
10131SOL    HW231293   1.104   6.963   4.258
10132SOL     OW31294   3.542   0.192   4.739
10132SOL    HW131295   3.632   0.148   4.745
10132SOL    HW231296   3.485   0.143   4.673
10133SOL     OW31297   3.760   6.332   0.950
10133SOL    HW131298   3.722   6.351   0.860
10133SOL    HW231299   3.687   6.305   1.013
10134SOL     OW31300   0.251   6.502   3.658
10134SOL    HW131301   0.231   6.421   3.602
10134SOL    HW231302   0.347   6.527   3.647
10135SOL     OW31303   4.846   3.142   3.675
10135SOL    HW131304   4.772   3.168   3.613
10135SOL    HW231305   4.858   3.043   3.674
10136SOL     OW31306   5.180   0.471   2.235
10136SOL    HW131307   5.231   0.552   2.206
10136SOL    HW231308   5.243   0.394   2.245
10137SOL     OW31309   6.390   3.985   4.376
10137SOL    HW131310   6.348   4.075   4.378
10137SOL    HW231311   6.489   3.994   4.386
10138SOL     OW31312   4.800   3.415   0.775
10138SOL    HW131313   4.893   3.441   0.749
10138SOL    HW231314   4.736   3.485   0.744
10139SOL     OW31315   3.119   3.985   3.009
10139SOL    HW131316   3.112   3.886   3.000
10139SOL    HW231317   3.072   4.014   3.093
10140SOL     OW31318   5.845   6.018   0.035
10140SOL    HW131319   5.772   6.078   0.003
10140SOL    HW231320   5.911   6.072   0.088
10141SOL     OW31321   3.734   1.743   5.129
10141SOL    HW131322   3.703   1.797   5.207
10141SOL    HW231323   3.789   1.666   5.162
10142SOL     OW31324   6.006   6.560   5.148
10142SOL    HW131325   6.053   6.606   5.223
10142SOL    HW231326   6.064   6.559   5.067
10143SOL     OW31327   5.057   1.077   6.856
10143SOL    HW131328   4.977   1.018   6.870
10143SOL    HW231329   5.063   1.143   6.931
10144SOL     OW31330   3.327   0.228   6.182
10144SOL    HW131331   3.262   0.232   6.106
10144SOL    HW231332   3.350   0.133   6.202
10145SOL     OW31333   2.461   5.507   4.319
10145SOL    HW131334   2.378   5.535   4.368
10145SOL    HW231335   2.537   5.503   4.384
10146SOL     OW31336   4.357   4.712   4.799
10146SOL    HW131337   4.380   4.641   4.865
10146SOL    HW231338   4.268   4.751   4.821
10147SOL     OW31339   5.074   4.106   5.467
10147SOL    HW131340   5.148   4.083   5.530
10147SOL    HW231341   5.110   4.161   5.392
10148SOL     OW31342   5.172   4.734   6.825
10148SOL    HW131343   5.116   4.742   6.907
10148SOL    HW231344   5.269   4.741   6.850
10149SOL     OW31345   5.723   3.182   0.457
10149SOL    HW131346   5.691   3.088   0.451
10149SOL    HW231347   5.811   3.185   0.505
10150SOL     OW31348   3.473   3.870   0.249
10150SOL    HW131349   3.380   3.840   0.273
10150SOL    HW231350   3.527   3.880   0.332
10151SOL     OW31351   0.790   6.283   6.979
10151SOL    HW131352   0.781   6.188   6.949
10151SOL    HW231353   0.740   6.343   6.917
10152SOL     OW31354   6.892   6.230   4.428
10152SOL    HW131355   6.914   6.324   4.402
10152SOL    HW231356   6.942   6.205   4.510
10153SOL     OW31357   4.870   6.154   3.794
10153SOL    HW131358   4.871   6.187   3.888
10153SOL    HW231359   4.776   6.153   3.760
10154SOL     OW31360   4.499   6.755   5.809
10154SOL    HW131361   4.447   6.758   5.894
10154SOL    HW231362   4.470   6.676   5.755
10155SOL     OW31363   3.798   2.271   5.400
10155SOL    HW131364   3.830   2.345   5.460
10155SOL    HW231365   3.870   2.250   5.333
10156SOL     OW31366   5.857   0.757   2.533
10156SOL    HW131367   5.867   0.779   2.436
10156SOL    HW231368   5.827   0.662   2.543
10157SOL     OW31369   6.874   1.813   0.745
10157SOL    HW131370   6.898   1.847   0.836
10157SOL    HW231371   6.800   1.869   0.707
10158SOL     OW31372   5.771   5.018   0.723
10158SOL    HW131373   5.717   5.102   0.718
10158SOL    HW231374   5.819   5.015   0.811
10159SOL     OW31375   2.352   3.467   0.241
10159SOL    HW131376   2.433   3.409   0.253
10159SOL    HW231377   2.322   3.464   0.146
10160SOL     OW31378   1.681   3.004   2.018
10160SOL    HW131379   1.702   3.080   2.080
10160SOL    HW231380   1.756   2.938   2.020
10161SOL     OW31381   2.909   2.834   0.309
10161SOL    HW131382   2.940   2.904   0.373
10161SOL    HW231383   2.918   2.744   0.351
10162SOL     OW31384   3.624   4.625   0.772
10162SOL    HW131385   3.554   4.695   0.762
10162SOL    HW231386   3.696   4.658   0.833
10163SOL     OW31387   6.175   4.430   6.676
10163SOL    HW131388   6.204   4.432   6.581
10163SOL    HW231389   6.221   4.503   6.726
10164SOL     OW31390   6.069   3.470   4.237
10164SOL    HW131391   6.139   3.419   4.186
10164SOL    HW231392   6.002   3.406   4.275
10165SOL     OW31393   6.603   1.585   3.151
10165SOL    HW131394   6.525   1.645   3.136
10165SOL    HW231395   6.672   1.600   3.080
10166SOL     OW31396   3.324   1.898   1.873
10166SOL    HW131397   3.284   1.880   1.963
10166SOL    HW231398   3.352   1.994   1.867
10167SOL     OW31399   2.109   4.436   6.810
10167SOL    HW131400   2.118   4.366   6.740
10167SOL    HW231401   2.190   4.436   6.869
10168SOL     OW31402   5.893   3.293   6.325
10168SOL    HW131403   5.962   3.267   6.393
10168SOL    HW231404   5.825   3.352   6.368
10169SOL     OW31405   6.689   4.566   3.792
10169SOL    HW131406   6.760   4.519   3.740
10169SOL    HW231407   6.730   4.640   3.846
10170SOL     OW31408   6.874   5.905   5.620
10170SOL    HW131409   6.965   5.863   5.628
10170SOL    HW231410   6.841   5.896   5.526
10171SOL     OW31411   6.945   2.613   4.645
10171SOL    HW131412   6.958   2.557   4.564
10171SOL    HW231413   0.014   2.645   4.679
10172SOL     OW31414   0.022   6.111   5.371
10172SOL    HW131415   0.054   6.024   5.333
10172SOL    HW231416   6.942   6.111   5.372
10173SOL     OW31417   1.605   3.037   0.946
10173SOL    HW131418   1.642   3.061   0.856
10173SOL    HW231419   1.531   3.100   0.969
10174SOL     OW31420   4.731   4.515   3.109
10174SOL    HW131421   4.725   4.568   3.194
10174SOL    HW231422   4.813   4.457   3.111
10175SOL     OW31423   5.954   1.707   3.655
10175SOL    HW131424   5.911   1.640   3.596
10175SOL    HW231425   5.909   1.707   3.744
10176SOL     OW31426   0.515   3.624   4.941
10176SOL    HW131427   0.556   3.708   4.906
10176SOL    HW231428   0.443   3.647   5.007
10177SOL     OW31429   2.496   0.402   1.414
10177SOL    HW131430   2.517   0.438   1.323
10177SOL    HW231431   2.425   0.333   1.407
10178SOL     OW31432   0.793   1.024   6.089
10178SOL    HW131433   0.713   1.052   6.036
10178SOL    HW231434   0.765   0.995   6.180
10179SOL     OW31435   0.752   2.719   6.553
10179SOL    HW131436   0.682   2.723   6.625
10179SOL    HW231437   0.810   2.639   6.568
10180SOL     OW31438   4.203   0.761   5.902
10180SOL    HW131439   4.283   0.782   5.846
10180SOL    HW231440   4.234   0.739   5.995
10181SOL     OW31441   6.464   3.377   0.957
10181SOL    HW131442   6.381   3.424   0.987
10181SOL    HW231443   6.502   3.325   1.034
10182SOL     OW31444   4.521   0.920   1.842
10182SOL    HW131445   4.443   0.983   1.845
10182SOL    HW231446   4.585   0.943   1.915
10183SOL     OW31447   0.152   2.968   6.566
10183SOL    HW131448   0.070   2.968   6.509
10183SOL    HW231449   0.230   3.001   6.513
10184SOL     OW31450   3.762   1.587   5.944
10184SOL    HW131451   3.854   1.591   5.904
10184SOL    HW231452   3.749   1.499   5.989
10185SOL     OW31453   6.265   6.114   3.075
10185SOL    HW131454   6.305   6.174   3.144
10185SOL    HW231455   6.304   6.023   3.084
10186SOL     OW31456   5.634   3.704   4.079
10186SOL    HW131457   5.586   3.615   4.077
10186SOL    HW231458   5.724   3.692   4.120
10187SOL     OW31459   1.283   3.678   0.634
10187SOL    HW131460   1.349   3.725   0.574
10187SOL    HW231461   1.215   3.743   0.666
10188SOL     OW31462   4.209   5.255   0.460
10188SOL    HW131463   4.207   5.156   0.469
10188SOL    HW231464   4.129   5.295   0.504
10189SOL     OW31465   1.115   0.821   5.913
10189SOL    HW131466   1.205   0.779   5.903
10189SOL    HW231467   1.093   0.873   5.830
10190SOL     OW31468   4.897   3.395   2.027
10190SOL    HW131469   4.878   3.332   1.953
10190SOL    HW231470   4.926   3.484   1.990
10191SOL     OW31471   4.380   6.215   6.558
10191SOL    HW131472   4.415   6.206   6.465
10191SOL    HW231473   4.418   6.142   6.615
10192SOL     OW31474   4.244   1.475   4.978
10192SOL    HW131475   4.336   1.459   4.941
10192SOL    HW231476   4.251   1.508   5.072
10193SOL     OW31477   3.879   2.996   2.106
10193SOL    HW131478   3.803   3.058   2.128
10193SOL    HW231479   3.919   2.961   2.190
10194SOL     OW31480   5.555   6.195   5.630
10194SOL    HW131481   5.567   6.182   5.531
10194SOL    HW231482   5.615   6.268   5.661
10195SOL     OW31483   5.953   5.879   0.524
10195SOL    HW131484   5.936   5.883   0.426
10195SOL    HW231485   5.942   5.971   0.564
10196SOL     OW31486   4.367   2.012   3.925
10196SOL    HW131487   4.434   2.068   3.877
10196SOL    HW231488   4.410   1.969   4.004
10197SOL     OW31489   5.829   1.070   5.085
10197SOL    HW131490   5.844   1.026   4.996
10197SOL    HW231491   5.916   1.083   5.131
10198SOL     OW31492   2.667   6.328   3.033
10198SOL    HW131493   2.763   6.301   3.044
10198SOL    HW231494   2.608   6.258   3.074
10199SOL     OW31495   2.084   3.453   0.571
10199SOL    HW131496   2.171   3.457   0.620
10199SOL    HW231497   2.024   3.527   0.602
10200SOL     OW31498   5.030   2.701   6.391
10200SOL    HW131499   4.938   2.707   6.353
10200SOL    HW231500   5.084   2.779   6.361
10201SOL     OW31501   1.280   5.130   0.314
10201SOL    HW131502   1.352   5.173   0.260
10201SOL    HW231503   1.273   5.034   0.290
10202SOL     OW31504   3.425   4.765   0.950
10202SOL    HW131505   3.411   4.720   1.038
10202SOL    HW231506   3.356   4.734   0.885
10203SOL     OW31507   6.591   2.416   2.565
10203SOL    HW131508   6.554   2.495   2.614
10203SOL    HW231509   6.517   2.372   2.514
10204SOL     OW31510   5.102   6.005   0.290
10204SOL    HW131511   5.078   5.911   0.315
10204SOL    HW231512   5.155   6.004   0.205
10205SOL     OW31513   2.449   0.566   2.024
10205SOL    HW131514   2.467   0.664   2.035
10205SOL    HW231515   2.377   0.553   1.956
10206SOL     OW31516   6.576   0.334   6.763
10206SOL    HW131517   6.620   0.359   6.849
10206SOL    HW231518   6.619   0.384   6.688
10207SOL     OW31519   1.331   1.967   6.723
10207SOL    HW131520   1.352   2.007   6.812
10207SOL    HW231521   1.403   1.992   6.658
10208SOL     OW31522   6.427   4.760   4.141
10208SOL    HW131523   6.498   4.831   4.141
10208SOL    HW231524   6.459   4.681   4.089
10209SOL     OW31525   0.180   6.967   0.272
10209SOL    HW131526   0.208   0.028   0.220
10209SOL    HW231527   0.166   6.992   0.368
10210SOL     OW31528   4.419   6.919   1.924
10210SOL    HW131529   4.472   6.961   1.851
10210SOL    HW231530   4.455   6.948   2.013
10211SOL     OW31531   4.313   6.460   4.554
10211SOL    HW131532   4.385   6.467   4.485
10211SOL    HW231533   4.233   6.417   4.514
10212SOL     OW31534   0.125   0.209   5.731
10212SOL    HW131535   0.114   0.133   5.667
10212SOL    HW231536   0.221   0.238   5.732
10213SOL     OW31537   6.024   2.508   1.594
10213SOL    HW131538   6.009   2.565   1.675
10213SOL    HW231539   6.104   2.451   1.608
10214SOL     OW31540   0.631   1.854   1.709
10214SOL    HW131541   0.706   1.822   1.767
10214SOL    HW231542   0.668   1.895   1.626
10215SOL     OW31543   3.842   2.979   4.039
10215SOL    HW131544   3.897   3.039   3.982
10215SOL    HW231545   3.887   2.966   4.127
10216SOL     OW31546   0.056   1.205   1.226
10216SOL    HW131547   6.985   1.233   1.196
10216SOL    HW231548   0.099   1.150   1.155
10217SOL     OW31549   3.107   1.384   3.182
10217SOL    HW131550   3.202   1.381   3.212
10217SOL    HW231551   3.074   1.291   3.166
10218SOL     OW31552   1.386   1.602   1.708
10218SOL    HW131553   1.353   1.683   1.661
10218SOL    HW231554   1.454   1.628   1.777
10219SOL     OW31555   0.520   1.669   3.434
10219SOL    HW131556   0.555   1.749   3.483
10219SOL    HW231557   0.523   1.687   3.336
10220SOL     OW31558   4.947   1.816   0.747
10220SOL    HW131559   5.016   1.744   0.753
10220SOL    HW231560   4.967   1.888   0.813
10221SOL     OW31561   1.320   4.576   3.931
10221SOL    HW131562   1.395   4.637   3.957
10221SOL    HW231563   1.302   4.513   4.006
10222SOL     OW31564   3.086   4.276   5.246
10222SOL    HW131565   3.033   4.348   5.203
10222SOL    HW231566   3.042   4.248   5.331
10223SOL     OW31567   2.040   4.596   1.034
10223SOL    HW131568   2.140   4.603   1.037
10223SOL    HW231569   2.009   4.536   1.107
10224SOL     OW31570   5.912   3.040   5.655
10224SOL    HW131571   5.911   2.941   5.667
10224SOL    HW231572   5.950   3.061   5.564
10225SOL     OW31573   0.795   5.640   5.473
10225SOL    HW131574   0.717   5.676   5.524
10225SOL    HW231575   0.876   5.695   5.492
10226SOL     OW31576   2.292   0.163   6.061
10226SOL    HW131577   2.347   0.220   6.000
10226SOL    HW231578   2.277   0.073   6.019
10227SOL     OW31579   5.724   4.964   1.153
10227SOL    HW131580   5.657   4.890   1.144
10227SOL    HW231581   5.779   4.969   1.070
10228SOL     OW31582   0.675   6.055   2.099
10228SOL    HW131583   0.738   6.038   2.023
10228SOL    HW231584   0.698   6.141   2.144
10229SOL     OW31585   1.746   3.133   4.852
10229SOL    HW131586   1.776   3.229   4.844
10229SOL    HW231587   1.781   3.095   4.938
10230SOL     OW31588   6.133   6.368   2.981
10230SOL    HW131589   6.195   6.291   2.968
10230SOL    HW231590   6.073   6.377   2.901
10231SOL     OW31591   6.788   4.590   5.302
10231SOL    HW131592   6.753   4.544   5.220
10231SOL    HW231593   6.711   4.627   5.354
10232SOL     OW31594   3.373   1.467   3.673
10232SOL    HW131595   3.448   1.405   3.695
10232SOL    HW231596   3.290   1.415   3.654
10233SOL     OW31597   3.832   4.036   4.939
10233SOL    HW131598   3.776   4.072   5.014
10233SOL    HW231599   3.816   4.090   4.856
10234SOL     OW31600   5.962   0.994   0.623
10234SOL    HW131601   5.944   1.004   0.525
10234SOL    HW231602   5.911   0.915   0.658
10235SOL     OW31603   3.092   2.329   1.150
10235SOL    HW131604   3.176   2.364   1.192
10235SOL    HW231605   3.023   2.401   1.150
10236SOL     OW31606   2.386   1.067   0.264
10236SOL    HW131607   2.337   1.078   0.178
10236SOL    HW231608   2.323   1.033   0.334
10237SOL     OW31609   1.174   4.039   6.235
10237SOL    HW131610   1.205   3.961   6.181
10237SOL    HW231611   1.193   4.124   6.184
10238SOL     OW31612   3.877   4.140   1.789
10238SOL    HW131613   3.798   4.200   1.802
10238SOL    HW231614   3.877   4.069   1.859
10239SOL     OW31615   1.686   3.325   5.833
10239SOL    HW131616   1.706   3.228   5.848
10239SOL    HW231617   1.769   3.372   5.802
10240SOL     OW31618   1.851   4.844   2.412
10240SOL    HW131619   1.845   4.936   2.374
10240SOL    HW231620   1.831   4.777   2.341
10241SOL     OW31621   0.133   6.605   3.076
10241SOL    HW131622   0.048   6.626   3.125
10241SOL    HW231623   0.147   6.672   3.003
10242SOL     OW31624   0.279   1.058   0.861
10242SOL    HW131625   0.352   1.127   0.858
10242SOL    HW231626   0.201   1.090   0.808
10243SOL     OW31627   2.222   4.410   2.261
10243SOL    HW131628   2.148   4.343   2.271
10243SOL    HW231629   2.284   4.402   2.339
10244SOL     OW31630   1.536   4.540   0.336
10244SOL    HW131631   1.620   4.486   0.333
10244SOL    HW231632   1.552   4.623   0.389
10245SOL     OW31633   3.496   3.732   1.517
10245SOL    HW131634   3.493   3.675   1.599
10245SOL    HW231635   3.506   3.674   1.436
10246SOL     OW31636   3.242   3.232   3.957
10246SOL    HW131637   3.323   3.173   3.947
10246SOL    HW231638   3.242   3.301   3.885
10247SOL     OW31639   6.437   4.074   5.761
10247SOL    HW131640   6.365   4.045   5.824
10247SOL    HW231641   6.469   4.165   5.786
10248SOL     OW31642   1.550   6.197   2.604
10248SOL    HW131643   1.562   6.289   2.567
10248SOL    HW231644   1.627   6.139   2.577
10249SOL     OW31645   3.561   5.855   6.669
10249SOL    HW131646   3.515   5.931   6.623
10249SOL    HW231647   3.563   5.871   6.767
10250SOL     OW31648   6.953   2.986   1.763
10250SOL    HW131649   6.929   2.912   1.826
10250SOL    HW231650   6.985   2.947   1.676
10251SOL     OW31651   2.001   1.553   5.568
10251SOL    HW131652   2.061   1.569   5.489
10251SOL    HW231653   2.049   1.497   5.636
10252SOL     OW31654   4.259   4.317   6.329
10252SOL    HW131655   4.274   4.252   6.255
10252SOL    HW231656   4.238   4.267   6.413
10253SOL     OW31657   2.795   6.330   0.585
10253SOL    HW131658   2.707   6.299   0.548
10253SOL    HW231659   2.805   6.298   0.679
10254SOL     OW31660   5.219   1.158   5.763
10254SOL    HW131661   5.177   1.105   5.836
10254SOL    HW231662   5.280   1.226   5.802
10255SOL     OW31663   2.520   6.221   1.748
10255SOL    HW131664   2.605   6.260   1.712
10255SOL    HW231665   2.500   6.261   1.838
10256SOL     OW31666   4.853   2.395   2.106
10256SOL    HW131667   4.919   2.321   2.097
10256SOL    HW231668   4.792   2.375   2.183
10257SOL     OW31669   1.847   4.975   4.515
10257SOL    HW131670   1.768   5.013   4.564
10257SOL    HW231671   1.824   4.966   4.418
10258SOL     OW31672   3.482   1.702   3.274
10258SOL    HW131673   3.525   1.718   3.185
10258SOL    HW231674   3.515   1.770   3.340
10259SOL     OW31675   1.203   4.424   2.712
10259SOL    HW131676   1.187   4.508   2.764
10259SOL    HW231677   1.238   4.353   2.773
10260SOL     OW31678   1.055   1.218   3.177
10260SOL    HW131679   0.997   1.162   3.236
10260SOL    HW231680   1.149   1.216   3.210
10261SOL     OW31681   6.613   4.316   1.610
10261SOL    HW131682   6.565   4.235   1.575
10261SOL    HW231683   6.562   4.354   1.687
10262SOL     OW31684   2.280   6.765   5.568
10262SOL    HW131685   2.225   6.729   5.491
10262SOL    HW231686   2.320   6.688   5.618
10263SOL     OW31687   5.501   0.385   0.279
10263SOL    HW131688   5.419   0.443   0.274
10263SOL    HW231689   5.495   0.313   0.209
10264SOL     OW31690   6.186   0.065   6.755
10264SOL    HW131691   6.265   0.126   6.764
10264SOL    HW231692   6.210   6.993   6.784
10265SOL     OW31693   2.878   2.658   1.376
10265SOL    HW131694   2.819   2.713   1.435
10265SOL    HW231695   2.974   2.678   1.396
10266SOL     OW31696   3.723   3.106   3.606
10266SOL    HW131697   3.707   3.203   3.622
10266SOL    HW231698   3.718   3.086   3.508
10267SOL     OW31699   5.526   2.633   6.670
10267SOL    HW131700   5.475   2.613   6.753
10267SOL    HW231701   5.463   2.657   6.596
10268SOL     OW31702   6.319   5.881   2.698
10268SOL    HW131703   6.260   5.804   2.672
10268SOL    HW231704   6.410   5.846   2.721
10269SOL     OW31705   1.228   3.813   6.707
10269SOL    HW131706   1.189   3.763   6.784
10269SOL    HW231707   1.201   3.770   6.622
10270SOL     OW31708   3.127   4.916   2.504
10270SOL    HW131709   3.101   4.984   2.572
10270SOL    HW231710   3.054   4.848   2.494
10271SOL     OW31711   3.697   2.698   6.465
10271SOL    HW131712   3.621   2.686   6.402
10271SOL    HW231713   3.747   2.782   6.442
10272SOL     OW31714   1.551   1.312   5.646
10272SOL    HW131715   1.593   1.392   5.690
10272SOL    HW231716   1.454   1.330   5.633
10273SOL     OW31717   2.663   5.544   2.829
10273SOL    HW131718   2.753   5.501   2.836
10273SOL    HW231719   2.641   5.562   2.733
10274SOL     OW31720   0.820   4.788   5.830
10274SOL    HW131721   0.837   4.752   5.922
10274SOL    HW231722   0.876   4.869   5.815
10275SOL     OW31723   0.885   6.359   2.463
10275SOL    HW131724   0.917   6.264   2.469
10275SOL    HW231725   0.803   6.362   2.406
10276SOL     OW31726   5.527   5.424   5.616
10276SOL    HW131727   5.514   5.523   5.615
10276SOL    HW231728   5.451   5.381   5.664
10277SOL     OW31729   1.444   5.809   4.690
10277SOL    HW131730   1.388   5.779   4.768
10277SOL    HW231731   1.411   5.766   4.607
10278SOL     OW31732   1.277   1.746   3.329
10278SOL    HW131733   1.240   1.700   3.249
10278SOL    HW231734   1.306   1.839   3.305
10279SOL     OW31735   1.730   4.726   4.118
10279SOL    HW131736   1.671   4.728   4.038
10279SOL    HW231737   1.717   4.640   4.168
10280SOL     OW31738   6.815   2.958   6.887
10280SOL    HW131739   6.884   2.887   6.874
10280SOL    HW231740   6.851   3.028   6.949
10281SOL     OW31741   5.472   1.177   2.856
10281SOL    HW131742   5.516   1.088   2.873
10281SOL    HW231743   5.386   1.163   2.808
10282SOL     OW31744   5.497   3.872   4.514
10282SOL    HW131745   5.562   3.934   4.471
10282SOL    HW231746   5.546   3.795   4.554
10283SOL     OW31747   1.942   3.297   0.847
10283SOL    HW131748   1.914   3.271   0.754
10283SOL    HW231749   1.939   3.217   0.906
10284SOL     OW31750   4.715   2.608   5.062
10284SOL    HW131751   4.689   2.691   5.012
10284SOL    HW231752   4.815   2.602   5.067
10285SOL     OW31753   5.416   6.721   2.282
10285SOL    HW131754   5.318   6.719   2.262
10285SOL    HW231755   5.456   6.804   2.244
10286SOL     OW31756   3.282   2.130   3.477
10286SOL    HW131757   3.222   2.193   3.428
10286SOL    HW231758   3.266   2.037   3.443
10287SOL     OW31759   3.067   6.084   1.790
10287SOL    HW131760   3.116   6.003   1.760
10287SOL    HW231761   3.048   6.143   1.711
10288SOL     OW31762   4.426   5.225   3.144
10288SOL    HW131763   4.463   5.309   3.186
10288SOL    HW231764   4.339   5.202   3.188
10289SOL     OW31765   2.920   6.193   6.986
10289SOL    HW131766   2.844   6.250   6.956
10289SOL    HW231767   2.921   6.190   0.066
10290SOL     OW31768   2.868   3.535   2.795
10290SOL    HW131769   2.863   3.596   2.716
10290SOL    HW231770   2.937   3.464   2.778
10291SOL     OW31771   3.997   1.440   2.371
10291SOL    HW131772   4.073   1.444   2.436
10291SOL    HW231773   4.034   1.429   2.278
10292SOL     OW31774   2.023   1.828   5.492
10292SOL    HW131775   2.006   1.912   5.545
10292SOL    HW231776   2.041   1.752   5.555
10293SOL     OW31777   1.814   3.745   2.317
10293SOL    HW131778   1.862   3.716   2.234
10293SOL    HW231779   1.849   3.834   2.347
10294SOL     OW31780   5.206   2.843   3.237
10294SOL    HW131781   5.112   2.846   3.272
10294SOL    HW231782   5.209   2.788   3.154
10295SOL     OW31783   0.315   3.632   5.567
10295SOL    HW131784   0.357   3.542   5.562
10295SOL    HW231785   0.224   3.629   5.527
10296SOL     OW31786   4.919   1.354   6.926
10296SOL    HW131787   4.996   1.336   6.987
10296SOL    HW231788   4.919   1.450   6.900
10297SOL     OW31789   1.967   0.035   6.573
10297SOL    HW131790   2.063   0.007   6.572
10297SOL    HW231791   1.937   0.044   6.668
10298SOL     OW31792   2.537   4.451   1.163
10298SOL    HW131793   2.615   4.484   1.216
10298SOL    HW231794   2.568   4.377   1.103
10299SOL     OW31795   4.554   4.487   2.921
10299SOL    HW131796   4.475   4.545   2.943
10299SOL    HW231797   4.631   4.513   2.979
10300SOL     OW31798   0.929   4.274   2.316
10300SOL    HW131799   0.871   4.315   2.245
10300SOL    HW231800   1.023   4.267   2.282
10301SOL     OW31801   5.219   2.367   4.252
10301SOL    HW131802   5.284   2.361   4.176
10301SOL    HW231803   5.162   2.448   4.242
10302SOL     OW31804   2.009   6.339   4.801
10302SOL    HW131805   2.086   6.358   4.861
10302SOL    HW231806   1.926   6.380   4.840
10303SOL     OW31807   1.543   5.699   3.232
10303SOL    HW131808   1.568   5.643   3.311
10303SOL    HW231809   1.621   5.706   3.170
10304SOL     OW31810   5.418   0.221   1.511
10304SOL    HW131811   5.352   0.151   1.536
10304SOL    HW231812   5.505   0.202   1.557
10305SOL     OW31813   1.238   4.036   6.493
10305SOL    HW131814   1.236   3.938   6.513
10305SOL    HW231815   1.210   4.051   6.398
10306SOL     OW31816   5.114   6.215   6.944
10306SOL    HW131817   5.142   6.290   6.884
10306SOL    HW231818   5.107   6.130   6.891
10307SOL     OW31819   2.828   2.291   5.058
10307SOL    HW131820   2.828   2.341   5.145
10307SOL    HW231821   2.922   2.274   5.030
10308SOL     OW31822   1.852   3.852   2.812
10308SOL    HW131823   1.854   3.780   2.881
10308SOL    HW231824   1.818   3.815   2.725
10309SOL     OW31825   6.986   1.939   6.559
10309SOL    HW131826   6.990   2.038   6.568
10309SOL    HW231827   6.960   1.914   6.466
10310SOL     OW31828   2.985   3.360   1.127
10310SOL    HW131829   2.905   3.309   1.094
10310SOL    HW231830   2.993   3.446   1.076
10311SOL     OW31831   0.009   6.086   0.716
10311SOL    HW131832   7.017   6.059   0.812
10311SOL    HW231833   0.059   6.014   0.667
10312SOL     OW31834   3.425   5.383   2.885
10312SOL    HW131835   3.509   5.398   2.833
10312SOL    HW231836   3.379   5.301   2.851
10313SOL     OW31837   4.523   6.148   2.225
10313SOL    HW131838   4.560   6.238   2.247
10313SOL    HW231839   4.436   6.136   2.273
10314SOL     OW31840   6.232   0.565   1.624
10314SOL    HW131841   6.158   0.630   1.642
10314SOL    HW231842   6.269   0.530   1.710
10315SOL     OW31843   5.049   5.800   5.367
10315SOL    HW131844   5.041   5.766   5.461
10315SOL    HW231845   5.075   5.897   5.369
10316SOL     OW31846   5.510   1.378   5.106
10316SOL    HW131847   5.531   1.400   5.011
10316SOL    HW231848   5.550   1.289   5.129
10317SOL     OW31849   4.824   5.653   5.298
10317SOL    HW131850   4.771   5.710   5.236
10317SOL    HW231851   4.917   5.690   5.306
10318SOL     OW31852   5.431   6.541   6.388
10318SOL    HW131853   5.509   6.527   6.449
10318SOL    HW231854   5.393   6.632   6.404
10319SOL     OW31855   1.211   2.498   5.427
10319SOL    HW131856   1.127   2.452   5.399
10319SOL    HW231857   1.290   2.445   5.394
10320SOL     OW31858   0.237   0.783   2.321
10320SOL    HW131859   0.298   0.825   2.253
10320SOL    HW231860   0.148   0.827   2.316
10321SOL     OW31861   3.589   1.953   1.709
10321SOL    HW131862   3.674   2.004   1.720
10321SOL    HW231863   3.516   2.000   1.757
10322SOL     OW31864   6.520   5.643   5.563
10322SOL    HW131865   6.592   5.575   5.557
10322SOL    HW231866   6.431   5.599   5.547
10323SOL     OW31867   5.411   3.413   5.691
10323SOL    HW131868   5.396   3.462   5.605
10323SOL    HW231869   5.397   3.315   5.677
10324SOL     OW31870   3.200   3.467   2.171
10324SOL    HW131871   3.128   3.535   2.155
10324SOL    HW231872   3.288   3.504   2.140
10325SOL     OW31873   6.716   3.641   1.953
10325SOL    HW131874   6.728   3.720   1.894
10325SOL    HW231875   6.618   3.621   1.962
10326SOL     OW31876   3.279   5.475   0.289
10326SOL    HW131877   3.295   5.424   0.205
10326SOL    HW231878   3.281   5.413   0.367
10327SOL     OW31879   2.003   1.253   1.076
10327SOL    HW131880   2.038   1.323   1.139
10327SOL    HW231881   2.058   1.253   0.992
10328SOL     OW31882   6.214   2.243   1.024
10328SOL    HW131883   6.155   2.276   1.097
10328SOL    HW231884   6.165   2.248   0.937
10329SOL     OW31885   3.836   1.046   3.969
10329SOL    HW131886   3.769   0.974   3.984
10329SOL    HW231887   3.859   1.050   3.872
10330SOL     OW31888   4.904   0.857   2.236
10330SOL    HW131889   4.836   0.921   2.272
10330SOL    HW231890   4.883   0.836   2.140
10331SOL     OW31891   6.305   0.612   5.843
10331SOL    HW131892   6.239   0.685   5.823
10331SOL    HW231893   6.395   0.638   5.807
10332SOL     OW31894   6.657   0.007   1.055
10332SOL    HW131895   6.627   6.953   0.994
10332SOL    HW231896   6.701   6.988   1.136
10333SOL     OW31897   6.726   4.808   4.821
10333SOL    HW131898   6.637   4.798   4.865
10333SOL    HW231899   6.738   4.901   4.788
10334SOL     OW31900   3.587   6.788   3.544
10334SOL    HW131901   3.644   6.821   3.619
10334SOL    HW231902   3.523   6.859   3.517
10335SOL     OW31903   3.444   4.357   0.024
10335SOL    HW131904   3.442   4.260   0.047
10335SOL    HW231905   3.370   4.404   0.072
10336SOL     OW31906   6.746   6.431   1.991
10336SOL    HW131907   6.739   6.516   2.043
10336SOL    HW231908   6.841   6.401   1.987
10337SOL     OW31909   0.032   6.695   5.982
10337SOL    HW131910   0.061   6.786   5.950
10337SOL    HW231911   6.957   6.679   5.954
10338SOL     OW31912   2.216   6.574   2.845
10338SOL    HW131913   2.218   6.496   2.783
10338SOL    HW231914   2.284   6.561   2.917
10339SOL     OW31915   3.564   4.632   0.010
10339SOL    HW131916   3.501   4.673   6.963
10339SOL    HW231917   3.546   4.534   0.018
10340SOL     OW31918   1.969   4.194   1.027
10340SOL    HW131919   1.896   4.142   1.072
10340SOL    HW231920   1.930   4.251   0.955
10341SOL     OW31921   1.985   3.098   1.933
10341SOL    HW131922   2.006   3.102   2.031
10341SOL    HW231923   2.031   3.174   1.887
10342SOL     OW31924   0.750   0.467   5.367
10342SOL    HW131925   0.805   0.502   5.292
10342SOL    HW231926   0.689   0.395   5.332
10343SOL     OW31927   3.383   5.917   6.280
10343SOL    HW131928   3.297   5.867   6.292
10343SOL    HW231929   3.378   5.970   6.195
10344SOL     OW31930   4.574   4.162   1.691
10344SOL    HW131931   4.642   4.122   1.754
10344SOL    HW231932   4.498   4.200   1.743
10345SOL     OW31933   1.854   1.193   6.954
10345SOL    HW131934   1.788   1.143   7.009
10345SOL    HW231935   1.828   1.290   6.949
10346SOL     OW31936   6.638   5.990   2.063
10346SOL    HW131937   6.628   6.048   2.144
10346SOL    HW231938   6.548   5.969   2.025
10347SOL     OW31939   4.688   2.098   3.213
10347SOL    HW131940   4.684   2.025   3.145
10347SOL    HW231941   4.763   2.079   3.277
10348SOL     OW31942   6.506   1.747   0.282
10348SOL    HW131943   6.549   1.700   0.205
10348SOL    HW231944   6.483   1.841   0.257
10349SOL     OW31945   0.075   0.417   0.853
10349SOL    HW131946   0.146   0.468   0.901
10349SOL    HW231947   0.003   0.479   0.823
10350SOL     OW31948   1.630   6.787   5.378
10350SOL    HW131949   1.586   6.775   5.467
10350SOL    HW231950   1.727   6.762   5.385
10351SOL     OW31951   4.160   4.762   6.414
10351SOL    HW131952   4.109   4.817   6.480
10351SOL    HW231953   4.139   4.794   6.321
10352SOL     OW31954   4.128   1.819   5.820
10352SOL    HW131955   4.119   1.818   5.919
10352SOL    HW231956   4.108   1.911   5.785
10353SOL     OW31957   6.888   2.280   5.483
10353SOL    HW131958   6.932   2.191   5.497
10353SOL    HW231959   6.873   2.295   5.386
10354SOL     OW31960   5.950   2.609   2.087
10354SOL    HW131961   5.997   2.629   2.173
10354SOL    HW231962   6.015   2.615   2.011
10355SOL     OW31963   1.571   6.897   2.129
10355SOL    HW131964   1.540   6.840   2.205
10355SOL    HW231965   1.533   6.989   2.140
10356SOL     OW31966   0.686   4.259   6.232
10356SOL    HW131967   0.620   4.318   6.186
10356SOL    HW231968   0.765   4.243   6.173
10357SOL     OW31969   2.550   3.141   6.075
10357SOL    HW131970   2.515   3.234   6.059
10357SOL    HW231971   2.496   3.076   6.020
10358SOL     OW31972   6.279   2.806   2.684
10358SOL    HW131973   6.305   2.866   2.759
10358SOL    HW231974   6.218   2.855   2.622
10359SOL     OW31975   0.084   1.548   1.334
10359SOL    HW131976   0.148   1.481   1.372
10359SOL    HW231977   0.124   1.639   1.340
10360SOL     OW31978   5.088   5.520   2.952
10360SOL    HW131979   5.050   5.522   2.860
10360SOL    HW231980   5.014   5.530   3.019
10361SOL     OW31981   3.358   0.295   3.252
10361SOL    HW131982   3.302   0.213   3.263
10361SOL    HW231983   3.323   0.367   3.313
10362SOL     OW31984   0.951   5.025   4.913
10362SOL    HW131985   0.920   4.973   4.993
10362SOL    HW231986   0.918   5.119   4.921
10363SOL     OW31987   4.778   1.638   0.937
10363SOL    HW131988   4.720   1.570   0.982
10363SOL    HW231989   4.770   1.726   0.984
10364SOL     OW31990   3.436   3.557   1.724
10364SOL    HW131991   3.488   3.476   1.696
10364SOL    HW231992   3.346   3.555   1.680
10365SOL     OW31993   4.472   4.742   5.949
10365SOL    HW131994   4.518   4.684   5.881
10365SOL    HW231995   4.376   4.715   5.957
10366SOL     OW31996   4.078   0.220   4.279
10366SOL    HW131997   4.133   0.136   4.278
10366SOL    HW231998   4.120   0.288   4.219
10367SOL     OW31999   6.635   1.847   2.503
10367SOL    HW132000   6.655   1.813   2.595
10367SOL    HW232001   6.717   1.886   2.463
10368SOL     OW32002   2.046   1.095   1.958
10368SOL    HW132003   2.120   1.028   1.955
10368SOL    HW232004   1.998   1.087   2.045
10369SOL     OW32005   3.867   1.499   5.192
10369SOL    HW132006   3.851   1.420   5.251
10369SOL    HW232007   3.891   1.468   5.100
10370SOL     OW32008   5.232   1.710   5.376
10370SOL    HW132009   5.210   1.799   5.337
10370SOL    HW232010   5.250   1.645   5.302
10371SOL     OW32011   2.774   6.171   4.666
10371SOL    HW132012   2.773   6.264   4.701
10371SOL    HW232013   2.700   6.119   4.708
10372SOL     OW32014   1.010   1.671   0.330
10372SOL    HW132015   1.086   1.620   0.370
10372SOL    HW232016   0.923   1.629   0.358
10373SOL     OW32017   2.322   6.039   4.770
10373SOL    HW132018   2.267   6.011   4.692
10373SOL    HW232019   2.269   6.030   4.854
10374SOL     OW32020   4.239   1.210   2.473
10374SOL    HW132021   4.310   1.199   2.404
10374SOL    HW232022   4.150   1.189   2.434
10375SOL     OW32023   2.828   1.772   6.351
10375SOL    HW132024   2.834   1.870   6.372
10375SOL    HW232025   2.863   1.756   6.259
10376SOL     OW32026   1.131   6.553   4.338
10376SOL    HW132027   1.148   6.600   4.425
10376SOL    HW232028   1.047   6.589   4.297
10377SOL     OW32029   6.840   0.539   4.193
10377SOL    HW132030   6.875   0.624   4.235
10377SOL    HW232031   6.773   0.497   4.254
10378SOL     OW32032   6.293   6.957   6.173
10378SOL    HW132033   6.331   6.939   6.263
10378SOL    HW232034   6.221   6.890   6.154
10379SOL     OW32035   3.390   6.582   4.841
10379SOL    HW132036   3.430   6.636   4.915
10379SOL    HW232037   3.366   6.491   4.876
10380SOL     OW32038   0.485   1.400   3.793
10380SOL    HW132039   0.486   1.495   3.827
10380SOL    HW232040   0.578   1.373   3.768
10381SOL     OW32041   4.280   5.583   6.796
10381SOL    HW132042   4.320   5.529   6.871
10381SOL    HW232043   4.353   5.618   6.737
10382SOL     OW32044   2.345   4.526   0.393
10382SOL    HW132045   2.342   4.460   0.318
10382SOL    HW232046   2.396   4.607   0.364
10383SOL     OW32047   0.783   3.462   0.464
10383SOL    HW132048   0.770   3.454   0.365
10383SOL    HW232049   0.865   3.411   0.491
10384SOL     OW32050   0.789   0.191   1.021
10384SOL    HW132051   0.759   0.278   1.060
10384SOL    HW232052   0.825   0.133   1.093
10385SOL     OW32053   3.459   6.896   6.060
10385SOL    HW132054   3.405   6.932   6.135
10385SOL    HW232055   3.501   6.809   6.088
10386SOL     OW32056   6.242   2.957   5.410
10386SOL    HW132057   6.155   3.003   5.393
10386SOL    HW232058   6.308   3.022   5.447
10387SOL     OW32059   4.200   2.163   2.664
10387SOL    HW132060   4.101   2.169   2.661
10387SOL    HW232061   4.229   2.070   2.641
10388SOL     OW32062   1.865   5.822   2.676
10388SOL    HW132063   1.845   5.837   2.772
10388SOL    HW232064   1.919   5.738   2.666
10389SOL     OW32065   0.481   6.764   1.931
10389SOL    HW132066   0.387   6.769   1.964
10389SOL    HW232067   0.483   6.787   1.834
10390SOL     OW32068   1.664   3.313   1.599
10390SOL    HW132069   1.756   3.351   1.600
10390SOL    HW232070   1.603   3.375   1.548
10391SOL     OW32071   1.349   5.668   4.913
10391SOL    HW132072   1.311   5.608   4.984
10391SOL    HW232073   1.384   5.613   4.838
10392SOL     OW32074   6.449   4.050   0.258
10392SOL    HW132075   6.513   3.980   0.292
10392SOL    HW232076   6.468   4.069   0.162
10393SOL     OW32077   2.256   2.200   2.616
10393SOL    HW132078   2.274   2.205   2.714
10393SOL    HW232079   2.230   2.291   2.583
10394SOL     OW32080   2.619   6.697   5.492
10394SOL    HW132081   2.596   6.786   5.530
10394SOL    HW232082   2.548   6.668   5.428
10395SOL     OW32083   6.311   0.469   3.365
10395SOL    HW132084   6.357   0.419   3.292
10395SOL    HW232085   6.294   0.563   3.335
10396SOL     OW32086   2.488   0.764   4.453
10396SOL    HW132087   2.404   0.814   4.434
10396SOL    HW232088   2.561   0.796   4.394
10397SOL     OW32089   2.830   2.292   3.548
10397SOL    HW132090   2.743   2.331   3.576
10397SOL    HW232091   2.886   2.274   3.629
10398SOL     OW32092   5.673   2.894   0.514
10398SOL    HW132093   5.593   2.865   0.565
10398SOL    HW232094   5.750   2.908   0.576
10399SOL     OW32095   4.234   1.885   4.332
10399SOL    HW132096   4.180   1.807   4.364
10399SOL    HW232097   4.175   1.948   4.282
10400SOL     OW32098   3.481   5.869   2.043
10400SOL    HW132099   3.476   5.924   2.127
10400SOL    HW232100   3.547   5.909   1.981
10401SOL     OW32101   6.803   0.127   2.839
10401SOL    HW132102   6.882   0.177   2.874
10401SOL    HW232103   6.818   0.105   2.743
10402SOL     OW32104   0.145   2.733   5.455
10402SOL    HW132105   0.076   2.661   5.449
10402SOL    HW232106   0.235   2.691   5.465
10403SOL     OW32107   5.092   1.510   2.384
10403SOL    HW132108   5.131   1.574   2.317
10403SOL    HW232109   5.165   1.476   2.444
10404SOL     OW32110   0.749   6.584   3.476
10404SOL    HW132111   0.843   6.617   3.484
10404SOL    HW232112   0.695   6.650   3.423
10405SOL     OW32113   1.307   5.266   4.982
10405SOL    HW132114   1.399   5.304   4.968
10405SOL    HW232115   1.256   5.273   4.896
10406SOL     OW32116   2.167   3.830   5.144
10406SOL    HW132117   2.152   3.831   5.243
10406SOL    HW232118   2.232   3.902   5.119
10407SOL     OW32119   1.840   0.086   6.328
10407SOL    HW132120   1.871   0.088   6.423
10407SOL    HW232121   1.756   0.032   6.321
10408SOL     OW32122   4.207   5.861   2.346
10408SOL    HW132123   4.165   5.876   2.257
10408SOL    HW232124   4.201   5.764   2.369
10409SOL     OW32125   0.546   4.309   0.754
10409SOL    HW132126   0.483   4.232   0.766
10409SOL    HW232127   0.506   4.392   0.792
10410SOL     OW32128   5.022   1.650   1.326
10410SOL    HW132129   5.034   1.564   1.275
10410SOL    HW232130   5.091   1.716   1.298
10411SOL     OW32131   3.545   5.437   4.143
10411SOL    HW132132   3.474   5.416   4.210
10411SOL    HW232133   3.562   5.535   4.143
10412SOL     OW32134   0.423   1.471   0.313
10412SOL    HW132135   0.446   1.539   0.243
10412SOL    HW232136   0.394   1.386   0.269
10413SOL     OW32137   0.037   2.257   0.864
10413SOL    HW132138   0.061   2.347   0.826
10413SOL    HW232139   6.961   2.237   0.845
10414SOL     OW32140   4.607   6.248   5.404
10414SOL    HW132141   4.582   6.256   5.500
10414SOL    HW232142   4.633   6.154   5.384
10415SOL     OW32143   2.165   4.724   3.721
10415SOL    HW132144   2.161   4.744   3.623
10415SOL    HW232145   2.084   4.761   3.766
10416SOL     OW32146   6.354   1.467   5.856
10416SOL    HW132147   6.384   1.375   5.882
10416SOL    HW232148   6.265   1.461   5.810
10417SOL     OW32149   4.799   3.969   4.345
10417SOL    HW132150   4.837   3.894   4.291
10417SOL    HW232151   4.825   3.958   4.441
10418SOL     OW32152   6.523   4.118   5.212
10418SOL    HW132153   6.603   4.058   5.205
10418SOL    HW232154   6.463   4.085   5.285
10419SOL     OW32155   2.713   0.485   5.219
10419SOL    HW132156   2.799   0.473   5.268
10419SOL    HW232157   2.719   0.443   5.128
10420SOL     OW32158   0.006   3.801   3.530
10420SOL    HW132159   6.928   3.789   3.543
10420SOL    HW232160   0.045   3.718   3.492
10421SOL     OW32161   1.556   3.080   4.215
10421SOL    HW132162   1.499   3.005   4.248
10421SOL    HW232163   1.607   3.050   4.134
10422SOL     OW32164   6.510   3.684   5.743
10422SOL    HW132165   6.413   3.674   5.720
10422SOL    HW232166   6.534   3.620   5.816
10423SOL     OW32167   4.117   4.865   4.840
10423SOL    HW132168   4.093   4.962   4.844
10423SOL    HW232169   4.074   4.817   4.917
10424SOL     OW32170   5.037   2.122   6.807
10424SOL    HW132171   5.073   2.192   6.869
10424SOL    HW232172   4.944   2.146   6.780
10425SOL     OW32173   0.650   6.423   1.868
10425SOL    HW132174   0.722   6.420   1.798
10425SOL    HW232175   0.660   6.505   1.923
10426SOL     OW32176   5.157   3.732   5.837
10426SOL    HW132177   5.118   3.665   5.901
10426SOL    HW232178   5.160   3.692   5.745
10427SOL     OW32179   5.382   6.023   5.719
10427SOL    HW132180   5.317   6.087   5.760
10427SOL    HW232181   5.465   6.072   5.693
10428SOL     OW32182   1.624   1.591   3.853
10428SOL    HW132183   1.561   1.654   3.808
10428SOL    HW232184   1.616   1.500   3.811
10429SOL     OW32185   1.196   3.622   2.760
10429SOL    HW132186   1.122   3.661   2.705
10429SOL    HW232187   1.173   3.528   2.786
10430SOL     OW32188   3.385   6.453   4.222
10430SOL    HW132189   3.468   6.507   4.206
10430SOL    HW232190   3.398   6.396   4.303
10431SOL     OW32191   2.791   0.892   4.057
10431SOL    HW132192   2.772   0.965   3.991
10431SOL    HW232193   2.883   0.904   4.093
10432SOL     OW32194   0.515   1.374   5.164
10432SOL    HW132195   0.444   1.332   5.220
10432SOL    HW232196   0.562   1.446   5.216
10433SOL     OW32197   0.323   6.449   1.752
10433SOL    HW132198   0.347   6.494   1.666
10433SOL    HW232199   0.394   6.468   1.821
10434SOL     OW32200   4.866   6.265   4.641
10434SOL    HW132201   4.867   6.168   4.667
10434SOL    HW232202   4.950   6.287   4.592
10435SOL     OW32203   1.317   1.875   5.989
10435SOL    HW132204   1.331   1.840   6.081
10435SOL    HW232205   1.347   1.807   5.922
10436SOL     OW32206   6.056   4.008   3.949
10436SOL    HW132207   6.020   3.923   3.913
10436SOL    HW232208   6.126   3.988   4.018
10437SOL     OW32209   5.381   5.092   5.172
10437SOL    HW132210   5.381   5.117   5.269
10437SOL    HW232211   5.467   5.120   5.130
10438SOL     OW32212   0.211   6.209   5.878
10438SOL    HW132213   0.123   6.253   5.858
10438SOL    HW232214   0.272   6.276   5.920
10439SOL     OW32215   5.857   0.914   4.866
10439SOL    HW132216   5.930   0.966   4.823
10439SOL    HW232217   5.785   0.895   4.799
10440SOL     OW32218   6.675   6.460   0.119
10440SOL    HW132219   6.705   6.430   0.210
10440SOL    HW232220   6.707   6.554   0.103
10441SOL     OW32221   2.837   1.051   0.706
10441SOL    HW132222   2.902   0.982   0.673
10441SOL    HW232223   2.866   1.083   0.796
10442SOL     OW32224   4.187   0.828   4.878
10442SOL    HW132225   4.162   0.753   4.939
10442SOL    HW232226   4.213   0.908   4.932
10443SOL     OW32227   6.425   2.411   2.871
10443SOL    HW132228   6.387   2.450   2.955
10443SOL    HW232229   6.421   2.478   2.798
10444SOL     OW32230   2.888   5.051   3.052
10444SOL    HW132231   2.879   5.134   3.108
10444SOL    HW232232   2.806   5.039   2.997
10445SOL     OW32233   0.781   3.583   2.804
10445SOL    HW132234   0.741   3.493   2.822
10445SOL    HW232235   0.708   3.652   2.801
10446SOL     OW32236   1.833   4.180   6.093
10446SOL    HW132237   1.834   4.114   6.017
10446SOL    HW232238   1.904   4.248   6.079
10447SOL     OW32239   6.594   0.578   1.863
10447SOL    HW132240   6.676   0.533   1.827
10447SOL    HW232241   6.534   0.603   1.787
10448SOL     OW32242   3.344   0.208   3.005
10448SOL    HW132243   3.353   0.240   3.099
10448SOL    HW232244   3.411   0.135   2.988
10449SOL     OW32245   3.222   5.558   6.505
10449SOL    HW132246   3.320   5.576   6.502
10449SOL    HW232247   3.204   5.482   6.568
10450SOL     OW32248   6.778   0.776   6.400
10450SOL    HW132249   6.777   0.688   6.448
10450SOL    HW232250   6.724   0.769   6.317
10451SOL     OW32251   3.431   0.437   2.877
10451SOL    HW132252   3.370   0.365   2.910
10451SOL    HW232253   3.421   0.518   2.934
10452SOL     OW32254   7.013   2.476   2.597
10452SOL    HW132255   7.004   2.559   2.542
10452SOL    HW232256   6.981   2.495   2.690
10453SOL     OW32257   4.360   6.048   2.936
10453SOL    HW132258   4.310   6.134   2.924
10453SOL    HW232259   4.377   6.007   2.847
10454SOL     OW32260   5.899   1.016   0.336
10454SOL    HW132261   5.828   0.948   0.318
10454SOL    HW232262   5.930   1.056   0.249
10455SOL     OW32263   0.125   6.000   4.389
10455SOL    HW132264   0.074   5.957   4.463
10455SOL    HW232265   0.061   6.048   4.328
10456SOL     OW32266   0.088   5.567   0.642
10456SOL    HW132267   0.138   5.637   0.692
10456SOL    HW232268   0.132   5.550   0.554
10457SOL     OW32269   4.172   3.228   6.916
10457SOL    HW132270   4.165   3.289   6.837
10457SOL    HW232271   4.268   3.201   6.929
10458SOL     OW32272   6.822   0.009   6.678
10458SOL    HW132273   6.728   0.044   6.685
10458SOL    HW232274   6.872   0.030   6.762
10459SOL     OW32275   5.922   4.980   0.954
10459SOL    HW132276   5.975   4.895   0.957
10459SOL    HW232277   5.983   5.058   0.953
10460SOL     OW32278   0.288   3.578   1.899
10460SOL    HW132279   0.249   3.560   1.809
10460SOL    HW232280   0.282   3.676   1.919
10461SOL     OW32281   6.414   4.864   5.450
10461SOL    HW132282   6.362   4.788   5.490
10461SOL    HW232283   6.374   4.950   5.479
10462SOL     OW32284   4.999   2.255   2.489
10462SOL    HW132285   5.014   2.238   2.586
10462SOL    HW232286   5.067   2.319   2.454
10463SOL     OW32287   4.915   1.507   6.322
10463SOL    HW132288   4.983   1.574   6.292
10463SOL    HW232289   4.923   1.424   6.266
10464SOL     OW32290   5.768   5.526   2.265
10464SOL    HW132291   5.775   5.427   2.254
10464SOL    HW232292   5.757   5.548   2.362
10465SOL     OW32293   4.769   5.424   2.456
10465SOL    HW132294   4.760   5.416   2.356
10465SOL    HW232295   4.819   5.508   2.478
10466SOL     OW32296   4.669   4.473   6.564
10466SOL    HW132297   4.680   4.528   6.482
10466SOL    HW232298   4.617   4.524   6.632
10467SOL     OW32299   1.547   2.718   0.544
10467SOL    HW132300   1.512   2.675   0.628
10467SOL    HW232301   1.502   2.806   0.531
10468SOL     OW32302   3.817   5.094   3.611
10468SOL    HW132303   3.804   5.047   3.698
10468SOL    HW232304   3.777   5.186   3.616
10469SOL     OW32305   4.504   4.418   5.640
10469SOL    HW132306   4.503   4.324   5.675
10469SOL    HW232307   4.554   4.420   5.553
10470SOL     OW32308   2.199   1.471   3.098
10470SOL    HW132309   2.155   1.382   3.087
10470SOL    HW232310   2.215   1.489   3.195
10471SOL     OW32311   3.350   0.308   0.205
10471SOL    HW132312   3.449   0.298   0.215
10471SOL    HW232313   3.321   0.397   0.241
10472SOL     OW32314   2.538   5.345   1.118
10472SOL    HW132315   2.565   5.382   1.207
10472SOL    HW232316   2.455   5.290   1.129
10473SOL     OW32317   5.822   6.298   5.745
10473SOL    HW132318   5.806   6.330   5.839
10473SOL    HW232319   5.873   6.212   5.747
10474SOL     OW32320   4.527   1.744   3.641
10474SOL    HW132321   4.533   1.840   3.612
10474SOL    HW232322   4.536   1.739   3.740
10475SOL     OW32323   2.969   6.770   1.672
10475SOL    HW132324   3.024   6.704   1.724
10475SOL    HW232325   2.891   6.799   1.727
10476SOL     OW32326   4.602   6.245   6.376
10476SOL    HW132327   4.693   6.284   6.361
10476SOL    HW232328   4.535   6.319   6.383
10477SOL     OW32329   6.682   0.587   4.775
10477SOL    HW132330   6.626   0.646   4.834
10477SOL    HW232331   6.746   0.644   4.724
10478SOL     OW32332   6.828   6.022   6.997
10478SOL    HW132333   6.887   5.952   6.957
10478SOL    HW232334   6.789   5.989   0.062
10479SOL     OW32335   6.483   1.037   1.878
10479SOL    HW132336   6.470   1.130   1.844
10479SOL    HW232337   6.578   1.009   1.863
10480SOL     OW32338   1.378   1.081   1.630
10480SOL    HW132339   1.438   1.002   1.641
10480SOL    HW232340   1.289   1.062   1.670
10481SOL     OW32341   1.819   5.814   3.217
10481SOL    HW132342   1.833   5.900   3.265
10481SOL    HW232343   1.818   5.739   3.283
10482SOL     OW32344   6.156   5.224   4.873
10482SOL    HW132345   6.229   5.248   4.937
10482SOL    HW232346   6.175   5.266   4.784
10483SOL     OW32347   5.500   5.778   0.371
10483SOL    HW132348   5.592   5.763   0.337
10483SOL    HW232349   5.434   5.766   0.297
10484SOL     OW32350   4.421   1.915   1.582
10484SOL    HW132351   4.334   1.916   1.632
10484SOL    HW232352   4.481   1.987   1.618
10485SOL     OW32353   3.175   4.858   0.259
10485SOL    HW132354   3.160   4.779   0.319
10485SOL    HW232355   3.139   4.838   0.168
10486SOL     OW32356   0.043   1.195   0.340
10486SOL    HW132357   6.966   1.199   0.319
10486SOL    HW232358   0.082   1.287   0.339
10487SOL     OW32359   4.958   6.770   2.292
10487SOL    HW132360   5.004   6.728   2.370
10487SOL    HW232361   4.890   6.836   2.326
10488SOL     OW32362   2.998   1.770   6.104
10488SOL    HW132363   2.962   1.752   6.012
10488SOL    HW232364   3.058   1.851   6.100
10489SOL     OW32365   0.296   6.550   4.838
10489SOL    HW132366   0.251   6.543   4.927
10489SOL    HW232367   0.253   6.622   4.784
10490SOL     OW32368   6.213   1.383   1.929
10490SOL    HW132369   6.282   1.437   1.883
10490SOL    HW232370   6.141   1.358   1.864
10491SOL     OW32371   1.536   3.518   6.835
10491SOL    HW132372   1.515   3.481   6.744
10491SOL    HW232373   1.575   3.447   6.892
10492SOL     OW32374   5.830   4.082   5.765
10492SOL    HW132375   5.738   4.102   5.732
10492SOL    HW232376   5.843   3.983   5.770
10493SOL     OW32377   3.611   1.061   1.306
10493SOL    HW132378   3.645   1.108   1.387
10493SOL    HW232379   3.534   1.112   1.267
10494SOL     OW32380   4.558   3.733   5.637
10494SOL    HW132381   4.509   3.780   5.564
10494SOL    HW232382   4.571   3.637   5.612
10495SOL     OW32383   2.078   6.457   0.281
10495SOL    HW132384   2.151   6.457   0.213
10495SOL    HW232385   2.097   6.387   0.350
10496SOL     OW32386   0.184   4.968   0.081
10496SOL    HW132387   0.087   4.961   0.058
10496SOL    HW232388   0.229   5.028   0.015
10497SOL     OW32389   2.452   0.077   2.375
10497SOL    HW132390   2.355   0.102   2.364
10497SOL    HW232391   2.470   0.055   2.470
10498SOL     OW32392   3.165   6.468   1.691
10498SOL    HW132393   3.143   6.427   1.779
10498SOL    HW232394   3.105   6.430   1.621
10499SOL     OW32395   3.274   7.016   2.361
10499SOL    HW132396   3.202   6.984   2.422
10499SOL    HW232397   3.268   0.096   2.351
10500SOL     OW32398   0.048   0.434   6.909
10500SOL    HW132399   7.010   0.500   6.956
10500SOL    HW232400   0.143   0.463   6.916
10501SOL     OW32401   2.446   5.068   3.025
10501SOL    HW132402   2.482   5.016   3.103
10501SOL    HW232403   2.355   5.034   3.002
10502SOL     OW32404   3.035   0.307   0.788
10502SOL    HW132405   2.988   0.273   0.706
10502SOL    HW232406   2.988   0.388   0.822
10503SOL     OW32407   4.042   3.214   0.155
10503SOL    HW132408   3.971   3.145   0.171
10503SOL    HW232409   4.059   3.222   0.057
10504SOL     OW32410   1.661   1.793   0.055
10504SOL    HW132411   1.705   1.728   0.117
10504SOL    HW232412   1.688   1.772   6.981
10505SOL     OW32413   5.469   6.199   0.664
10505SOL    HW132414   5.372   6.185   0.687
10505SOL    HW232415   5.494   6.137   0.589
10506SOL     OW32416   6.822   5.217   6.625
10506SOL    HW132417   6.852   5.191   6.533
10506SOL    HW232418   6.820   5.316   6.633
10507SOL     OW32419   2.350   0.275   0.166
10507SOL    HW132420   2.266   0.287   0.113
10507SOL    HW232421   2.331   0.222   0.248
10508SOL     OW32422   6.158   6.127   4.438
10508SOL    HW132423   6.080   6.168   4.392
10508SOL    HW232424   6.214   6.199   4.480
10509SOL     OW32425   0.766   6.344   5.304
10509SOL    HW132426   0.733   6.264   5.253
10509SOL    HW232427   0.852   6.376   5.264
10510SOL     OW32428   4.921   5.928   5.675
10510SOL    HW132429   4.921   6.025   5.648
10510SOL    HW232430   4.911   5.921   5.774
10511SOL     OW32431   4.207   1.839   1.413
10511SOL    HW132432   4.265   1.873   1.488
10511SOL    HW232433   4.172   1.917   1.361
10512SOL     OW32434   4.010   0.119   5.672
10512SOL    HW132435   3.981   0.163   5.757
10512SOL    HW232436   4.095   0.159   5.641
10513SOL     OW32437   6.786   2.241   4.369
10513SOL    HW132438   6.783   2.162   4.430
10513SOL    HW232439   6.881   2.271   4.358
10514SOL     OW32440   0.387   3.506   0.164
10514SOL    HW132441   0.391   3.560   0.248
10514SOL    HW232442   0.296   3.517   0.123
10515SOL     OW32443   0.019   2.919   3.023
10515SOL    HW132444   6.982   2.967   2.956
10515SOL    HW232445   7.018   2.952   3.115
10516SOL     OW32446   4.008   0.850   6.563
10516SOL    HW132447   4.108   0.857   6.556
10516SOL    HW232448   3.969   0.844   6.471
10517SOL     OW32449   6.983   1.854   3.078
10517SOL    HW132450   0.061   1.865   3.062
10517SOL    HW232451   6.952   1.924   3.142
10518SOL     OW32452   1.094   5.006   6.246
10518SOL    HW132453   1.193   5.006   6.257
10518SOL    HW232454   1.066   4.924   6.195
10519SOL     OW32455   2.253   3.070   6.417
10519SOL    HW132456   2.267   3.151   6.475
10519SOL    HW232457   2.328   3.006   6.431
10520SOL     OW32458   1.466   2.469   6.371
10520SOL    HW132459   1.400   2.400   6.340
10520SOL    HW232460   1.475   2.464   6.470
10521SOL     OW32461   5.548   5.594   1.889
10521SOL    HW132462   5.618   5.527   1.863
10521SOL    HW232463   5.550   5.605   1.988
10522SOL     OW32464   6.051   0.423   6.958
10522SOL    HW132465   6.123   0.416   0.007
10522SOL    HW232466   6.001   0.337   6.954
10523SOL     OW32467   0.814   5.165   4.592
10523SOL    HW132468   0.806   5.193   4.688
10523SOL    HW232469   0.901   5.117   4.579
10524SOL     OW32470   1.841   0.845   5.103
10524SOL    HW132471   1.808   0.937   5.125
10524SOL    HW232472   1.850   0.791   5.187
10525SOL     OW32473   3.186   0.110   5.994
10525SOL    HW132474   3.096   0.067   5.997
10525SOL    HW232475   3.252   0.046   5.952
10526SOL     OW32476   0.484   7.013   2.964
10526SOL    HW132477   0.441   6.973   3.045
10526SOL    HW232478   0.414   0.030   2.903
10527SOL     OW32479   6.336   2.298   4.648
10527SOL    HW132480   6.346   2.274   4.745
10527SOL    HW232481   6.262   2.365   4.639
10528SOL     OW32482   1.388   3.352   5.932
10528SOL    HW132483   1.341   3.272   5.894
10528SOL    HW232484   1.467   3.374   5.875
10529SOL     OW32485   2.115   6.390   3.588
10529SOL    HW132486   2.172   6.327   3.641
10529SOL    HW232487   2.143   6.387   3.492
10530SOL     OW32488   2.257   0.802   6.446
10530SOL    HW132489   2.205   0.717   6.442
10530SOL    HW232490   2.354   0.783   6.433
10531SOL     OW32491   0.920   2.776   4.060
10531SOL    HW132492   0.860   2.843   4.017
10531SOL    HW232493   0.975   2.821   4.131
10532SOL     OW32494   1.856   4.573   6.904
10532SOL    HW132495   1.949   4.537   6.903
10532SOL    HW232496   1.806   4.540   6.824
10533SOL     OW32497   3.177   1.621   4.641
10533SOL    HW132498   3.240   1.660   4.708
10533SOL    HW232499   3.137   1.537   4.677
10534SOL     OW32500   5.723   5.634   1.653
10534SOL    HW132501   5.797   5.673   1.598
10534SOL    HW232502   5.638   5.640   1.601
10535SOL     OW32503   0.887   1.704   0.897
10535SOL    HW132504   0.902   1.799   0.926
10535SOL    HW232505   0.941   1.685   0.816
10536SOL     OW32506   3.987   0.877   3.230
10536SOL    HW132507   4.007   0.861   3.327
10536SOL    HW232508   4.014   0.797   3.177
10537SOL     OW32509   3.491   5.216   4.395
10537SOL    HW132510   3.415   5.276   4.369
10537SOL    HW232511   3.490   5.134   4.338
10538SOL     OW32512   4.990   2.287   0.190
10538SOL    HW132513   5.020   2.353   0.258
10538SOL    HW232514   5.036   2.199   0.206
10539SOL     OW32515   0.753   4.026   6.661
10539SOL    HW132516   0.691   4.028   6.582
10539SOL    HW232517   0.845   4.050   6.631
10540SOL     OW32518   1.604   2.522   5.222
10540SOL    HW132519   1.657   2.500   5.140
10540SOL    HW232520   1.543   2.598   5.202
10541SOL     OW32521   3.625   3.651   2.060
10541SOL    HW132522   3.564   3.576   2.035
10541SOL    HW232523   3.581   3.709   2.129
10542SOL     OW32524   6.517   1.788   6.325
10542SOL    HW132525   6.476   1.821   6.409
10542SOL    HW232526   6.603   1.742   6.345
10543SOL     OW32527   6.618   1.214   5.309
10543SOL    HW132528   6.581   1.302   5.338
10543SOL    HW232529   6.680   1.179   5.380
10544SOL     OW32530   1.581   6.829   2.528
10544SOL    HW132531   1.572   6.924   2.559
10544SOL    HW232532   1.606   6.771   2.605
10545SOL     OW32533   6.371   1.063   2.655
10545SOL    HW132534   6.325   0.981   2.621
10545SOL    HW232535   6.304   1.135   2.671
10546SOL     OW32536   0.909   1.074   6.556
10546SOL    HW132537   0.868   1.018   6.628
10546SOL    HW232538   0.973   1.019   6.503
10547SOL     OW32539   4.904   2.018   1.943
10547SOL    HW132540   4.920   2.070   2.027
10547SOL    HW232541   4.820   1.965   1.953
10548SOL     OW32542   5.330   4.423   4.947
10548SOL    HW132543   5.322   4.476   4.862
10548SOL    HW232544   5.306   4.328   4.929
10549SOL     OW32545   6.366   0.021   2.088
10549SOL    HW132546   6.404   0.048   1.999
10549SOL    HW232547   6.267   0.013   2.081
10550SOL     OW32548   4.649   6.196   4.903
10550SOL    HW132549   4.598   6.244   4.831
10550SOL    HW232550   4.666   6.102   4.874
10551SOL     OW32551   1.907   2.521   5.907
10551SOL    HW132552   1.922   2.429   5.869
10551SOL    HW232553   1.867   2.513   5.998
10552SOL     OW32554   3.742   2.046   5.965
10552SOL    HW132555   3.786   2.124   6.009
10552SOL    HW232556   3.719   1.978   6.035
10553SOL     OW32557   0.893   5.089   1.402
10553SOL    HW132558   0.813   5.144   1.376
10553SOL    HW232559   0.924   5.117   1.493
10554SOL     OW32560   5.094   5.197   0.068
10554SOL    HW132561   5.189   5.180   0.095
10554SOL    HW232562   5.092   5.257   7.009
10555SOL     OW32563   2.334   2.957   0.661
10555SOL    HW132564   2.425   2.924   0.687
10555SOL    HW232565   2.297   2.900   0.588
10556SOL     OW32566   2.092   2.395   4.947
10556SOL    HW132567   2.088   2.299   4.919
10556SOL    HW232568   2.098   2.453   4.867
10557SOL     OW32569   1.935   2.274   2.848
10557SOL    HW132570   1.907   2.178   2.855
10557SOL    HW232571   1.900   2.325   2.926
10558SOL     OW32572   4.292   0.586   3.811
10558SOL    HW132573   4.194   0.577   3.823
10558SOL    HW232574   4.322   0.532   3.732
10559SOL     OW32575   4.687   0.348   1.178
10559SOL    HW132576   4.695   0.437   1.222
10559SOL    HW232577   4.656   0.281   1.245
10560SOL     OW32578   3.376   6.950   3.453
10560SOL    HW132579   3.377   0.021   3.412
10560SOL    HW232580   3.282   6.915   3.454
10561SOL     OW32581   2.695   4.767   0.925
10561SOL    HW132582   2.762   4.810   0.986
10561SOL    HW232583   2.606   4.811   0.937
10562SOL     OW32584   5.264   6.306   0.354
10562SOL    HW132585   5.325   6.308   0.275
10562SOL    HW232586   5.239   6.211   0.374
10563SOL     OW32587   0.671   0.653   3.800
10563SOL    HW132588   0.721   0.734   3.830
10563SOL    HW232589   0.663   0.654   3.700
10564SOL     OW32590   5.792   6.100   2.482
10564SOL    HW132591   5.832   6.122   2.393
10564SOL    HW232592   5.748   6.010   2.478
10565SOL     OW32593   6.933   0.787   6.019
10565SOL    HW132594   6.910   0.689   6.021
10565SOL    HW232595   6.954   0.814   5.925
10566SOL     OW32596   4.344   2.821   0.040
10566SOL    HW132597   4.415   2.755   0.064
10566SOL    HW232598   4.277   2.777   7.000
10567SOL     OW32599   2.387   1.687   4.703
10567SOL    HW132600   2.471   1.652   4.745
10567SOL    HW232601   2.400   1.697   4.605
10568SOL     OW32602   5.946   1.767   1.510
10568SOL    HW132603   5.869   1.775   1.574
10568SOL    HW232604   5.959   1.854   1.463
10569SOL     OW32605   6.111   2.208   1.390
10569SOL    HW132606   6.169   2.273   1.438
10569SOL    HW232607   6.157   2.119   1.386
10570SOL     OW32608   1.383   4.662   3.316
10570SOL    HW132609   1.420   4.573   3.342
10570SOL    HW232610   1.283   4.657   3.314
10571SOL     OW32611   6.717   5.087   4.751
10571SOL    HW132612   6.786   5.070   4.680
10571SOL    HW232613   6.754   5.151   4.819
10572SOL     OW32614   6.894   4.177   3.924
10572SOL    HW132615   6.904   4.095   3.868
10572SOL    HW232616   6.867   4.151   4.016
10573SOL     OW32617   4.508   0.263   4.643
10573SOL    HW132618   4.414   0.265   4.609
10573SOL    HW232619   4.560   0.193   4.594
10574SOL     OW32620   1.043   1.698   4.061
10574SOL    HW132621   0.977   1.651   4.002
10574SOL    HW232622   1.018   1.795   4.069
10575SOL     OW32623   0.149   1.004   2.710
10575SOL    HW132624   0.067   1.051   2.678
10575SOL    HW232625   0.146   0.995   2.809
10576SOL     OW32626   6.880   6.168   5.611
10576SOL    HW132627   6.874   6.070   5.632
10576SOL    HW232628   6.845   6.184   5.519
10577SOL     OW32629   1.974   2.255   6.837
10577SOL    HW132630   2.039   2.304   6.895
10577SOL    HW232631   1.924   2.320   6.780
10578SOL     OW32632   6.357   0.648   3.139
10578SOL    HW132633   6.345   0.747   3.144
10578SOL    HW232634   6.282   0.609   3.085
10579SOL     OW32635   3.856   1.967   0.481
10579SOL    HW132636   3.900   1.892   0.532
10579SOL    HW232637   3.806   1.928   0.404
10580SOL     OW32638   6.568   0.328   0.356
10580SOL    HW132639   6.574   0.281   0.268
10580SOL    HW232640   6.473   0.348   0.376
10581SOL     OW32641   6.888   6.635   3.144
10581SOL    HW132642   6.837   6.562   3.099
10581SOL    HW232643   6.834   6.672   3.220
10582SOL     OW32644   4.583   4.724   6.957
10582SOL    HW132645   4.545   4.669   0.012
10582SOL    HW232646   4.566   4.821   6.974
10583SOL     OW32647   3.921   0.758   5.255
10583SOL    HW132648   3.846   0.720   5.309
10583SOL    HW232649   3.887   0.787   5.165
10584SOL     OW32650   6.165   6.613   1.589
10584SOL    HW132651   6.067   6.603   1.572
10584SOL    HW232652   6.180   6.690   1.651
10585SOL     OW32653   2.227   2.724   5.611
10585SOL    HW132654   2.322   2.748   5.633
10585SOL    HW232655   2.199   2.774   5.529
10586SOL     OW32656   0.634   5.328   5.090
10586SOL    HW132657   0.613   5.405   5.151
10586SOL    HW232658   0.558   5.264   5.089
10587SOL     OW32659   6.334   3.873   0.515
10587SOL    HW132660   6.301   3.779   0.519
10587SOL    HW232661   6.341   3.902   0.420
10588SOL     OW32662   0.215   3.749   2.536
10588SOL    HW132663   0.206   3.808   2.456
10588SOL    HW232664   0.125   3.716   2.564
10589SOL     OW32665   6.251   1.246   4.764
10589SOL    HW132666   6.337   1.296   4.768
10589SOL    HW232667   6.188   1.291   4.700
10590SOL     OW32668   1.407   0.091   1.635
10590SOL    HW132669   1.311   0.065   1.636
10590SOL    HW232670   1.455   0.047   1.711
10591SOL     OW32671   1.246   1.498   6.248
10591SOL    HW132672   1.241   1.403   6.215
10591SOL    HW232673   1.154   1.537   6.252
10592SOL     OW32674   6.274   2.814   0.691
10592SOL    HW132675   6.183   2.791   0.656
10592SOL    HW232676   6.266   2.882   0.764
10593SOL     OW32677   2.460   5.436   0.676
10593SOL    HW132678   2.418   5.508   0.622
10593SOL    HW232679   2.537   5.397   0.626
10594SOL     OW32680   5.342   1.025   2.466
10594SOL    HW132681   5.251   1.068   2.474
10594SOL    HW232682   5.408   1.078   2.519
10595SOL     OW32683   3.483   0.299   5.744
10595SOL    HW132684   3.390   0.264   5.741
10595SOL    HW232685   3.547   0.222   5.743
10596SOL     OW32686   4.812   7.013   0.523
10596SOL    HW132687   4.819   0.026   0.428
10596SOL    HW232688   4.886   0.032   0.578
10597SOL     OW32689   3.816   1.099   4.876
10597SOL    HW132690   3.784   1.011   4.913
10597SOL    HW232691   3.774   1.115   4.787
10598SOL     OW32692   2.460   2.592   6.757
10598SOL    HW132693   2.530   2.521   6.757
10598SOL    HW232694   2.382   2.561   6.812
10599SOL     OW32695   4.871   2.496   6.709
10599SOL    HW132696   4.868   2.451   6.799
10599SOL    HW232697   4.798   2.563   6.703
10600SOL     OW32698   1.818   2.729   0.456
10600SOL    HW132699   1.721   2.731   0.483
10600SOL    HW232700   1.839   2.640   0.416
10601SOL     OW32701   1.612   4.661   6.533
10601SOL    HW132702   1.548   4.717   6.585
10601SOL    HW232703   1.679   4.719   6.487
10602SOL     OW32704   5.184   1.924   3.295
10602SOL    HW132705   5.224   1.989   3.230
10602SOL    HW232706   5.087   1.946   3.308
10603SOL     OW32707   2.316   5.664   4.101
10603SOL    HW132708   2.405   5.708   4.105
10603SOL    HW232709   2.328   5.566   4.083
10604SOL     OW32710   5.920   3.781   5.319
10604SOL    HW132711   5.859   3.710   5.355
10604SOL    HW232712   5.975   3.818   5.393
10605SOL     OW32713   1.357   4.787   0.599
10605SOL    HW132714   1.327   4.751   0.687
10605SOL    HW232715   1.310   4.874   0.580
10606SOL     OW32716   6.492   6.864   2.249
10606SOL    HW132717   6.471   6.766   2.248
10606SOL    HW232718   6.437   6.910   2.179
10607SOL     OW32719   4.069   4.096   6.026
10607SOL    HW132720   3.974   4.122   6.008
10607SOL    HW232721   4.130   4.164   5.985
10608SOL     OW32722   5.318   2.064   5.810
10608SOL    HW132723   5.374   2.141   5.841
10608SOL    HW232724   5.370   2.010   5.744
10609SOL     OW32725   3.557   6.784   1.787
10609SOL    HW132726   3.509   6.702   1.754
10609SOL    HW232727   3.597   6.764   1.877
10610SOL     OW32728   0.426   3.623   6.038
10610SOL    HW132729   0.517   3.618   5.997
10610SOL    HW232730   0.378   3.703   6.001
10611SOL     OW32731   4.314   3.910   5.529
10611SOL    HW132732   4.280   3.903   5.623
10611SOL    HW232733   4.263   3.982   5.481
10612SOL     OW32734   2.673   0.261   5.795
10612SOL    HW132735   2.687   0.201   5.717
10612SOL    HW232736   2.666   0.205   5.878
10613SOL     OW32737   6.713   0.427   5.303
10613SOL    HW132738   6.632   0.370   5.286
10613SOL    HW232739   6.779   0.413   5.229
10614SOL     OW32740   6.791   2.090   4.598
10614SOL    HW132741   6.795   2.156   4.673
10614SOL    HW232742   6.874   2.034   4.599
10615SOL     OW32743   3.050   6.110   6.016
10615SOL    HW132744   3.000   6.149   5.939
10615SOL    HW232745   3.062   6.012   6.002
10616SOL     OW32746   2.708   6.446   1.253
10616SOL    HW132747   2.766   6.464   1.332
10616SOL    HW232748   2.758   6.392   1.185
10617SOL     OW32749   2.424   2.633   0.577
10617SOL    HW132750   2.365   2.597   0.649
10617SOL    HW232751   2.369   2.683   0.510
10618SOL     OW32752   6.067   3.429   6.729
10618SOL    HW132753   6.000   3.401   6.798
10618SOL    HW232754   6.131   3.494   6.770
10619SOL     OW32755   0.227   3.828   1.992
10619SOL    HW132756   0.216   3.927   1.986
10619SOL    HW232757   0.140   3.786   2.015
10620SOL     OW32758   1.086   5.499   5.832
10620SOL    HW132759   1.084   5.430   5.760
10620SOL    HW232760   1.079   5.453   5.921
10621SOL     OW32761   1.148   6.480   1.193
10621SOL    HW132762   1.145   6.525   1.282
10621SOL    HW232763   1.172   6.384   1.205
10622SOL     OW32764   5.473   0.704   1.224
10622SOL    HW132765   5.570   0.724   1.233
10622SOL    HW232766   5.459   0.637   1.151
10623SOL     OW32767   6.679   4.716   4.462
10623SOL    HW132768   6.777   4.731   4.444
10623SOL    HW232769   6.647   4.639   4.408
10624SOL     OW32770   0.700   1.656   4.489
10624SOL    HW132771   0.650   1.583   4.535
10624SOL    HW232772   0.754   1.618   4.414
10625SOL     OW32773   0.619   4.877   0.140
10625SOL    HW132774   0.527   4.842   0.120
10625SOL    HW232775   0.612   4.946   0.212
10626SOL     OW32776   1.367   3.142   1.026
10626SOL    HW132777   1.356   3.100   1.116
10626SOL    HW232778   1.286   3.122   0.970
10627SOL     OW32779   5.340   5.897   1.402
10627SOL    HW132780   5.373   5.930   1.490
10627SOL    HW232781   5.404   5.830   1.365
10628SOL     OW32782   5.470   5.534   6.155
10628SOL    HW132783   5.396   5.467   6.159
10628SOL    HW232784   5.558   5.487   6.151
10629SOL     OW32785   2.531   4.525   4.656
10629SOL    HW132786   2.517   4.507   4.558
10629SOL    HW232787   2.621   4.568   4.669
10630SOL     OW32788   6.433   1.379   3.503
10630SOL    HW132789   6.416   1.464   3.453
10630SOL    HW232790   6.497   1.322   3.450
10631SOL     OW32791   1.613   4.769   5.446
10631SOL    HW132792   1.667   4.756   5.363
10631SOL    HW232793   1.588   4.865   5.454
10632SOL     OW32794   5.462   1.773   4.126
10632SOL    HW132795   5.512   1.845   4.174
10632SOL    HW232796   5.411   1.718   4.192
10633SOL     OW32797   2.434   3.658   1.257
10633SOL    HW132798   2.355   3.695   1.306
10633SOL    HW232799   2.403   3.614   1.173
10634SOL     OW32800   3.256   5.239   1.513
10634SOL    HW132801   3.298   5.208   1.428
10634SOL    HW232802   3.279   5.335   1.529
10635SOL     OW32803   3.295   1.787   0.721
10635SOL    HW132804   3.245   1.864   0.761
10635SOL    HW232805   3.254   1.701   0.753
10636SOL     OW32806   1.530   1.958   1.536
10636SOL    HW132807   1.523   2.027   1.464
10636SOL    HW232808   1.587   1.882   1.504
10637SOL     OW32809   3.428   4.987   5.399
10637SOL    HW132810   3.486   4.911   5.370
10637SOL    HW232811   3.344   4.951   5.440
10638SOL     OW32812   0.283   5.770   3.028
10638SOL    HW132813   0.297   5.731   3.119
10638SOL    HW232814   0.204   5.833   3.030
10639SOL     OW32815   0.147   2.692   2.965
10639SOL    HW132816   0.165   2.708   2.868
10639SOL    HW232817   0.111   2.776   3.006
10640SOL     OW32818   4.116   0.120   6.008
10640SOL    HW132819   4.089   0.062   6.085
10640SOL    HW232820   4.048   0.192   5.995
10641SOL     OW32821   3.636   2.295   0.062
10641SOL    HW132822   3.732   2.305   0.088
10641SOL    HW232823   3.628   2.230   7.007
10642SOL     OW32824   0.193   2.602   1.723
10642SOL    HW132825   0.271   2.599   1.661
10642SOL    HW232826   0.155   2.694   1.724
10643SOL     OW32827   2.143   4.534   5.598
10643SOL    HW132828   2.095   4.567   5.517
10643SOL    HW232829   2.236   4.571   5.599
10644SOL     OW32830   5.721   1.886   3.112
10644SOL    HW132831   5.650   1.875   3.182
10644SOL    HW232832   5.800   1.830   3.136
10645SOL     OW32833   0.269   1.181   4.525
10645SOL    HW132834   0.226   1.143   4.607
10645SOL    HW232835   0.229   1.139   4.444
10646SOL     OW32836   0.470   1.533   5.898
10646SOL    HW132837   0.438   1.581   5.980
10646SOL    HW232838   0.496   1.599   5.828
10647SOL     OW32839   4.069   5.528   7.019
10647SOL    HW132840   4.143   5.544   6.954
10647SOL    HW232841   4.104   5.536   0.093
10648SOL     OW32842   4.624   4.020   6.537
10648SOL    HW132843   4.574   4.106   6.532
10648SOL    HW232844   4.604   3.966   6.455
10649SOL     OW32845   0.376   4.245   3.016
10649SOL    HW132846   0.349   4.190   2.937
10649SOL    HW232847   0.374   4.188   3.098
10650SOL     OW32848   1.490   6.103   3.118
10650SOL    HW132849   1.548   6.163   3.172
10650SOL    HW232850   1.410   6.154   3.085
10651SOL     OW32851   4.834   6.747   6.076
10651SOL    HW132852   4.799   6.675   6.016
10651SOL    HW232853   4.825   6.836   6.031
10652SOL     OW32854   3.344   6.980   6.306
10652SOL    HW132855   3.415   6.941   6.365
10652SOL    HW232856   3.254   6.956   6.343
10653SOL     OW32857   5.371   4.274   4.378
10653SOL    HW132858   5.278   4.277   4.415
10653SOL    HW232859   5.436   4.257   4.453
10654SOL     OW32860   4.587   1.006   0.611
10654SOL    HW132861   4.584   1.020   0.710
10654SOL    HW232862   4.496   0.978   0.579
10655SOL     OW32863   2.909   5.387   1.373
10655SOL    HW132864   2.814   5.418   1.373
10655SOL    HW232865   2.947   5.396   1.466
10656SOL     OW32866   5.872   2.411   0.388
10656SOL    HW132867   5.955   2.396   0.442
10656SOL    HW232868   5.817   2.482   0.430
10657SOL     OW32869   6.558   6.621   6.749
10657SOL    HW132870   6.648   6.597   6.783
10657SOL    HW232871   6.519   6.694   6.806
10658SOL     OW32872   6.671   3.972   4.428
10658SOL    HW132873   6.665   3.995   4.525
10658SOL    HW232874   6.756   3.922   4.412
10659SOL     OW32875   6.316   6.275   0.957
10659SOL    HW132876   6.220   6.248   0.968
10659SOL    HW232877   6.374   6.216   1.013
10660SOL     OW32878   5.468   4.451   6.436
10660SOL    HW132879   5.487   4.452   6.338
10660SOL    HW232880   5.410   4.373   6.457
10661SOL     OW32881   0.507   6.780   2.418
10661SOL    HW132882   0.593   6.756   2.373
10661SOL    HW232883   0.434   6.721   2.384
10662SOL     OW32884   5.864   0.576   1.990
10662SOL    HW132885   5.808   0.499   1.957
10662SOL    HW232886   5.811   0.628   2.057
10663SOL     OW32887   0.085   6.903   1.680
10663SOL    HW132888   0.061   6.880   1.775
10663SOL    HW232889   0.029   6.848   1.618
10664SOL     OW32890   1.964   4.045   5.374
10664SOL    HW132891   1.898   4.035   5.299
10664SOL    HW232892   1.987   4.142   5.385
10665SOL     OW32893   0.633   0.464   0.626
10665SOL    HW132894   0.728   0.456   0.655
10665SOL    HW232895   0.629   0.464   0.526
10666SOL     OW32896   3.648   4.734   0.244
10666SOL    HW132897   3.716   4.689   0.301
10666SOL    HW232898   3.623   4.673   0.168
10667SOL     OW32899   3.496   2.592   5.373
10667SOL    HW132900   3.588   2.615   5.343
10667SOL    HW232901   3.495   2.499   5.410
10668SOL     OW32902   1.116   1.576   5.074
10668SOL    HW132903   1.052   1.605   5.003
10668SOL    HW232904   1.160   1.491   5.045
10669SOL     OW32905   6.105   6.576   0.773
10669SOL    HW132906   6.177   6.626   0.820
10669SOL    HW232907   6.144   6.497   0.726
10670SOL     OW32908   4.825   4.460   5.547
10670SOL    HW132909   4.835   4.362   5.568
10670SOL    HW232910   4.898   4.488   5.484
10671SOL     OW32911   2.499   2.445   2.479
10671SOL    HW132912   2.464   2.354   2.457
10671SOL    HW232913   2.517   2.495   2.394
10672SOL     OW32914   7.001   2.538   0.767
10672SOL    HW132915   6.990   2.505   0.673
10672SOL    HW232916   6.919   2.517   0.819
10673SOL     OW32917   1.762   2.475   6.138
10673SOL    HW132918   1.681   2.534   6.138
10673SOL    HW232919   1.765   2.424   6.224
10674SOL     OW32920   3.754   3.120   0.771
10674SOL    HW132921   3.695   3.073   0.836
10674SOL    HW232922   3.784   3.056   0.700
10675SOL     OW32923   1.867   0.542   6.401
10675SOL    HW132924   1.888   0.631   6.441
10675SOL    HW232925   1.851   0.476   6.475
10676SOL     OW32926   6.452   6.953   6.425
10676SOL    HW132927   6.486   6.863   6.452
10676SOL    HW232928   6.519   6.998   6.366
10677SOL     OW32929   0.614   0.419   2.172
10677SOL    HW132930   0.595   0.513   2.145
10677SOL    HW232931   0.657   0.370   2.096
10678SOL     OW32932   3.646   5.265   3.131
10678SOL    HW132933   3.551   5.285   3.153
10678SOL    HW232934   3.650   5.195   3.059
10679SOL     OW32935   4.968   4.465   5.950
10679SOL    HW132936   4.913   4.442   6.030
10679SOL    HW232937   4.927   4.545   5.904
10680SOL     OW32938   2.345   2.573   3.749
10680SOL    HW132939   2.298   2.653   3.713
10680SOL    HW232940   2.343   2.576   3.849
10681SOL     OW32941   0.065   3.817   6.406
10681SOL    HW132942   0.117   3.808   6.321
10681SOL    HW232943   0.096   3.898   6.456
10682SOL     OW32944   1.910   1.957   2.827
10682SOL    HW132945   1.881   1.868   2.862
10682SOL    HW232946   2.009   1.967   2.840
10683SOL     OW32947   3.263   1.836   3.538
10683SOL    HW132948   3.231   1.795   3.452
10683SOL    HW232949   3.188   1.838   3.604
10684SOL     OW32950   4.437   3.649   0.345
10684SOL    HW132951   4.529   3.627   0.377
10684SOL    HW232952   4.411   3.587   0.271
10685SOL     OW32953   6.886   4.223   2.018
10685SOL    HW132954   6.948   4.145   2.008
10685SOL    HW232955   6.828   4.210   2.099
10686SOL     OW32956   4.330   5.113   6.341
10686SOL    HW132957   4.389   5.044   6.381
10686SOL    HW232958   4.329   5.102   6.241
10687SOL     OW32959   0.124   4.776   1.923
10687SOL    HW132960   0.027   4.771   1.899
10687SOL    HW232961   0.157   4.869   1.906
10688SOL     OW32962   5.921   4.173   2.491
10688SOL    HW132963   5.986   4.104   2.525
10688SOL    HW232964   5.843   4.179   2.554
10689SOL     OW32965   0.489   0.309   3.180
10689SOL    HW132966   0.434   0.274   3.103
10689SOL    HW232967   0.510   0.406   3.165
10690SOL     OW32968   6.124   5.413   3.960
10690SOL    HW132969   6.189   5.369   3.898
10690SOL    HW232970   6.035   5.367   3.952
10691SOL     OW32971   6.935   1.820   2.384
10691SOL    HW132972   6.922   1.811   2.482
10691SOL    HW232973   7.019   1.872   2.367
10692SOL     OW32974   3.470   5.176   3.742
10692SOL    HW132975   3.546   5.238   3.723
10692SOL    HW232976   3.389   5.208   3.694
10693SOL     OW32977   1.811   0.854   1.701
10693SOL    HW132978   1.778   0.898   1.785
10693SOL    HW232979   1.878   0.913   1.657
10694SOL     OW32980   3.559   6.236   1.090
10694SOL    HW132981   3.501   6.299   1.142
10694SOL    HW232982   3.533   6.141   1.111
10695SOL     OW32983   6.419   2.272   3.786
10695SOL    HW132984   6.376   2.303   3.701
10695SOL    HW232985   6.418   2.172   3.790
10696SOL     OW32986   0.174   5.072   1.910
10696SOL    HW132987   0.189   5.159   1.864
10696SOL    HW232988   0.154   5.087   2.007
10697SOL     OW32989   0.173   6.201   4.106
10697SOL    HW132990   0.249   6.234   4.050
10697SOL    HW232991   0.190   6.222   4.202
10698SOL     OW32992   3.263   6.753   3.962
10698SOL    HW132993   3.185   6.693   3.943
10698SOL    HW232994   3.335   6.736   3.895
10699SOL     OW32995   4.831   1.746   2.776
10699SOL    HW132996   4.875   1.817   2.719
10699SOL    HW232997   4.881   1.737   2.862
10700SOL     OW32998   0.918   0.449   0.665
10700SOL    HW132999   0.962   0.452   0.575
10700SOL    HW233000   0.909   0.354   0.694
10701SOL     OW33001   4.471   6.245   0.137
10701SOL    HW133002   4.417   6.285   0.210
10701SOL    HW233003   4.560   6.290   0.132
10702SOL     OW33004   5.526   2.410   1.897
10702SOL    HW133005   5.541   2.425   1.995
10702SOL    HW233006   5.430   2.427   1.875
10703SOL     OW33007   3.660   2.992   3.851
10703SOL    HW133008   3.743   2.981   3.907
10703SOL    HW233009   3.686   3.007   3.756
10704SOL     OW33010   4.711   6.068   2.019
10704SOL    HW133011   4.634   6.074   2.083
10704SOL    HW233012   4.774   6.144   2.035
10705SOL     OW33013   1.042   3.618   0.248
10705SOL    HW133014   1.024   3.693   0.311
10705SOL    HW233015   0.959   3.563   0.236
10706SOL     OW33016   4.785   0.224   1.595
10706SOL    HW133017   4.823   0.231   1.503
10706SOL    HW233018   4.720   0.299   1.610
10707SOL     OW33019   0.452   6.911   4.867
10707SOL    HW133020   0.549   6.902   4.844
10707SOL    HW233021   0.413   6.989   4.817
10708SOL     OW33022   5.016   1.103   1.593
10708SOL    HW133023   4.978   1.192   1.567
10708SOL    HW233024   5.031   1.101   1.692
10709SOL     OW33025   6.336   0.673   5.508
10709SOL    HW133026   6.396   0.681   5.588
10709SOL    HW233027   6.314   0.765   5.475
10710SOL     OW33028   0.550   6.473   4.805
10710SOL    HW133029   0.457   6.505   4.822
10710SOL    HW233030   0.613   6.514   4.871
10711SOL     OW33031   1.673   0.172   4.020
10711SOL    HW133032   1.727   0.131   3.946
10711SOL    HW233033   1.705   0.138   4.108
10712SOL     OW33034   3.782   0.991   3.607
10712SOL    HW133035   3.712   0.960   3.543
10712SOL    HW233036   3.779   1.091   3.614
10713SOL     OW33037   1.924   5.238   1.551
10713SOL    HW133038   1.876   5.264   1.467
10713SOL    HW233039   1.867   5.262   1.630
10714SOL     OW33040   6.987   3.821   5.153
10714SOL    HW133041   0.041   3.838   5.088
10714SOL    HW233042   6.992   3.727   5.186
10715SOL     OW33043   5.189   0.291   2.749
10715SOL    HW133044   5.194   0.197   2.782
10715SOL    HW233045   5.156   0.292   2.655
10716SOL     OW33046   0.263   1.626   3.459
10716SOL    HW133047   0.362   1.636   3.461
10716SOL    HW233048   0.235   1.587   3.372
10717SOL     OW33049   0.220   1.416   0.939
10717SOL    HW133050   0.315   1.390   0.957
10717SOL    HW233051   0.185   1.363   0.862
10718SOL     OW33052   6.629   4.710   0.462
10718SOL    HW133053   6.548   4.697   0.519
10718SOL    HW233054   6.674   4.622   0.448
10719SOL     OW33055   5.222   6.496   2.221
10719SOL    HW133056   5.289   6.509   2.148
10719SOL    HW233057   5.199   6.399   2.228
10720SOL     OW33058   6.429   3.620   6.127
10720SOL    HW133059   6.351   3.618   6.065
10720SOL    HW233060   6.418   3.696   6.192
10721SOL     OW33061   5.893   2.181   4.060
10721SOL    HW133062   5.982   2.162   4.101
10721SOL    HW233063   5.891   2.275   4.027
10722SOL     OW33064   0.462   3.622   6.950
10722SOL    HW133065   0.462   3.554   0.004
10722SOL    HW233066   0.469   3.713   6.989
10723SOL     OW33067   5.469   3.965   6.542
10723SOL    HW133068   5.381   3.919   6.548
10723SOL    HW233069   5.540   3.906   6.581
10724SOL     OW33070   4.111   6.495   5.997
10724SOL    HW133071   4.162   6.580   5.984
10724SOL    HW233072   4.018   6.517   6.029
10725SOL     OW33073   0.183   5.635   4.430
10725SOL    HW133074   0.217   5.553   4.385
10725SOL    HW233075   0.135   5.692   4.364
10726SOL     OW33076   5.886   0.107   4.604
10726SOL    HW133077   5.985   0.120   4.616
10726SOL    HW233078   5.870   0.035   4.537
10727SOL     OW33079   1.365   5.434   5.497
10727SOL    HW133080   1.321   5.395   5.416
10727SOL    HW233081   1.441   5.376   5.526
10728SOL     OW33082   5.732   6.645   2.642
10728SOL    HW133083   5.659   6.655   2.709
10728SOL    HW233084   5.695   6.603   2.559
10729SOL     OW33085   6.378   1.915   2.595
10729SOL    HW133086   6.475   1.901   2.574
10729SOL    HW233087   6.363   2.012   2.617
10730SOL     OW33088   2.623   6.364   2.169
10730SOL    HW133089   2.721   6.388   2.166
10730SOL    HW233090   2.583   6.398   2.254
10731SOL     OW33091   2.447   5.818   0.690
10731SOL    HW133092   2.441   5.826   0.789
10731SOL    HW233093   2.360   5.845   0.648
10732SOL     OW33094   6.747   6.948   3.123
10732SOL    HW133095   6.756   6.972   3.026
10732SOL    HW233096   6.663   6.894   3.136
10733SOL     OW33097   6.265   2.331   6.810
10733SOL    HW133098   6.357   2.367   6.825
10733SOL    HW233099   6.199   2.389   6.857
10734SOL     OW33100   0.386   0.562   6.263
10734SOL    HW133101   0.376   0.634   6.332
10734SOL    HW233102   0.306   0.502   6.266
10735SOL     OW33103   0.913   5.213   2.434
10735SOL    HW133104   0.894   5.164   2.519
10735SOL    HW233105   0.874   5.305   2.439
10736SOL     OW33106   0.385   0.929   3.172
10736SOL    HW133107   0.343   0.882   3.249
10736SOL    HW233108   0.434   0.864   3.115
10737SOL     OW33109   0.621   1.619   0.837
10737SOL    HW133110   0.606   1.615   0.738
10737SOL    HW233111   0.708   1.663   0.856
10738SOL     OW33112   2.324   0.317   2.686
10738SOL    HW133113   2.290   0.240   2.739
10738SOL    HW233114   2.417   0.299   2.656
10739SOL     OW33115   6.414   2.183   2.045
10739SOL    HW133116   6.361   2.137   2.117
10739SOL    HW233117   6.491   2.125   2.020
10740SOL     OW33118   1.080   6.499   5.704
10740SOL    HW133119   1.057   6.540   5.792
10740SOL    HW233120   1.115   6.406   5.718
10741SOL     OW33121   1.860   1.672   3.328
10741SOL    HW133122   1.785   1.670   3.262
10741SOL    HW233123   1.827   1.707   3.415
10742SOL     OW33124   5.640   6.345   2.248
10742SOL    HW133125   5.570   6.396   2.298
10742SOL    HW233126   5.730   6.367   2.286
10743SOL     OW33127   3.382   1.408   4.556
10743SOL    HW133128   3.456   1.462   4.516
10743SOL    HW233129   3.357   1.446   4.645
10744SOL     OW33130   3.327   1.363   2.165
10744SOL    HW133131   3.252   1.301   2.142
10744SOL    HW233132   3.410   1.309   2.184
10745SOL     OW33133   2.121   4.848   0.626
10745SOL    HW133134   2.037   4.902   0.622
10745SOL    HW233135   2.109   4.772   0.690
10746SOL     OW33136   2.451   5.709   1.204
10746SOL    HW133137   2.394   5.627   1.197
10746SOL    HW233138   2.512   5.700   1.282
10747SOL     OW33139   5.259   1.481   3.606
10747SOL    HW133140   5.200   1.509   3.530
10747SOL    HW233141   5.228   1.393   3.643
10748SOL     OW33142   5.192   5.611   1.154
10748SOL    HW133143   5.097   5.586   1.133
10748SOL    HW233144   5.219   5.570   1.241
10749SOL     OW33145   6.644   4.683   2.727
10749SOL    HW133146   6.630   4.780   2.705
10749SOL    HW233147   6.735   4.655   2.696
10750SOL     OW33148   4.880   3.997   4.639
10750SOL    HW133149   4.971   4.006   4.680
10750SOL    HW233150   4.819   4.066   4.679
10751SOL     OW33151   1.291   3.010   5.150
10751SOL    HW133152   1.348   2.939   5.109
10751SOL    HW233153   1.350   3.085   5.181
10752SOL     OW33154   5.920   4.381   0.019
10752SOL    HW133155   5.907   4.286   7.009
10752SOL    HW233156   6.009   4.414   7.006
10753SOL     OW33157   5.304   0.031   3.829
10753SOL    HW133158   5.396   0.004   3.801
10753SOL    HW233159   5.282   0.120   3.789
10754SOL     OW33160   1.021   2.876   1.991
10754SOL    HW133161   1.072   2.900   1.908
10754SOL    HW233162   1.007   2.958   2.046
10755SOL     OW33163   6.793   2.184   0.732
10755SOL    HW133164   6.792   2.103   0.674
10755SOL    HW233165   6.806   2.266   0.676
10756SOL     OW33166   6.864   2.227   6.934
10756SOL    HW133167   6.865   2.144   6.989
10756SOL    HW233168   6.925   2.295   6.975
10757SOL     OW33169   0.199   3.902   0.370
10757SOL    HW133170   0.140   3.821   0.373
10757SOL    HW233171   0.143   3.983   0.352
10758SOL     OW33172   0.649   5.459   6.027
10758SOL    HW133173   0.554   5.440   6.053
10758SOL    HW233174   0.653   5.480   5.929
10759SOL     OW33175   1.695   3.470   6.085
10759SOL    HW133176   1.689   3.408   6.007
10759SOL    HW233177   1.667   3.562   6.057
10760SOL     OW33178   0.995   5.438   0.802
10760SOL    HW133179   1.042   5.523   0.826
10760SOL    HW233180   0.911   5.430   0.857
10761SOL     OW33181   1.151   2.660   6.090
10761SOL    HW133182   1.059   2.657   6.128
10761SOL    HW233183   1.174   2.571   6.049
10762SOL     OW33184   4.887   0.802   6.029
10762SOL    HW133185   4.894   0.813   6.128
10762SOL    HW233186   4.833   0.877   5.991
10763SOL     OW33187   4.926   0.441   1.660
10763SOL    HW133188   5.017   0.411   1.631
10763SOL    HW233189   4.860   0.368   1.643
10764SOL     OW33190   5.437   1.344   5.828
10764SOL    HW133191   5.435   1.366   5.730
10764SOL    HW233192   5.459   1.427   5.880
10765SOL     OW33193   5.814   1.426   2.321
10765SOL    HW133194   5.875   1.428   2.243
10765SOL    HW233195   5.719   1.415   2.289
10766SOL     OW33196   2.327   4.318   0.182
10766SOL    HW133197   2.350   4.224   0.154
10766SOL    HW233198   2.228   4.329   0.182
10767SOL     OW33199   1.703   6.271   0.803
10767SOL    HW133200   1.631   6.340   0.800
10767SOL    HW233201   1.783   6.304   0.753
10768SOL     OW33202   5.354   5.783   0.121
10768SOL    HW133203   5.324   5.877   0.105
10768SOL    HW233204   5.277   5.720   0.105
10769SOL     OW33205   2.768   4.403   5.353
10769SOL    HW133206   2.822   4.452   5.284
10769SOL    HW233207   2.674   4.395   5.321
10770SOL     OW33208   5.483   0.283   4.674
10770SOL    HW133209   5.392   0.311   4.645
10770SOL    HW233210   5.546   0.288   4.596
10771SOL     OW33211   4.252   0.208   5.555
10771SOL    HW133212   4.272   0.121   5.511
10771SOL    HW233213   4.300   0.281   5.506
10772SOL     OW33214   6.796   6.409   3.867
10772SOL    HW133215   6.857   6.368   3.799
10772SOL    HW233216   6.744   6.338   3.913
10773SOL     OW33217   6.983   4.348   6.782
10773SOL    HW133218   0.058   4.372   6.765
10773SOL    HW233219   6.925   4.427   6.764
10774SOL     OW33220   1.875   2.645   1.622
10774SOL    HW133221   1.967   2.672   1.650
10774SOL    HW233222   1.881   2.579   1.547
10775SOL     OW33223   2.129   4.424   1.506
10775SOL    HW133224   2.197   4.497   1.505
10775SOL    HW233225   2.109   4.396   1.412
10776SOL     OW33226   0.225   6.717   2.069
10776SOL    HW133227   0.148   6.695   2.010
10776SOL    HW233228   0.213   6.809   2.107
10777SOL     OW33229   4.138   0.260   3.291
10777SOL    HW133230   4.105   0.346   3.252
10777SOL    HW233231   4.140   0.267   3.391
10778SOL     OW33232   6.209   6.019   4.710
10778SOL    HW133233   6.184   6.113   4.733
10778SOL    HW233234   6.188   6.001   4.614
10779SOL     OW33235   6.325   4.332   2.533
10779SOL    HW133236   6.344   4.233   2.533
10779SOL    HW233237   6.407   4.382   2.559
10780SOL     OW33238   0.382   5.725   4.611
10780SOL    HW133239   0.343   5.694   4.524
10780SOL    HW233240   0.479   5.749   4.597
10781SOL     OW33241   5.328   0.821   4.281
10781SOL    HW133242   5.236   0.787   4.263
10781SOL    HW233243   5.377   0.758   4.341
10782SOL     OW33244   6.096   3.094   4.155
10782SOL    HW133245   6.115   3.033   4.078
10782SOL    HW233246   6.134   3.184   4.137
10783SOL     OW33247   2.068   3.070   2.203
10783SOL    HW133248   2.088   3.040   2.296
10783SOL    HW233249   2.092   3.167   2.193
10784SOL     OW33250   2.923   6.782   2.037
10784SOL    HW133251   3.013   6.826   2.040
10784SOL    HW233252   2.862   6.828   2.101
10785SOL     OW33253   1.400   5.162   1.436
10785SOL    HW133254   1.459   5.242   1.432
10785SOL    HW233255   1.349   5.162   1.522
10786SOL     OW33256   4.581   1.941   2.304
10786SOL    HW133257   4.643   1.881   2.253
10786SOL    HW233258   4.625   1.972   2.388
10787SOL     OW33259   3.245   1.309   4.198
10787SOL    HW133260   3.216   1.245   4.126
10787SOL    HW233261   3.332   1.351   4.172
10788SOL     OW33262   1.898   4.133   0.157
10788SOL    HW133263   1.962   4.204   0.187
10788SOL    HW233264   1.946   4.069   0.097
10789SOL     OW33265   6.490   1.178   0.576
10789SOL    HW133266   6.425   1.112   0.615
10789SOL    HW233267   6.523   1.239   0.647
10790SOL     OW33268   6.438   1.091   5.759
10790SOL    HW133269   6.459   1.099   5.857
10790SOL    HW233270   6.508   1.139   5.706
10791SOL     OW33271   2.058   1.813   1.609
10791SOL    HW133272   2.104   1.893   1.647
10791SOL    HW233273   1.988   1.781   1.673
10792SOL     OW33274   3.485   2.912   1.245
10792SOL    HW133275   3.547   2.976   1.291
10792SOL    HW233276   3.537   2.835   1.209
10793SOL     OW33277   5.171   2.086   4.250
10793SOL    HW133278   5.071   2.080   4.242
10793SOL    HW233279   5.194   2.161   4.313
10794SOL     OW33280   3.931   3.954   2.016
10794SOL    HW133281   3.929   3.854   2.018
10794SOL    HW233282   3.842   3.989   2.044
10795SOL     OW33283   6.758   3.806   2.447
10795SOL    HW133284   6.796   3.714   2.447
10795SOL    HW233285   6.731   3.831   2.540
10796SOL     OW33286   4.187   6.786   6.217
10796SOL    HW133287   4.234   6.851   6.277
10796SOL    HW233288   4.163   6.704   6.269
10797SOL     OW33289   4.005   2.282   6.948
10797SOL    HW133290   3.957   2.201   6.916
10797SOL    HW233291   4.006   2.284   0.028
10798SOL     OW33292   2.608   0.391   6.743
10798SOL    HW133293   2.605   0.452   6.664
10798SOL    HW233294   2.522   0.398   6.793
10799SOL     OW33295   3.480   1.970   2.464
10799SOL    HW133296   3.413   2.001   2.396
10799SOL    HW233297   3.437   1.969   2.554
10800SOL     OW33298   2.236   6.372   0.793
10800SOL    HW133299   2.251   6.453   0.849
10800SOL    HW233300   2.139   6.347   0.796
10801SOL     OW33301   1.853   6.242   5.249
10801SOL    HW133302   1.853   6.189   5.334
10801SOL    HW233303   1.869   6.181   5.172
10802SOL     OW33304   2.084   3.121   3.977
10802SOL    HW133305   2.054   3.051   3.912
10802SOL    HW233306   2.125   3.077   4.057
10803SOL     OW33307   5.176   4.603   5.368
10803SOL    HW133308   5.245   4.635   5.303
10803SOL    HW233309   5.088   4.594   5.322
10804SOL     OW33310   6.838   3.816   0.648
10804SOL    HW133311   6.829   3.821   0.747
10804SOL    HW233312   6.838   3.720   0.619
10805SOL     OW33313   3.530   6.904   6.729
10805SOL    HW133314   3.457   6.969   6.749
10805SOL    HW233315   3.540   6.842   6.807
10806SOL     OW33316   6.154   4.093   0.190
10806SOL    HW133317   6.169   3.995   0.209
10806SOL    HW233318   6.238   4.132   0.152
10807SOL     OW33319   3.068   6.913   3.490
10807SOL    HW133320   3.066   6.846   3.565
10807SOL    HW233321   3.016   6.877   3.412
10808SOL     OW33322   0.471   3.880   6.989
10808SOL    HW133323   0.520   3.908   6.906
10808SOL    HW233324   0.455   3.960   0.027
10809SOL     OW33325   2.847   0.895   4.392
10809SOL    HW133326   2.904   0.906   4.473
10809SOL    HW233327   2.892   0.936   4.313
10810SOL     OW33328   0.401   1.298   5.606
10810SOL    HW133329   0.389   1.208   5.649
10810SOL    HW233330   0.360   1.297   5.515
10811SOL     OW33331   3.916   4.938   6.050
10811SOL    HW133332   3.859   5.007   6.005
10811SOL    HW233333   3.909   4.851   6.001
10812SOL     OW33334   0.471   2.540   2.759
10812SOL    HW133335   0.568   2.566   2.755
10812SOL    HW233336   0.442   2.507   2.670
10813SOL     OW33337   2.918   5.865   1.564
10813SOL    HW133338   2.899   5.808   1.645
10813SOL    HW233339   2.832   5.885   1.516
10814SOL     OW33340   1.594   0.208   5.866
10814SOL    HW133341   1.682   0.188   5.910
10814SOL    HW233342   1.526   0.228   5.937
10815SOL     OW33343   4.855   4.744   3.446
10815SOL    HW133344   4.796   4.665   3.459
10815SOL    HW233345   4.877   4.753   3.349
10816SOL     OW33346   1.700   1.503   2.091
10816SOL    HW133347   1.618   1.485   2.146
10816SOL    HW233348   1.684   1.584   2.034
10817SOL     OW33349   5.274   6.541   2.879
10817SOL    HW133350   5.263   6.486   2.963
10817SOL    HW233351   5.214   6.620   2.883
10818SOL     OW33352   5.739   2.878   6.052
10818SOL    HW133353   5.785   2.921   6.129
10818SOL    HW233354   5.716   2.948   5.984
10819SOL     OW33355   1.099   3.655   6.517
10819SOL    HW133356   1.049   3.713   6.453
10819SOL    HW233357   1.138   3.577   6.467
10820SOL     OW33358   0.041   6.981   3.906
10820SOL    HW133359   0.014   6.917   3.978
10820SOL    HW233360   7.003   6.967   3.826
10821SOL     OW33361   6.597   6.053   2.383
10821SOL    HW133362   6.688   6.014   2.402
10821SOL    HW233363   6.527   5.996   2.427
10822SOL     OW33364   1.537   3.461   2.398
10822SOL    HW133365   1.508   3.542   2.448
10822SOL    HW233366   1.521   3.379   2.453
10823SOL     OW33367   1.966   5.998   1.423
10823SOL    HW133368   1.958   6.081   1.478
10823SOL    HW233369   2.053   5.953   1.441
10824SOL     OW33370   5.257   6.946   3.394
10824SOL    HW133371   5.282   6.891   3.474
10824SOL    HW233372   5.201   0.004   3.424
10825SOL     OW33373   2.302   1.387   1.031
10825SOL    HW133374   2.300   1.453   1.106
10825SOL    HW233375   2.249   1.423   0.954
10826SOL     OW33376   6.806   3.578   2.183
10826SOL    HW133377   6.814   3.480   2.203
10826SOL    HW233378   6.781   3.591   2.087
10827SOL     OW33379   6.361   3.709   3.867
10827SOL    HW133380   6.279   3.654   3.852
10827SOL    HW233381   6.364   3.739   3.962
10828SOL     OW33382   0.943   5.938   1.547
10828SOL    HW133383   0.866   5.950   1.609
10828SOL    HW233384   0.930   5.994   1.465
10829SOL     OW33385   2.393   2.947   1.341
10829SOL    HW133386   2.355   2.990   1.259
10829SOL    HW233387   2.334   2.872   1.370
10830SOL     OW33388   6.006   2.589   4.203
10830SOL    HW133389   6.100   2.596   4.171
10830SOL    HW233390   5.974   2.680   4.231
10831SOL     OW33391   5.231   0.299   1.891
10831SOL    HW133392   5.167   0.226   1.868
10831SOL    HW233393   5.180   0.378   1.926
10832SOL     OW33394   0.661   2.077   0.975
10832SOL    HW133395   0.620   2.127   0.900
10832SOL    HW233396   0.601   2.001   1.001
10833SOL     OW33397   2.132   0.229   3.769
10833SOL    HW133398   2.080   0.279   3.838
10833SOL    HW233399   2.222   0.271   3.758
10834SOL     OW33400   0.152   1.539   4.991
10834SOL    HW133401   0.189   1.540   4.898
10834SOL    HW233402   0.150   1.633   5.027
10835SOL     OW33403   6.550   1.764   1.744
10835SOL    HW133404   6.502   1.846   1.711
10835SOL    HW233405   6.637   1.790   1.784
10836SOL     OW33406   6.837   2.041   5.224
10836SOL    HW133407   6.799   2.077   5.138
10836SOL    HW233408   6.922   2.089   5.245
10837SOL     OW33409   6.890   4.490   0.190
10837SOL    HW133410   6.901   4.532   0.280
10837SOL    HW233411   6.918   4.554   0.119
10838SOL     OW33412   5.535   0.195   5.628
10838SOL    HW133413   5.576   0.265   5.687
10838SOL    HW233414   5.607   0.153   5.572
10839SOL     OW33415   2.778   2.502   7.012
10839SOL    HW133416   2.799   2.450   6.929
10839SOL    HW233417   2.818   2.593   7.005
10840SOL     OW33418   3.626   5.943   1.455
10840SOL    HW133419   3.688   5.935   1.533
10840SOL    HW233420   3.679   5.955   1.371
10841SOL     OW33421   3.740   6.048   5.526
10841SOL    HW133422   3.814   6.054   5.593
10841SOL    HW233423   3.665   5.995   5.565
10842SOL     OW33424   6.248   2.958   0.928
10842SOL    HW133425   6.285   2.916   1.011
10842SOL    HW233426   6.319   3.013   0.885
10843SOL     OW33427   0.915   1.863   1.567
10843SOL    HW133428   0.978   1.872   1.490
10843SOL    HW233429   0.919   1.945   1.623
10844SOL     OW33430   6.652   6.441   4.277
10844SOL    HW133431   6.718   6.438   4.352
10844SOL    HW233432   6.603   6.353   4.272
10845SOL     OW33433   1.592   1.252   1.626
10845SOL    HW133434   1.533   1.175   1.602
10845SOL    HW233435   1.687   1.228   1.606
10846SOL     OW33436   4.657   1.771   0.621
10846SOL    HW133437   4.742   1.807   0.660
10846SOL    HW233438   4.668   1.674   0.601
10847SOL     OW33439   2.496   1.956   6.174
10847SOL    HW133440   2.427   1.944   6.245
10847SOL    HW233441   2.537   2.047   6.182
10848SOL     OW33442   2.666   1.800   6.979
10848SOL    HW133443   2.722   1.812   0.042
10848SOL    HW233444   2.607   1.721   6.990
10849SOL     OW33445   3.770   4.933   3.824
10849SOL    HW133446   3.840   4.901   3.888
10849SOL    HW233447   3.682   4.892   3.847
10850SOL     OW33448   4.019   6.796   0.026
10850SOL    HW133449   4.056   6.754   0.109
10850SOL    HW233450   3.922   6.814   0.038
10851SOL     OW33451   3.143   3.096   5.815
10851SOL    HW133452   3.210   3.149   5.867
10851SOL    HW233453   3.067   3.155   5.789
10852SOL     OW33454   0.304   0.751   6.810
10852SOL    HW133455   0.298   0.663   6.857
10852SOL    HW233456   0.215   0.796   6.810
10853SOL     OW33457   3.632   2.147   4.149
10853SOL    HW133458   3.664   2.136   4.243
10853SOL    HW233459   3.563   2.078   4.129
10854SOL     OW33460   5.952   0.177   6.954
10854SOL    HW133461   5.861   0.138   6.963
10854SOL    HW233462   6.002   0.130   6.880
10855SOL     OW33463   2.728   6.138   2.575
10855SOL    HW133464   2.698   6.070   2.508
10855SOL    HW233465   2.653   6.157   2.639
10856SOL     OW33466   6.125   0.170   1.026
10856SOL    HW133467   6.113   0.251   0.968
10856SOL    HW233468   6.189   0.107   0.982
10857SOL     OW33469   6.477   2.936   3.071
10857SOL    HW133470   6.555   2.997   3.087
10857SOL    HW233471   6.392   2.984   3.094
10858SOL     OW33472   1.833   2.875   0.045
10858SOL    HW133473   1.817   2.971   0.066
10858SOL    HW233474   1.780   2.849   6.984
10859SOL     OW33475   1.561   3.568   3.170
10859SOL    HW133476   1.549   3.630   3.247
10859SOL    HW233477   1.497   3.592   3.097
10860SOL     OW33478   6.492   1.084   7.006
10860SOL    HW133479   6.480   1.020   0.061
10860SOL    HW233480   6.484   1.036   6.919
10861SOL     OW33481   3.659   2.653   1.798
10861SOL    HW133482   3.649   2.554   1.806
10861SOL    HW233483   3.620   2.684   1.711
10862SOL     OW33484   2.591   2.085   6.529
10862SOL    HW133485   2.664   2.030   6.488
10862SOL    HW233486   2.552   2.145   6.459
10863SOL     OW33487   2.729   0.387   2.936
10863SOL    HW133488   2.669   0.467   2.941
10863SOL    HW233489   2.760   0.374   2.842
10864SOL     OW33490   2.336   4.730   1.538
10864SOL    HW133491   2.354   4.638   1.503
10864SOL    HW233492   2.286   4.783   1.470
10865SOL     OW33493   5.754   3.154   3.624
10865SOL    HW133494   5.780   3.219   3.553
10865SOL    HW233495   5.763   3.196   3.714
10866SOL     OW33496   6.004   3.253   1.155
10866SOL    HW133497   5.938   3.226   1.084
10866SOL    HW233498   6.066   3.176   1.173
10867SOL     OW33499   2.818   2.956   0.057
10867SOL    HW133500   2.763   2.899   7.016
10867SOL    HW233501   2.858   2.899   0.129
10868SOL     OW33502   1.019   2.243   3.205
10868SOL    HW133503   1.072   2.316   3.163
10868SOL    HW233504   0.983   2.182   3.135
10869NA      NA33505   0.821   1.883   6.078
10870NA      NA33506   4.501   4.599   5.124
10871NA      NA33507   1.906   4.809   2.649
10872NA      NA33508   5.124   4.525   3.741
10873NA      NA33509   4.286   2.431   5.306
10874NA      NA33510   2.995   4.869   1.621
10875NA      NA33511   1.252   4.700   0.078
10876NA      NA33512   4.024   4.232   1.629
10877NA      NA33513   4.665   3.997   0.970
10878NA      NA33514   3.533   1.191   5.619
10879NA      NA33515   4.811   5.909   1.880
10880NA      NA33516   1.559   0.292   5.637
10881NA      NA33517   4.934   4.907   2.112
10882NA      NA33518   3.438   3.332   0.344
   7.02000   7.02000   7.02000
