Generated by trjconv : CNT in water t= 534.00000
33518
    1C        C    1   2.845   2.771   4.747
    1C        C    2   2.898   2.720   4.867
    1C        C    3   2.845   2.775   4.984
    1C        C    4   2.849   2.769   4.260
    1C        C    5   2.905   2.730   4.384
    1C        C    6   2.846   2.771   4.505
    1C        C    7   3.013   2.637   4.629
    1C        C    8   2.900   2.722   4.626
    1C        C    9   3.078   2.601   4.750
    1C        C   10   3.009   2.632   4.869
    1C        C   11   3.183   2.492   4.980
    1C        C   12   3.060   2.560   4.977
    1C        C   13   2.854   2.775   3.773
    1C        C   14   2.899   2.717   3.894
    1C        C   15   2.848   2.769   4.015
    1C        C   16   3.018   2.645   4.139
    1C        C   17   2.898   2.720   4.138
    1C        C   18   3.079   2.609   4.262
    1C        C   19   3.017   2.643   4.384
    1C        C   20   3.205   2.548   4.506
    1C        C   21   3.075   2.603   4.507
    1C        C   22   3.277   2.525   4.625
    1C        C   23   3.209   2.548   4.747
    1C        C   24   3.412   2.477   4.866
    1C        C   25   3.271   2.502   4.867
    1C        C   26   3.491   2.469   4.981
    1C        C   27   2.851   2.767   3.282
    1C        C   28   2.909   2.727   3.404
    1C        C   29   2.856   2.772   3.527
    1C        C   30   3.017   2.637   3.649
    1C        C   31   2.906   2.724   3.651
    1C        C   32   3.075   2.599   3.772
    1C        C   33   3.013   2.635   3.894
    1C        C   34   3.208   2.552   4.016
    1C        C   35   3.077   2.605   4.017
    1C        C   36   3.274   2.528   4.139
    1C        C   37   3.206   2.548   4.261
    1C        C   38   3.412   2.504   4.381
    1C        C   39   3.272   2.527   4.384
    1C        C   40   3.485   2.504   4.501
    1C        C   41   3.415   2.495   4.624
    1C        C   42   3.628   2.490   4.744
    1C        C   43   3.486   2.480   4.745
    1C        C   44   3.704   2.494   4.863
    1C        C   45   3.630   2.479   4.981
    1C        C   46   2.839   2.754   2.794
    1C        C   47   2.895   2.708   2.916
    1C        C   48   2.845   2.760   3.038
    1C        C   49   3.015   2.632   3.161
    1C        C   50   2.902   2.718   3.160
    1C        C   51   3.077   2.596   3.283
    1C        C   52   3.015   2.634   3.405
    1C        C   53   3.206   2.545   3.524
    1C        C   54   3.075   2.596   3.527
    1C        C   55   3.271   2.524   3.648
    1C        C   56   3.205   2.545   3.771
    1C        C   57   3.412   2.499   3.892
    1C        C   58   3.273   2.527   3.894
    1C        C   59   3.482   2.498   4.015
    1C        C   60   3.413   2.504   4.138
    1C        C   61   3.625   2.499   4.257
    1C        C   62   3.484   2.493   4.260
    1C        C   63   3.697   2.510   4.379
    1C        C   64   3.626   2.511   4.501
    1C        C   65   3.833   2.546   4.619
    1C        C   66   3.698   2.507   4.623
    1C        C   67   3.904   2.562   4.740
    1C        C   68   3.843   2.522   4.860
    1C        C   69   4.049   2.587   4.974
    1C        C   70   3.919   2.536   4.977
    1C        C   71   2.824   2.738   2.308
    1C        C   72   2.882   2.692   2.428
    1C        C   73   2.832   2.746   2.549
    1C        C   74   3.003   2.621   2.674
    1C        C   75   2.888   2.703   2.672
    1C        C   76   3.070   2.589   2.794
    1C        C   77   3.013   2.631   2.917
    1C        C   78   3.202   2.535   3.037
    1C        C   79   3.074   2.594   3.039
    1C        C   80   3.274   2.520   3.158
    1C        C   81   3.208   2.546   3.280
    1C        C   82   3.415   2.500   3.403
    1C        C   83   3.275   2.522   3.403
    1C        C   84   3.483   2.493   3.527
    1C        C   85   3.410   2.496   3.648
    1C        C   86   3.622   2.501   3.769
    1C        C   87   3.481   2.488   3.770
    1C        C   88   3.693   2.515   3.890
    1C        C   89   3.623   2.506   4.013
    1C        C   90   3.828   2.559   4.135
    1C        C   91   3.694   2.515   4.135
    1C        C   92   3.899   2.578   4.255
    1C        C   93   3.832   2.550   4.377
    1C        C   94   4.027   2.637   4.497
    1C        C   95   3.902   2.573   4.498
    1C        C   96   4.091   2.671   4.618
    1C        C   97   4.028   2.631   4.738
    1C        C   98   4.194   2.765   4.862
    1C        C   99   4.097   2.659   4.859
    1C        C  100   4.222   2.838   4.978
    1C        C  101   2.820   2.730   2.072
    1C        C  102   2.991   2.593   2.191
    1C        C  103   2.875   2.678   2.189
    1C        C  104   3.061   2.571   2.313
    1C        C  105   3.000   2.614   2.432
    1C        C  106   3.199   2.538   2.552
    1C        C  107   3.066   2.584   2.553
    1C        C  108   3.270   2.519   2.673
    1C        C  109   3.200   2.535   2.794
    1C        C  110   3.410   2.492   2.915
    1C        C  111   3.271   2.515   2.915
    1C        C  112   3.483   2.490   3.036
    1C        C  113   3.413   2.498   3.158
    1C        C  114   3.626   2.503   3.280
    1C        C  115   3.484   2.497   3.280
    1C        C  116   3.692   2.513   3.404
    1C        C  117   3.624   2.496   3.526
    1C        C  118   3.830   2.548   3.648
    1C        C  119   3.695   2.508   3.648
    1C        C  120   3.896   2.577   3.770
    1C        C  121   3.828   2.556   3.892
    1C        C  122   4.024   2.640   4.014
    1C        C  123   3.896   2.581   4.013
    1C        C  124   4.088   2.679   4.134
    1C        C  125   4.026   2.641   4.255
    1C        C  126   4.199   2.766   4.376
    1C        C  127   4.087   2.680   4.376
    1C        C  128   4.242   2.822   4.498
    1C        C  129   4.197   2.764   4.619
    1C        C  130   4.329   2.931   4.738
    1C        C  131   4.249   2.814   4.741
    1C        C  132   4.353   3.002   4.858
    1C        C  133   4.288   2.960   4.975
    1C        C  134   3.172   2.469   2.080
    1C        C  135   3.039   2.513   2.083
    1C        C  136   3.258   2.473   2.191
    1C        C  137   3.193   2.516   2.309
    1C        C  138   3.403   2.481   2.427
    1C        C  139   3.264   2.505   2.430
    1C        C  140   3.477   2.484   2.547
    1C        C  141   3.410   2.501   2.670
    1C        C  142   3.622   2.495   2.788
    1C        C  143   3.481   2.489   2.792
    1C        C  144   3.690   2.508   2.911
    1C        C  145   3.624   2.497   3.035
    1C        C  146   3.831   2.544   3.155
    1C        C  147   3.695   2.504   3.157
    1C        C  148   3.897   2.569   3.278
    1C        C  149   3.829   2.548   3.400
    1C        C  150   4.020   2.636   3.525
    1C        C  151   3.892   2.574   3.524
    1C        C  152   4.077   2.680   3.646
    1C        C  153   4.021   2.643   3.771
    1C        C  154   4.193   2.770   3.889
    1C        C  155   4.082   2.682   3.892
    1C        C  156   4.250   2.815   4.010
    1C        C  157   4.199   2.766   4.132
    1C        C  158   4.342   2.922   4.254
    1C        C  159   4.256   2.809   4.254
    1C        C  160   4.378   2.985   4.375
    1C        C  161   4.329   2.933   4.497
    1C        C  162   4.444   3.114   4.615
    1C        C  163   4.373   2.991   4.618
    1C        C  164   4.475   3.179   4.736
    1C        C  165   4.434   3.118   4.857
    1C        C  166   4.504   3.325   4.972
    1C        C  167   4.473   3.189   4.971
    1C        C  168   3.476   2.435   2.075
    1C        C  169   3.398   2.457   2.189
    1C        C  170   3.618   2.468   2.304
    1C        C  171   3.475   2.465   2.307
    1C        C  172   3.691   2.493   2.422
    1C        C  173   3.619   2.488   2.543
    1C        C  174   3.825   2.543   2.665
    1C        C  175   3.690   2.500   2.664
    1C        C  176   3.893   2.564   2.788
    1C        C  177   3.829   2.537   2.910
    1C        C  178   4.022   2.627   3.033
    1C        C  179   3.897   2.562   3.032
    1C        C  180   4.084   2.666   3.154
    1C        C  181   4.022   2.635   3.277
    1C        C  182   4.192   2.754   3.399
    1C        C  183   4.082   2.666   3.401
    1C        C  184   4.242   2.807   3.520
    1C        C  185   4.190   2.765   3.644
    1C        C  186   4.341   2.917   3.762
    1C        C  187   4.244   2.814   3.765
    1C        C  188   4.383   2.975   3.884
    1C        C  189   4.341   2.923   4.009
    1C        C  190   4.454   3.102   4.125
    1C        C  191   4.383   2.980   4.132
    1C        C  192   4.478   3.168   4.248
    1C        C  193   4.446   3.109   4.372
    1C        C  194   4.506   3.315   4.492
    1C        C  195   4.467   3.180   4.493
    1C        C  196   4.526   3.386   4.612
    1C        C  197   4.518   3.315   4.733
    1C        C  198   4.557   3.532   4.852
    1C        C  199   4.534   3.391   4.852
    1C        C  200   4.584   3.617   4.964
    1C        C  201   3.616   2.427   2.071
    1C        C  202   3.830   2.510   2.182
    1C        C  203   3.694   2.466   2.184
    1C        C  204   3.899   2.541   2.302
    1C        C  205   3.829   2.521   2.423
    1C        C  206   4.019   2.624   2.542
    1C        C  207   3.893   2.561   2.543
    1C        C  208   4.078   2.662   2.664
    1C        C  209   4.019   2.628   2.788
    1C        C  210   4.190   2.754   2.905
    1C        C  211   4.078   2.668   2.910
    1C        C  212   4.244   2.800   3.027
    1C        C  213   4.196   2.752   3.151
    1C        C  214   4.333   2.909   3.272
    1C        C  215   4.245   2.798   3.275
    1C        C  216   4.367   2.972   3.393
    1C        C  217   4.335   2.914   3.518
    1C        C  218   4.440   3.101   3.637
    1C        C  219   4.378   2.974   3.638
    1C        C  220   4.469   3.167   3.759
    1C        C  221   4.446   3.101   3.882
    1C        C  222   4.511   3.304   4.003
    1C        C  223   4.477   3.167   4.003
    1C        C  224   4.517   3.377   4.124
    1C        C  225   4.505   3.307   4.246
    1C        C  226   4.519   3.521   4.367
    1C        C  227   4.512   3.380   4.366
    1C        C  228   4.519   3.597   4.486
    1C        C  229   4.528   3.528   4.609
    1C        C  230   4.500   3.739   4.729
    1C        C  231   4.536   3.601   4.730
    1C        C  232   4.500   3.820   4.845
    1C        C  233   4.553   3.753   4.957
    1C        C  234   4.021   2.609   2.064
    1C        C  235   3.894   2.551   2.064
    1C        C  236   4.088   2.647   2.181
    1C        C  237   4.024   2.610   2.301
    1C        C  238   4.202   2.734   2.420
    1C        C  239   4.088   2.649   2.421
    1C        C  240   4.250   2.788   2.541
    1C        C  241   4.191   2.747   2.662
    1C        C  242   4.337   2.905   2.782
    1C        C  243   4.243   2.799   2.782
    1C        C  244   4.380   2.962   2.904
    1C        C  245   4.337   2.906   3.027
    1C        C  246   4.445   3.088   3.147
    1C        C  247   4.377   2.964   3.149
    1C        C  248   4.459   3.159   3.268
    1C        C  249   4.431   3.098   3.392
    1C        C  250   4.502   3.300   3.512
    1C        C  251   4.462   3.164   3.513
    1C        C  252   4.513   3.371   3.634
    1C        C  253   4.504   3.303   3.758
    1C        C  254   4.520   3.514   3.879
    1C        C  255   4.522   3.373   3.880
    1C        C  256   4.517   3.588   4.000
    1C        C  257   4.521   3.519   4.123
    1C        C  258   4.488   3.729   4.242
    1C        C  259   4.517   3.591   4.244
    1C        C  260   4.469   3.799   4.363
    1C        C  261   4.490   3.735   4.487
    1C        C  262   4.421   3.937   4.602
    1C        C  263   4.475   3.807   4.608
    1C        C  264   4.399   4.006   4.723
    1C        C  265   4.432   3.944   4.845
    1C        C  266   4.323   4.129   4.958
    1C        C  267   4.393   4.008   4.963
    1C        C  268   4.265   2.774   2.060
    1C        C  269   4.202   2.731   2.177
    1C        C  270   4.351   2.886   2.298
    1C        C  271   4.257   2.779   2.298
    1C        C  272   4.389   2.951   2.417
    1C        C  273   4.344   2.894   2.539
    1C        C  274   4.446   3.084   2.660
    1C        C  275   4.377   2.961   2.659
    1C        C  276   4.477   3.150   2.781
    1C        C  277   4.447   3.086   2.903
    1C        C  278   4.510   3.288   3.025
    1C        C  279   4.478   3.151   3.025
    1C        C  280   4.516   3.363   3.144
    1C        C  281   4.495   3.296   3.267
    1C        C  282   4.520   3.508   3.389
    1C        C  283   4.510   3.367   3.388
    1C        C  284   4.518   3.581   3.510
    1C        C  285   4.521   3.512   3.633
    1C        C  286   4.488   3.721   3.751
    1C        C  287   4.514   3.582   3.755
    1C        C  288   4.472   3.791   3.873
    1C        C  289   4.491   3.727   3.997
    1C        C  290   4.425   3.929   4.116
    1C        C  291   4.472   3.796   4.118
    1C        C  292   4.400   3.998   4.237
    1C        C  293   4.424   3.933   4.360
    1C        C  294   4.321   4.124   4.479
    1C        C  295   4.393   4.002   4.479
    1C        C  296   4.282   4.184   4.600
    1C        C  297   4.327   4.129   4.723
    1C        C  298   4.195   4.308   4.840
    1C        C  299   4.283   4.195   4.841
    1C        C  300   4.167   4.399   4.946
    1C        C  301   4.352   2.883   2.059
    1C        C  302   4.471   3.068   2.176
    1C        C  303   4.396   2.946   2.177
    1C        C  304   4.489   3.140   2.297
    1C        C  305   4.456   3.075   2.418
    1C        C  306   4.513   3.284   2.537
    1C        C  307   4.480   3.146   2.537
    1C        C  308   4.521   3.357   2.658
    1C        C  309   4.512   3.287   2.780
    1C        C  310   4.528   3.498   2.899
    1C        C  311   4.525   3.357   2.902
    1C        C  312   4.522   3.571   3.020
    1C        C  313   4.524   3.504   3.144
    1C        C  314   4.485   3.714   3.260
    1C        C  315   4.518   3.577   3.265
    1C        C  316   4.470   3.784   3.383
    1C        C  317   4.486   3.719   3.507
    1C        C  318   4.424   3.922   3.627
    1C        C  319   4.471   3.789   3.629
    1C        C  320   4.389   3.984   3.749
    1C        C  321   4.425   3.925   3.871
    1C        C  322   4.313   4.107   3.993
    1C        C  323   4.390   3.989   3.993
    1C        C  324   4.271   4.166   4.114
    1C        C  325   4.323   4.116   4.236
    1C        C  326   4.182   4.281   4.353
    1C        C  327   4.279   4.178   4.355
    1C        C  328   4.130   4.332   4.474
    1C        C  329   4.186   4.288   4.596
    1C        C  330   4.025   4.432   4.713
    1C        C  331   4.136   4.344   4.716
    1C        C  332   3.967   4.486   4.830
    1C        C  333   4.047   4.471   4.944
    1C        C  334   4.551   3.265   2.059
    1C        C  335   4.533   3.126   2.061
    1C        C  336   4.540   3.347   2.172
    1C        C  337   4.521   3.278   2.294
    1C        C  338   4.524   3.494   2.412
    1C        C  339   4.523   3.352   2.414
    1C        C  340   4.522   3.567   2.532
    1C        C  341   4.523   3.498   2.656
    1C        C  342   4.498   3.709   2.774
    1C        C  343   4.521   3.570   2.777
    1C        C  344   4.476   3.777   2.895
    1C        C  345   4.493   3.709   3.018
    1C        C  346   4.419   3.913   3.135
    1C        C  347   4.468   3.781   3.137
    1C        C  348   4.391   3.978   3.257
    1C        C  349   4.423   3.917   3.381
    1C        C  350   4.316   4.100   3.504
    1C        C  351   4.395   3.983   3.503
    1C        C  352   4.269   4.158   3.624
    1C        C  353   4.309   4.101   3.747
    1C        C  354   4.173   4.263   3.865
    1C        C  355   4.266   4.157   3.869
    1C        C  356   4.120   4.312   3.986
    1C        C  357   4.170   4.265   4.109
    1C        C  358   4.006   4.398   4.228
    1C        C  359   4.121   4.317   4.231
    1C        C  360   3.951   4.444   4.350
    1C        C  361   4.016   4.414   4.472
    1C        C  362   3.826   4.515   4.594
    1C        C  363   3.955   4.457   4.592
    1C        C  364   3.760   4.545   4.715
    1C        C  365   3.837   4.542   4.833
    1C        C  366   3.627   4.597   4.947
    1C        C  367   3.763   4.572   4.948
    1C        C  368   4.514   3.561   2.052
    1C        C  369   4.523   3.487   2.170
    1C        C  370   4.506   3.704   2.286
    1C        C  371   4.515   3.563   2.289
    1C        C  372   4.487   3.775   2.407
    1C        C  373   4.502   3.707   2.530
    1C        C  374   4.423   3.906   2.648
    1C        C  375   4.479   3.777   2.651
    1C        C  376   4.389   3.970   2.770
    1C        C  377   4.423   3.909   2.892
    1C        C  378   4.313   4.095   3.011
    1C        C  379   4.390   3.976   3.012
    1C        C  380   4.269   4.150   3.133
    1C        C  381   4.311   4.094   3.257
    1C        C  382   4.174   4.254   3.374
    1C        C  383   4.269   4.149   3.380
    1C        C  384   4.122   4.306   3.495
    1C        C  385   4.171   4.260   3.619
    1C        C  386   4.002   4.386   3.742
    1C        C  387   4.120   4.307   3.742
    1C        C  388   3.940   4.428   3.862
    1C        C  389   4.004   4.393   3.983
    1C        C  390   3.819   4.495   4.109
    1C        C  391   3.946   4.434   4.106
    1C        C  392   3.752   4.517   4.231
    1C        C  393   3.823   4.504   4.353
    1C        C  394   3.616   4.557   4.475
    1C        C  395   3.754   4.530   4.473
    1C        C  396   3.544   4.567   4.596
    1C        C  397   3.620   4.564   4.715
    1C        C  398   3.408   4.547   4.841
    1C        C  399   3.546   4.576   4.835
    1C        C  400   3.342   4.507   4.957
    1C        C  401   4.503   3.700   2.052
    1C        C  402   4.449   3.913   2.165
    1C        C  403   4.491   3.778   2.167
    1C        C  404   4.411   3.976   2.285
    1C        C  405   4.434   3.906   2.405
    1C        C  406   4.321   4.090   2.523
    1C        C  407   4.395   3.970   2.525
    1C        C  408   4.277   4.147   2.644
    1C        C  409   4.313   4.089   2.767
    1C        C  410   4.170   4.249   2.889
    1C        C  411   4.269   4.148   2.888
    1C        C  412   4.116   4.298   3.010
    1C        C  413   4.169   4.250   3.132
    1C        C  414   3.999   4.378   3.252
    1C        C  415   4.116   4.298   3.253
    1C        C  416   3.941   4.413   3.375
    1C        C  417   4.004   4.383   3.498
    1C        C  418   3.811   4.476   3.616
    1C        C  419   3.940   4.416   3.619
    1C        C  420   3.747   4.502   3.739
    1C        C  421   3.811   4.486   3.864
    1C        C  422   3.610   4.542   3.984
    1C        C  423   3.749   4.513   3.987
    1C        C  424   3.541   4.544   4.108
    1C        C  425   3.612   4.536   4.230
    1C        C  426   3.403   4.552   4.355
    1C        C  427   3.544   4.555   4.353
    1C        C  428   3.332   4.544   4.477
    1C        C  429   3.403   4.559   4.598
    1C        C  430   3.194   4.518   4.721
    1C        C  431   3.334   4.545   4.721
    1C        C  432   3.125   4.491   4.843
    1C        C  433   3.204   4.488   4.959
    1C        C  434   4.379   4.121   2.049
    1C        C  435   4.441   3.995   2.052
    1C        C  436   4.300   4.161   2.161
    1C        C  437   4.330   4.093   2.283
    1C        C  438   4.181   4.250   2.401
    1C        C  439   4.282   4.152   2.402
    1C        C  440   4.125   4.295   2.523
    1C        C  441   4.177   4.248   2.645
    1C        C  442   4.009   4.382   2.765
    1C        C  443   4.123   4.298   2.765
    1C        C  444   3.945   4.420   2.885
    1C        C  445   4.001   4.380   3.008
    1C        C  446   3.811   4.476   3.132
    1C        C  447   3.938   4.414   3.130
    1C        C  448   3.742   4.499   3.253
    1C        C  449   3.813   4.475   3.373
    1C        C  450   3.609   4.538   3.495
    1C        C  451   3.746   4.502   3.494
    1C        C  452   3.540   4.553   3.617
    1C        C  453   3.611   4.539   3.739
    1C        C  454   3.400   4.550   3.863
    1C        C  455   3.541   4.552   3.862
    1C        C  456   3.331   4.539   3.987
    1C        C  457   3.400   4.547   4.110
    1C        C  458   3.196   4.506   4.236
    1C        C  459   3.331   4.545   4.233
    1C        C  460   3.129   4.482   4.358
    1C        C  461   3.194   4.516   4.480
    1C        C  462   2.998   4.433   4.602
    1C        C  463   3.124   4.495   4.601
    1C        C  464   2.933   4.399   4.723
    1C        C  465   2.993   4.437   4.846
    1C        C  466   2.799   4.336   4.957
    1C        C  467   2.904   4.429   4.958
    1C        C  468   4.118   4.278   2.040
    1C        C  469   4.185   4.246   2.159
    1C        C  470   4.008   4.373   2.280
    1C        C  471   4.128   4.297   2.279
    1C        C  472   3.944   4.406   2.401
    1C        C  473   4.008   4.375   2.523
    1C        C  474   3.815   4.470   2.644
    1C        C  475   3.943   4.412   2.644
    1C        C  476   3.746   4.496   2.764
    1C        C  477   3.816   4.478   2.885
    1C        C  478   3.608   4.522   3.009
    1C        C  479   3.748   4.498   3.007
    1C        C  480   3.534   4.536   3.128
    1C        C  481   3.605   4.533   3.250
    1C        C  482   3.396   4.537   3.376
    1C        C  483   3.537   4.542   3.374
    1C        C  484   3.326   4.532   3.499
    1C        C  485   3.399   4.547   3.620
    1C        C  486   3.195   4.496   3.746
    1C        C  487   3.328   4.542   3.742
    1C        C  488   3.132   4.468   3.870
    1C        C  489   3.197   4.496   3.992
    1C        C  490   3.004   4.411   4.115
    1C        C  491   3.129   4.478   4.115
    1C        C  492   2.944   4.378   4.239
    1C        C  493   3.004   4.419   4.360
    1C        C  494   2.831   4.297   4.482
    1C        C  495   2.938   4.389   4.482
    1C        C  496   2.776   4.253   4.604
    1C        C  497   2.817   4.316   4.723
    1C        C  498   2.662   4.166   4.842
    1C        C  499   2.747   4.279   4.840
    1C        C  500   2.597   4.119   4.957
    1C        C  501   4.005   4.359   2.045
    1C        C  502   3.813   4.463   2.155
    1C        C  503   3.944   4.411   2.160
    1C        C  504   3.746   4.482   2.278
    1C        C  505   3.812   4.457   2.400
    1C        C  506   3.609   4.515   2.520
    1C        C  507   3.749   4.492   2.521
    1C        C  508   3.538   4.522   2.642
    1C        C  509   3.607   4.524   2.765
    1C        C  510   3.396   4.522   2.886
    1C        C  511   3.537   4.529   2.887
    1C        C  512   3.322   4.525   3.006
    1C        C  513   3.393   4.535   3.128
    1C        C  514   3.190   4.496   3.257
    1C        C  515   3.328   4.529   3.253
    1C        C  516   3.120   4.475   3.377
    1C        C  517   3.189   4.498   3.499
    1C        C  518   3.001   4.412   3.625
    1C        C  519   3.128   4.474   3.624
    1C        C  520   2.946   4.368   3.748
    1C        C  521   3.008   4.401   3.870
    1C        C  522   2.835   4.282   3.996
    1C        C  523   2.948   4.367   3.994
    1C        C  524   2.786   4.236   4.121
    1C        C  525   2.832   4.291   4.242
    1C        C  526   2.687   4.134   4.364
    1C        C  527   2.779   4.242   4.363
    1C        C  528   2.651   4.077   4.488
    1C        C  529   2.687   4.143   4.608
    1C        C  530   2.574   3.960   4.733
    1C        C  531   2.638   4.087   4.728
    1C        C  532   2.538   3.898   4.857
    1C        C  533   2.535   3.993   4.964
    1C        C  534   3.618   4.558   2.039
    1C        C  535   3.748   4.506   2.039
    1C        C  536   3.536   4.536   2.155
    1C        C  537   3.607   4.512   2.276
    1C        C  538   3.396   4.517   2.399
    1C        C  539   3.538   4.520   2.399
    1C        C  540   3.324   4.509   2.520
    1C        C  541   3.397   4.513   2.641
    1C        C  542   3.187   4.482   2.764
    1C        C  543   3.326   4.508   2.763
    1C        C  544   3.121   4.465   2.888
    1C        C  545   3.185   4.489   3.011
    1C        C  546   2.999   4.397   3.136
    1C        C  547   3.124   4.464   3.136
    1C        C  548   2.941   4.361   3.260
    1C        C  549   2.997   4.406   3.381
    1C        C  550   2.835   4.276   3.507
    1C        C  551   2.939   4.371   3.505
    1C        C  552   2.783   4.228   3.629
    1C        C  553   2.836   4.280   3.749
    1C        C  554   2.702   4.120   3.876
    1C        C  555   2.784   4.235   3.873
    1C        C  556   2.660   4.064   3.998
    1C        C  557   2.699   4.125   4.119
    1C        C  558   2.597   3.942   4.248
    1C        C  559   2.656   4.070   4.242
    1C        C  560   2.563   3.882   4.371
    1C        C  561   2.592   3.949   4.492
    1C        C  562   2.533   3.747   4.619
    1C        C  563   2.561   3.886   4.614
    1C        C  564   2.518   3.679   4.741
    1C        C  565   2.521   3.756   4.861
    1C        C  566   2.534   3.544   4.980
    1C        C  567   2.530   3.683   4.980
    1C        C  568   3.329   4.471   2.040
    1C        C  569   3.397   4.509   2.157
    1C        C  570   3.185   4.477   2.278
    1C        C  571   3.323   4.511   2.279
    1C        C  572   3.119   4.456   2.401
    1C        C  573   3.185   4.485   2.522
    1C        C  574   2.989   4.403   2.649
    1C        C  575   3.116   4.466   2.644
    1C        C  576   2.933   4.359   2.771
    1C        C  577   2.997   4.398   2.891
    1C        C  578   2.829   4.271   3.015
    1C        C  579   2.938   4.360   3.014
    1C        C  580   2.782   4.220   3.139
    1C        C  581   2.832   4.272   3.261
    1C        C  582   2.699   4.111   3.385
    1C        C  583   2.785   4.224   3.385
    1C        C  584   2.662   4.055   3.509
    1C        C  585   2.694   4.117   3.632
    1C        C  586   2.597   3.932   3.755
    1C        C  587   2.659   4.059   3.756
    1C        C  588   2.572   3.872   3.880
    1C        C  589   2.597   3.937   4.003
    1C        C  590   2.534   3.738   4.128
    1C        C  591   2.576   3.872   4.127
    1C        C  592   2.518   3.673   4.252
    1C        C  593   2.532   3.744   4.374
    1C        C  594   2.521   3.534   4.499
    1C        C  595   2.525   3.675   4.497
    1C        C  596   2.525   3.463   4.621
    1C        C  597   2.515   3.537   4.741
    1C        C  598   2.537   3.326   4.863
    1C        C  599   2.529   3.467   4.863
    1C        C  600   2.535   3.250   4.981
    1C        C  601   3.194   4.444   2.042
    1C        C  602   2.981   4.393   2.162
    1C        C  603   3.116   4.441   2.159
    1C        C  604   2.926   4.356   2.287
    1C        C  605   2.993   4.390   2.406
    1C        C  606   2.825   4.265   2.528
    1C        C  607   2.932   4.357   2.529
    1C        C  608   2.774   4.217   2.651
    1C        C  609   2.824   4.269   2.772
    1C        C  610   2.686   4.110   2.895
    1C        C  611   2.776   4.220   2.895
    1C        C  612   2.655   4.050   3.019
    1C        C  613   2.697   4.108   3.141
    1C        C  614   2.588   3.928   3.266
    1C        C  615   2.655   4.052   3.264
    1C        C  616   2.562   3.865   3.390
    1C        C  617   2.597   3.930   3.510
    1C        C  618   2.530   3.731   3.636
    1C        C  619   2.573   3.865   3.633
    1C        C  620   2.518   3.666   3.761
    1C        C  621   2.530   3.737   3.882
    1C        C  622   2.513   3.527   4.008
    1C        C  623   2.523   3.668   4.005
    1C        C  624   2.516   3.458   4.131
    1C        C  625   2.515   3.532   4.252
    1C        C  626   2.543   3.325   4.379
    1C        C  627   2.521   3.465   4.376
    1C        C  628   2.554   3.252   4.499
    1C        C  629   2.544   3.323   4.620
    1C        C  630   2.594   3.118   4.743
    1C        C  631   2.554   3.254   4.743
    1C        C  632   2.618   3.050   4.866
    1C        C  633   2.568   3.114   4.984
    1C        C  634   2.781   4.304   2.052
    1C        C  635   2.892   4.390   2.050
    1C        C  636   2.747   4.232   2.167
    1C        C  637   2.812   4.270   2.287
    1C        C  638   2.677   4.107   2.409
    1C        C  639   2.766   4.217   2.409
    1C        C  640   2.644   4.046   2.532
    1C        C  641   2.682   4.110   2.652
    1C        C  642   2.587   3.921   2.778
    1C        C  643   2.644   4.050   2.775
    1C        C  644   2.559   3.857   2.901
    1C        C  645   2.589   3.925   3.021
    1C        C  646   2.517   3.728   3.146
    1C        C  647   2.562   3.862   3.144
    1C        C  648   2.508   3.658   3.269
    1C        C  649   2.526   3.728   3.391
    1C        C  650   2.506   3.520   3.521
    1C        C  651   2.514   3.661   3.514
    1C        C  652   2.507   3.450   3.644
    1C        C  653   2.510   3.524   3.764
    1C        C  654   2.537   3.316   3.889
    1C        C  655   2.511   3.455   3.887
    1C        C  656   2.559   3.250   4.012
    1C        C  657   2.539   3.318   4.134
    1C        C  658   2.610   3.122   4.257
    1C        C  659   2.558   3.253   4.258
    1C        C  660   2.639   3.057   4.379
    1C        C  661   2.603   3.119   4.501
    1C        C  662   2.707   2.935   4.624
    1C        C  663   2.628   3.052   4.623
    1C        C  664   2.747   2.875   4.746
    1C        C  665   2.697   2.931   4.866
    1C        C  666   2.743   2.870   4.984
    1C        C  667   2.680   4.024   2.055
    1C        C  668   2.684   4.105   2.169
    1C        C  669   2.592   3.910   2.292
    1C        C  670   2.644   4.042   2.289
    1C        C  671   2.556   3.849   2.415
    1C        C  672   2.585   3.918   2.535
    1C        C  673   2.521   3.716   2.660
    1C        C  674   2.562   3.851   2.658
    1C        C  675   2.510   3.649   2.784
    1C        C  676   2.528   3.719   2.905
    1C        C  677   2.502   3.510   3.032
    1C        C  678   2.511   3.651   3.028
    1C        C  679   2.510   3.442   3.155
    1C        C  680   2.506   3.517   3.275
    1C        C  681   2.528   3.309   3.401
    1C        C  682   2.507   3.449   3.398
    1C        C  683   2.554   3.242   3.523
    1C        C  684   2.534   3.312   3.644
    1C        C  685   2.608   3.115   3.772
    1C        C  686   2.555   3.246   3.768
    1C        C  687   2.638   3.051   3.894
    1C        C  688   2.608   3.118   4.015
    1C        C  689   2.714   2.934   4.139
    1C        C  690   2.639   3.053   4.137
    1C        C  691   2.757   2.877   4.261
    1C        C  692   2.715   2.938   4.382
    1C        C  693   2.754   2.878   4.504
    1C        C  694   2.633   3.892   2.058
    1C        C  695   2.527   3.703   2.176
    1C        C  696   2.579   3.835   2.173
    1C        C  697   2.505   3.638   2.299
    1C        C  698   2.515   3.714   2.418
    1C        C  699   2.491   3.504   2.542
    1C        C  700   2.499   3.645   2.540
    1C        C  701   2.500   3.437   2.666
    1C        C  702   2.503   3.508   2.788
    1C        C  703   2.525   3.298   2.912
    1C        C  704   2.503   3.437   2.911
    1C        C  705   2.547   3.232   3.035
    1C        C  706   2.534   3.302   3.157
    1C        C  707   2.605   3.107   3.280
    1C        C  708   2.550   3.237   3.281
    1C        C  709   2.635   3.046   3.404
    1C        C  710   2.607   3.111   3.526
    1C        C  711   2.714   2.932   3.648
    1C        C  712   2.639   3.051   3.649
    1C        C  713   2.758   2.878   3.772
    1C        C  714   2.714   2.932   3.894
    1C        C  715   2.756   2.877   4.017
    1C        C  716   2.453   3.502   2.063
    1C        C  717   2.493   3.636   2.058
    1C        C  718   2.468   3.422   2.181
    1C        C  719   2.484   3.498   2.301
    1C        C  720   2.515   3.290   2.425
    1C        C  721   2.485   3.428   2.424
    1C        C  722   2.536   3.224   2.549
    1C        C  723   2.522   3.297   2.668
    1C        C  724   2.592   3.097   2.790
    1C        C  725   2.540   3.229   2.790
    1C        C  726   2.628   3.036   2.912
    1C        C  727   2.598   3.100   3.035
    1C        C  728   2.712   2.924   3.159
    1C        C  729   2.631   3.040   3.158
    1C        C  730   2.758   2.873   3.282
    1C        C  731   2.718   2.931   3.404
    1C        C  732   2.762   2.877   3.527
    1C        C  733   2.494   3.199   2.069
    1C        C  734   2.482   3.280   2.183
    1C        C  735   2.587   3.091   2.303
    1C        C  736   2.523   3.218   2.304
    1C        C  737   2.619   3.028   2.425
    1C        C  738   2.585   3.091   2.547
    1C        C  739   2.695   2.910   2.670
    1C        C  740   2.621   3.030   2.669
    1C        C  741   2.744   2.859   2.792
    1C        C  742   2.704   2.917   2.914
    1C        C  743   2.749   2.864   3.037
    1C        C  744   2.542   3.068   2.069
    1C        C  745   2.685   2.902   2.186
    1C        C  746   2.607   3.019   2.183
    1C        C  747   2.732   2.846   2.306
    1C        C  748   2.692   2.907   2.427
    1C        C  749   2.737   2.850   2.549
    1C        C  750   2.735   2.840   2.070
    1C        C  751   3.671   2.335   1.969
    1C        O  752   3.707   2.215   1.987
    1C        O  753   3.668   2.372   1.834
    1C        C  754   4.629   3.039   1.989
    1C        O  755   4.643   3.043   1.864
    1C        O  756   4.739   2.985   2.056
    1C        C  757   4.445   4.220   1.961
    1C        O  758   4.536   4.295   2.007
    1C        O  759   4.396   4.255   1.835
    1C        C  760   3.603   4.676   1.950
    1C        O  761   3.708   4.740   1.923
    1C        O  762   3.530   4.654   1.833
    1C        C  763   2.877   4.505   1.958
    1C        O  764   2.905   4.498   1.836
    1C        O  765   2.807   4.620   1.996
    1C        C  766   2.333   3.480   1.979
    1C        O  767   2.351   3.428   1.865
    1C        O  768   2.206   3.450   2.028
    1C        C  769   4.689   3.584   5.063
    1C        O  770   4.660   3.587   5.186
    1C        O  771   4.827   3.581   5.044
    1C        C  772   4.248   4.435   5.065
    1C        O  773   4.224   4.370   5.170
    1C        O  774   4.302   4.563   5.086
    1C        C  775   4.144   2.515   5.062
    1C        O  776   4.169   2.394   5.035
    1C        O  777   4.161   2.525   5.200
    1C        C  778   2.892   4.534   5.062
    1C        O  779   2.796   4.615   5.046
    1C        O  780   2.913   4.505   5.197
    1C        C  781   2.516   3.045   5.104
    1C        O  782   2.408   2.983   5.122
    1C        O  783   2.578   3.065   5.227
    1C        C  784   2.447   3.986   5.082
    1C        O  785   2.327   4.027   5.083
    1C        O  786   2.485   3.947   5.211
    1C        C  787   2.942   2.418   2.025
    1C        O  788   2.917   2.401   1.902
    1C        O  789   2.863   2.327   2.095
    1C        C  790   3.173   2.361   5.049
    1C        O  791   3.168   2.260   4.974
    1C        O  792   3.250   2.346   5.165
    1C        H  793   4.255   3.035   5.043
    1C        H  794   4.223   2.783   5.070
    1C        H  795   4.527   3.131   5.042
    1C        H  796   4.476   3.379   5.060
    1C        H  797   4.593   3.815   5.034
    1C        H  798   4.400   3.955   5.056
    1C        H  799   4.288   4.163   5.053
    1C        H  800   4.050   4.562   5.002
    1C        H  801   3.816   4.602   5.036
    1C        H  802   3.591   4.675   5.012
    1C        H  803   3.396   4.452   5.031
    1C        H  804   3.166   4.436   5.044
    1C        H  805   3.889   2.487   5.068
    1C        H  806   3.668   2.510   5.076
    1C        H  807   3.005   2.551   5.068
    1C        H  808   3.448   2.428   5.070
    1C        H  809   2.876   2.728   5.075
    1C        H  810   2.690   2.875   5.077
    1C        H  811   2.466   3.285   5.054
    1C        H  812   2.591   3.509   5.064
    1C        H  813   2.532   3.731   5.076
    1C        H  814   2.568   4.193   5.029
    1C        H  815   2.740   4.330   5.046
    1C        H  816   2.708   2.881   1.975
    1C        H  817   2.821   2.667   1.985
    1C        H  818   3.211   2.443   1.984
    1C        H  819   3.431   2.444   1.978
    1C        H  820   3.857   2.517   1.970
    1C        H  821   4.064   2.622   1.967
    1C        H  822   4.287   2.703   1.983
    1C        H  823   4.377   2.924   1.964
    1C        H  824   4.564   3.313   1.965
    1C        H  825   4.555   3.518   1.963
    1C        H  826   4.536   3.750   1.963
    1C        H  827   3.797   4.522   1.945
    1C        H  828   3.967   4.389   1.949
    1C        H  829   4.143   4.235   1.946
    1C        H  830   4.515   3.971   1.978
    1C        H  831   2.640   3.836   1.967
    1C        H  832   2.730   4.055   1.966
    1C        H  833   2.717   4.301   1.967
    1C        H  834   3.389   4.444   1.956
    1C        H  835   3.141   4.457   1.950
    1C        H  836   2.491   2.996   2.009
    1C        H  837   2.469   3.236   1.972
    1C        H  838   2.465   3.688   1.969
    2V3OU   H29  839   2.805   3.545   5.949
    2V3OU   C27  840   2.781   3.502   6.050
    2V3OU   H27  841   2.731   3.573   6.120
    2V3OU   H28  842   2.730   3.403   6.036
    2V3OU   O11  843   2.912   3.476   6.102
    2V3OU   C15  844   2.919   3.394   6.212
    2V3OU   C13  845   3.052   3.371   6.253
    2V3OU   C14  846   3.077   3.266   6.342
    2V3OU   C16  847   2.978   3.187   6.399
    2V3OU    H6  848   2.996   3.094   6.455
    2V3OU   C12  849   3.218   3.232   6.370
    2V3OU    O2  850   3.243   3.124   6.428
    2V3OU   C10  851   3.324   3.303   6.296
    2V3OU    C8  852   3.456   3.269   6.325
    2V3OU   O10  853   3.489   3.153   6.387
    2V3OU   H26  854   3.403   3.113   6.410
    2V3OU    C6  855   3.564   3.349   6.277
    2V3OU    C5  856   3.537   3.462   6.200
    2V3OU    C4  857   3.702   3.293   6.283
    2V3OU    H4  858   3.722   3.224   6.370
    2V3OU    H5  859   3.708   3.226   6.192
    2V3OU    C2  860   3.817   3.394   6.277
    2V3OU    O6  861   3.807   3.471   6.397
    2V3OU   H21  862   3.764   3.551   6.362
    2V3OU    C3  863   3.784   3.493   6.165
    2V3OU    H2  864   3.863   3.572   6.160
    2V3OU    H3  865   3.776   3.440   6.067
    2V3OU   C25  866   3.954   3.329   6.256
    2V3OU    O7  867   3.999   3.302   6.145
    2V3OU   C26  868   4.032   3.291   6.381
    2V3OU   H22  869   4.060   3.385   6.435
    2V3OU   H23  870   4.116   3.222   6.355
    2V3OU    O8  871   3.958   3.208   6.468
    2V3OU   H24  872   3.927   3.263   6.541
    2V3OU    C1  873   3.650   3.561   6.187
    2V3OU    H1  874   3.623   3.614   6.091
    2V3OU    O3  875   3.657   3.654   6.295
    2V3OU   C19  876   3.619   3.790   6.273
    2V3OU    H9  877   3.518   3.791   6.222
    2V3OU    O4  878   3.716   3.845   6.187
    2V3OU   C20  879   3.844   3.876   6.243
    2V3OU   H10  880   3.888   3.773   6.253
    2V3OU   C24  881   3.609   3.856   6.411
    2V3OU   H16  882   3.538   3.795   6.472
    2V3OU   H17  883   3.567   3.959   6.398
    2V3OU   C23  884   3.748   3.877   6.472
    2V3OU   H15  885   3.789   3.772   6.489
    2V3OU    N1  886   3.738   3.961   6.590
    2V3OU   H19  887   3.808   3.929   6.654
    2V3OU   H20  888   3.644   3.937   6.616
    2V3OU   C21  889   3.851   3.947   6.378
    2V3OU   H11  890   3.954   3.932   6.422
    2V3OU    O5  891   3.825   4.087   6.374
    2V3OU   H18  892   3.773   4.098   6.456
    2V3OU   C22  893   3.911   3.948   6.127
    2V3OU   H12  894   3.857   4.045   6.110
    2V3OU   H13  895   3.904   3.886   6.034
    2V3OU   H14  896   4.022   3.957   6.145
    2V3OU   C11  897   3.156   3.470   6.222
    2V3OU    O1  898   3.130   3.587   6.188
    2V3OU    C9  899   3.296   3.421   6.223
    2V3OU    C7  900   3.401   3.500   6.177
    2V3OU    O9  901   3.381   3.620   6.114
    2V3OU   H25  902   3.285   3.630   6.100
    2V3OU   C17  903   2.819   3.313   6.269
    2V3OU    H7  904   2.714   3.342   6.260
    2V3OU   C18  905   2.847   3.210   6.359
    2V3OU    H8  906   2.760   3.155   6.398
    3SOL     OW  907   2.943   3.308   4.061
    3SOL    HW1  908   2.927   3.398   4.021
    3SOL    HW2  909   2.967   3.319   4.158
    4SOL     OW  910   6.782   6.142   0.929
    4SOL    HW1  911   6.757   6.213   0.996
    4SOL    HW2  912   6.719   6.146   0.852
    5SOL     OW  913   3.965   2.673   0.504
    5SOL    HW1  914   3.938   2.632   0.591
    5SOL    HW2  915   4.065   2.674   0.497
    6SOL     OW  916   4.208   1.478   1.859
    6SOL    HW1  917   4.305   1.503   1.849
    6SOL    HW2  918   4.155   1.526   1.790
    7SOL     OW  919   2.293   2.916   4.738
    7SOL    HW1  920   2.296   2.862   4.822
    7SOL    HW2  921   2.342   3.003   4.753
    8SOL     OW  922   1.223   2.448   5.676
    8SOL    HW1  923   1.168   2.526   5.647
    8SOL    HW2  924   1.162   2.374   5.705
    9SOL     OW  925   1.562   2.224   5.833
    9SOL    HW1  926   1.637   2.287   5.812
    9SOL    HW2  927   1.517   2.253   5.918
   10SOL     OW  928   5.625   5.214   1.369
   10SOL    HW1  929   5.554   5.228   1.438
   10SOL    HW2  930   5.658   5.119   1.373
   11SOL     OW  931   3.026   2.296   0.637
   11SOL    HW1  932   2.945   2.238   0.631
   11SOL    HW2  933   3.013   2.377   0.581
   12SOL     OW  934   5.076   5.053   1.969
   12SOL    HW1  935   4.981   5.023   1.981
   12SOL    HW2  936   5.129   5.027   2.050
   13SOL     OW  937   5.080   6.326   1.984
   13SOL    HW1  938   5.091   6.418   1.946
   13SOL    HW2  939   5.052   6.263   1.911
   14SOL     OW  940   4.482   6.564   0.243
   14SOL    HW1  941   4.571   6.609   0.232
   14SOL    HW2  942   4.494   6.476   0.288
   15SOL     OW  943   0.556   5.472   6.449
   15SOL    HW1  944   0.516   5.404   6.510
   15SOL    HW2  945   0.626   5.429   6.391
   16SOL     OW  946   2.071   5.938   4.623
   16SOL    HW1  947   2.101   5.972   4.533
   16SOL    HW2  948   2.052   5.840   4.617
   17SOL     OW  949   6.948   1.219   4.643
   17SOL    HW1  950   6.896   1.297   4.609
   17SOL    HW2  951   6.986   1.242   4.733
   18SOL     OW  952   3.009   0.739   5.608
   18SOL    HW1  953   2.987   0.792   5.526
   18SOL    HW2  954   3.057   0.655   5.580
   19SOL     OW  955   3.104   6.105   2.530
   19SOL    HW1  956   3.030   6.042   2.504
   19SOL    HW2  957   3.190   6.055   2.535
   20SOL     OW  958   6.916   1.793   5.948
   20SOL    HW1  959   6.979   1.795   6.026
   20SOL    HW2  960   6.929   1.875   5.893
   21SOL     OW  961   2.176   4.005   2.518
   21SOL    HW1  962   2.243   4.064   2.474
   21SOL    HW2  963   2.181   4.016   2.617
   22SOL     OW  964   0.931   1.077   0.125
   22SOL    HW1  965   1.013   1.129   0.149
   22SOL    HW2  966   0.855   1.139   0.108
   23SOL     OW  967   6.856   5.157   0.814
   23SOL    HW1  968   6.781   5.132   0.875
   23SOL    HW2  969   6.908   5.075   0.789
   24SOL     OW  970   5.130   1.311   0.184
   24SOL    HW1  971   5.118   1.241   0.255
   24SOL    HW2  972   5.107   1.273   0.095
   25SOL     OW  973   1.692   1.028   4.454
   25SOL    HW1  974   1.604   1.060   4.489
   25SOL    HW2  975   1.683   1.005   4.357
   26SOL     OW  976   1.784   0.809   6.242
   26SOL    HW1  977   1.880   0.828   6.262
   26SOL    HW2  978   1.730   0.892   6.259
   27SOL     OW  979   7.010   0.202   2.671
   27SOL    HW1  980   0.081   0.200   2.704
   27SOL    HW2  981   6.952   0.146   2.731
   28SOL     OW  982   1.167   0.721   5.760
   28SOL    HW1  983   1.144   0.781   5.837
   28SOL    HW2  984   1.247   0.665   5.785
   29SOL     OW  985   5.619   0.889   1.431
   29SOL    HW1  986   5.596   0.794   1.415
   29SOL    HW2  987   5.597   0.943   1.350
   30SOL     OW  988   4.773   0.342   5.138
   30SOL    HW1  989   4.709   0.299   5.202
   30SOL    HW2  990   4.754   0.440   5.134
   31SOL     OW  991   6.616   4.617   4.131
   31SOL    HW1  992   6.665   4.630   4.217
   31SOL    HW2  993   6.526   4.660   4.138
   32SOL     OW  994   2.457   0.924   1.098
   32SOL    HW1  995   2.481   0.919   1.195
   32SOL    HW2  996   2.539   0.939   1.044
   33SOL     OW  997   2.440   4.891   5.670
   33SOL    HW1  998   2.462   4.825   5.599
   33SOL    HW2  999   2.434   4.982   5.630
   34SOL     OW 1000   2.017   5.971   5.498
   34SOL    HW1 1001   2.024   6.056   5.445
   34SOL    HW2 1002   2.029   5.893   5.437
   35SOL     OW 1003   1.563   3.546   5.296
   35SOL    HW1 1004   1.574   3.467   5.356
   35SOL    HW2 1005   1.543   3.627   5.350
   36SOL     OW 1006   6.065   1.262   3.737
   36SOL    HW1 1007   6.080   1.301   3.828
   36SOL    HW2 1008   6.119   1.312   3.670
   37SOL     OW 1009   2.091   6.610   4.384
   37SOL    HW1 1010   2.030   6.667   4.328
   37SOL    HW2 1011   2.160   6.668   4.427
   38SOL     OW 1012   1.100   4.136   2.113
   38SOL    HW1 1013   1.194   4.155   2.084
   38SOL    HW2 1014   1.101   4.098   2.206
   39SOL     OW 1015   6.692   4.994   1.214
   39SOL    HW1 1016   6.705   4.907   1.261
   39SOL    HW2 1017   6.670   5.065   1.281
   40SOL     OW 1018   3.712   0.679   6.587
   40SOL    HW1 1019   3.737   0.609   6.519
   40SOL    HW2 1020   3.616   0.666   6.614
   41SOL     OW 1021   5.000   3.548   1.576
   41SOL    HW1 1022   4.933   3.513   1.641
   41SOL    HW2 1023   4.970   3.636   1.540
   42SOL     OW 1024   2.829   3.482   6.622
   42SOL    HW1 1025   2.740   3.498   6.665
   42SOL    HW2 1026   2.833   3.529   6.534
   43SOL     OW 1027   5.112   0.100   4.885
   43SOL    HW1 1028   5.027   0.141   4.851
   43SOL    HW2 1029   5.190   0.146   4.843
   44SOL     OW 1030   6.065   1.196   5.963
   44SOL    HW1 1031   6.038   1.115   6.015
   44SOL    HW2 1032   5.999   1.213   5.890
   45SOL     OW 1033   2.877   4.058   5.771
   45SOL    HW1 1034   2.828   4.036   5.855
   45SOL    HW2 1035   2.831   4.132   5.723
   46SOL     OW 1036   1.105   4.528   5.043
   46SOL    HW1 1037   1.167   4.606   5.033
   46SOL    HW2 1038   1.060   4.508   4.956
   47SOL     OW 1039   6.157   3.894   0.074
   47SOL    HW1 1040   6.233   3.886   0.139
   47SOL    HW2 1041   6.179   3.962   0.005
   48SOL     OW 1042   0.137   4.404   0.743
   48SOL    HW1 1043   0.038   4.420   0.742
   48SOL    HW2 1044   0.171   4.414   0.837
   49SOL     OW 1045   3.053   2.413   6.712
   49SOL    HW1 1046   3.119   2.487   6.724
   49SOL    HW2 1047   2.967   2.451   6.676
   50SOL     OW 1048   5.261   2.107   0.068
   50SOL    HW1 1049   5.204   2.025   0.068
   50SOL    HW2 1050   5.286   2.131   0.162
   51SOL     OW 1051   0.885   6.206   2.045
   51SOL    HW1 1052   0.823   6.164   1.979
   51SOL    HW2 1053   0.974   6.160   2.042
   52SOL     OW 1054   5.599   2.098   2.288
   52SOL    HW1 1055   5.595   2.030   2.361
   52SOL    HW2 1056   5.666   2.168   2.311
   53SOL     OW 1057   4.489   0.607   0.620
   53SOL    HW1 1058   4.554   0.679   0.596
   53SOL    HW2 1059   4.396   0.639   0.603
   54SOL     OW 1060   6.238   0.204   6.788
   54SOL    HW1 1061   6.231   0.151   6.873
   54SOL    HW2 1062   6.175   0.166   6.720
   55SOL     OW 1063   1.529   4.070   5.970
   55SOL    HW1 1064   1.576   4.018   6.041
   55SOL    HW2 1065   1.595   4.123   5.918
   56SOL     OW 1066   0.483   2.263   6.644
   56SOL    HW1 1067   0.549   2.234   6.576
   56SOL    HW2 1068   0.530   2.289   6.728
   57SOL     OW 1069   3.910   5.869   1.282
   57SOL    HW1 1070   3.979   5.860   1.210
   57SOL    HW2 1071   3.842   5.938   1.255
   58SOL     OW 1072   1.141   0.285   6.671
   58SOL    HW1 1073   1.112   0.201   6.626
   58SOL    HW2 1074   1.089   0.298   6.755
   59SOL     OW 1075   4.213   3.030   6.594
   59SOL    HW1 1076   4.242   3.097   6.662
   59SOL    HW2 1077   4.113   3.026   6.593
   60SOL     OW 1078   6.752   3.412   2.735
   60SOL    HW1 1079   6.795   3.458   2.657
   60SOL    HW2 1080   6.792   3.446   2.820
   61SOL     OW 1081   1.396   5.844   3.118
   61SOL    HW1 1082   1.317   5.905   3.113
   61SOL    HW2 1083   1.385   5.770   3.052
   62SOL     OW 1084   5.629   2.527   3.500
   62SOL    HW1 1085   5.674   2.552   3.585
   62SOL    HW2 1086   5.644   2.599   3.432
   63SOL     OW 1087   3.875   6.847   5.881
   63SOL    HW1 1088   3.915   6.815   5.968
   63SOL    HW2 1089   3.924   6.928   5.850
   64SOL     OW 1090   1.502   2.324   6.098
   64SOL    HW1 1091   1.447   2.387   6.153
   64SOL    HW2 1092   1.492   2.231   6.134
   65SOL     OW 1093   1.430   5.027   4.894
   65SOL    HW1 1094   1.512   5.029   4.837
   65SOL    HW2 1095   1.353   5.067   4.844
   66SOL     OW 1096   4.684   0.879   1.422
   66SOL    HW1 1097   4.716   0.847   1.511
   66SOL    HW2 1098   4.638   0.967   1.432
   67SOL     OW 1099   0.280   3.542   1.200
   67SOL    HW1 1100   0.275   3.493   1.114
   67SOL    HW2 1101   0.236   3.488   1.272
   68SOL     OW 1102   0.692   0.847   6.342
   68SOL    HW1 1103   0.656   0.814   6.254
   68SOL    HW2 1104   0.792   0.847   6.339
   69SOL     OW 1105   1.429   6.563   6.930
   69SOL    HW1 1106   1.487   6.579   7.009
   69SOL    HW2 1107   1.470   6.492   6.873
   70SOL     OW 1108   4.838   4.669   3.338
   70SOL    HW1 1109   4.795   4.708   3.257
   70SOL    HW2 1110   4.923   4.624   3.313
   71SOL     OW 1111   5.015   1.386   5.370
   71SOL    HW1 1112   4.959   1.381   5.287
   71SOL    HW2 1113   4.961   1.354   5.448
   72SOL     OW 1114   0.292   0.872   2.006
   72SOL    HW1 1115   0.223   0.942   2.022
   72SOL    HW2 1116   0.261   0.810   1.934
   73SOL     OW 1117   2.362   0.800   0.875
   73SOL    HW1 1118   2.414   0.715   0.882
   73SOL    HW2 1119   2.369   0.852   0.960
   74SOL     OW 1120   2.568   1.416   0.128
   74SOL    HW1 1121   2.622   1.448   0.051
   74SOL    HW2 1122   2.602   1.327   0.159
   75SOL     OW 1123   2.362   2.316   0.697
   75SOL    HW1 1124   2.352   2.403   0.648
   75SOL    HW2 1125   2.271   2.280   0.719
   76SOL     OW 1126   3.988   5.084   5.779
   76SOL    HW1 1127   4.031   5.174   5.789
   76SOL    HW2 1128   3.894   5.088   5.812
   77SOL     OW 1129   0.314   5.299   4.511
   77SOL    HW1 1130   0.366   5.345   4.583
   77SOL    HW2 1131   0.254   5.364   4.466
   78SOL     OW 1132   5.743   1.606   1.538
   78SOL    HW1 1133   5.727   1.508   1.553
   78SOL    HW2 1134   5.833   1.619   1.497
   79SOL     OW 1135   1.449   4.148   4.447
   79SOL    HW1 1136   1.357   4.157   4.484
   79SOL    HW2 1137   1.444   4.107   4.355
   80SOL     OW 1138   3.525   2.126   5.072
   80SOL    HW1 1139   3.440   2.126   5.019
   80SOL    HW2 1140   3.603   2.132   5.011
   81SOL     OW 1141   3.368   5.202   2.276
   81SOL    HW1 1142   3.321   5.251   2.349
   81SOL    HW2 1143   3.320   5.116   2.258
   82SOL     OW 1144   3.204   0.419   2.212
   82SOL    HW1 1145   3.254   0.506   2.213
   82SOL    HW2 1146   3.157   0.407   2.299
   83SOL     OW 1147   5.597   0.753   4.678
   83SOL    HW1 1148   5.631   0.812   4.751
   83SOL    HW2 1149   5.577   0.662   4.715
   84SOL     OW 1150   5.988   2.577   2.977
   84SOL    HW1 1151   5.959   2.574   2.881
   84SOL    HW2 1152   5.919   2.625   3.031
   85SOL     OW 1153   2.228   5.934   3.502
   85SOL    HW1 1154   2.221   5.972   3.595
   85SOL    HW2 1155   2.321   5.902   3.486
   86SOL     OW 1156   4.750   0.566   0.493
   86SOL    HW1 1157   4.651   0.562   0.495
   86SOL    HW2 1158   4.781   0.593   0.402
   87SOL     OW 1159   3.029   3.090   6.744
   87SOL    HW1 1160   3.034   3.030   6.824
   87SOL    HW2 1161   3.052   3.038   6.662
   88SOL     OW 1162   1.861   2.702   1.441
   88SOL    HW1 1163   1.957   2.677   1.455
   88SOL    HW2 1164   1.855   2.802   1.429
   89SOL     OW 1165   3.168   3.757   5.202
   89SOL    HW1 1166   3.240   3.808   5.155
   89SOL    HW2 1167   3.205   3.717   5.286
   90SOL     OW 1168   6.648   4.706   2.028
   90SOL    HW1 1169   6.607   4.648   2.098
   90SOL    HW2 1170   6.668   4.651   1.947
   91SOL     OW 1171   4.451   6.197   0.927
   91SOL    HW1 1172   4.490   6.279   0.968
   91SOL    HW2 1173   4.454   6.205   0.827
   92SOL     OW 1174   5.904   5.260   0.108
   92SOL    HW1 1175   5.842   5.238   0.033
   92SOL    HW2 1176   5.880   5.206   0.188
   93SOL     OW 1177   2.872   3.820   1.710
   93SOL    HW1 1178   2.900   3.876   1.788
   93SOL    HW2 1179   2.913   3.729   1.719
   94SOL     OW 1180   2.941   1.577   4.128
   94SOL    HW1 1181   3.017   1.632   4.164
   94SOL    HW2 1182   2.941   1.487   4.172
   95SOL     OW 1183   0.683   7.000   3.719
   95SOL    HW1 1184   0.674   0.039   3.640
   95SOL    HW2 1185   0.772   6.955   3.716
   96SOL     OW 1186   0.354   5.690   6.557
   96SOL    HW1 1187   0.424   5.736   6.501
   96SOL    HW2 1188   0.356   5.592   6.538
   97SOL     OW 1189   3.565   4.440   5.292
   97SOL    HW1 1190   3.515   4.354   5.284
   97SOL    HW2 1191   3.501   4.516   5.278
   98SOL     OW 1192   0.328   2.988   4.764
   98SOL    HW1 1193   0.350   2.894   4.738
   98SOL    HW2 1194   0.364   3.051   4.695
   99SOL     OW 1195   4.216   4.744   5.358
   99SOL    HW1 1196   4.261   4.681   5.421
   99SOL    HW2 1197   4.130   4.703   5.326
  100SOL     OW 1198   1.609   0.429   5.272
  100SOL    HW1 1199   1.612   0.396   5.177
  100SOL    HW2 1200   1.514   0.434   5.303
  101SOL     OW 1201   5.309   3.429   2.376
  101SOL    HW1 1202   5.389   3.440   2.436
  101SOL    HW2 1203   5.327   3.356   2.310
  102SOL     OW 1204   3.794   0.309   6.694
  102SOL    HW1 1205   3.790   0.338   6.790
  102SOL    HW2 1206   3.873   0.352   6.650
  103SOL     OW 1207   1.082   1.531   1.666
  103SOL    HW1 1208   1.132   1.444   1.659
  103SOL    HW2 1209   0.984   1.513   1.661
  104SOL     OW 1210   6.577   4.726   1.595
  104SOL    HW1 1211   6.631   4.739   1.678
  104SOL    HW2 1212   6.502   4.792   1.593
  105SOL     OW 1213   0.036   0.583   5.084
  105SOL    HW1 1214   6.988   0.647   5.054
  105SOL    HW2 1215   0.013   0.491   5.054
  106SOL     OW 1216   4.429   2.933   1.723
  106SOL    HW1 1217   4.382   2.994   1.660
  106SOL    HW2 1218   4.501   2.983   1.771
  107SOL     OW 1219   4.826   6.924   2.057
  107SOL    HW1 1220   4.739   6.973   2.064
  107SOL    HW2 1221   4.862   6.908   2.149
  108SOL     OW 1222   3.590   1.845   4.701
  108SOL    HW1 1223   3.548   1.935   4.696
  108SOL    HW2 1224   3.585   1.800   4.612
  109SOL     OW 1225   2.049   0.983   5.426
  109SOL    HW1 1226   1.961   1.005   5.467
  109SOL    HW2 1227   2.083   0.897   5.464
  110SOL     OW 1228   4.119   4.492   5.573
  110SOL    HW1 1229   4.088   4.487   5.478
  110SOL    HW2 1230   4.113   4.402   5.615
  111SOL     OW 1231   6.328   3.503   2.030
  111SOL    HW1 1232   6.426   3.513   2.045
  111SOL    HW2 1233   6.290   3.591   2.000
  112SOL     OW 1234   4.692   7.004   4.817
  112SOL    HW1 1235   4.626   7.005   4.742
  112SOL    HW2 1236   4.648   6.970   4.900
  113SOL     OW 1237   0.724   5.014   2.450
  113SOL    HW1 1238   0.695   4.941   2.387
  113SOL    HW2 1239   0.787   4.976   2.518
  114SOL     OW 1240   6.857   2.154   1.871
  114SOL    HW1 1241   6.888   2.095   1.797
  114SOL    HW2 1242   6.784   2.109   1.922
  115SOL     OW 1243   4.245   1.169   2.811
  115SOL    HW1 1244   4.316   1.220   2.858
  115SOL    HW2 1245   4.205   1.226   2.739
  116SOL     OW 1246   6.650   5.332   1.141
  116SOL    HW1 1247   6.739   5.345   1.098
  116SOL    HW2 1248   6.662   5.297   1.234
  117SOL     OW 1249   2.975   1.822   0.477
  117SOL    HW1 1250   3.074   1.837   0.472
  117SOL    HW2 1251   2.939   1.872   0.556
  118SOL     OW 1252   6.998   2.379   2.180
  118SOL    HW1 1253   6.904   2.350   2.201
  118SOL    HW2 1254   0.011   2.433   2.256
  119SOL     OW 1255   6.254   6.413   4.757
  119SOL    HW1 1256   6.255   6.321   4.795
  119SOL    HW2 1257   6.251   6.408   4.657
  120SOL     OW 1258   4.496   1.880   4.487
  120SOL    HW1 1259   4.497   1.783   4.513
  120SOL    HW2 1260   4.402   1.913   4.483
  121SOL     OW 1261   0.364   5.649   6.194
  121SOL    HW1 1262   0.402   5.700   6.272
  121SOL    HW2 1263   0.354   5.553   6.219
  122SOL     OW 1264   6.548   4.941   5.992
  122SOL    HW1 1265   6.623   4.977   6.048
  122SOL    HW2 1266   6.461   4.957   6.038
  123SOL     OW 1267   0.546   2.845   1.309
  123SOL    HW1 1268   0.506   2.889   1.228
  123SOL    HW2 1269   0.645   2.853   1.306
  124SOL     OW 1270   1.770   3.502   6.886
  124SOL    HW1 1271   1.836   3.556   6.938
  124SOL    HW2 1272   1.802   3.491   6.792
  125SOL     OW 1273   4.483   2.378   0.423
  125SOL    HW1 1274   4.420   2.343   0.492
  125SOL    HW2 1275   4.495   2.310   0.351
  126SOL     OW 1276   3.449   3.602   4.892
  126SOL    HW1 1277   3.479   3.661   4.966
  126SOL    HW2 1278   3.368   3.551   4.921
  127SOL     OW 1279   0.435   5.133   6.161
  127SOL    HW1 1280   0.430   5.210   6.098
  127SOL    HW2 1281   0.348   5.083   6.160
  128SOL     OW 1282   4.414   3.809   6.181
  128SOL    HW1 1283   4.362   3.852   6.255
  128SOL    HW2 1284   4.350   3.769   6.115
  129SOL     OW 1285   0.661   4.760   1.493
  129SOL    HW1 1286   0.582   4.805   1.451
  129SOL    HW2 1287   0.738   4.823   1.494
  130SOL     OW 1288   6.019   3.737   4.997
  130SOL    HW1 1289   5.993   3.673   5.069
  130SOL    HW2 1290   5.952   3.733   4.923
  131SOL     OW 1291   0.878   3.760   3.363
  131SOL    HW1 1292   0.974   3.732   3.363
  131SOL    HW2 1293   0.834   3.725   3.280
  132SOL     OW 1294   4.576   2.799   1.505
  132SOL    HW1 1295   4.541   2.827   1.595
  132SOL    HW2 1296   4.632   2.717   1.516
  133SOL     OW 1297   4.496   4.616   6.225
  133SOL    HW1 1298   4.444   4.631   6.140
  133SOL    HW2 1299   4.512   4.518   6.238
  134SOL     OW 1300   6.574   1.835   0.812
  134SOL    HW1 1301   6.614   1.744   0.803
  134SOL    HW2 1302   6.487   1.829   0.860
  135SOL     OW 1303   4.173   4.801   4.068
  135SOL    HW1 1304   4.131   4.788   3.979
  135SOL    HW2 1305   4.106   4.784   4.140
  136SOL     OW 1306   4.052   6.711   6.065
  136SOL    HW1 1307   4.072   6.795   6.116
  136SOL    HW2 1308   4.083   6.632   6.119
  137SOL     OW 1309   2.117   4.294   6.839
  137SOL    HW1 1310   2.056   4.216   6.853
  137SOL    HW2 1311   2.181   4.273   6.765
  138SOL     OW 1312   1.174   5.717   6.953
  138SOL    HW1 1313   1.268   5.689   6.935
  138SOL    HW2 1314   1.166   5.816   6.945
  139SOL     OW 1315   0.063   0.955   0.873
  139SOL    HW1 1316   7.015   1.015   0.912
  139SOL    HW2 1317   0.020   0.875   0.832
  140SOL     OW 1318   3.905   0.356   1.636
  140SOL    HW1 1319   3.876   0.416   1.711
  140SOL    HW2 1320   3.911   0.262   1.670
  141SOL     OW 1321   0.956   1.357   6.767
  141SOL    HW1 1322   0.877   1.297   6.754
  141SOL    HW2 1323   1.026   1.309   6.820
  142SOL     OW 1324   1.833   3.902   7.022
  142SOL    HW1 1325   1.864   3.818   0.045
  142SOL    HW2 1326   1.737   3.893   6.997
  143SOL     OW 1327   5.011   5.404   1.669
  143SOL    HW1 1328   5.052   5.411   1.578
  143SOL    HW2 1329   5.076   5.438   1.738
  144SOL     OW 1330   3.136   5.372   2.849
  144SOL    HW1 1331   3.171   5.351   2.940
  144SOL    HW2 1332   3.090   5.461   2.851
  145SOL     OW 1333   0.372   5.633   3.484
  145SOL    HW1 1334   0.388   5.598   3.576
  145SOL    HW2 1335   0.458   5.661   3.443
  146SOL     OW 1336   6.852   0.756   5.805
  146SOL    HW1 1337   6.805   0.725   5.722
  146SOL    HW2 1338   6.845   0.685   5.875
  147SOL     OW 1339   6.043   1.177   5.255
  147SOL    HW1 1340   5.954   1.180   5.210
  147SOL    HW2 1341   6.075   1.082   5.260
  148SOL     OW 1342   1.843   6.601   1.143
  148SOL    HW1 1343   1.796   6.686   1.117
  148SOL    HW2 1344   1.781   6.524   1.130
  149SOL     OW 1345   1.561   3.248   4.811
  149SOL    HW1 1346   1.605   3.180   4.752
  149SOL    HW2 1347   1.484   3.289   4.763
  150SOL     OW 1348   4.714   2.494   5.667
  150SOL    HW1 1349   4.762   2.434   5.731
  150SOL    HW2 1350   4.696   2.444   5.582
  151SOL     OW 1351   5.992   2.673   0.948
  151SOL    HW1 1352   5.944   2.703   0.865
  151SOL    HW2 1353   6.046   2.749   0.984
  152SOL     OW 1354   0.397   2.673   0.961
  152SOL    HW1 1355   0.340   2.734   1.016
  152SOL    HW2 1356   0.340   2.626   0.894
  153SOL     OW 1357   1.592   2.104   3.583
  153SOL    HW1 1358   1.689   2.090   3.564
  153SOL    HW2 1359   1.539   2.085   3.500
  154SOL     OW 1360   0.147   1.444   3.881
  154SOL    HW1 1361   0.063   1.469   3.930
  154SOL    HW2 1362   0.125   1.428   3.784
  155SOL     OW 1363   5.520   4.719   3.595
  155SOL    HW1 1364   5.472   4.684   3.675
  155SOL    HW2 1365   5.540   4.644   3.532
  156SOL     OW 1366   4.818   0.862   1.650
  156SOL    HW1 1367   4.900   0.840   1.597
  156SOL    HW2 1368   4.812   0.961   1.665
  157SOL     OW 1369   5.126   0.233   1.257
  157SOL    HW1 1370   5.082   0.303   1.202
  157SOL    HW2 1371   5.077   0.222   1.343
  158SOL     OW 1372   0.929   3.198   4.024
  158SOL    HW1 1373   1.013   3.200   3.969
  158SOL    HW2 1374   0.858   3.250   3.978
  159SOL     OW 1375   6.375   5.345   0.078
  159SOL    HW1 1376   6.331   5.433   0.098
  159SOL    HW2 1377   6.419   5.310   0.161
  160SOL     OW 1378   4.054   0.693   0.786
  160SOL    HW1 1379   3.997   0.670   0.865
  160SOL    HW2 1380   4.107   0.776   0.806
  161SOL     OW 1381   0.193   6.404   0.367
  161SOL    HW1 1382   0.282   6.384   0.326
  161SOL    HW2 1383   0.133   6.443   0.297
  162SOL     OW 1384   4.371   0.154   5.600
  162SOL    HW1 1385   4.393   0.158   5.503
  162SOL    HW2 1386   4.415   0.074   5.641
  163SOL     OW 1387   0.903   3.705   2.693
  163SOL    HW1 1388   0.915   3.803   2.708
  163SOL    HW2 1389   0.812   3.688   2.655
  164SOL     OW 1390   1.590   1.827   2.496
  164SOL    HW1 1391   1.540   1.907   2.463
  164SOL    HW2 1392   1.554   1.744   2.453
  165SOL     OW 1393   0.218   6.585   3.989
  165SOL    HW1 1394   0.168   6.672   3.997
  165SOL    HW2 1395   0.291   6.595   3.922
  166SOL     OW 1396   0.442   4.470   3.935
  166SOL    HW1 1397   0.470   4.436   3.846
  166SOL    HW2 1398   0.520   4.466   3.998
  167SOL     OW 1399   1.113   1.326   3.372
  167SOL    HW1 1400   1.160   1.344   3.458
  167SOL    HW2 1401   1.015   1.344   3.383
  168SOL     OW 1402   3.135   3.758   2.926
  168SOL    HW1 1403   3.047   3.711   2.940
  168SOL    HW2 1404   3.120   3.857   2.927
  169SOL     OW 1405   5.205   2.362   6.872
  169SOL    HW1 1406   5.191   2.316   6.959
  169SOL    HW2 1407   5.303   2.369   6.852
  170SOL     OW 1408   7.023   5.756   1.655
  170SOL    HW1 1409   6.980   5.720   1.572
  170SOL    HW2 1410   0.099   5.746   1.648
  171SOL     OW 1411   2.964   2.561   0.831
  171SOL    HW1 1412   2.964   2.557   0.731
  171SOL    HW2 1413   2.885   2.613   0.862
  172SOL     OW 1414   1.481   1.021   0.147
  172SOL    HW1 1415   1.539   1.095   0.114
  172SOL    HW2 1416   1.537   0.939   0.162
  173SOL     OW 1417   6.058   1.203   4.637
  173SOL    HW1 1418   6.088   1.274   4.572
  173SOL    HW2 1419   5.971   1.230   4.678
  174SOL     OW 1420   5.960   4.337   5.200
  174SOL    HW1 1421   6.053   4.345   5.163
  174SOL    HW2 1422   5.962   4.278   5.281
  175SOL     OW 1423   0.432   6.585   2.862
  175SOL    HW1 1424   0.422   6.664   2.802
  175SOL    HW2 1425   0.455   6.616   2.954
  176SOL     OW 1426   7.013   3.681   0.959
  176SOL    HW1 1427   0.048   3.754   0.997
  176SOL    HW2 1428   0.047   3.620   0.904
  177SOL     OW 1429   6.383   2.085   3.781
  177SOL    HW1 1430   6.355   2.036   3.864
  177SOL    HW2 1431   6.390   2.020   3.705
  178SOL     OW 1432   2.222   5.966   4.841
  178SOL    HW1 1433   2.304   6.020   4.823
  178SOL    HW2 1434   2.167   5.958   4.758
  179SOL     OW 1435   3.628   4.167   1.867
  179SOL    HW1 1436   3.662   4.150   1.959
  179SOL    HW2 1437   3.597   4.262   1.860
  180SOL     OW 1438   4.605   1.941   6.603
  180SOL    HW1 1439   4.515   1.921   6.641
  180SOL    HW2 1440   4.605   2.033   6.564
  181SOL     OW 1441   3.678   0.422   5.410
  181SOL    HW1 1442   3.690   0.497   5.345
  181SOL    HW2 1443   3.764   0.407   5.459
  182SOL     OW 1444   2.924   3.008   5.557
  182SOL    HW1 1445   2.910   3.100   5.594
  182SOL    HW2 1446   2.870   2.997   5.474
  183SOL     OW 1447   3.005   1.209   3.221
  183SOL    HW1 1448   3.057   1.187   3.303
  183SOL    HW2 1449   2.940   1.282   3.240
  184SOL     OW 1450   4.641   5.538   3.581
  184SOL    HW1 1451   4.573   5.465   3.573
  184SOL    HW2 1452   4.687   5.531   3.669
  185SOL     OW 1453   6.948   6.450   4.896
  185SOL    HW1 1454   6.887   6.527   4.877
  185SOL    HW2 1455   6.954   6.390   4.816
  186SOL     OW 1456   2.892   5.782   5.501
  186SOL    HW1 1457   2.927   5.819   5.415
  186SOL    HW2 1458   2.969   5.757   5.560
  187SOL     OW 1459   3.702   5.724   1.397
  187SOL    HW1 1460   3.628   5.787   1.420
  187SOL    HW2 1461   3.784   5.775   1.374
  188SOL     OW 1462   1.633   3.739   3.273
  188SOL    HW1 1463   1.717   3.688   3.253
  188SOL    HW2 1464   1.657   3.834   3.295
  189SOL     OW 1465   5.528   4.632   5.870
  189SOL    HW1 1466   5.610   4.658   5.819
  189SOL    HW2 1467   5.522   4.686   5.954
  190SOL     OW 1468   5.961   6.786   0.943
  190SOL    HW1 1469   5.899   6.729   0.998
  190SOL    HW2 1470   6.024   6.727   0.893
  191SOL     OW 1471   1.778   2.614   5.437
  191SOL    HW1 1472   1.790   2.516   5.451
  191SOL    HW2 1473   1.857   2.663   5.473
  192SOL     OW 1474   0.139   6.610   1.734
  192SOL    HW1 1475   0.126   6.709   1.733
  192SOL    HW2 1476   0.226   6.588   1.780
  193SOL     OW 1477   3.622   0.575   2.147
  193SOL    HW1 1478   3.648   0.479   2.157
  193SOL    HW2 1479   3.532   0.589   2.189
  194SOL     OW 1480   4.193   6.162   2.773
  194SOL    HW1 1481   4.259   6.139   2.845
  194SOL    HW2 1482   4.118   6.096   2.775
  195SOL     OW 1483   3.440   0.476   0.846
  195SOL    HW1 1484   3.354   0.432   0.819
  195SOL    HW2 1485   3.510   0.454   0.778
  196SOL     OW 1486   4.503   2.492   1.227
  196SOL    HW1 1487   4.589   2.542   1.215
  196SOL    HW2 1488   4.501   2.412   1.167
  197SOL     OW 1489   2.051   6.078   0.740
  197SOL    HW1 1490   2.078   6.162   0.788
  197SOL    HW2 1491   2.126   6.049   0.680
  198SOL     OW 1492   4.802   6.948   6.574
  198SOL    HW1 1493   4.803   0.026   6.572
  198SOL    HW2 1494   4.822   6.917   6.667
  199SOL     OW 1495   1.777   0.698   2.852
  199SOL    HW1 1496   1.780   0.787   2.806
  199SOL    HW2 1497   1.773   0.625   2.784
  200SOL     OW 1498   1.177   3.549   4.132
  200SOL    HW1 1499   1.180   3.535   4.033
  200SOL    HW2 1500   1.173   3.460   4.178
  201SOL     OW 1501   4.386   1.715   6.647
  201SOL    HW1 1502   4.293   1.704   6.680
  201SOL    HW2 1503   4.451   1.688   6.718
  202SOL     OW 1504   4.235   0.587   3.079
  202SOL    HW1 1505   4.159   0.522   3.081
  202SOL    HW2 1506   4.300   0.565   3.153
  203SOL     OW 1507   5.683   2.653   0.115
  203SOL    HW1 1508   5.721   2.607   0.195
  203SOL    HW2 1509   5.688   2.593   0.036
  204SOL     OW 1510   1.902   6.259   1.020
  204SOL    HW1 1511   1.909   6.282   1.117
  204SOL    HW2 1512   1.839   6.181   1.009
  205SOL     OW 1513   5.489   0.616   1.475
  205SOL    HW1 1514   5.482   0.585   1.570
  205SOL    HW2 1515   5.426   0.562   1.418
  206SOL     OW 1516   6.737   6.134   1.325
  206SOL    HW1 1517   6.721   6.167   1.232
  206SOL    HW2 1518   6.704   6.039   1.333
  207SOL     OW 1519   6.403   1.896   6.178
  207SOL    HW1 1520   6.420   1.959   6.102
  207SOL    HW2 1521   6.374   1.807   6.143
  208SOL     OW 1522   4.016   4.609   0.115
  208SOL    HW1 1523   4.063   4.670   0.051
  208SOL    HW2 1524   3.928   4.648   0.140
  209SOL     OW 1525   7.004   6.239   3.835
  209SOL    HW1 1526   0.052   6.186   3.881
  209SOL    HW2 1527   0.021   6.321   3.794
  210SOL     OW 1528   4.094   2.094   0.674
  210SOL    HW1 1529   4.036   2.023   0.714
  210SOL    HW2 1530   4.041   2.147   0.608
  211SOL     OW 1531   0.949   3.288   1.574
  211SOL    HW1 1532   0.862   3.338   1.575
  211SOL    HW2 1533   1.018   3.341   1.623
  212SOL     OW 1534   1.054   5.512   4.677
  212SOL    HW1 1535   1.118   5.437   4.666
  212SOL    HW2 1536   0.964   5.476   4.702
  213SOL     OW 1537   3.748   2.338   0.192
  213SOL    HW1 1538   3.760   2.360   0.096
  213SOL    HW2 1539   3.813   2.390   0.247
  214SOL     OW 1540   1.518   6.220   3.346
  214SOL    HW1 1541   1.550   6.129   3.317
  214SOL    HW2 1542   1.597   6.280   3.356
  215SOL     OW 1543   3.235   4.081   3.029
  215SOL    HW1 1544   3.176   4.076   2.948
  215SOL    HW2 1545   3.195   4.027   3.103
  216SOL     OW 1546   3.107   0.229   5.647
  216SOL    HW1 1547   3.058   0.160   5.594
  216SOL    HW2 1548   3.072   0.229   5.741
  217SOL     OW 1549   6.678   2.283   5.049
  217SOL    HW1 1550   6.586   2.271   5.011
  217SOL    HW2 1551   6.701   2.380   5.052
  218SOL     OW 1552   2.743   3.879   5.624
  218SOL    HW1 1553   2.678   3.951   5.601
  218SOL    HW2 1554   2.810   3.914   5.689
  219SOL     OW 1555   3.565   5.220   0.164
  219SOL    HW1 1556   3.600   5.173   0.083
  219SOL    HW2 1557   3.534   5.311   0.139
  220SOL     OW 1558   1.631   4.460   0.234
  220SOL    HW1 1559   1.647   4.428   0.327
  220SOL    HW2 1560   1.537   4.491   0.225
  221SOL     OW 1561   5.802   2.576   4.665
  221SOL    HW1 1562   5.875   2.510   4.652
  221SOL    HW2 1563   5.841   2.668   4.673
  222SOL     OW 1564   1.952   6.564   4.610
  222SOL    HW1 1565   2.015   6.565   4.532
  222SOL    HW2 1566   1.917   6.657   4.625
  223SOL     OW 1567   5.796   4.947   2.560
  223SOL    HW1 1568   5.852   4.881   2.509
  223SOL    HW2 1569   5.805   5.038   2.519
  224SOL     OW 1570   4.058   2.237   2.570
  224SOL    HW1 1571   4.026   2.163   2.628
  224SOL    HW2 1572   4.000   2.318   2.582
  225SOL     OW 1573   4.908   6.581   1.223
  225SOL    HW1 1574   4.850   6.662   1.209
  225SOL    HW2 1575   4.912   6.559   1.320
  226SOL     OW 1576   0.475   5.633   2.561
  226SOL    HW1 1577   0.441   5.727   2.551
  226SOL    HW2 1578   0.545   5.632   2.632
  227SOL     OW 1579   1.283   3.658   3.170
  227SOL    HW1 1580   1.333   3.732   3.216
  227SOL    HW2 1581   1.344   3.582   3.152
  228SOL     OW 1582   4.012   6.440   2.747
  228SOL    HW1 1583   4.015   6.519   2.685
  228SOL    HW2 1584   4.068   6.366   2.709
  229SOL     OW 1585   6.554   5.056   2.899
  229SOL    HW1 1586   6.534   5.028   2.805
  229SOL    HW2 1587   6.470   5.088   2.943
  230SOL     OW 1588   1.014   4.475   6.426
  230SOL    HW1 1589   0.923   4.492   6.387
  230SOL    HW2 1590   1.007   4.460   6.524
  231SOL     OW 1591   0.379   1.875   6.588
  231SOL    HW1 1592   0.339   1.915   6.671
  231SOL    HW2 1593   0.355   1.932   6.509
  232SOL     OW 1594   0.992   4.072   6.115
  232SOL    HW1 1595   1.059   4.146   6.116
  232SOL    HW2 1596   1.034   3.990   6.076
  233SOL     OW 1597   3.155   6.720   6.880
  233SOL    HW1 1598   3.098   6.740   6.960
  233SOL    HW2 1599   3.118   6.640   6.832
  234SOL     OW 1600   2.757   4.629   6.196
  234SOL    HW1 1601   2.856   4.619   6.195
  234SOL    HW2 1602   2.716   4.544   6.231
  235SOL     OW 1603   3.330   3.413   5.786
  235SOL    HW1 1604   3.285   3.407   5.697
  235SOL    HW2 1605   3.274   3.467   5.848
  236SOL     OW 1606   0.398   1.870   6.082
  236SOL    HW1 1607   0.467   1.801   6.107
  236SOL    HW2 1608   0.318   1.824   6.045
  237SOL     OW 1609   6.435   6.656   1.818
  237SOL    HW1 1610   6.375   6.631   1.742
  237SOL    HW2 1611   6.530   6.654   1.787
  238SOL     OW 1612   6.917   1.879   2.532
  238SOL    HW1 1613   6.869   1.944   2.473
  238SOL    HW2 1614   6.852   1.833   2.592
  239SOL     OW 1615   6.535   5.503   0.661
  239SOL    HW1 1616   6.543   5.436   0.735
  239SOL    HW2 1617   6.446   5.548   0.666
  240SOL     OW 1618   0.057   2.601   5.591
  240SOL    HW1 1619   0.098   2.523   5.544
  240SOL    HW2 1620   0.120   2.633   5.662
  241SOL     OW 1621   5.647   2.596   4.899
  241SOL    HW1 1622   5.715   2.655   4.943
  241SOL    HW2 1623   5.669   2.587   4.802
  242SOL     OW 1624   2.731   2.227   4.229
  242SOL    HW1 1625   2.760   2.263   4.317
  242SOL    HW2 1626   2.631   2.230   4.224
  243SOL     OW 1627   4.706   1.363   6.850
  243SOL    HW1 1628   4.608   1.358   6.869
  243SOL    HW2 1629   4.750   1.421   6.918
  244SOL     OW 1630   0.825   1.782   6.371
  244SOL    HW1 1631   0.923   1.803   6.364
  244SOL    HW2 1632   0.773   1.852   6.322
  245SOL     OW 1633   5.025   2.925   3.488
  245SOL    HW1 1634   5.070   2.959   3.406
  245SOL    HW2 1635   5.089   2.924   3.564
  246SOL     OW 1636   4.818   3.159   3.764
  246SOL    HW1 1637   4.824   3.246   3.814
  246SOL    HW2 1638   4.905   3.140   3.719
  247SOL     OW 1639   2.994   0.672   3.103
  247SOL    HW1 1640   3.055   0.598   3.129
  247SOL    HW2 1641   3.044   0.759   3.107
  248SOL     OW 1642   0.150   1.830   2.469
  248SOL    HW1 1643   0.154   1.732   2.487
  248SOL    HW2 1644   0.057   1.863   2.487
  249SOL     OW 1645   2.294   5.416   5.031
  249SOL    HW1 1646   2.259   5.510   5.028
  249SOL    HW2 1647   2.234   5.356   4.979
  250SOL     OW 1648   5.454   2.393   0.345
  250SOL    HW1 1649   5.467   2.470   0.406
  250SOL    HW2 1650   5.542   2.366   0.306
  251SOL     OW 1651   1.872   1.105   0.571
  251SOL    HW1 1652   1.926   1.025   0.546
  251SOL    HW2 1653   1.831   1.144   0.489
  252SOL     OW 1654   0.494   1.837   0.090
  252SOL    HW1 1655   0.452   1.891   0.162
  252SOL    HW2 1656   0.552   1.896   0.033
  253SOL     OW 1657   1.854   4.468   6.327
  253SOL    HW1 1658   1.881   4.536   6.259
  253SOL    HW2 1659   1.784   4.508   6.387
  254SOL     OW 1660   4.578   3.460   6.128
  254SOL    HW1 1661   4.546   3.418   6.043
  254SOL    HW2 1662   4.615   3.551   6.108
  255SOL     OW 1663   4.044   2.170   2.310
  255SOL    HW1 1664   4.085   2.213   2.391
  255SOL    HW2 1665   4.084   2.209   2.227
  256SOL     OW 1666   6.607   5.663   1.362
  256SOL    HW1 1667   6.603   5.563   1.370
  256SOL    HW2 1668   6.515   5.699   1.348
  257SOL     OW 1669   2.716   5.834   5.903
  257SOL    HW1 1670   2.653   5.803   5.974
  257SOL    HW2 1671   2.807   5.800   5.923
  258SOL     OW 1672   3.984   4.838   4.256
  258SOL    HW1 1673   3.914   4.891   4.209
  258SOL    HW2 1674   3.986   4.863   4.353
  259SOL     OW 1675   0.730   2.146   2.976
  259SOL    HW1 1676   0.648   2.097   3.006
  259SOL    HW2 1677   0.751   2.219   3.041
  260SOL     OW 1678   6.972   6.623   5.765
  260SOL    HW1 1679   0.012   6.652   5.692
  260SOL    HW2 1680   0.001   6.605   5.848
  261SOL     OW 1681   0.444   1.154   3.814
  261SOL    HW1 1682   0.386   1.154   3.895
  261SOL    HW2 1683   0.474   1.248   3.794
  262SOL     OW 1684   0.753   4.908   1.714
  262SOL    HW1 1685   0.656   4.900   1.691
  262SOL    HW2 1686   0.763   4.944   1.806
  263SOL     OW 1687   0.614   4.029   4.595
  263SOL    HW1 1688   0.697   3.974   4.605
  263SOL    HW2 1689   0.540   3.972   4.559
  264SOL     OW 1690   3.167   4.277   0.217
  264SOL    HW1 1691   3.152   4.186   0.177
  264SOL    HW2 1692   3.170   4.346   0.145
  265SOL     OW 1693   4.153   5.433   3.652
  265SOL    HW1 1694   4.196   5.503   3.595
  265SOL    HW2 1695   4.059   5.418   3.620
  266SOL     OW 1696   4.235   3.732   7.003
  266SOL    HW1 1697   4.300   3.761   6.933
  266SOL    HW2 1698   4.247   3.635   7.022
  267SOL     OW 1699   1.972   2.515   6.027
  267SOL    HW1 1700   2.058   2.559   6.053
  267SOL    HW2 1701   1.991   2.440   5.964
  268SOL     OW 1702   2.459   4.648   3.539
  268SOL    HW1 1703   2.406   4.731   3.520
  268SOL    HW2 1704   2.522   4.666   3.614
  269SOL     OW 1705   2.183   2.112   5.241
  269SOL    HW1 1706   2.246   2.163   5.183
  269SOL    HW2 1707   2.220   2.021   5.259
  270SOL     OW 1708   5.057   6.161   4.808
  270SOL    HW1 1709   5.067   6.178   4.906
  270SOL    HW2 1710   4.961   6.143   4.787
  271SOL     OW 1711   2.185   1.585   0.646
  271SOL    HW1 1712   2.100   1.541   0.617
  271SOL    HW2 1713   2.188   1.589   0.746
  272SOL     OW 1714   4.697   5.372   0.301
  272SOL    HW1 1715   4.791   5.379   0.336
  272SOL    HW2 1716   4.672   5.276   0.292
  273SOL     OW 1717   2.041   6.096   4.088
  273SOL    HW1 1718   2.106   6.156   4.134
  273SOL    HW2 1719   1.958   6.147   4.066
  274SOL     OW 1720   5.721   2.169   1.538
  274SOL    HW1 1721   5.780   2.114   1.480
  274SOL    HW2 1722   5.631   2.126   1.545
  275SOL     OW 1723   5.440   5.929   5.756
  275SOL    HW1 1724   5.497   5.894   5.831
  275SOL    HW2 1725   5.458   6.027   5.743
  276SOL     OW 1726   0.289   0.262   4.322
  276SOL    HW1 1727   0.335   0.214   4.248
  276SOL    HW2 1728   0.210   0.209   4.353
  277SOL     OW 1729   4.025   2.692   5.339
  277SOL    HW1 1730   4.082   2.631   5.284
  277SOL    HW2 1731   3.946   2.642   5.374
  278SOL     OW 1732   5.653   3.984   3.255
  278SOL    HW1 1733   5.667   4.083   3.246
  278SOL    HW2 1734   5.631   3.945   3.166
  279SOL     OW 1735   0.065   3.768   3.758
  279SOL    HW1 1736   0.100   3.816   3.678
  279SOL    HW2 1737   6.991   3.748   3.746
  280SOL     OW 1738   4.213   1.685   3.617
  280SOL    HW1 1739   4.140   1.644   3.671
  280SOL    HW2 1740   4.262   1.613   3.566
  281SOL     OW 1741   4.629   5.971   5.264
  281SOL    HW1 1742   4.578   5.964   5.179
  281SOL    HW2 1743   4.566   5.967   5.342
  282SOL     OW 1744   0.842   2.639   0.361
  282SOL    HW1 1745   0.858   2.577   0.285
  282SOL    HW2 1746   0.790   2.592   0.432
  283SOL     OW 1747   6.366   3.774   3.618
  283SOL    HW1 1748   6.304   3.819   3.683
  283SOL    HW2 1749   6.316   3.750   3.535
  284SOL     OW 1750   5.251   6.937   2.608
  284SOL    HW1 1751   5.244   6.888   2.521
  284SOL    HW2 1752   5.347   6.957   2.627
  285SOL     OW 1753   3.948   6.404   5.957
  285SOL    HW1 1754   3.933   6.439   6.050
  285SOL    HW2 1755   3.888   6.454   5.893
  286SOL     OW 1756   3.084   4.814   5.462
  286SOL    HW1 1757   3.181   4.831   5.481
  286SOL    HW2 1758   3.035   4.805   5.548
  287SOL     OW 1759   3.518   5.496   0.072
  287SOL    HW1 1760   3.599   5.517   0.126
  287SOL    HW2 1761   3.459   5.576   0.069
  288SOL     OW 1762   4.221   1.411   0.296
  288SOL    HW1 1763   4.269   1.398   0.209
  288SOL    HW2 1764   4.254   1.344   0.363
  289SOL     OW 1765   5.648   4.982   5.137
  289SOL    HW1 1766   5.691   4.991   5.227
  289SOL    HW2 1767   5.551   4.958   5.148
  290SOL     OW 1768   3.647   0.458   5.708
  290SOL    HW1 1769   3.686   0.456   5.616
  290SOL    HW2 1770   3.667   0.547   5.750
  291SOL     OW 1771   5.053   0.993   5.345
  291SOL    HW1 1772   5.138   1.045   5.359
  291SOL    HW2 1773   5.075   0.903   5.308
  292SOL     OW 1774   3.419   0.144   4.064
  292SOL    HW1 1775   3.348   0.211   4.040
  292SOL    HW2 1776   3.508   0.190   4.066
  293SOL     OW 1777   4.765   0.445   2.960
  293SOL    HW1 1778   4.773   0.371   3.027
  293SOL    HW2 1779   4.830   0.518   2.984
  294SOL     OW 1780   6.698   1.486   6.620
  294SOL    HW1 1781   6.710   1.414   6.688
  294SOL    HW2 1782   6.714   1.449   6.528
  295SOL     OW 1783   0.526   0.699   4.984
  295SOL    HW1 1784   0.486   0.638   5.052
  295SOL    HW2 1785   0.532   0.650   4.896
  296SOL     OW 1786   0.753   1.780   1.449
  296SOL    HW1 1787   0.837   1.726   1.451
  296SOL    HW2 1788   0.675   1.723   1.475
  297SOL     OW 1789   5.132   3.052   3.257
  297SOL    HW1 1790   5.137   2.982   3.186
  297SOL    HW2 1791   5.224   3.073   3.289
  298SOL     OW 1792   4.027   0.862   5.888
  298SOL    HW1 1793   4.058   0.773   5.855
  298SOL    HW2 1794   4.091   0.933   5.859
  299SOL     OW 1795   0.754   1.087   6.130
  299SOL    HW1 1796   0.817   1.162   6.149
  299SOL    HW2 1797   0.804   1.001   6.126
  300SOL     OW 1798   4.336   6.394   3.542
  300SOL    HW1 1799   4.375   6.425   3.629
  300SOL    HW2 1800   4.282   6.311   3.557
  301SOL     OW 1801   0.283   6.025   5.613
  301SOL    HW1 1802   0.189   6.042   5.583
  301SOL    HW2 1803   0.284   6.009   5.712
  302SOL     OW 1804   6.916   6.835   2.497
  302SOL    HW1 1805   6.990   6.777   2.533
  302SOL    HW2 1806   6.953   6.925   2.473
  303SOL     OW 1807   5.404   5.779   2.517
  303SOL    HW1 1808   5.366   5.720   2.446
  303SOL    HW2 1809   5.338   5.851   2.540
  304SOL     OW 1810   2.006   0.169   4.574
  304SOL    HW1 1811   2.018   0.265   4.546
  304SOL    HW2 1812   1.960   0.166   4.663
  305SOL     OW 1813   0.949   2.163   1.277
  305SOL    HW1 1814   0.997   2.246   1.250
  305SOL    HW2 1815   0.855   2.186   1.302
  306SOL     OW 1816   0.237   0.234   2.741
  306SOL    HW1 1817   0.309   0.170   2.768
  306SOL    HW2 1818   0.235   0.310   2.806
  307SOL     OW 1819   3.936   3.493   3.549
  307SOL    HW1 1820   3.838   3.509   3.543
  307SOL    HW2 1821   3.956   3.399   3.521
  308SOL     OW 1822   6.606   1.711   2.263
  308SOL    HW1 1823   6.608   1.687   2.166
  308SOL    HW2 1824   6.514   1.696   2.300
  309SOL     OW 1825   1.833   4.818   0.259
  309SOL    HW1 1826   1.833   4.756   0.338
  309SOL    HW2 1827   1.816   4.765   0.176
  310SOL     OW 1828   5.136   6.654   4.794
  310SOL    HW1 1829   5.039   6.629   4.796
  310SOL    HW2 1830   5.189   6.581   4.752
  311SOL     OW 1831   1.315   6.421   1.665
  311SOL    HW1 1832   1.351   6.345   1.611
  311SOL    HW2 1833   1.388   6.488   1.681
  312SOL     OW 1834   3.457   0.601   4.042
  312SOL    HW1 1835   3.418   0.581   4.132
  312SOL    HW2 1836   3.399   0.560   3.972
  313SOL     OW 1837   3.085   3.037   2.577
  313SOL    HW1 1838   3.070   3.051   2.479
  313SOL    HW2 1839   3.122   2.945   2.592
  314SOL     OW 1840   2.950   5.675   6.465
  314SOL    HW1 1841   3.012   5.670   6.543
  314SOL    HW2 1842   3.003   5.664   6.380
  315SOL     OW 1843   5.914   0.610   4.410
  315SOL    HW1 1844   5.873   0.542   4.472
  315SOL    HW2 1845   6.012   0.616   4.428
  316SOL     OW 1846   3.406   1.077   6.231
  316SOL    HW1 1847   3.488   1.050   6.180
  316SOL    HW2 1848   3.393   1.014   6.308
  317SOL     OW 1849   0.715   2.170   1.111
  317SOL    HW1 1850   0.717   2.214   1.201
  317SOL    HW2 1851   0.674   2.080   1.119
  318SOL     OW 1852   0.924   0.209   3.563
  318SOL    HW1 1853   0.912   0.297   3.609
  318SOL    HW2 1854   0.837   0.179   3.524
  319SOL     OW 1855   0.305   0.692   3.217
  319SOL    HW1 1856   0.316   0.714   3.120
  319SOL    HW2 1857   0.371   0.622   3.243
  320SOL     OW 1858   4.853   1.369   0.324
  320SOL    HW1 1859   4.925   1.299   0.318
  320SOL    HW2 1860   4.892   1.458   0.301
  321SOL     OW 1861   4.666   2.830   0.908
  321SOL    HW1 1862   4.679   2.864   1.001
  321SOL    HW2 1863   4.752   2.834   0.858
  322SOL     OW 1864   3.473   2.757   6.564
  322SOL    HW1 1865   3.507   2.779   6.473
  322SOL    HW2 1866   3.445   2.661   6.566
  323SOL     OW 1867   1.435   3.474   2.435
  323SOL    HW1 1868   1.522   3.501   2.477
  323SOL    HW2 1869   1.376   3.435   2.506
  324SOL     OW 1870   0.363   0.312   3.261
  324SOL    HW1 1871   0.443   0.346   3.310
  324SOL    HW2 1872   0.357   0.213   3.271
  325SOL     OW 1873   6.471   3.715   0.975
  325SOL    HW1 1874   6.492   3.730   1.072
  325SOL    HW2 1875   6.414   3.791   0.942
  326SOL     OW 1876   0.077   5.748   6.937
  326SOL    HW1 1877   0.051   5.830   6.886
  326SOL    HW2 1878   0.005   5.726   7.002
  327SOL     OW 1879   3.942   6.347   6.538
  327SOL    HW1 1880   4.007   6.303   6.477
  327SOL    HW2 1881   3.848   6.331   6.506
  328SOL     OW 1882   1.061   5.054   3.574
  328SOL    HW1 1883   1.132   5.001   3.622
  328SOL    HW2 1884   1.062   5.031   3.477
  329SOL     OW 1885   3.585   3.259   1.831
  329SOL    HW1 1886   3.509   3.293   1.775
  329SOL    HW2 1887   3.671   3.286   1.790
  330SOL     OW 1888   2.406   3.183   7.016
  330SOL    HW1 1889   2.472   3.121   0.035
  330SOL    HW2 1890   2.448   3.272   7.000
  331SOL     OW 1891   5.390   4.943   5.050
  331SOL    HW1 1892   5.343   4.855   5.051
  331SOL    HW2 1893   5.386   4.982   4.958
  332SOL     OW 1894   6.180   2.390   3.010
  332SOL    HW1 1895   6.162   2.325   3.084
  332SOL    HW2 1896   6.110   2.462   3.011
  333SOL     OW 1897   3.735   6.703   4.111
  333SOL    HW1 1898   3.647   6.744   4.134
  333SOL    HW2 1899   3.768   6.650   4.189
  334SOL     OW 1900   3.207   3.684   3.880
  334SOL    HW1 1901   3.182   3.781   3.872
  334SOL    HW2 1902   3.306   3.676   3.886
  335SOL     OW 1903   3.273   0.629   1.263
  335SOL    HW1 1904   3.259   0.718   1.306
  335SOL    HW2 1905   3.231   0.558   1.319
  336SOL     OW 1906   4.389   2.063   4.899
  336SOL    HW1 1907   4.461   2.046   4.832
  336SOL    HW2 1908   4.346   1.976   4.924
  337SOL     OW 1909   0.097   0.962   5.285
  337SOL    HW1 1910   0.016   0.928   5.237
  337SOL    HW2 1911   0.068   0.998   5.374
  338SOL     OW 1912   4.560   1.439   1.392
  338SOL    HW1 1913   4.620   1.473   1.465
  338SOL    HW2 1914   4.466   1.471   1.409
  339SOL     OW 1915   4.352   5.144   5.784
  339SOL    HW1 1916   4.367   5.047   5.767
  339SOL    HW2 1917   4.408   5.174   5.860
  340SOL     OW 1918   5.207   3.295   4.936
  340SOL    HW1 1919   5.227   3.215   4.879
  340SOL    HW2 1920   5.111   3.320   4.927
  341SOL     OW 1921   0.153   0.099   2.223
  341SOL    HW1 1922   0.128   0.021   2.167
  341SOL    HW2 1923   0.123   0.085   2.318
  342SOL     OW 1924   4.687   1.535   2.506
  342SOL    HW1 1925   4.676   1.463   2.439
  342SOL    HW2 1926   4.620   1.607   2.489
  343SOL     OW 1927   5.521   0.289   1.085
  343SOL    HW1 1928   5.599   0.350   1.071
  343SOL    HW2 1929   5.503   0.238   1.001
  344SOL     OW 1930   6.943   3.301   1.829
  344SOL    HW1 1931   0.019   3.294   1.813
  344SOL    HW2 1932   6.925   3.305   1.927
  345SOL     OW 1933   6.828   2.600   4.162
  345SOL    HW1 1934   6.834   2.699   4.153
  345SOL    HW2 1935   6.737   2.569   4.135
  346SOL     OW 1936   2.164   6.038   2.987
  346SOL    HW1 1937   2.078   5.996   3.015
  346SOL    HW2 1938   2.221   5.971   2.940
  347SOL     OW 1939   2.530   4.660   1.075
  347SOL    HW1 1940   2.460   4.713   1.026
  347SOL    HW2 1941   2.577   4.719   1.141
  348SOL     OW 1942   4.757   4.838   1.788
  348SOL    HW1 1943   4.849   4.808   1.762
  348SOL    HW2 1944   4.691   4.768   1.764
  349SOL     OW 1945   5.484   4.411   0.539
  349SOL    HW1 1946   5.547   4.488   0.532
  349SOL    HW2 1947   5.473   4.386   0.635
  350SOL     OW 1948   2.423   1.632   0.178
  350SOL    HW1 1949   2.386   1.657   0.089
  350SOL    HW2 1950   2.480   1.550   0.168
  351SOL     OW 1951   3.365   4.006   0.857
  351SOL    HW1 1952   3.308   4.025   0.937
  351SOL    HW2 1953   3.307   3.992   0.777
  352SOL     OW 1954   4.582   7.019   2.434
  352SOL    HW1 1955   4.540   0.031   2.518
  352SOL    HW2 1956   4.647   0.064   2.399
  353SOL     OW 1957   2.289   6.792   0.702
  353SOL    HW1 1958   2.228   6.864   0.732
  353SOL    HW2 1959   2.266   6.766   0.608
  354SOL     OW 1960   1.219   2.458   0.320
  354SOL    HW1 1961   1.319   2.458   0.311
  354SOL    HW2 1962   1.178   2.450   0.230
  355SOL     OW 1963   0.422   3.175   3.770
  355SOL    HW1 1964   0.457   3.256   3.723
  355SOL    HW2 1965   0.497   3.113   3.791
  356SOL     OW 1966   2.842   0.381   5.446
  356SOL    HW1 1967   2.917   0.376   5.381
  356SOL    HW2 1968   2.854   0.311   5.516
  357SOL     OW 1969   5.836   6.339   4.408
  357SOL    HW1 1970   5.740   6.339   4.436
  357SOL    HW2 1971   5.855   6.256   4.355
  358SOL     OW 1972   3.356   5.805   6.307
  358SOL    HW1 1973   3.259   5.799   6.281
  358SOL    HW2 1974   3.384   5.719   6.350
  359SOL     OW 1975   1.509   1.999   2.070
  359SOL    HW1 1976   1.429   1.980   2.127
  359SOL    HW2 1977   1.549   2.087   2.095
  360SOL     OW 1978   2.005   3.972   3.699
  360SOL    HW1 1979   1.944   3.908   3.746
  360SOL    HW2 1980   2.058   3.922   3.630
  361SOL     OW 1981   0.098   1.925   1.969
  361SOL    HW1 1982   0.120   1.948   2.064
  361SOL    HW2 1983   0.172   1.955   1.909
  362SOL     OW 1984   3.741   3.942   2.434
  362SOL    HW1 1985   3.683   4.022   2.422
  362SOL    HW2 1986   3.816   3.964   2.497
  363SOL     OW 1987   4.549   4.926   1.234
  363SOL    HW1 1988   4.578   4.960   1.323
  363SOL    HW2 1989   4.538   5.003   1.171
  364SOL     OW 1990   1.039   0.601   0.349
  364SOL    HW1 1991   1.109   0.530   0.342
  364SOL    HW2 1992   1.061   0.662   0.425
  365SOL     OW 1993   5.762   0.624   4.168
  365SOL    HW1 1994   5.774   0.719   4.137
  365SOL    HW2 1995   5.795   0.615   4.262
  366SOL     OW 1996   5.343   1.679   0.120
  366SOL    HW1 1997   5.304   1.756   0.070
  366SOL    HW2 1998   5.297   1.595   0.092
  367SOL     OW 1999   5.287   0.973   6.704
  367SOL    HW1 2000   5.248   0.894   6.751
  367SOL    HW2 2001   5.360   0.944   6.643
  368SOL     OW 2002   1.652   2.028   5.459
  368SOL    HW1 2003   1.676   2.014   5.363
  368SOL    HW2 2004   1.728   1.999   5.517
  369SOL     OW 2005   5.887   4.610   0.299
  369SOL    HW1 2006   5.918   4.529   0.248
  369SOL    HW2 2007   5.962   4.644   0.355
  370SOL     OW 2008   2.315   2.841   3.111
  370SOL    HW1 2009   2.246   2.829   3.182
  370SOL    HW2 2010   2.302   2.930   3.066
  371SOL     OW 2011   1.742   6.152   6.911
  371SOL    HW1 2012   1.765   6.220   6.981
  371SOL    HW2 2013   1.707   6.198   6.830
  372SOL     OW 2014   2.264   5.530   5.941
  372SOL    HW1 2015   2.343   5.587   5.916
  372SOL    HW2 2016   2.244   5.466   5.867
  373SOL     OW 2017   6.161   4.560   3.015
  373SOL    HW1 2018   6.218   4.636   2.985
  373SOL    HW2 2019   6.189   4.477   2.967
  374SOL     OW 2020   3.095   1.692   2.281
  374SOL    HW1 2021   3.094   1.700   2.380
  374SOL    HW2 2022   3.182   1.727   2.245
  375SOL     OW 2023   1.111   5.964   4.162
  375SOL    HW1 2024   1.073   5.930   4.076
  375SOL    HW2 2025   1.038   6.008   4.215
  376SOL     OW 2026   3.927   0.531   3.232
  376SOL    HW1 2027   3.833   0.556   3.209
  376SOL    HW2 2028   3.947   0.559   3.325
  377SOL     OW 2029   2.691   2.216   6.555
  377SOL    HW1 2030   2.717   2.120   6.557
  377SOL    HW2 2031   2.591   2.224   6.553
  378SOL     OW 2032   4.113   1.479   2.122
  378SOL    HW1 2033   4.202   1.498   2.164
  378SOL    HW2 2034   4.121   1.484   2.023
  379SOL     OW 2035   4.111   2.506   6.252
  379SOL    HW1 2036   4.145   2.467   6.338
  379SOL    HW2 2037   4.059   2.589   6.270
  380SOL     OW 2038   4.321   2.224   0.580
  380SOL    HW1 2039   4.393   2.157   0.597
  380SOL    HW2 2040   4.234   2.190   0.616
  381SOL     OW 2041   2.085   4.122   3.028
  381SOL    HW1 2042   2.032   4.202   3.056
  381SOL    HW2 2043   2.024   4.045   3.011
  382SOL     OW 2044   5.726   6.851   0.025
  382SOL    HW1 2045   5.662   6.795   0.078
  382SOL    HW2 2046   5.756   6.929   0.080
  383SOL     OW 2047   4.414   2.875   0.896
  383SOL    HW1 2048   4.367   2.873   0.984
  383SOL    HW2 2049   4.513   2.877   0.910
  384SOL     OW 2050   0.169   3.976   5.118
  384SOL    HW1 2051   0.250   3.972   5.059
  384SOL    HW2 2052   0.163   3.893   5.173
  385SOL     OW 2053   4.495   2.683   0.707
  385SOL    HW1 2054   4.527   2.767   0.750
  385SOL    HW2 2055   4.553   2.661   0.628
  386SOL     OW 2056   4.285   6.477   5.051
  386SOL    HW1 2057   4.279   6.494   4.952
  386SOL    HW2 2058   4.366   6.522   5.088
  387SOL     OW 2059   2.874   5.850   4.255
  387SOL    HW1 2060   2.860   5.942   4.292
  387SOL    HW2 2061   2.969   5.822   4.270
  388SOL     OW 2062   1.519   5.273   6.029
  388SOL    HW1 2063   1.445   5.330   6.066
  388SOL    HW2 2064   1.516   5.183   6.073
  389SOL     OW 2065   2.820   2.718   1.478
  389SOL    HW1 2066   2.775   2.710   1.567
  389SOL    HW2 2067   2.804   2.635   1.425
  390SOL     OW 2068   2.596   1.211   4.946
  390SOL    HW1 2069   2.520   1.263   4.907
  390SOL    HW2 2070   2.638   1.155   4.875
  391SOL     OW 2071   1.418   2.330   6.909
  391SOL    HW1 2072   1.411   2.232   6.890
  391SOL    HW2 2073   1.389   2.382   6.829
  392SOL     OW 2074   3.691   6.148   4.096
  392SOL    HW1 2075   3.621   6.160   4.166
  392SOL    HW2 2076   3.779   6.125   4.139
  393SOL     OW 2077   5.911   4.003   5.641
  393SOL    HW1 2078   5.834   3.949   5.674
  393SOL    HW2 2079   5.951   4.055   5.717
  394SOL     OW 2080   2.035   0.940   6.315
  394SOL    HW1 2081   2.083   0.870   6.368
  394SOL    HW2 2082   2.084   0.955   6.229
  395SOL     OW 2083   6.825   3.514   1.064
  395SOL    HW1 2084   6.772   3.489   0.983
  395SOL    HW2 2085   6.887   3.589   1.042
  396SOL     OW 2086   3.521   3.280   5.096
  396SOL    HW1 2087   3.441   3.313   5.046
  396SOL    HW2 2088   3.511   3.303   5.193
  397SOL     OW 2089   3.625   1.570   6.782
  397SOL    HW1 2090   3.601   1.637   6.712
  397SOL    HW2 2091   3.543   1.540   6.830
  398SOL     OW 2092   1.092   4.789   2.650
  398SOL    HW1 2093   1.069   4.778   2.553
  398SOL    HW2 2094   1.189   4.809   2.659
  399SOL     OW 2095   5.230   4.569   2.490
  399SOL    HW1 2096   5.218   4.549   2.588
  399SOL    HW2 2097   5.154   4.529   2.439
  400SOL     OW 2098   2.570   5.025   4.406
  400SOL    HW1 2099   2.576   4.926   4.424
  400SOL    HW2 2100   2.501   5.041   4.335
  401SOL     OW 2101   5.561   1.140   0.354
  401SOL    HW1 2102   5.581   1.083   0.434
  401SOL    HW2 2103   5.522   1.227   0.384
  402SOL     OW 2104   6.605   4.589   1.010
  402SOL    HW1 2105   6.664   4.546   1.077
  402SOL    HW2 2106   6.624   4.551   0.919
  403SOL     OW 2107   5.174   4.330   0.429
  403SOL    HW1 2108   5.128   4.275   0.498
  403SOL    HW2 2109   5.266   4.293   0.413
  404SOL     OW 2110   0.747   6.394   4.565
  404SOL    HW1 2111   0.745   6.493   4.579
  404SOL    HW2 2112   0.822   6.370   4.503
  405SOL     OW 2113   0.804   2.889   1.279
  405SOL    HW1 2114   0.883   2.865   1.335
  405SOL    HW2 2115   0.792   2.989   1.280
  406SOL     OW 2116   0.880   2.166   3.261
  406SOL    HW1 2117   0.864   2.068   3.266
  406SOL    HW2 2118   0.972   2.183   3.225
  407SOL     OW 2119   2.986   1.719   3.671
  407SOL    HW1 2120   3.015   1.814   3.675
  407SOL    HW2 2121   2.887   1.714   3.661
  408SOL     OW 2122   2.032   0.766   3.374
  408SOL    HW1 2123   2.039   0.673   3.410
  408SOL    HW2 2124   1.936   0.788   3.358
  409SOL     OW 2125   6.382   3.238   4.199
  409SOL    HW1 2126   6.476   3.264   4.176
  409SOL    HW2 2127   6.382   3.152   4.250
  410SOL     OW 2128   2.915   6.886   6.609
  410SOL    HW1 2129   3.005   6.916   6.638
  410SOL    HW2 2130   2.906   6.896   6.509
  411SOL     OW 2131   0.307   3.342   4.742
  411SOL    HW1 2132   0.373   3.278   4.702
  411SOL    HW2 2133   0.233   3.292   4.785
  412SOL     OW 2134   4.303   0.350   2.371
  412SOL    HW1 2135   4.345   0.375   2.458
  412SOL    HW2 2136   4.369   0.362   2.297
  413SOL     OW 2137   2.519   0.554   2.493
  413SOL    HW1 2138   2.455   0.549   2.416
  413SOL    HW2 2139   2.611   0.572   2.459
  414SOL     OW 2140   4.918   3.796   0.578
  414SOL    HW1 2141   4.853   3.848   0.521
  414SOL    HW2 2142   4.868   3.748   0.649
  415SOL     OW 2143   3.871   6.526   2.418
  415SOL    HW1 2144   3.947   6.461   2.414
  415SOL    HW2 2145   3.882   6.584   2.499
  416SOL     OW 2146   3.718   5.694   6.475
  416SOL    HW1 2147   3.713   5.768   6.542
  416SOL    HW2 2148   3.763   5.728   6.392
  417SOL     OW 2149   5.167   4.619   1.173
  417SOL    HW1 2150   5.262   4.629   1.201
  417SOL    HW2 2151   5.163   4.584   1.079
  418SOL     OW 2152   6.447   5.244   0.331
  418SOL    HW1 2153   6.467   5.224   0.427
  418SOL    HW2 2154   6.491   5.176   0.272
  419SOL     OW 2155   5.417   6.174   1.130
  419SOL    HW1 2156   5.339   6.235   1.119
  419SOL    HW2 2157   5.398   6.087   1.083
  420SOL     OW 2158   4.833   4.417   0.109
  420SOL    HW1 2159   4.843   4.517   0.104
  420SOL    HW2 2160   4.780   4.385   0.030
  421SOL     OW 2161   1.404   6.325   6.569
  421SOL    HW1 2162   1.389   6.288   6.478
  421SOL    HW2 2163   1.329   6.297   6.629
  422SOL     OW 2164   5.444   4.364   6.518
  422SOL    HW1 2165   5.401   4.451   6.539
  422SOL    HW2 2166   5.447   4.307   6.601
  423SOL     OW 2167   1.236   3.355   5.759
  423SOL    HW1 2168   1.139   3.366   5.782
  423SOL    HW2 2169   1.274   3.444   5.734
  424SOL     OW 2170   1.727   3.877   0.354
  424SOL    HW1 2171   1.713   3.888   0.452
  424SOL    HW2 2172   1.734   3.967   0.311
  425SOL     OW 2173   2.963   6.808   0.505
  425SOL    HW1 2174   2.955   6.733   0.438
  425SOL    HW2 2175   2.954   6.770   0.597
  426SOL     OW 2176   6.223   4.175   5.762
  426SOL    HW1 2177   6.215   4.234   5.682
  426SOL    HW2 2178   6.297   4.109   5.747
  427SOL     OW 2179   4.757   3.369   0.631
  427SOL    HW1 2180   4.747   3.407   0.723
  427SOL    HW2 2181   4.752   3.443   0.564
  428SOL     OW 2182   3.620   1.654   5.568
  428SOL    HW1 2183   3.692   1.588   5.548
  428SOL    HW2 2184   3.659   1.746   5.567
  429SOL     OW 2185   2.799   5.551   6.900
  429SOL    HW1 2186   2.771   5.551   6.804
  429SOL    HW2 2187   2.818   5.458   6.929
  430SOL     OW 2188   2.440   0.152   5.033
  430SOL    HW1 2189   2.395   0.110   5.111
  430SOL    HW2 2190   2.385   0.229   4.999
  431SOL     OW 2191   3.003   1.580   6.604
  431SOL    HW1 2192   3.093   1.603   6.641
  431SOL    HW2 2193   3.008   1.490   6.559
  432SOL     OW 2194   0.205   1.369   1.127
  432SOL    HW1 2195   0.198   1.278   1.168
  432SOL    HW2 2196   0.278   1.420   1.171
  433SOL     OW 2197   2.801   6.007   4.657
  433SOL    HW1 2198   2.836   6.038   4.745
  433SOL    HW2 2199   2.744   5.925   4.671
  434SOL     OW 2200   6.216   3.563   1.213
  434SOL    HW1 2201   6.304   3.605   1.194
  434SOL    HW2 2202   6.152   3.632   1.245
  435SOL     OW 2203   3.875   3.308   0.952
  435SOL    HW1 2204   3.966   3.269   0.969
  435SOL    HW2 2205   3.809   3.266   1.014
  436SOL     OW 2206   2.924   0.067   0.716
  436SOL    HW1 2207   2.909   0.161   0.684
  436SOL    HW2 2208   3.011   0.033   0.679
  437SOL     OW 2209   6.605   0.017   5.768
  437SOL    HW1 2210   6.700   7.011   5.782
  437SOL    HW2 2211   6.553   6.965   5.727
  438SOL     OW 2212   1.909   3.223   1.583
  438SOL    HW1 2213   1.994   3.271   1.606
  438SOL    HW2 2214   1.834   3.258   1.639
  439SOL     OW 2215   5.989   4.655   2.227
  439SOL    HW1 2216   6.034   4.591   2.290
  439SOL    HW2 2217   6.040   4.660   2.142
  440SOL     OW 2218   1.336   3.110   3.140
  440SOL    HW1 2219   1.359   3.085   3.046
  440SOL    HW2 2220   1.244   3.079   3.162
  441SOL     OW 2221   1.230   1.082   3.288
  441SOL    HW1 2222   1.174   1.042   3.215
  441SOL    HW2 2223   1.181   1.158   3.330
  442SOL     OW 2224   0.066   4.699   0.226
  442SOL    HW1 2225   0.028   4.607   0.223
  442SOL    HW2 2226   0.103   4.717   0.317
  443SOL     OW 2227   0.977   4.407   5.519
  443SOL    HW1 2228   1.023   4.439   5.437
  443SOL    HW2 2229   1.035   4.340   5.566
  444SOL     OW 2230   4.813   3.060   6.675
  444SOL    HW1 2231   4.736   3.121   6.653
  444SOL    HW2 2232   4.780   2.982   6.727
  445SOL     OW 2233   1.764   4.832   3.237
  445SOL    HW1 2234   1.860   4.838   3.212
  445SOL    HW2 2235   1.706   4.853   3.158
  446SOL     OW 2236   4.015   5.486   4.261
  446SOL    HW1 2237   4.000   5.392   4.231
  446SOL    HW2 2238   4.070   5.534   4.192
  447SOL     OW 2239   0.371   6.001   0.062
  447SOL    HW1 2240   0.315   5.939   0.117
  447SOL    HW2 2241   0.463   5.963   0.052
  448SOL     OW 2242   4.400   0.827   6.011
  448SOL    HW1 2243   4.326   0.779   6.058
  448SOL    HW2 2244   4.422   0.911   6.061
  449SOL     OW 2245   5.978   6.538   4.291
  449SOL    HW1 2246   5.910   6.608   4.272
  449SOL    HW2 2247   5.934   6.457   4.329
  450SOL     OW 2248   6.969   5.725   3.629
  450SOL    HW1 2249   0.013   5.741   3.556
  450SOL    HW2 2250   6.879   5.711   3.590
  451SOL     OW 2251   6.011   2.367   3.714
  451SOL    HW1 2252   6.075   2.303   3.755
  451SOL    HW2 2253   6.031   2.377   3.616
  452SOL     OW 2254   6.742   4.844   6.301
  452SOL    HW1 2255   6.773   4.907   6.230
  452SOL    HW2 2256   6.644   4.856   6.316
  453SOL     OW 2257   3.029   0.600   5.899
  453SOL    HW1 2258   3.059   0.632   5.809
  453SOL    HW2 2259   2.929   0.593   5.901
  454SOL     OW 2260   1.056   5.945   0.105
  454SOL    HW1 2261   1.105   5.987   0.029
  454SOL    HW2 2262   1.119   5.930   0.181
  455SOL     OW 2263   4.862   0.789   5.145
  455SOL    HW1 2264   4.917   0.721   5.192
  455SOL    HW2 2265   4.896   0.802   5.052
  456SOL     OW 2266   4.566   5.713   0.007
  456SOL    HW1 2267   4.466   5.716   0.006
  456SOL    HW2 2268   4.602   5.806   7.021
  457SOL     OW 2269   0.430   5.108   1.895
  457SOL    HW1 2270   0.508   5.171   1.896
  457SOL    HW2 2271   0.442   5.041   1.822
  458SOL     OW 2272   6.876   6.595   6.076
  458SOL    HW1 2273   6.857   6.611   6.173
  458SOL    HW2 2274   6.793   6.614   6.023
  459SOL     OW 2275   1.793   0.592   3.292
  459SOL    HW1 2276   1.791   0.683   3.251
  459SOL    HW2 2277   1.701   0.553   3.292
  460SOL     OW 2278   6.925   1.478   4.060
  460SOL    HW1 2279   6.902   1.552   4.123
  460SOL    HW2 2280   6.842   1.438   4.022
  461SOL     OW 2281   5.313   6.302   5.575
  461SOL    HW1 2282   5.359   6.245   5.506
  461SOL    HW2 2283   5.359   6.291   5.663
  462SOL     OW 2284   3.124   2.556   7.019
  462SOL    HW1 2285   3.039   2.592   0.036
  462SOL    HW2 2286   3.141   2.464   0.033
  463SOL     OW 2287   0.014   6.098   1.401
  463SOL    HW1 2288   0.021   6.075   1.304
  463SOL    HW2 2289   6.955   6.153   1.416
  464SOL     OW 2290   1.548   1.142   5.887
  464SOL    HW1 2291   1.502   1.229   5.870
  464SOL    HW2 2292   1.487   1.080   5.935
  465SOL     OW 2293   6.580   3.317   5.244
  465SOL    HW1 2294   6.530   3.245   5.293
  465SOL    HW2 2295   6.516   3.383   5.205
  466SOL     OW 2296   2.287   0.745   3.248
  466SOL    HW1 2297   2.197   0.774   3.280
  466SOL    HW2 2298   2.281   0.654   3.207
  467SOL     OW 2299   1.640   1.360   5.071
  467SOL    HW1 2300   1.611   1.362   4.975
  467SOL    HW2 2301   1.650   1.266   5.100
  468SOL     OW 2302   3.421   4.082   1.725
  468SOL    HW1 2303   3.511   4.098   1.764
  468SOL    HW2 2304   3.399   4.154   1.660
  469SOL     OW 2305   2.639   4.821   6.654
  469SOL    HW1 2306   2.560   4.852   6.708
  469SOL    HW2 2307   2.723   4.848   6.700
  470SOL     OW 2308   3.798   1.101   2.507
  470SOL    HW1 2309   3.722   1.113   2.442
  470SOL    HW2 2310   3.763   1.106   2.600
  471SOL     OW 2311   2.593   1.829   4.774
  471SOL    HW1 2312   2.626   1.735   4.774
  471SOL    HW2 2313   2.639   1.882   4.845
  472SOL     OW 2314   4.056   4.177   5.197
  472SOL    HW1 2315   3.980   4.227   5.239
  472SOL    HW2 2316   4.125   4.243   5.165
  473SOL     OW 2317   1.008   4.409   3.333
  473SOL    HW1 2318   1.083   4.345   3.349
  473SOL    HW2 2319   0.921   4.362   3.342
  474SOL     OW 2320   4.614   4.898   4.724
  474SOL    HW1 2321   4.669   4.909   4.642
  474SOL    HW2 2322   4.666   4.849   4.794
  475SOL     OW 2323   0.983   6.534   6.101
  475SOL    HW1 2324   0.898   6.511   6.147
  475SOL    HW2 2325   1.019   6.453   6.054
  476SOL     OW 2326   0.061   5.075   2.512
  476SOL    HW1 2327   0.016   5.162   2.531
  476SOL    HW2 2328   0.110   5.081   2.425
  477SOL     OW 2329   1.462   5.421   4.488
  477SOL    HW1 2330   1.530   5.485   4.453
  477SOL    HW2 2331   1.490   5.390   4.579
  478SOL     OW 2332   1.656   5.287   3.336
  478SOL    HW1 2333   1.717   5.361   3.364
  478SOL    HW2 2334   1.564   5.304   3.374
  479SOL     OW 2335   3.266   1.411   1.244
  479SOL    HW1 2336   3.188   1.469   1.268
  479SOL    HW2 2337   3.302   1.439   1.155
  480SOL     OW 2338   1.573   6.656   2.463
  480SOL    HW1 2339   1.524   6.585   2.515
  480SOL    HW2 2340   1.579   6.628   2.367
  481SOL     OW 2341   2.965   6.629   1.516
  481SOL    HW1 2342   2.919   6.551   1.473
  481SOL    HW2 2343   3.043   6.596   1.569
  482SOL     OW 2344   5.691   4.954   1.356
  482SOL    HW1 2345   5.707   4.929   1.452
  482SOL    HW2 2346   5.762   4.913   1.299
  483SOL     OW 2347   5.984   1.675   1.047
  483SOL    HW1 2348   6.045   1.635   0.979
  483SOL    HW2 2349   6.037   1.731   1.111
  484SOL     OW 2350   6.926   2.319   5.338
  484SOL    HW1 2351   6.901   2.287   5.246
  484SOL    HW2 2352   6.875   2.266   5.406
  485SOL     OW 2353   3.776   5.474   2.199
  485SOL    HW1 2354   3.709   5.463   2.272
  485SOL    HW2 2355   3.758   5.408   2.127
  486SOL     OW 2356   0.094   0.648   6.707
  486SOL    HW1 2357   0.026   0.707   6.749
  486SOL    HW2 2358   0.067   0.626   6.613
  487SOL     OW 2359   6.427   2.986   6.564
  487SOL    HW1 2360   6.359   3.034   6.620
  487SOL    HW2 2361   6.419   2.887   6.579
  488SOL     OW 2362   0.493   3.188   2.585
  488SOL    HW1 2363   0.569   3.128   2.562
  488SOL    HW2 2364   0.509   3.279   2.546
  489SOL     OW 2365   3.276   6.190   5.806
  489SOL    HW1 2366   3.252   6.287   5.817
  489SOL    HW2 2367   3.234   6.155   5.723
  490SOL     OW 2368   5.047   6.222   4.305
  490SOL    HW1 2369   5.121   6.237   4.371
  490SOL    HW2 2370   4.959   6.219   4.354
  491SOL     OW 2371   0.245   2.468   3.365
  491SOL    HW1 2372   0.149   2.492   3.381
  491SOL    HW2 2373   0.295   2.550   3.336
  492SOL     OW 2374   1.764   1.063   4.996
  492SOL    HW1 2375   1.827   1.129   5.037
  492SOL    HW2 2376   1.759   0.982   5.053
  493SOL     OW 2377   6.292   3.899   4.036
  493SOL    HW1 2378   6.242   3.821   3.998
  493SOL    HW2 2379   6.249   3.927   4.122
  494SOL     OW 2380   6.664   1.072   6.949
  494SOL    HW1 2381   6.626   1.074   0.018
  494SOL    HW2 2382   6.595   1.038   6.885
  495SOL     OW 2383   4.027   4.930   1.094
  495SOL    HW1 2384   4.032   4.970   1.186
  495SOL    HW2 2385   3.946   4.966   1.047
  496SOL     OW 2386   6.141   3.309   3.744
  496SOL    HW1 2387   6.189   3.250   3.681
  496SOL    HW2 2388   6.172   3.292   3.838
  497SOL     OW 2389   4.533   0.398   3.938
  497SOL    HW1 2390   4.520   0.309   3.980
  497SOL    HW2 2391   4.520   0.470   4.006
  498SOL     OW 2392   1.042   3.357   2.958
  498SOL    HW1 2393   0.952   3.354   2.915
  498SOL    HW2 2394   1.091   3.439   2.929
  499SOL     OW 2395   3.458   1.612   5.250
  499SOL    HW1 2396   3.462   1.705   5.215
  499SOL    HW2 2397   3.397   1.610   5.330
  500SOL     OW 2398   1.166   4.038   2.847
  500SOL    HW1 2399   1.175   3.956   2.790
  500SOL    HW2 2400   1.249   4.093   2.840
  501SOL     OW 2401   0.621   5.009   6.411
  501SOL    HW1 2402   0.595   4.949   6.487
  501SOL    HW2 2403   0.669   4.956   6.342
  502SOL     OW 2404   2.928   5.285   6.421
  502SOL    HW1 2405   2.962   5.309   6.330
  502SOL    HW2 2406   3.005   5.277   6.484
  503SOL     OW 2407   5.528   5.660   4.912
  503SOL    HW1 2408   5.494   5.616   4.829
  503SOL    HW2 2409   5.621   5.627   4.931
  504SOL     OW 2410   1.941   5.626   4.167
  504SOL    HW1 2411   2.017   5.668   4.117
  504SOL    HW2 2412   1.856   5.671   4.142
  505SOL     OW 2413   4.060   0.119   5.589
  505SOL    HW1 2414   4.061   0.213   5.556
  505SOL    HW2 2415   4.150   0.095   5.624
  506SOL     OW 2416   2.164   3.827   6.933
  506SOL    HW1 2417   2.258   3.796   6.945
  506SOL    HW2 2418   2.143   3.895   7.004
  507SOL     OW 2419   3.345   1.457   4.186
  507SOL    HW1 2420   3.399   1.524   4.135
  507SOL    HW2 2421   3.357   1.367   4.144
  508SOL     OW 2422   6.168   4.515   3.971
  508SOL    HW1 2423   6.127   4.515   4.061
  508SOL    HW2 2424   6.177   4.609   3.938
  509SOL     OW 2425   4.585   2.237   2.008
  509SOL    HW1 2426   4.533   2.315   1.975
  509SOL    HW2 2427   4.662   2.269   2.063
  510SOL     OW 2428   0.191   4.182   4.106
  510SOL    HW1 2429   0.284   4.166   4.072
  510SOL    HW2 2430   0.126   4.127   4.053
  511SOL     OW 2431   0.583   6.536   1.222
  511SOL    HW1 2432   0.532   6.530   1.308
  511SOL    HW2 2433   0.522   6.566   1.149
  512SOL     OW 2434   0.285   3.818   6.521
  512SOL    HW1 2435   0.290   3.794   6.617
  512SOL    HW2 2436   0.190   3.817   6.491
  513SOL     OW 2437   6.923   5.528   4.323
  513SOL    HW1 2438   7.013   5.486   4.337
  513SOL    HW2 2439   6.854   5.473   4.369
  514SOL     OW 2440   5.981   1.642   3.775
  514SOL    HW1 2441   5.959   1.565   3.836
  514SOL    HW2 2442   6.033   1.608   3.697
  515SOL     OW 2443   1.900   6.350   0.341
  515SOL    HW1 2444   1.956   6.298   0.406
  515SOL    HW2 2445   1.858   6.427   0.389
  516SOL     OW 2446   1.299   5.158   2.344
  516SOL    HW1 2447   1.204   5.125   2.341
  516SOL    HW2 2448   1.353   5.097   2.403
  517SOL     OW 2449   4.953   0.797   6.919
  517SOL    HW1 2450   4.937   0.706   6.880
  517SOL    HW2 2451   5.032   0.794   6.980
  518SOL     OW 2452   2.376   1.883   0.672
  518SOL    HW1 2453   2.387   1.832   0.587
  518SOL    HW2 2454   2.280   1.906   0.685
  519SOL     OW 2455   0.524   6.636   0.981
  519SOL    HW1 2456   0.588   6.694   1.031
  519SOL    HW2 2457   0.574   6.569   0.927
  520SOL     OW 2458   6.212   4.336   5.102
  520SOL    HW1 2459   6.286   4.270   5.116
  520SOL    HW2 2460   6.213   4.369   5.008
  521SOL     OW 2461   6.591   0.801   0.921
  521SOL    HW1 2462   6.585   0.866   0.845
  521SOL    HW2 2463   6.529   0.725   0.905
  522SOL     OW 2464   3.623   3.487   5.367
  522SOL    HW1 2465   3.627   3.393   5.400
  522SOL    HW2 2466   3.691   3.500   5.294
  523SOL     OW 2467   6.669   6.301   4.887
  523SOL    HW1 2468   6.590   6.246   4.862
  523SOL    HW2 2469   6.638   6.388   4.926
  524SOL     OW 2470   3.850   1.508   5.518
  524SOL    HW1 2471   3.945   1.538   5.522
  524SOL    HW2 2472   3.815   1.517   5.425
  525SOL     OW 2473   2.497   2.989   6.693
  525SOL    HW1 2474   2.558   3.046   6.748
  525SOL    HW2 2475   2.542   2.963   6.608
  526SOL     OW 2476   4.231   6.098   4.697
  526SOL    HW1 2477   4.321   6.129   4.729
  526SOL    HW2 2478   4.244   6.019   4.637
  527SOL     OW 2479   1.010   2.097   6.745
  527SOL    HW1 2480   1.029   2.008   6.702
  527SOL    HW2 2481   0.972   2.159   6.676
  528SOL     OW 2482   2.541   0.553   5.557
  528SOL    HW1 2483   2.607   0.618   5.594
  528SOL    HW2 2484   2.565   0.461   5.588
  529SOL     OW 2485   7.020   4.582   4.437
  529SOL    HW1 2486   7.011   4.483   4.441
  529SOL    HW2 2487   6.966   4.617   4.361
  530SOL     OW 2488   1.446   2.966   5.088
  530SOL    HW1 2489   1.526   2.913   5.058
  530SOL    HW2 2490   1.374   2.904   5.118
  531SOL     OW 2491   0.118   0.615   0.293
  531SOL    HW1 2492   0.105   0.537   0.232
  531SOL    HW2 2493   0.086   0.698   0.247
  532SOL     OW 2494   2.229   0.281   5.328
  532SOL    HW1 2495   2.275   0.206   5.376
  532SOL    HW2 2496   2.149   0.310   5.381
  533SOL     OW 2497   5.414   0.075   4.282
  533SOL    HW1 2498   5.492   0.133   4.260
  533SOL    HW2 2499   5.433   7.003   4.254
  534SOL     OW 2500   4.008   5.880   2.007
  534SOL    HW1 2501   4.086   5.825   1.976
  534SOL    HW2 2502   3.979   5.849   2.097
  535SOL     OW 2503   6.783   4.190   3.013
  535SOL    HW1 2504   6.796   4.264   3.078
  535SOL    HW2 2505   6.757   4.107   3.062
  536SOL     OW 2506   1.182   5.606   0.568
  536SOL    HW1 2507   1.211   5.699   0.593
  536SOL    HW2 2508   1.187   5.547   0.649
  537SOL     OW 2509   2.539   0.674   2.746
  537SOL    HW1 2510   2.517   0.606   2.675
  537SOL    HW2 2511   2.588   0.751   2.704
  538SOL     OW 2512   1.315   4.436   3.480
  538SOL    HW1 2513   1.390   4.380   3.444
  538SOL    HW2 2514   1.334   4.533   3.463
  539SOL     OW 2515   1.329   5.358   1.115
  539SOL    HW1 2516   1.272   5.286   1.075
  539SOL    HW2 2517   1.312   5.363   1.213
  540SOL     OW 2518   1.531   2.533   1.397
  540SOL    HW1 2519   1.507   2.569   1.307
  540SOL    HW2 2520   1.501   2.599   1.467
  541SOL     OW 2521   3.930   5.423   4.952
  541SOL    HW1 2522   3.831   5.419   4.957
  541SOL    HW2 2523   3.962   5.359   4.881
  542SOL     OW 2524   5.990   6.065   6.874
  542SOL    HW1 2525   6.068   6.114   6.914
  542SOL    HW2 2526   5.926   6.131   6.833
  543SOL     OW 2527   0.071   6.178   0.086
  543SOL    HW1 2528   0.056   6.242   0.162
  543SOL    HW2 2529   0.170   6.168   0.071
  544SOL     OW 2530   1.449   5.719   6.962
  544SOL    HW1 2531   1.485   5.641   7.013
  544SOL    HW2 2532   1.514   5.795   6.965
  545SOL     OW 2533   3.384   2.093   3.955
  545SOL    HW1 2534   3.300   2.135   3.921
  545SOL    HW2 2535   3.405   2.012   3.901
  546SOL     OW 2536   1.336   3.240   6.876
  546SOL    HW1 2537   1.383   3.177   6.813
  546SOL    HW2 2538   1.391   3.323   6.887
  547SOL     OW 2539   3.062   2.307   0.128
  547SOL    HW1 2540   3.064   2.252   0.044
  547SOL    HW2 2541   2.968   2.315   0.161
  548SOL     OW 2542   3.261   3.424   5.003
  548SOL    HW1 2543   3.182   3.466   5.047
  548SOL    HW2 2544   3.231   3.354   4.938
  549SOL     OW 2545   0.204   3.775   1.578
  549SOL    HW1 2546   0.216   3.750   1.674
  549SOL    HW2 2547   0.266   3.721   1.521
  550SOL     OW 2548   6.957   3.749   1.491
  550SOL    HW1 2549   0.003   3.789   1.552
  550SOL    HW2 2550   6.988   3.759   1.396
  551SOL     OW 2551   0.003   1.994   6.679
  551SOL    HW1 2552   0.017   2.026   6.773
  551SOL    HW2 2553   0.043   1.903   6.669
  552SOL     OW 2554   4.770   5.480   0.872
  552SOL    HW1 2555   4.730   5.467   0.781
  552SOL    HW2 2556   4.869   5.462   0.868
  553SOL     OW 2557   1.231   1.734   1.534
  553SOL    HW1 2558   1.180   1.665   1.585
  553SOL    HW2 2559   1.192   1.825   1.552
  554SOL     OW 2560   5.272   5.678   4.988
  554SOL    HW1 2561   5.254   5.596   5.044
  554SOL    HW2 2562   5.368   5.679   4.961
  555SOL     OW 2563   1.863   4.304   4.599
  555SOL    HW1 2564   1.789   4.239   4.618
  555SOL    HW2 2565   1.838   4.363   4.523
  556SOL     OW 2566   5.691   3.211   2.882
  556SOL    HW1 2567   5.685   3.307   2.857
  556SOL    HW2 2568   5.716   3.202   2.978
  557SOL     OW 2569   6.910   5.305   6.142
  557SOL    HW1 2570   6.825   5.356   6.158
  557SOL    HW2 2571   6.988   5.367   6.155
  558SOL     OW 2572   4.600   3.770   5.498
  558SOL    HW1 2573   4.501   3.777   5.511
  558SOL    HW2 2574   4.629   3.675   5.511
  559SOL     OW 2575   5.967   5.890   6.096
  559SOL    HW1 2576   5.978   5.810   6.037
  559SOL    HW2 2577   5.872   5.897   6.126
  560SOL     OW 2578   4.015   6.657   6.956
  560SOL    HW1 2579   4.014   6.631   6.859
  560SOL    HW2 2580   4.100   6.626   6.998
  561SOL     OW 2581   5.178   6.304   1.145
  561SOL    HW1 2582   5.141   6.330   1.234
  561SOL    HW2 2583   5.183   6.385   1.086
  562SOL     OW 2584   6.498   0.663   6.886
  562SOL    HW1 2585   6.421   0.697   6.832
  562SOL    HW2 2586   6.470   0.652   6.981
  563SOL     OW 2587   3.386   0.173   4.885
  563SOL    HW1 2588   3.328   0.228   4.945
  563SOL    HW2 2589   3.330   0.108   4.834
  564SOL     OW 2590   0.019   1.715   6.782
  564SOL    HW1 2591   6.960   1.737   6.836
  564SOL    HW2 2592   0.100   1.753   6.827
  565SOL     OW 2593   4.613   4.384   5.223
  565SOL    HW1 2594   4.610   4.284   5.213
  565SOL    HW2 2595   4.706   4.411   5.248
  566SOL     OW 2596   5.213   4.977   2.189
  566SOL    HW1 2597   5.149   4.918   2.239
  566SOL    HW2 2598   5.299   4.984   2.240
  567SOL     OW 2599   3.966   3.832   4.044
  567SOL    HW1 2600   4.018   3.820   3.960
  567SOL    HW2 2601   4.000   3.767   4.113
  568SOL     OW 2602   2.008   1.302   6.035
  568SOL    HW1 2603   1.958   1.389   6.039
  568SOL    HW2 2604   2.001   1.255   6.122
  569SOL     OW 2605   2.441   3.735   6.947
  569SOL    HW1 2606   2.515   3.801   6.941
  569SOL    HW2 2607   2.473   3.652   6.993
  570SOL     OW 2608   0.540   6.184   1.131
  570SOL    HW1 2609   0.576   6.218   1.218
  570SOL    HW2 2610   0.531   6.085   1.135
  571SOL     OW 2611   4.277   5.575   2.857
  571SOL    HW1 2612   4.279   5.512   2.935
  571SOL    HW2 2613   4.217   5.539   2.786
  572SOL     OW 2614   2.127   4.214   4.569
  572SOL    HW1 2615   2.127   4.114   4.578
  572SOL    HW2 2616   2.033   4.246   4.555
  573SOL     OW 2617   3.717   2.483   6.321
  573SOL    HW1 2618   3.771   2.566   6.312
  573SOL    HW2 2619   3.773   2.411   6.361
  574SOL     OW 2620   2.695   1.297   4.371
  574SOL    HW1 2621   2.647   1.378   4.404
  574SOL    HW2 2622   2.753   1.322   4.293
  575SOL     OW 2623   5.368   2.211   6.643
  575SOL    HW1 2624   5.288   2.151   6.651
  575SOL    HW2 2625   5.345   2.289   6.586
  576SOL     OW 2626   0.630   2.149   2.704
  576SOL    HW1 2627   0.707   2.184   2.757
  576SOL    HW2 2628   0.546   2.157   2.759
  577SOL     OW 2629   2.985   2.170   4.124
  577SOL    HW1 2630   3.081   2.195   4.142
  577SOL    HW2 2631   2.929   2.194   4.203
  578SOL     OW 2632   0.288   3.541   4.544
  578SOL    HW1 2633   0.295   3.476   4.620
  578SOL    HW2 2634   0.202   3.525   4.495
  579SOL     OW 2635   3.750   3.434   0.538
  579SOL    HW1 2636   3.847   3.415   0.551
  579SOL    HW2 2637   3.696   3.379   0.602
  580SOL     OW 2638   0.556   5.898   6.891
  580SOL    HW1 2639   0.470   5.861   6.855
  580SOL    HW2 2640   0.598   5.832   6.953
  581SOL     OW 2641   3.543   3.440   2.182
  581SOL    HW1 2642   3.470   3.491   2.137
  581SOL    HW2 2643   3.541   3.344   2.153
  582SOL     OW 2644   6.236   4.385   2.101
  582SOL    HW1 2645   6.297   4.418   2.172
  582SOL    HW2 2646   6.184   4.462   2.064
  583SOL     OW 2647   2.276   5.638   6.859
  583SOL    HW1 2648   2.193   5.674   6.818
  583SOL    HW2 2649   2.256   5.603   6.950
  584SOL     OW 2650   0.862   5.293   4.834
  584SOL    HW1 2651   0.898   5.200   4.843
  584SOL    HW2 2652   0.803   5.298   4.753
  585SOL     OW 2653   6.196   1.455   5.726
  585SOL    HW1 2654   6.219   1.535   5.670
  585SOL    HW2 2655   6.276   1.396   5.734
  586SOL     OW 2656   2.445   5.912   0.809
  586SOL    HW1 2657   2.544   5.920   0.806
  586SOL    HW2 2658   2.419   5.836   0.868
  587SOL     OW 2659   1.303   3.723   6.055
  587SOL    HW1 2660   1.349   3.682   5.976
  587SOL    HW2 2661   1.304   3.659   6.131
  588SOL     OW 2662   2.238   0.217   1.582
  588SOL    HW1 2663   2.244   0.171   1.494
  588SOL    HW2 2664   2.319   0.197   1.637
  589SOL     OW 2665   4.466   5.124   2.418
  589SOL    HW1 2666   4.545   5.117   2.479
  589SOL    HW2 2667   4.495   5.116   2.323
  590SOL     OW 2668   6.448   2.371   1.605
  590SOL    HW1 2669   6.419   2.433   1.532
  590SOL    HW2 2670   6.511   2.303   1.567
  591SOL     OW 2671   3.015   6.593   2.572
  591SOL    HW1 2672   3.065   6.608   2.486
  591SOL    HW2 2673   3.010   6.495   2.591
  592SOL     OW 2674   5.263   0.703   6.810
  592SOL    HW1 2675   5.276   0.620   6.864
  592SOL    HW2 2676   5.234   0.680   6.718
  593SOL     OW 2677   6.040   1.261   4.209
  593SOL    HW1 2678   5.996   1.172   4.224
  593SOL    HW2 2679   6.132   1.260   4.248
  594SOL     OW 2680   5.208   3.041   1.830
  594SOL    HW1 2681   5.135   3.024   1.896
  594SOL    HW2 2682   5.175   3.022   1.738
  595SOL     OW 2683   4.728   6.814   3.790
  595SOL    HW1 2684   4.665   6.859   3.727
  595SOL    HW2 2685   4.681   6.742   3.840
  596SOL     OW 2686   0.852   4.128   2.437
  596SOL    HW1 2687   0.867   4.062   2.363
  596SOL    HW2 2688   0.786   4.197   2.407
  597SOL     OW 2689   4.264   2.136   6.042
  597SOL    HW1 2690   4.245   2.085   5.958
  597SOL    HW2 2691   4.191   2.202   6.058
  598SOL     OW 2692   2.996   3.958   1.178
  598SOL    HW1 2693   3.005   3.861   1.199
  598SOL    HW2 2694   2.984   4.009   1.263
  599SOL     OW 2695   0.159   6.607   3.380
  599SOL    HW1 2696   0.149   6.512   3.351
  599SOL    HW2 2697   0.071   6.642   3.410
  600SOL     OW 2698   2.228   1.075   1.562
  600SOL    HW1 2699   2.235   0.985   1.519
  600SOL    HW2 2700   2.289   1.079   1.641
  601SOL     OW 2701   2.347   4.874   3.430
  601SOL    HW1 2702   2.434   4.923   3.420
  601SOL    HW2 2703   2.312   4.851   3.339
  602SOL     OW 2704   0.430   0.606   1.690
  602SOL    HW1 2705   0.355   0.655   1.735
  602SOL    HW2 2706   0.455   0.526   1.744
  603SOL     OW 2707   4.051   2.166   3.166
  603SOL    HW1 2708   4.017   2.155   3.073
  603SOL    HW2 2709   4.150   2.151   3.166
  604SOL     OW 2710   0.877   4.114   5.567
  604SOL    HW1 2711   0.864   4.073   5.477
  604SOL    HW2 2712   0.904   4.210   5.557
  605SOL     OW 2713   5.943   6.797   4.726
  605SOL    HW1 2714   5.973   6.702   4.728
  605SOL    HW2 2715   5.919   6.826   4.819
  606SOL     OW 2716   3.655   6.828   2.745
  606SOL    HW1 2717   3.736   6.817   2.804
  606SOL    HW2 2718   3.681   6.880   2.664
  607SOL     OW 2719   4.160   0.732   3.908
  607SOL    HW1 2720   4.087   0.663   3.900
  607SOL    HW2 2721   4.140   0.792   3.985
  608SOL     OW 2722   4.950   1.791   1.896
  608SOL    HW1 2723   4.982   1.868   1.950
  608SOL    HW2 2724   4.992   1.793   1.806
  609SOL     OW 2725   2.997   3.448   4.598
  609SOL    HW1 2726   2.997   3.548   4.608
  609SOL    HW2 2727   2.951   3.407   4.676
  610SOL     OW 2728   6.049   1.574   4.637
  610SOL    HW1 2729   6.098   1.508   4.580
  610SOL    HW2 2730   5.984   1.624   4.580
  611SOL     OW 2731   6.129   6.938   0.296
  611SOL    HW1 2732   6.081   6.858   0.332
  611SOL    HW2 2733   6.080   7.021   0.322
  612SOL     OW 2734   2.788   5.207   5.733
  612SOL    HW1 2735   2.778   5.269   5.655
  612SOL    HW2 2736   2.769   5.114   5.704
  613SOL     OW 2737   3.286   1.634   6.707
  613SOL    HW1 2738   3.314   1.651   6.802
  613SOL    HW2 2739   3.348   1.684   6.646
  614SOL     OW 2740   5.406   3.402   1.177
  614SOL    HW1 2741   5.492   3.425   1.223
  614SOL    HW2 2742   5.365   3.486   1.140
  615SOL     OW 2743   5.163   0.100   1.012
  615SOL    HW1 2744   5.156   0.123   1.109
  615SOL    HW2 2745   5.092   0.034   0.988
  616SOL     OW 2746   5.529   0.510   4.791
  616SOL    HW1 2747   5.563   0.416   4.794
  616SOL    HW2 2748   5.475   0.529   4.873
  617SOL     OW 2749   6.966   5.858   5.557
  617SOL    HW1 2750   6.980   5.769   5.514
  617SOL    HW2 2751   6.908   5.848   5.638
  618SOL     OW 2752   5.889   4.865   0.052
  618SOL    HW1 2753   5.797   4.897   0.075
  618SOL    HW2 2754   5.942   4.852   0.136
  619SOL     OW 2755   2.852   6.679   5.824
  619SOL    HW1 2756   2.907   6.613   5.874
  619SOL    HW2 2757   2.784   6.631   5.769
  620SOL     OW 2758   5.135   1.964   2.736
  620SOL    HW1 2759   5.131   1.900   2.659
  620SOL    HW2 2760   5.069   1.936   2.805
  621SOL     OW 2761   2.805   0.379   6.707
  621SOL    HW1 2762   2.875   0.365   6.637
  621SOL    HW2 2763   2.791   0.293   6.757
  622SOL     OW 2764   0.376   3.031   5.484
  622SOL    HW1 2765   0.324   3.018   5.568
  622SOL    HW2 2766   0.435   2.951   5.468
  623SOL     OW 2767   6.564   0.024   3.269
  623SOL    HW1 2768   6.572   6.950   3.248
  623SOL    HW2 2769   6.638   0.051   3.332
  624SOL     OW 2770   6.943   1.165   5.957
  624SOL    HW1 2771   0.001   1.124   5.914
  624SOL    HW2 2772   6.874   1.184   5.888
  625SOL     OW 2773   3.681   1.126   1.222
  625SOL    HW1 2774   3.626   1.116   1.139
  625SOL    HW2 2775   3.675   1.042   1.276
  626SOL     OW 2776   6.959   5.987   3.323
  626SOL    HW1 2777   6.961   5.896   3.283
  626SOL    HW2 2778   7.013   5.988   3.407
  627SOL     OW 2779   6.543   5.909   0.595
  627SOL    HW1 2780   6.499   5.885   0.681
  627SOL    HW2 2781   6.590   5.829   0.557
  628SOL     OW 2782   3.720   4.880   6.093
  628SOL    HW1 2783   3.791   4.951   6.092
  628SOL    HW2 2784   3.760   4.793   6.065
  629SOL     OW 2785   1.178   6.431   6.936
  629SOL    HW1 2786   1.256   6.490   6.959
  629SOL    HW2 2787   1.168   6.361   7.006
  630SOL     OW 2788   6.683   1.478   1.144
  630SOL    HW1 2789   6.647   1.503   1.054
  630SOL    HW2 2790   6.776   1.443   1.134
  631SOL     OW 2791   1.726   2.607   3.585
  631SOL    HW1 2792   1.782   2.689   3.590
  631SOL    HW2 2793   1.759   2.539   3.651
  632SOL     OW 2794   2.876   4.071   0.560
  632SOL    HW1 2795   2.803   4.078   0.492
  632SOL    HW2 2796   2.845   4.110   0.647
  633SOL     OW 2797   1.582   5.535   0.625
  633SOL    HW1 2798   1.675   5.503   0.640
  633SOL    HW2 2799   1.519   5.484   0.684
  634SOL     OW 2800   2.934   3.271   4.816
  634SOL    HW1 2801   2.955   3.284   4.913
  634SOL    HW2 2802   2.840   3.239   4.805
  635SOL     OW 2803   5.600   6.981   6.307
  635SOL    HW1 2804   5.636   0.019   6.377
  635SOL    HW2 2805   5.606   6.887   6.338
  636SOL     OW 2806   2.850   0.694   5.258
  636SOL    HW1 2807   2.914   0.737   5.322
  636SOL    HW2 2808   2.802   0.619   5.305
  637SOL     OW 2809   0.245   1.187   2.881
  637SOL    HW1 2810   0.285   1.119   2.819
  637SOL    HW2 2811   0.194   1.254   2.828
  638SOL     OW 2812   6.461   3.084   5.324
  638SOL    HW1 2813   6.381   3.143   5.338
  638SOL    HW2 2814   6.442   3.021   5.249
  639SOL     OW 2815   5.733   4.293   2.008
  639SOL    HW1 2816   5.754   4.256   1.917
  639SOL    HW2 2817   5.808   4.273   2.070
  640SOL     OW 2818   0.059   3.227   2.546
  640SOL    HW1 2819   0.005   3.208   2.628
  640SOL    HW2 2820   0.093   3.141   2.508
  641SOL     OW 2821   2.568   5.373   4.772
  641SOL    HW1 2822   2.515   5.443   4.722
  641SOL    HW2 2823   2.645   5.344   4.715
  642SOL     OW 2824   0.102   5.228   4.870
  642SOL    HW1 2825   0.163   5.290   4.919
  642SOL    HW2 2826   0.153   5.181   4.798
  643SOL     OW 2827   4.336   5.091   0.707
  643SOL    HW1 2828   4.317   5.121   0.613
  643SOL    HW2 2829   4.360   4.995   0.707
  644SOL     OW 2830   6.836   6.300   5.481
  644SOL    HW1 2831   6.790   6.355   5.412
  644SOL    HW2 2832   6.816   6.336   5.572
  645SOL     OW 2833   3.964   5.856   2.269
  645SOL    HW1 2834   3.974   5.758   2.251
  645SOL    HW2 2835   3.881   5.872   2.322
  646SOL     OW 2836   3.720   2.149   4.639
  646SOL    HW1 2837   3.622   2.133   4.652
  646SOL    HW2 2838   3.750   2.223   4.699
  647SOL     OW 2839   3.503   2.611   6.227
  647SOL    HW1 2840   3.588   2.571   6.260
  647SOL    HW2 2841   3.489   2.701   6.269
  648SOL     OW 2842   6.247   1.347   3.504
  648SOL    HW1 2843   6.335   1.394   3.497
  648SOL    HW2 2844   6.243   1.274   3.436
  649SOL     OW 2845   2.756   5.344   0.311
  649SOL    HW1 2846   2.728   5.430   0.267
  649SOL    HW2 2847   2.837   5.308   0.265
  650SOL     OW 2848   0.305   3.380   0.970
  650SOL    HW1 2849   0.386   3.371   0.912
  650SOL    HW2 2850   0.278   3.289   1.004
  651SOL     OW 2851   0.619   0.335   3.600
  651SOL    HW1 2852   0.638   0.245   3.560
  651SOL    HW2 2853   0.632   0.331   3.699
  652SOL     OW 2854   4.121   5.465   0.844
  652SOL    HW1 2855   4.147   5.383   0.893
  652SOL    HW2 2856   4.200   5.525   0.833
  653SOL     OW 2857   1.528   6.293   2.343
  653SOL    HW1 2858   1.589   6.280   2.265
  653SOL    HW2 2859   1.579   6.334   2.419
  654SOL     OW 2860   0.753   0.158   5.845
  654SOL    HW1 2861   0.817   0.192   5.777
  654SOL    HW2 2862   0.713   0.235   5.895
  655SOL     OW 2863   0.693   3.829   1.395
  655SOL    HW1 2864   0.685   3.788   1.486
  655SOL    HW2 2865   0.615   3.802   1.339
  656SOL     OW 2866   2.898   6.093   6.750
  656SOL    HW1 2867   2.807   6.135   6.750
  656SOL    HW2 2868   2.910   6.041   6.666
  657SOL     OW 2869   3.728   3.330   3.312
  657SOL    HW1 2870   3.815   3.285   3.330
  657SOL    HW2 2871   3.721   3.350   3.214
  658SOL     OW 2872   0.944   1.503   4.025
  658SOL    HW1 2873   0.951   1.452   3.940
  658SOL    HW2 2874   1.018   1.570   4.030
  659SOL     OW 2875   1.888   5.514   6.604
  659SOL    HW1 2876   1.920   5.436   6.656
  659SOL    HW2 2877   1.795   5.498   6.573
  660SOL     OW 2878   5.302   4.453   3.057
  660SOL    HW1 2879   5.376   4.390   3.033
  660SOL    HW2 2880   5.339   4.533   3.104
  661SOL     OW 2881   4.456   5.395   3.989
  661SOL    HW1 2882   4.359   5.396   3.965
  661SOL    HW2 2883   4.488   5.489   4.004
  662SOL     OW 2884   4.744   3.793   0.007
  662SOL    HW1 2885   4.679   3.851   6.980
  662SOL    HW2 2886   4.751   3.704   6.985
  663SOL     OW 2887   0.065   4.347   0.247
  663SOL    HW1 2888   0.107   4.368   0.336
  663SOL    HW2 2889   0.134   4.310   0.185
  664SOL     OW 2890   1.662   0.037   5.933
  664SOL    HW1 2891   1.758   0.054   5.951
  664SOL    HW2 2892   1.651   7.020   5.842
  665SOL     OW 2893   3.445   4.996   2.993
  665SOL    HW1 2894   3.493   5.001   2.906
  665SOL    HW2 2895   3.361   4.943   2.982
  666SOL     OW 2896   3.317   0.878   6.717
  666SOL    HW1 2897   3.255   0.895   6.793
  666SOL    HW2 2898   3.344   0.782   6.716
  667SOL     OW 2899   1.658   3.187   2.267
  667SOL    HW1 2900   1.602   3.155   2.190
  667SOL    HW2 2901   1.732   3.121   2.283
  668SOL     OW 2902   4.934   0.154   0.839
  668SOL    HW1 2903   4.893   0.131   0.927
  668SOL    HW2 2904   5.031   0.127   0.840
  669SOL     OW 2905   0.855   5.799   2.886
  669SOL    HW1 2906   0.846   5.701   2.906
  669SOL    HW2 2907   0.943   5.816   2.842
  670SOL     OW 2908   3.533   3.541   3.146
  670SOL    HW1 2909   3.594   3.563   3.069
  670SOL    HW2 2910   3.583   3.551   3.232
  671SOL     OW 2911   1.854   0.475   6.685
  671SOL    HW1 2912   1.945   0.490   6.648
  671SOL    HW2 2913   1.829   0.552   6.744
  672SOL     OW 2914   0.928   2.270   2.801
  672SOL    HW1 2915   1.011   2.318   2.828
  672SOL    HW2 2916   0.892   2.217   2.878
  673SOL     OW 2917   4.910   0.316   0.173
  673SOL    HW1 2918   4.910   0.414   0.197
  673SOL    HW2 2919   4.876   0.263   0.251
  674SOL     OW 2920   6.787   2.321   4.751
  674SOL    HW1 2921   6.709   2.330   4.814
  674SOL    HW2 2922   6.854   2.259   4.791
  675SOL     OW 2923   6.280   6.753   3.754
  675SOL    HW1 2924   6.286   6.674   3.815
  675SOL    HW2 2925   6.303   6.836   3.805
  676SOL     OW 2926   2.712   5.345   4.325
  676SOL    HW1 2927   2.752   5.271   4.378
  676SOL    HW2 2928   2.613   5.339   4.329
  677SOL     OW 2929   4.782   6.703   0.891
  677SOL    HW1 2930   4.705   6.752   0.850
  677SOL    HW2 2931   4.864   6.714   0.834
  678SOL     OW 2932   2.383   1.191   5.573
  678SOL    HW1 2933   2.383   1.093   5.557
  678SOL    HW2 2934   2.350   1.211   5.666
  679SOL     OW 2935   6.248   0.813   2.220
  679SOL    HW1 2936   6.174   0.880   2.222
  679SOL    HW2 2937   6.333   0.858   2.191
  680SOL     OW 2938   5.907   4.398   4.439
  680SOL    HW1 2939   5.999   4.437   4.432
  680SOL    HW2 2940   5.855   4.449   4.507
  681SOL     OW 2941   1.299   6.652   2.089
  681SOL    HW1 2942   1.287   6.559   2.054
  681SOL    HW2 2943   1.267   6.656   2.184
  682SOL     OW 2944   0.031   0.165   6.162
  682SOL    HW1 2945   6.977   0.215   6.202
  682SOL    HW2 2946   7.018   0.096   6.099
  683SOL     OW 2947   5.156   1.776   1.068
  683SOL    HW1 2948   5.218   1.745   1.140
  683SOL    HW2 2949   5.062   1.749   1.091
  684SOL     OW 2950   0.564   5.851   6.077
  684SOL    HW1 2951   0.654   5.806   6.075
  684SOL    HW2 2952   0.512   5.817   6.155
  685SOL     OW 2953   6.454   0.593   6.560
  685SOL    HW1 2954   6.416   0.662   6.622
  685SOL    HW2 2955   6.394   0.513   6.558
  686SOL     OW 2956   5.666   4.682   3.214
  686SOL    HW1 2957   5.685   4.726   3.301
  686SOL    HW2 2958   5.751   4.673   3.162
  687SOL     OW 2959   5.991   2.284   5.672
  687SOL    HW1 2960   5.919   2.275   5.603
  687SOL    HW2 2961   6.010   2.381   5.686
  688SOL     OW 2962   6.786   3.369   5.066
  688SOL    HW1 2963   6.860   3.394   5.128
  688SOL    HW2 2964   6.699   3.370   5.115
  689SOL     OW 2965   6.255   4.195   4.749
  689SOL    HW1 2966   6.183   4.194   4.819
  689SOL    HW2 2967   6.342   4.167   4.790
  690SOL     OW 2968   0.270   3.475   3.836
  690SOL    HW1 2969   0.365   3.477   3.803
  690SOL    HW2 2970   0.236   3.381   3.833
  691SOL     OW 2971   7.009   3.198   6.463
  691SOL    HW1 2972   7.004   3.280   6.520
  691SOL    HW2 2973   0.011   3.225   6.369
  692SOL     OW 2974   2.492   0.286   3.061
  692SOL    HW1 2975   2.554   0.211   3.083
  692SOL    HW2 2976   2.430   0.259   2.988
  693SOL     OW 2977   6.362   1.657   2.373
  693SOL    HW1 2978   6.311   1.586   2.420
  693SOL    HW2 2979   6.316   1.680   2.288
  694SOL     OW 2980   1.577   0.081   2.100
  694SOL    HW1 2981   1.631   0.002   2.129
  694SOL    HW2 2982   1.638   0.155   2.073
  695SOL     OW 2983   4.740   5.739   6.262
  695SOL    HW1 2984   4.661   5.801   6.261
  695SOL    HW2 2985   4.821   5.789   6.290
  696SOL     OW 2986   5.126   6.567   3.018
  696SOL    HW1 2987   5.192   6.641   3.010
  696SOL    HW2 2988   5.100   6.555   3.114
  697SOL     OW 2989   1.514   3.734   3.788
  697SOL    HW1 2990   1.551   3.790   3.714
  697SOL    HW2 2991   1.433   3.777   3.827
  698SOL     OW 2992   5.162   5.880   3.976
  698SOL    HW1 2993   5.137   5.906   4.069
  698SOL    HW2 2994   5.121   5.791   3.955
  699SOL     OW 2995   0.862   4.190   6.822
  699SOL    HW1 2996   0.814   4.276   6.837
  699SOL    HW2 2997   0.888   4.182   6.725
  700SOL     OW 2998   1.957   1.486   4.015
  700SOL    HW1 2999   2.035   1.446   4.061
  700SOL    HW2 3000   1.880   1.493   4.078
  701SOL     OW 3001   1.047   4.973   6.005
  701SOL    HW1 3002   0.984   4.905   6.043
  701SOL    HW2 3003   1.003   5.022   5.930
  702SOL     OW 3004   5.530   6.059   4.801
  702SOL    HW1 3005   5.541   6.134   4.865
  702SOL    HW2 3006   5.504   5.976   4.851
  703SOL     OW 3007   4.548   3.944   6.641
  703SOL    HW1 3008   4.553   4.011   6.567
  703SOL    HW2 3009   4.566   3.852   6.604
  704SOL     OW 3010   2.627   0.530   1.736
  704SOL    HW1 3011   2.653   0.626   1.747
  704SOL    HW2 3012   2.556   0.523   1.666
  705SOL     OW 3013   0.001   2.096   3.625
  705SOL    HW1 3014   0.081   2.035   3.625
  705SOL    HW2 3015   7.019   2.144   3.538
  706SOL     OW 3016   4.951   2.669   3.834
  706SOL    HW1 3017   4.906   2.646   3.748
  706SOL    HW2 3018   5.044   2.632   3.834
  707SOL     OW 3019   4.675   2.033   2.605
  707SOL    HW1 3020   4.747   2.070   2.664
  707SOL    HW2 3021   4.712   1.959   2.549
  708SOL     OW 3022   4.522   0.407   2.026
  708SOL    HW1 3023   4.461   0.462   1.969
  708SOL    HW2 3024   4.546   0.458   2.109
  709SOL     OW 3025   0.871   5.221   0.218
  709SOL    HW1 3026   0.807   5.266   0.156
  709SOL    HW2 3027   0.823   5.194   0.301
  710SOL     OW 3028   2.911   3.425   2.631
  710SOL    HW1 3029   2.830   3.426   2.573
  710SOL    HW2 3030   2.991   3.403   2.575
  711SOL     OW 3031   1.141   1.166   4.869
  711SOL    HW1 3032   1.108   1.086   4.919
  711SOL    HW2 3033   1.200   1.220   4.928
  712SOL     OW 3034   1.058   3.721   2.223
  712SOL    HW1 3035   1.149   3.763   2.219
  712SOL    HW2 3036   1.039   3.674   2.137
  713SOL     OW 3037   3.498   3.674   3.897
  713SOL    HW1 3038   3.535   3.668   3.804
  713SOL    HW2 3039   3.564   3.719   3.956
  714SOL     OW 3040   5.093   5.215   5.573
  714SOL    HW1 3041   5.061   5.189   5.664
  714SOL    HW2 3042   5.021   5.265   5.526
  715SOL     OW 3043   4.881   0.896   6.659
  715SOL    HW1 3044   4.911   0.860   6.748
  715SOL    HW2 3045   4.787   0.929   6.667
  716SOL     OW 3046   6.693   5.402   2.010
  716SOL    HW1 3047   6.720   5.480   2.065
  716SOL    HW2 3048   6.766   5.380   1.945
  717SOL     OW 3049   5.912   3.034   7.022
  717SOL    HW1 3050   5.878   3.057   0.090
  717SOL    HW2 3051   5.958   3.113   6.982
  718SOL     OW 3052   2.240   3.178   6.786
  718SOL    HW1 3053   2.315   3.177   6.852
  718SOL    HW2 3054   2.255   3.109   6.716
  719SOL     OW 3055   5.126   5.174   0.494
  719SOL    HW1 3056   5.166   5.183   0.585
  719SOL    HW2 3057   5.128   5.078   0.466
  720SOL     OW 3058   2.611   0.941   6.163
  720SOL    HW1 3059   2.673   0.865   6.141
  720SOL    HW2 3060   2.556   0.917   6.242
  721SOL     OW 3061   1.447   6.206   5.417
  721SOL    HW1 3062   1.405   6.139   5.356
  721SOL    HW2 3063   1.390   6.218   5.498
  722SOL     OW 3064   4.345   6.459   5.368
  722SOL    HW1 3065   4.410   6.398   5.322
  722SOL    HW2 3066   4.351   6.446   5.467
  723SOL     OW 3067   1.723   3.365   2.004
  723SOL    HW1 3068   1.686   3.348   2.095
  723SOL    HW2 3069   1.822   3.349   2.005
  724SOL     OW 3070   6.456   0.451   4.456
  724SOL    HW1 3071   6.378   0.401   4.419
  724SOL    HW2 3072   6.442   0.468   4.554
  725SOL     OW 3073   2.670   4.789   1.310
  725SOL    HW1 3074   2.731   4.710   1.318
  725SOL    HW2 3075   2.672   4.842   1.395
  726SOL     OW 3076   4.436   6.856   5.700
  726SOL    HW1 3077   4.474   6.784   5.642
  726SOL    HW2 3078   4.336   6.847   5.702
  727SOL     OW 3079   2.398   4.414   3.707
  727SOL    HW1 3080   2.468   4.363   3.758
  727SOL    HW2 3081   2.439   4.453   3.625
  728SOL     OW 3082   0.035   3.043   5.141
  728SOL    HW1 3083   0.096   3.001   5.074
  728SOL    HW2 3084   0.016   2.979   5.215
  729SOL     OW 3085   3.324   0.705   0.724
  729SOL    HW1 3086   3.369   0.644   0.789
  729SOL    HW2 3087   3.267   0.652   0.661
  730SOL     OW 3088   5.416   1.344   5.019
  730SOL    HW1 3089   5.354   1.417   5.047
  730SOL    HW2 3090   5.378   1.256   5.048
  731SOL     OW 3091   6.416   3.001   4.309
  731SOL    HW1 3092   6.393   2.955   4.395
  731SOL    HW2 3093   6.500   2.962   4.272
  732SOL     OW 3094   6.870   3.109   3.335
  732SOL    HW1 3095   6.838   3.171   3.406
  732SOL    HW2 3096   6.956   3.066   3.364
  733SOL     OW 3097   4.411   4.789   4.433
  733SOL    HW1 3098   4.507   4.767   4.450
  733SOL    HW2 3099   4.405   4.848   4.352
  734SOL     OW 3100   0.932   4.847   0.081
  734SOL    HW1 3101   0.878   4.899   0.148
  734SOL    HW2 3102   0.925   4.891   7.014
  735SOL     OW 3103   2.394   4.923   6.766
  735SOL    HW1 3104   2.354   4.969   6.687
  735SOL    HW2 3105   2.330   4.926   6.843
  736SOL     OW 3106   5.818   0.920   2.849
  736SOL    HW1 3107   5.916   0.901   2.858
  736SOL    HW2 3108   5.800   0.960   2.759
  737SOL     OW 3109   5.780   3.951   0.639
  737SOL    HW1 3110   5.827   4.020   0.585
  737SOL    HW2 3111   5.732   3.887   0.579
  738SOL     OW 3112   0.691   4.564   3.072
  738SOL    HW1 3113   0.592   4.578   3.081
  738SOL    HW2 3114   0.736   4.653   3.063
  739SOL     OW 3115   4.114   6.223   6.385
  739SOL    HW1 3116   4.133   6.125   6.388
  739SOL    HW2 3117   4.195   6.275   6.412
  740SOL     OW 3118   5.368   0.341   0.664
  740SOL    HW1 3119   5.330   0.291   0.742
  740SOL    HW2 3120   5.392   0.434   0.693
  741SOL     OW 3121   2.492   0.358   4.017
  741SOL    HW1 3122   2.501   0.292   3.942
  741SOL    HW2 3123   2.409   0.413   4.003
  742SOL     OW 3124   1.702   6.884   2.227
  742SOL    HW1 3125   1.664   6.791   2.223
  742SOL    HW2 3126   1.798   6.881   2.200
  743SOL     OW 3127   1.872   3.176   4.640
  743SOL    HW1 3128   1.858   3.252   4.703
  743SOL    HW2 3129   1.953   3.193   4.584
  744SOL     OW 3130   0.127   5.635   1.029
  744SOL    HW1 3131   0.076   5.571   0.971
  744SOL    HW2 3132   0.065   5.704   1.065
  745SOL     OW 3133   1.828   5.780   3.339
  745SOL    HW1 3134   1.878   5.757   3.256
  745SOL    HW2 3135   1.885   5.837   3.398
  746SOL     OW 3136   2.722   0.634   4.149
  746SOL    HW1 3137   2.737   0.731   4.169
  746SOL    HW2 3138   2.662   0.595   4.219
  747SOL     OW 3139   6.026   4.197   1.533
  747SOL    HW1 3140   6.007   4.278   1.477
  747SOL    HW2 3141   6.124   4.179   1.533
  748SOL     OW 3142   3.793   3.043   2.297
  748SOL    HW1 3143   3.781   2.947   2.270
  748SOL    HW2 3144   3.863   3.085   2.240
  749SOL     OW 3145   6.652   1.498   5.045
  749SOL    HW1 3146   6.593   1.558   4.990
  749SOL    HW2 3147   6.740   1.544   5.061
  750SOL     OW 3148   3.002   3.706   1.225
  750SOL    HW1 3149   2.906   3.707   1.253
  750SOL    HW2 3150   3.029   3.613   1.200
  751SOL     OW 3151   4.957   1.162   0.676
  751SOL    HW1 3152   5.026   1.106   0.723
  751SOL    HW2 3153   4.969   1.258   0.702
  752SOL     OW 3154   4.611   1.261   2.032
  752SOL    HW1 3155   4.668   1.182   2.011
  752SOL    HW2 3156   4.524   1.252   1.983
  753SOL     OW 3157   2.835   1.432   2.260
  753SOL    HW1 3158   2.896   1.490   2.206
  753SOL    HW2 3159   2.817   1.476   2.349
  754SOL     OW 3160   5.084   5.806   6.870
  754SOL    HW1 3161   5.160   5.783   6.809
  754SOL    HW2 3162   5.027   5.725   6.884
  755SOL     OW 3163   6.997   6.010   3.035
  755SOL    HW1 3164   6.998   5.948   2.956
  755SOL    HW2 3165   0.064   6.010   3.079
  756SOL     OW 3166   3.463   6.593   3.710
  756SOL    HW1 3167   3.459   6.600   3.610
  756SOL    HW2 3168   3.512   6.671   3.748
  757SOL     OW 3169   6.478   0.949   5.004
  757SOL    HW1 3170   6.443   1.002   5.081
  757SOL    HW2 3171   6.557   0.995   4.964
  758SOL     OW 3172   4.307   2.001   2.065
  758SOL    HW1 3173   4.236   1.954   2.013
  758SOL    HW2 3174   4.394   1.993   2.016
  759SOL     OW 3175   1.907   0.557   0.685
  759SOL    HW1 3176   1.828   0.561   0.624
  759SOL    HW2 3177   1.989   0.539   0.631
  760SOL     OW 3178   4.499   2.332   5.859
  760SOL    HW1 3179   4.593   2.307   5.833
  760SOL    HW2 3180   4.463   2.264   5.922
  761SOL     OW 3181   5.653   1.628   0.119
  761SOL    HW1 3182   5.685   1.642   0.213
  761SOL    HW2 3183   5.553   1.628   0.119
  762SOL     OW 3184   2.166   5.176   4.154
  762SOL    HW1 3185   2.083   5.213   4.195
  762SOL    HW2 3186   2.169   5.202   4.057
  763SOL     OW 3187   5.988   5.232   6.810
  763SOL    HW1 3188   6.036   5.158   6.856
  763SOL    HW2 3189   5.915   5.194   6.753
  764SOL     OW 3190   4.847   1.040   3.034
  764SOL    HW1 3191   4.884   1.045   2.941
  764SOL    HW2 3192   4.797   0.954   3.045
  765SOL     OW 3193   6.757   6.508   3.382
  765SOL    HW1 3194   6.819   6.548   3.449
  765SOL    HW2 3195   6.669   6.555   3.385
  766SOL     OW 3196   0.248   6.428   6.964
  766SOL    HW1 3197   0.306   6.349   6.983
  766SOL    HW2 3198   0.159   6.397   6.929
  767SOL     OW 3199   5.958   6.859   1.555
  767SOL    HW1 3200   5.860   6.844   1.564
  767SOL    HW2 3201   5.980   6.880   1.460
  768SOL     OW 3202   3.041   6.639   3.508
  768SOL    HW1 3203   3.103   6.565   3.535
  768SOL    HW2 3204   3.017   6.694   3.588
  769SOL     OW 3205   2.859   0.800   6.820
  769SOL    HW1 3206   2.849   0.707   6.854
  769SOL    HW2 3207   2.862   0.799   6.720
  770SOL     OW 3208   2.941   5.100   3.423
  770SOL    HW1 3209   2.863   5.137   3.373
  770SOL    HW2 3210   3.025   5.146   3.392
  771SOL     OW 3211   0.175   5.475   4.365
  771SOL    HW1 3212   0.225   5.557   4.339
  771SOL    HW2 3213   0.169   5.413   4.287
  772SOL     OW 3214   6.883   4.538   5.283
  772SOL    HW1 3215   6.966   4.483   5.288
  772SOL    HW2 3216   6.887   4.598   5.204
  773SOL     OW 3217   0.307   3.710   1.853
  773SOL    HW1 3218   0.407   3.700   1.851
  773SOL    HW2 3219   0.267   3.629   1.896
  774SOL     OW 3220   1.592   1.345   1.363
  774SOL    HW1 3221   1.632   1.257   1.390
  774SOL    HW2 3222   1.662   1.402   1.319
  775SOL     OW 3223   1.327   2.110   4.365
  775SOL    HW1 3224   1.346   2.015   4.390
  775SOL    HW2 3225   1.271   2.112   4.282
  776SOL     OW 3226   2.457   0.149   5.877
  776SOL    HW1 3227   2.374   0.202   5.892
  776SOL    HW2 3228   2.525   0.205   5.831
  777SOL     OW 3229   4.032   0.426   0.283
  777SOL    HW1 3230   4.008   0.352   0.218
  777SOL    HW2 3231   4.093   0.491   0.237
  778SOL     OW 3232   4.232   5.909   4.036
  778SOL    HW1 3233   4.318   5.936   3.992
  778SOL    HW2 3234   4.233   5.940   4.132
  779SOL     OW 3235   1.170   1.114   2.590
  779SOL    HW1 3236   1.171   1.145   2.685
  779SOL    HW2 3237   1.226   1.031   2.582
  780SOL     OW 3238   5.184   3.480   5.154
  780SOL    HW1 3239   5.226   3.419   5.221
  780SOL    HW2 3240   5.203   3.446   5.062
  781SOL     OW 3241   0.802   2.048   6.509
  781SOL    HW1 3242   0.741   2.092   6.443
  781SOL    HW2 3243   0.757   1.968   6.548
  782SOL     OW 3244   0.263   4.165   0.758
  782SOL    HW1 3245   0.318   4.171   0.841
  782SOL    HW2 3246   0.221   4.254   0.738
  783SOL     OW 3247   2.432   4.153   0.339
  783SOL    HW1 3248   2.409   4.248   0.319
  783SOL    HW2 3249   2.404   4.094   0.264
  784SOL     OW 3250   5.119   6.284   3.656
  784SOL    HW1 3251   5.211   6.258   3.629
  784SOL    HW2 3252   5.093   6.235   3.739
  785SOL     OW 3253   5.862   2.280   4.179
  785SOL    HW1 3254   5.866   2.234   4.268
  785SOL    HW2 3255   5.873   2.379   4.192
  786SOL     OW 3256   6.312   0.137   0.029
  786SOL    HW1 3257   6.343   0.042   0.023
  786SOL    HW2 3258   6.229   0.141   0.084
  787SOL     OW 3259   4.104   1.467   6.567
  787SOL    HW1 3260   4.163   1.448   6.489
  787SOL    HW2 3261   4.011   1.486   6.535
  788SOL     OW 3262   0.853   4.631   4.004
  788SOL    HW1 3263   0.814   4.673   3.923
  788SOL    HW2 3264   0.915   4.695   4.049
  789SOL     OW 3265   6.007   3.376   1.124
  789SOL    HW1 3266   6.080   3.440   1.150
  789SOL    HW2 3267   5.925   3.395   1.177
  790SOL     OW 3268   3.503   0.999   4.182
  790SOL    HW1 3269   3.437   0.958   4.119
  790SOL    HW2 3270   3.515   0.939   4.261
  791SOL     OW 3271   3.787   2.085   4.346
  791SOL    HW1 3272   3.748   2.104   4.436
  791SOL    HW2 3273   3.720   2.110   4.275
  792SOL     OW 3274   5.692   0.026   3.367
  792SOL    HW1 3275   5.632   6.971   3.346
  792SOL    HW2 3276   5.778   0.016   3.318
  793SOL     OW 3277   6.605   7.020   6.151
  793SOL    HW1 3278   6.529   0.008   6.216
  793SOL    HW2 3279   6.610   0.076   6.091
  794SOL     OW 3280   3.512   5.329   4.741
  794SOL    HW1 3281   3.487   5.238   4.709
  794SOL    HW2 3282   3.526   5.389   4.662
  795SOL     OW 3283   4.918   4.926   6.228
  795SOL    HW1 3284   4.882   4.988   6.298
  795SOL    HW2 3285   5.005   4.887   6.259
  796SOL     OW 3286   0.691   1.913   6.171
  796SOL    HW1 3287   0.595   1.929   6.149
  796SOL    HW2 3288   0.749   1.972   6.114
  797SOL     OW 3289   5.975   2.556   5.141
  797SOL    HW1 3290   5.959   2.654   5.153
  797SOL    HW2 3291   6.046   2.541   5.072
  798SOL     OW 3292   6.390   0.836   5.370
  798SOL    HW1 3293   6.473   0.829   5.424
  798SOL    HW2 3294   6.386   0.926   5.325
  799SOL     OW 3295   6.831   3.783   3.692
  799SOL    HW1 3296   6.806   3.847   3.764
  799SOL    HW2 3297   6.862   3.834   3.612
  800SOL     OW 3298   6.687   1.628   1.969
  800SOL    HW1 3299   6.696   1.539   2.013
  800SOL    HW2 3300   6.772   1.679   1.981
  801SOL     OW 3301   0.619   2.019   3.983
  801SOL    HW1 3302   0.672   1.936   4.001
  801SOL    HW2 3303   0.522   1.996   3.978
  802SOL     OW 3304   5.650   1.349   1.229
  802SOL    HW1 3305   5.560   1.381   1.258
  802SOL    HW2 3306   5.716   1.423   1.237
  803SOL     OW 3307   1.759   0.374   4.642
  803SOL    HW1 3308   1.746   0.275   4.636
  803SOL    HW2 3309   1.840   0.401   4.589
  804SOL     OW 3310   6.310   6.757   1.426
  804SOL    HW1 3311   6.274   6.816   1.498
  804SOL    HW2 3312   6.235   6.726   1.367
  805SOL     OW 3313   1.283   3.624   5.642
  805SOL    HW1 3314   1.334   3.633   5.728
  805SOL    HW2 3315   1.260   3.715   5.608
  806SOL     OW 3316   4.822   0.731   1.092
  806SOL    HW1 3317   4.848   0.652   1.147
  806SOL    HW2 3318   4.730   0.761   1.118
  807SOL     OW 3319   1.117   0.341   2.795
  807SOL    HW1 3320   1.042   0.314   2.735
  807SOL    HW2 3321   1.176   0.406   2.747
  808SOL     OW 3322   6.234   3.191   5.350
  808SOL    HW1 3323   6.255   3.188   5.253
  808SOL    HW2 3324   6.152   3.247   5.365
  809SOL     OW 3325   0.734   5.306   6.333
  809SOL    HW1 3326   0.714   5.220   6.379
  809SOL    HW2 3327   0.806   5.355   6.382
  810SOL     OW 3328   6.718   5.012   6.800
  810SOL    HW1 3329   6.731   5.094   6.856
  810SOL    HW2 3330   6.798   4.999   6.742
  811SOL     OW 3331   4.433   5.092   3.722
  811SOL    HW1 3332   4.493   5.165   3.752
  811SOL    HW2 3333   4.460   5.006   3.766
  812SOL     OW 3334   0.751   0.174   2.488
  812SOL    HW1 3335   0.784   0.080   2.488
  812SOL    HW2 3336   0.828   0.237   2.500
  813SOL     OW 3337   5.920   5.687   2.077
  813SOL    HW1 3338   5.930   5.595   2.039
  813SOL    HW2 3339   5.882   5.748   2.007
  814SOL     OW 3340   5.674   5.570   1.423
  814SOL    HW1 3341   5.660   5.564   1.522
  814SOL    HW2 3342   5.587   5.557   1.376
  815SOL     OW 3343   0.906   1.823   6.957
  815SOL    HW1 3344   0.906   1.723   6.958
  815SOL    HW2 3345   0.952   1.857   0.016
  816SOL     OW 3346   6.012   0.421   1.095
  816SOL    HW1 3347   6.100   0.410   1.050
  816SOL    HW2 3348   6.020   0.489   1.167
  817SOL     OW 3349   0.729   1.703   1.955
  817SOL    HW1 3350   0.633   1.728   1.940
  817SOL    HW2 3351   0.773   1.773   2.011
  818SOL     OW 3352   6.264   1.686   2.116
  818SOL    HW1 3353   6.342   1.706   2.057
  818SOL    HW2 3354   6.181   1.724   2.075
  819SOL     OW 3355   0.417   4.598   3.188
  819SOL    HW1 3356   0.455   4.681   3.148
  819SOL    HW2 3357   0.317   4.599   3.179
  820SOL     OW 3358   1.534   2.878   4.776
  820SOL    HW1 3359   1.559   2.944   4.705
  820SOL    HW2 3360   1.592   2.893   4.857
  821SOL     OW 3361   1.402   3.595   0.530
  821SOL    HW1 3362   1.471   3.530   0.562
  821SOL    HW2 3363   1.353   3.556   0.452
  822SOL     OW 3364   1.569   3.818   4.992
  822SOL    HW1 3365   1.668   3.827   4.991
  822SOL    HW2 3366   1.544   3.725   5.020
  823SOL     OW 3367   2.947   3.580   0.879
  823SOL    HW1 3368   3.007   3.659   0.879
  823SOL    HW2 3369   2.971   3.519   0.954
  824SOL     OW 3370   6.102   2.200   6.112
  824SOL    HW1 3371   6.120   2.297   6.128
  824SOL    HW2 3372   6.049   2.163   6.188
  825SOL     OW 3373   1.457   4.177   1.794
  825SOL    HW1 3374   1.511   4.099   1.826
  825SOL    HW2 3375   1.516   4.241   1.746
  826SOL     OW 3376   0.896   4.557   5.938
  826SOL    HW1 3377   0.863   4.466   5.963
  826SOL    HW2 3378   0.936   4.554   5.846
  827SOL     OW 3379   3.993   5.624   1.046
  827SOL    HW1 3380   4.047   5.563   0.988
  827SOL    HW2 3381   4.034   5.715   1.045
  828SOL     OW 3382   6.290   6.839   5.439
  828SOL    HW1 3383   6.282   6.884   5.351
  828SOL    HW2 3384   6.203   6.798   5.465
  829SOL     OW 3385   3.738   2.952   4.861
  829SOL    HW1 3386   3.808   3.022   4.877
  829SOL    HW2 3387   3.675   2.950   4.939
  830SOL     OW 3388   4.633   3.743   5.801
  830SOL    HW1 3389   4.681   3.702   5.724
  830SOL    HW2 3390   4.609   3.838   5.778
  831SOL     OW 3391   6.683   0.079   4.872
  831SOL    HW1 3392   6.691   0.017   4.950
  831SOL    HW2 3393   6.599   0.132   4.881
  832SOL     OW 3394   2.181   1.237   5.767
  832SOL    HW1 3395   2.127   1.236   5.683
  832SOL    HW2 3396   2.209   1.331   5.787
  833SOL     OW 3397   1.023   6.999   5.798
  833SOL    HW1 3398   1.091   6.977   5.728
  833SOL    HW2 3399   1.067   7.000   5.888
  834SOL     OW 3400   3.372   4.513   5.670
  834SOL    HW1 3401   3.320   4.492   5.587
  834SOL    HW2 3402   3.343   4.602   5.706
  835SOL     OW 3403   4.382   0.994   3.538
  835SOL    HW1 3404   4.441   0.954   3.469
  835SOL    HW2 3405   4.436   1.015   3.620
  836SOL     OW 3406   2.420   0.651   0.115
  836SOL    HW1 3407   2.493   0.588   0.143
  836SOL    HW2 3408   2.353   0.601   0.059
  837SOL     OW 3409   3.828   0.981   5.016
  837SOL    HW1 3410   3.884   1.035   5.079
  837SOL    HW2 3411   3.762   0.927   5.068
  838SOL     OW 3412   1.624   4.559   2.474
  838SOL    HW1 3413   1.714   4.518   2.461
  838SOL    HW2 3414   1.553   4.492   2.452
  839SOL     OW 3415   3.729   1.054   1.680
  839SOL    HW1 3416   3.789   1.066   1.601
  839SOL    HW2 3417   3.654   1.119   1.676
  840SOL     OW 3418   0.570   1.671   6.104
  840SOL    HW1 3419   0.625   1.739   6.152
  840SOL    HW2 3420   0.600   1.664   6.009
  841SOL     OW 3421   0.420   3.637   0.538
  841SOL    HW1 3422   0.463   3.623   0.627
  841SOL    HW2 3423   0.324   3.660   0.551
  842SOL     OW 3424   3.588   5.487   3.529
  842SOL    HW1 3425   3.595   5.449   3.622
  842SOL    HW2 3426   3.513   5.552   3.525
  843SOL     OW 3427   6.482   4.088   2.369
  843SOL    HW1 3428   6.474   4.174   2.319
  843SOL    HW2 3429   6.390   4.053   2.390
  844SOL     OW 3430   5.239   5.548   0.254
  844SOL    HW1 3431   5.242   5.504   0.344
  844SOL    HW2 3432   5.199   5.486   0.187
  845SOL     OW 3433   1.685   5.169   4.410
  845SOL    HW1 3434   1.745   5.097   4.445
  845SOL    HW2 3435   1.594   5.159   4.450
  846SOL     OW 3436   5.070   3.045   0.140
  846SOL    HW1 3437   5.136   2.972   0.158
  846SOL    HW2 3438   5.074   3.112   0.214
  847SOL     OW 3439   5.287   4.088   1.848
  847SOL    HW1 3440   5.241   4.167   1.808
  847SOL    HW2 3441   5.383   4.109   1.864
  848SOL     OW 3442   6.432   0.050   5.516
  848SOL    HW1 3443   6.404   0.074   5.609
  848SOL    HW2 3444   6.376   6.996   5.484
  849SOL     OW 3445   0.725   5.638   4.311
  849SOL    HW1 3446   0.701   5.650   4.215
  849SOL    HW2 3447   0.796   5.569   4.320
  850SOL     OW 3448   3.598   0.622   3.481
  850SOL    HW1 3449   3.553   0.623   3.391
  850SOL    HW2 3450   3.554   0.690   3.540
  851SOL     OW 3451   0.464   0.532   5.173
  851SOL    HW1 3452   0.493   0.446   5.130
  851SOL    HW2 3453   0.392   0.513   5.239
  852SOL     OW 3454   2.983   4.538   5.733
  852SOL    HW1 3455   2.895   4.534   5.781
  852SOL    HW2 3456   2.973   4.499   5.642
  853SOL     OW 3457   1.630   3.689   1.071
  853SOL    HW1 3458   1.554   3.627   1.051
  853SOL    HW2 3459   1.598   3.783   1.065
  854SOL     OW 3460   6.523   5.182   1.960
  854SOL    HW1 3461   6.575   5.259   1.996
  854SOL    HW2 3462   6.454   5.215   1.896
  855SOL     OW 3463   5.193   0.481   1.041
  855SOL    HW1 3464   5.094   0.465   1.038
  855SOL    HW2 3465   5.236   0.417   1.104
  856SOL     OW 3466   0.896   1.303   5.076
  856SOL    HW1 3467   0.993   1.327   5.072
  856SOL    HW2 3468   0.869   1.289   5.171
  857SOL     OW 3469   6.165   3.891   1.672
  857SOL    HW1 3470   6.067   3.912   1.678
  857SOL    HW2 3471   6.215   3.972   1.642
  858SOL     OW 3472   3.439   3.532   1.267
  858SOL    HW1 3473   3.513   3.548   1.201
  858SOL    HW2 3474   3.393   3.619   1.287
  859SOL     OW 3475   0.044   4.949   0.750
  859SOL    HW1 3476   0.085   4.917   0.664
  859SOL    HW2 3477   0.102   5.020   0.790
  860SOL     OW 3478   2.138   4.751   0.797
  860SOL    HW1 3479   2.199   4.713   0.727
  860SOL    HW2 3480   2.192   4.806   0.861
  861SOL     OW 3481   3.513   4.728   6.177
  861SOL    HW1 3482   3.602   4.772   6.171
  861SOL    HW2 3483   3.455   4.759   6.101
  862SOL     OW 3484   4.716   4.120   3.777
  862SOL    HW1 3485   4.626   4.093   3.810
  862SOL    HW2 3486   4.730   4.218   3.795
  863SOL     OW 3487   5.742   1.822   0.857
  863SOL    HW1 3488   5.782   1.733   0.834
  863SOL    HW2 3489   5.773   1.849   0.949
  864SOL     OW 3490   6.630   4.640   2.432
  864SOL    HW1 3491   6.684   4.605   2.356
  864SOL    HW2 3492   6.543   4.675   2.398
  865SOL     OW 3493   1.781   0.856   3.743
  865SOL    HW1 3494   1.828   0.776   3.706
  865SOL    HW2 3495   1.802   0.865   3.840
  866SOL     OW 3496   3.814   1.098   0.928
  866SOL    HW1 3497   3.736   1.157   0.951
  866SOL    HW2 3498   3.801   1.061   0.836
  867SOL     OW 3499   2.077   1.671   6.178
  867SOL    HW1 3500   2.024   1.653   6.095
  867SOL    HW2 3501   2.016   1.697   6.252
  868SOL     OW 3502   6.071   2.933   3.338
  868SOL    HW1 3503   6.105   2.940   3.432
  868SOL    HW2 3504   6.106   3.010   3.284
  869SOL     OW 3505   6.642   4.247   1.254
  869SOL    HW1 3506   6.670   4.159   1.215
  869SOL    HW2 3507   6.691   4.263   1.340
  870SOL     OW 3508   6.644   2.484   0.573
  870SOL    HW1 3509   6.562   2.523   0.614
  870SOL    HW2 3510   6.720   2.490   0.637
  871SOL     OW 3511   6.187   4.085   0.684
  871SOL    HW1 3512   6.120   4.031   0.735
  871SOL    HW2 3513   6.168   4.078   0.586
  872SOL     OW 3514   6.023   2.165   1.953
  872SOL    HW1 3515   6.063   2.240   1.901
  872SOL    HW2 3516   5.926   2.181   1.966
  873SOL     OW 3517   3.829   6.923   4.648
  873SOL    HW1 3518   3.913   6.933   4.702
  873SOL    HW2 3519   3.853   6.899   4.554
  874SOL     OW 3520   7.005   3.889   6.289
  874SOL    HW1 3521   0.029   3.954   6.229
  874SOL    HW2 3522   6.936   3.937   6.342
  875SOL     OW 3523   5.954   5.084   6.418
  875SOL    HW1 3524   6.033   5.077   6.479
  875SOL    HW2 3525   5.894   5.158   6.449
  876SOL     OW 3526   1.104   1.985   0.962
  876SOL    HW1 3527   1.038   2.018   0.895
  876SOL    HW2 3528   1.056   1.961   1.047
  877SOL     OW 3529   5.846   6.115   0.382
  877SOL    HW1 3530   5.766   6.148   0.432
  877SOL    HW2 3531   5.865   6.176   0.305
  878SOL     OW 3532   3.503   2.282   0.302
  878SOL    HW1 3533   3.578   2.294   0.237
  878SOL    HW2 3534   3.540   2.255   0.391
  879SOL     OW 3535   4.245   1.864   2.605
  879SOL    HW1 3536   4.329   1.886   2.557
  879SOL    HW2 3537   4.167   1.895   2.551
  880SOL     OW 3538   4.338   5.384   1.816
  880SOL    HW1 3539   4.338   5.384   1.916
  880SOL    HW2 3540   4.429   5.409   1.783
  881SOL     OW 3541   4.694   5.032   4.036
  881SOL    HW1 3542   4.772   4.988   4.081
  881SOL    HW2 3543   4.684   5.125   4.070
  882SOL     OW 3544   1.003   2.101   4.475
  882SOL    HW1 3545   1.102   2.089   4.489
  882SOL    HW2 3546   0.986   2.195   4.444
  883SOL     OW 3547   3.748   4.208   0.018
  883SOL    HW1 3548   3.829   4.265   0.005
  883SOL    HW2 3549   3.724   4.164   6.955
  884SOL     OW 3550   4.014   3.984   1.833
  884SOL    HW1 3551   3.929   4.005   1.784
  884SOL    HW2 3552   3.995   3.982   1.931
  885SOL     OW 3553   4.504   6.422   6.095
  885SOL    HW1 3554   4.468   6.353   6.032
  885SOL    HW2 3555   4.431   6.485   6.122
  886SOL     OW 3556   3.813   1.780   6.892
  886SOL    HW1 3557   3.888   1.832   6.934
  886SOL    HW2 3558   3.727   1.805   6.936
  887SOL     OW 3559   5.541   6.972   5.947
  887SOL    HW1 3560   5.480   6.913   5.894
  887SOL    HW2 3561   5.572   0.026   5.890
  888SOL     OW 3562   6.371   6.433   3.060
  888SOL    HW1 3563   6.355   6.528   3.034
  888SOL    HW2 3564   6.442   6.428   3.130
  889SOL     OW 3565   1.043   0.184   4.256
  889SOL    HW1 3566   1.006   0.099   4.294
  889SOL    HW2 3567   1.118   0.216   4.314
  890SOL     OW 3568   1.947   4.544   2.344
  890SOL    HW1 3569   1.913   4.588   2.427
  890SOL    HW2 3570   2.044   4.521   2.355
  891SOL     OW 3571   5.645   3.867   6.178
  891SOL    HW1 3572   5.635   3.891   6.275
  891SOL    HW2 3573   5.555   3.844   6.140
  892SOL     OW 3574   2.297   5.201   1.256
  892SOL    HW1 3575   2.292   5.101   1.253
  892SOL    HW2 3576   2.242   5.234   1.333
  893SOL     OW 3577   1.826   6.678   1.510
  893SOL    HW1 3578   1.809   6.762   1.560
  893SOL    HW2 3579   1.912   6.685   1.460
  894SOL     OW 3580   0.966   5.481   4.379
  894SOL    HW1 3581   1.045   5.537   4.353
  894SOL    HW2 3582   0.979   5.387   4.346
  895SOL     OW 3583   2.445   1.037   4.445
  895SOL    HW1 3584   2.424   1.125   4.488
  895SOL    HW2 3585   2.431   0.964   4.512
  896SOL     OW 3586   5.132   6.903   3.667
  896SOL    HW1 3587   5.225   6.876   3.693
  896SOL    HW2 3588   5.132   6.999   3.639
  897SOL     OW 3589   5.080   1.759   6.351
  897SOL    HW1 3590   5.074   1.859   6.357
  897SOL    HW2 3591   4.994   1.718   6.381
  898SOL     OW 3592   5.619   5.888   4.149
  898SOL    HW1 3593   5.666   5.947   4.084
  898SOL    HW2 3594   5.543   5.842   4.104
  899SOL     OW 3595   1.049   4.229   0.245
  899SOL    HW1 3596   1.026   4.291   0.320
  899SOL    HW2 3597   1.013   4.138   0.265
  900SOL     OW 3598   0.643   5.987   3.491
  900SOL    HW1 3599   0.722   6.048   3.491
  900SOL    HW2 3600   0.559   6.042   3.495
  901SOL     OW 3601   5.481   1.724   3.422
  901SOL    HW1 3602   5.504   1.718   3.520
  901SOL    HW2 3603   5.488   1.819   3.392
  902SOL     OW 3604   1.182   6.007   6.901
  902SOL    HW1 3605   1.093   6.046   6.875
  902SOL    HW2 3606   1.243   6.009   6.822
  903SOL     OW 3607   0.481   4.931   6.644
  903SOL    HW1 3608   0.397   4.914   6.593
  903SOL    HW2 3609   0.493   4.858   6.712
  904SOL     OW 3610   1.513   0.912   3.757
  904SOL    HW1 3611   1.604   0.873   3.771
  904SOL    HW2 3612   1.499   0.931   3.660
  905SOL     OW 3613   6.303   2.114   5.185
  905SOL    HW1 3614   6.242   2.100   5.108
  905SOL    HW2 3615   6.397   2.091   5.158
  906SOL     OW 3616   6.431   3.952   5.750
  906SOL    HW1 3617   6.358   3.901   5.795
  906SOL    HW2 3618   6.431   3.932   5.652
  907SOL     OW 3619   0.267   3.103   2.051
  907SOL    HW1 3620   0.198   3.156   2.100
  907SOL    HW2 3621   0.223   3.049   1.980
  908SOL     OW 3622   2.522   0.865   3.420
  908SOL    HW1 3623   2.471   0.812   3.352
  908SOL    HW2 3624   2.619   0.866   3.397
  909SOL     OW 3625   4.349   6.751   1.035
  909SOL    HW1 3626   4.292   6.786   1.110
  909SOL    HW2 3627   4.362   6.824   0.967
  910SOL     OW 3628   1.971   1.667   1.833
  910SOL    HW1 3629   1.953   1.621   1.920
  910SOL    HW2 3630   1.966   1.766   1.846
  911SOL     OW 3631   0.478   3.845   0.835
  911SOL    HW1 3632   0.481   3.930   0.887
  911SOL    HW2 3633   0.472   3.767   0.898
  912SOL     OW 3634   0.919   0.653   6.310
  912SOL    HW1 3635   0.842   0.622   6.366
  912SOL    HW2 3636   0.993   0.684   6.369
  913SOL     OW 3637   1.957   1.221   1.982
  913SOL    HW1 3638   1.998   1.216   2.072
  913SOL    HW2 3639   1.874   1.278   1.985
  914SOL     OW 3640   3.076   5.893   2.147
  914SOL    HW1 3641   3.037   5.801   2.135
  914SOL    HW2 3642   3.141   5.910   2.073
  915SOL     OW 3643   1.487   2.457   0.289
  915SOL    HW1 3644   1.497   2.554   0.265
  915SOL    HW2 3645   1.543   2.402   0.228
  916SOL     OW 3646   1.448   2.884   2.267
  916SOL    HW1 3647   1.541   2.861   2.298
  916SOL    HW2 3648   1.416   2.813   2.204
  917SOL     OW 3649   3.498   1.743   6.564
  917SOL    HW1 3650   3.532   1.656   6.526
  917SOL    HW2 3651   3.471   1.803   6.489
  918SOL     OW 3652   0.547   1.481   5.168
  918SOL    HW1 3653   0.466   1.438   5.129
  918SOL    HW2 3654   0.597   1.529   5.096
  919SOL     OW 3655   1.358   6.831   0.963
  919SOL    HW1 3656   1.336   6.768   1.037
  919SOL    HW2 3657   1.274   6.854   0.912
  920SOL     OW 3658   1.707   1.094   3.296
  920SOL    HW1 3659   1.776   1.143   3.350
  920SOL    HW2 3660   1.620   1.093   3.346
  921SOL     OW 3661   3.783   4.287   0.602
  921SOL    HW1 3662   3.742   4.377   0.586
  921SOL    HW2 3663   3.807   4.246   0.515
  922SOL     OW 3664   2.094   5.221   6.185
  922SOL    HW1 3665   2.164   5.242   6.253
  922SOL    HW2 3666   2.003   5.238   6.223
  923SOL     OW 3667   3.755   1.323   6.819
  923SOL    HW1 3668   3.719   1.251   6.759
  923SOL    HW2 3669   3.693   1.401   6.818
  924SOL     OW 3670   6.803   4.818   2.661
  924SOL    HW1 3671   6.793   4.729   2.615
  924SOL    HW2 3672   6.751   4.887   2.611
  925SOL     OW 3673   6.709   2.152   3.163
  925SOL    HW1 3674   6.711   2.052   3.157
  925SOL    HW2 3675   6.713   2.191   3.070
  926SOL     OW 3676   4.921   6.253   0.532
  926SOL    HW1 3677   5.004   6.199   0.517
  926SOL    HW2 3678   4.902   6.258   0.630
  927SOL     OW 3679   4.816   5.585   4.727
  927SOL    HW1 3680   4.882   5.589   4.653
  927SOL    HW2 3681   4.826   5.667   4.785
  928SOL     OW 3682   0.340   1.002   1.095
  928SOL    HW1 3683   0.263   1.009   1.158
  928SOL    HW2 3684   0.307   0.985   1.002
  929SOL     OW 3685   6.872   2.654   2.195
  929SOL    HW1 3686   6.912   2.744   2.175
  929SOL    HW2 3687   6.915   2.615   2.276
  930SOL     OW 3688   5.646   5.425   2.475
  930SOL    HW1 3689   5.692   5.505   2.437
  930SOL    HW2 3690   5.589   5.452   2.552
  931SOL     OW 3691   1.770   3.004   1.915
  931SOL    HW1 3692   1.868   3.016   1.900
  931SOL    HW2 3693   1.731   3.090   1.947
  932SOL     OW 3694   4.240   6.349   1.421
  932SOL    HW1 3695   4.256   6.252   1.406
  932SOL    HW2 3696   4.263   6.373   1.515
  933SOL     OW 3697   1.166   6.772   4.067
  933SOL    HW1 3698   1.080   6.724   4.088
  933SOL    HW2 3699   1.221   6.716   4.005
  934SOL     OW 3700   3.635   0.817   5.459
  934SOL    HW1 3701   3.662   0.876   5.535
  934SOL    HW2 3702   3.538   0.794   5.468
  935SOL     OW 3703   1.269   3.936   5.551
  935SOL    HW1 3704   1.281   3.934   5.651
  935SOL    HW2 3705   1.305   4.023   5.516
  936SOL     OW 3706   0.508   1.934   1.622
  936SOL    HW1 3707   0.453   1.884   1.555
  936SOL    HW2 3708   0.602   1.943   1.589
  937SOL     OW 3709   5.478   2.050   3.656
  937SOL    HW1 3710   5.408   2.121   3.651
  937SOL    HW2 3711   5.505   2.022   3.564
  938SOL     OW 3712   0.148   0.967   6.799
  938SOL    HW1 3713   0.065   0.915   6.781
  938SOL    HW2 3714   0.219   0.942   6.733
  939SOL     OW 3715   6.617   0.773   5.501
  939SOL    HW1 3716   6.702   0.737   5.463
  939SOL    HW2 3717   6.553   0.698   5.518
  940SOL     OW 3718   6.885   0.495   4.346
  940SOL    HW1 3719   6.796   0.532   4.320
  940SOL    HW2 3720   6.874   0.402   4.380
  941SOL     OW 3721   5.564   2.392   5.381
  941SOL    HW1 3722   5.599   2.433   5.466
  941SOL    HW2 3723   5.519   2.305   5.402
  942SOL     OW 3724   4.578   0.571   5.119
  942SOL    HW1 3725   4.504   0.521   5.072
  942SOL    HW2 3726   4.611   0.644   5.059
  943SOL     OW 3727   5.643   2.003   0.348
  943SOL    HW1 3728   5.737   2.005   0.315
  943SOL    HW2 3729   5.630   1.923   0.406
  944SOL     OW 3730   5.011   4.457   4.941
  944SOL    HW1 3731   4.932   4.507   4.904
  944SOL    HW2 3732   4.979   4.390   5.008
  945SOL     OW 3733   5.214   3.349   6.050
  945SOL    HW1 3734   5.279   3.274   6.041
  945SOL    HW2 3735   5.262   3.436   6.037
  946SOL     OW 3736   5.609   3.708   6.558
  946SOL    HW1 3737   5.697   3.707   6.509
  946SOL    HW2 3738   5.538   3.668   6.500
  947SOL     OW 3739   0.810   2.943   5.504
  947SOL    HW1 3740   0.762   3.017   5.456
  947SOL    HW2 3741   0.750   2.905   5.575
  948SOL     OW 3742   3.879   1.536   0.531
  948SOL    HW1 3743   3.915   1.505   0.442
  948SOL    HW2 3744   3.903   1.632   0.545
  949SOL     OW 3745   5.698   6.207   6.998
  949SOL    HW1 3746   5.637   6.285   6.986
  949SOL    HW2 3747   5.643   6.124   7.010
  950SOL     OW 3748   3.915   5.391   0.665
  950SOL    HW1 3749   3.952   5.368   0.575
  950SOL    HW2 3750   3.990   5.402   0.730
  951SOL     OW 3751   0.722   2.836   4.158
  951SOL    HW1 3752   0.645   2.845   4.095
  951SOL    HW2 3753   0.754   2.927   4.186
  952SOL     OW 3754   5.369   1.967   1.716
  952SOL    HW1 3755   5.395   2.040   1.780
  952SOL    HW2 3756   5.417   1.981   1.630
  953SOL     OW 3757   3.822   6.577   5.815
  953SOL    HW1 3758   3.838   6.675   5.825
  953SOL    HW2 3759   3.738   6.562   5.762
  954SOL     OW 3760   6.622   0.452   1.412
  954SOL    HW1 3761   6.567   0.495   1.483
  954SOL    HW2 3762   6.682   0.384   1.453
  955SOL     OW 3763   0.355   6.922   2.459
  955SOL    HW1 3764   0.401   6.835   2.441
  955SOL    HW2 3765   0.350   6.976   2.374
  956SOL     OW 3766   1.333   2.618   0.586
  956SOL    HW1 3767   1.335   2.555   0.508
  956SOL    HW2 3768   1.427   2.636   0.616
  957SOL     OW 3769   1.979   6.727   4.974
  957SOL    HW1 3770   2.046   6.658   4.944
  957SOL    HW2 3771   1.931   6.693   5.055
  958SOL     OW 3772   4.964   2.834   0.357
  958SOL    HW1 3773   4.982   2.742   0.390
  958SOL    HW2 3774   4.990   2.840   0.261
  959SOL     OW 3775   1.428   3.309   1.642
  959SOL    HW1 3776   1.337   3.347   1.661
  959SOL    HW2 3777   1.471   3.360   1.568
  960SOL     OW 3778   1.886   5.106   5.243
  960SOL    HW1 3779   1.858   5.014   5.268
  960SOL    HW2 3780   1.976   5.126   5.282
  961SOL     OW 3781   3.630   0.135   0.326
  961SOL    HW1 3782   3.709   0.169   0.377
  961SOL    HW2 3783   3.605   0.044   0.359
  962SOL     OW 3784   1.185   6.515   3.791
  962SOL    HW1 3785   1.226   6.605   3.777
  962SOL    HW2 3786   1.087   6.526   3.811
  963SOL     OW 3787   6.057   0.140   2.112
  963SOL    HW1 3788   6.003   0.173   2.035
  963SOL    HW2 3789   6.138   0.197   2.123
  964SOL     OW 3790   5.361   3.288   1.514
  964SOL    HW1 3791   5.325   3.202   1.478
  964SOL    HW2 3792   5.339   3.296   1.611
  965SOL     OW 3793   1.508   1.500   6.968
  965SOL    HW1 3794   1.598   1.531   7.000
  965SOL    HW2 3795   1.437   1.538   0.004
  966SOL     OW 3796   6.727   2.785   1.966
  966SOL    HW1 3797   6.749   2.714   2.033
  966SOL    HW2 3798   6.627   2.795   1.961
  967SOL     OW 3799   1.002   5.845   2.438
  967SOL    HW1 3800   1.064   5.903   2.386
  967SOL    HW2 3801   0.926   5.900   2.472
  968SOL     OW 3802   0.115   4.235   1.046
  968SOL    HW1 3803   0.042   4.298   1.022
  968SOL    HW2 3804   0.119   4.225   1.146
  969SOL     OW 3805   3.925   6.617   6.588
  969SOL    HW1 3806   3.826   6.630   6.591
  969SOL    HW2 3807   3.946   6.520   6.579
  970SOL     OW 3808   4.730   2.698   5.479
  970SOL    HW1 3809   4.746   2.621   5.540
  970SOL    HW2 3810   4.679   2.668   5.399
  971SOL     OW 3811   6.964   2.661   0.443
  971SOL    HW1 3812   6.950   2.742   0.499
  971SOL    HW2 3813   6.876   2.626   0.412
  972SOL     OW 3814   5.735   6.801   0.583
  972SOL    HW1 3815   5.778   6.849   0.660
  972SOL    HW2 3816   5.679   6.726   0.618
  973SOL     OW 3817   5.377   3.312   5.580
  973SOL    HW1 3818   5.417   3.227   5.614
  973SOL    HW2 3819   5.446   3.384   5.580
  974SOL     OW 3820   2.800   0.940   4.842
  974SOL    HW1 3821   2.743   0.865   4.876
  974SOL    HW2 3822   2.758   0.979   4.760
  975SOL     OW 3823   3.116   6.934   5.534
  975SOL    HW1 3824   3.186   6.982   5.480
  975SOL    HW2 3825   3.152   6.846   5.565
  976SOL     OW 3826   0.162   5.416   3.402
  976SOL    HW1 3827   0.235   5.484   3.392
  976SOL    HW2 3828   0.193   5.328   3.366
  977SOL     OW 3829   1.017   2.821   1.439
  977SOL    HW1 3830   1.093   2.762   1.411
  977SOL    HW2 3831   0.999   2.809   1.537
  978SOL     OW 3832   5.649   3.532   5.000
  978SOL    HW1 3833   5.570   3.501   4.947
  978SOL    HW2 3834   5.720   3.565   4.938
  979SOL     OW 3835   5.901   1.530   3.285
  979SOL    HW1 3836   5.803   1.544   3.295
  979SOL    HW2 3837   5.944   1.519   3.374
  980SOL     OW 3838   6.727   0.253   4.665
  980SOL    HW1 3839   6.714   0.208   4.754
  980SOL    HW2 3840   6.695   0.347   4.671
  981SOL     OW 3841   6.922   3.276   5.537
  981SOL    HW1 3842   6.930   3.320   5.627
  981SOL    HW2 3843   6.948   3.180   5.545
  982SOL     OW 3844   1.566   3.459   1.455
  982SOL    HW1 3845   1.643   3.510   1.418
  982SOL    HW2 3846   1.535   3.391   1.388
  983SOL     OW 3847   5.718   2.031   3.141
  983SOL    HW1 3848   5.626   1.993   3.135
  983SOL    HW2 3849   5.784   1.958   3.157
  984SOL     OW 3850   5.018   2.226   5.566
  984SOL    HW1 3851   4.961   2.149   5.537
  984SOL    HW2 3852   5.114   2.205   5.545
  985SOL     OW 3853   2.479   4.873   0.540
  985SOL    HW1 3854   2.530   4.856   0.456
  985SOL    HW2 3855   2.535   4.848   0.619
  986SOL     OW 3856   4.365   4.631   6.993
  986SOL    HW1 3857   4.452   4.670   7.022
  986SOL    HW2 3858   4.353   4.541   0.011
  987SOL     OW 3859   3.417   6.776   2.273
  987SOL    HW1 3860   3.497   6.791   2.215
  987SOL    HW2 3861   3.421   6.684   2.312
  988SOL     OW 3862   3.629   3.091   1.451
  988SOL    HW1 3863   3.562   3.154   1.412
  988SOL    HW2 3864   3.709   3.088   1.391
  989SOL     OW 3865   0.475   0.536   4.760
  989SOL    HW1 3866   0.459   0.593   4.679
  989SOL    HW2 3867   0.392   0.485   4.781
  990SOL     OW 3868   4.816   6.086   2.566
  990SOL    HW1 3869   4.743   6.138   2.609
  990SOL    HW2 3870   4.895   6.081   2.627
  991SOL     OW 3871   6.186   1.723   5.081
  991SOL    HW1 3872   6.278   1.724   5.042
  991SOL    HW2 3873   6.118   1.707   5.009
  992SOL     OW 3874   6.940   2.933   1.589
  992SOL    HW1 3875   6.876   2.997   1.548
  992SOL    HW2 3876   7.020   2.922   1.529
  993SOL     OW 3877   3.921   5.900   4.378
  993SOL    HW1 3878   3.868   5.825   4.338
  993SOL    HW2 3879   3.940   5.879   4.474
  994SOL     OW 3880   3.033   3.343   2.055
  994SOL    HW1 3881   3.103   3.400   2.011
  994SOL    HW2 3882   2.946   3.354   2.008
  995SOL     OW 3883   0.481   1.283   4.735
  995SOL    HW1 3884   0.490   1.307   4.638
  995SOL    HW2 3885   0.389   1.245   4.750
  996SOL     OW 3886   1.029   3.429   0.606
  996SOL    HW1 3887   0.958   3.494   0.577
  996SOL    HW2 3888   0.988   3.338   0.616
  997SOL     OW 3889   0.437   1.170   0.688
  997SOL    HW1 3890   0.452   1.078   0.724
  997SOL    HW2 3891   0.341   1.180   0.663
  998SOL     OW 3892   4.886   6.983   3.919
  998SOL    HW1 3893   4.824   6.928   3.862
  998SOL    HW2 3894   4.871   0.057   3.899
  999SOL     OW 3895   6.648   5.695   1.648
  999SOL    HW1 3896   6.692   5.773   1.693
  999SOL    HW2 3897   6.598   5.728   1.567
 1000SOL     OW 3898   4.535   2.258   4.293
 1000SOL    HW1 3899   4.526   2.307   4.206
 1000SOL    HW2 3900   4.542   2.324   4.368
 1001SOL     OW 3901   4.008   1.199   5.842
 1001SOL    HW1 3902   4.008   1.191   5.942
 1001SOL    HW2 3903   3.952   1.277   5.815
 1002SOL     OW 3904   0.388   1.308   0.013
 1002SOL    HW1 3905   0.303   1.300   0.065
 1002SOL    HW2 3906   0.368   1.306   6.938
 1003SOL     OW 3907   4.788   4.541   3.562
 1003SOL    HW1 3908   4.701   4.567   3.603
 1003SOL    HW2 3909   4.802   4.594   3.478
 1004SOL     OW 3910   6.050   5.746   0.554
 1004SOL    HW1 3911   6.079   5.840   0.569
 1004SOL    HW2 3912   6.072   5.718   0.461
 1005SOL     OW 3913   6.852   5.395   3.397
 1005SOL    HW1 3914   6.808   5.331   3.460
 1005SOL    HW2 3915   6.831   5.369   3.303
 1006SOL     OW 3916   2.091   4.142   0.394
 1006SOL    HW1 3917   2.135   4.056   0.421
 1006SOL    HW2 3918   2.127   4.172   0.306
 1007SOL     OW 3919   1.178   0.729   3.274
 1007SOL    HW1 3920   1.190   0.664   3.199
 1007SOL    HW2 3921   1.264   0.777   3.290
 1008SOL     OW 3922   2.695   1.992   4.447
 1008SOL    HW1 3923   2.635   1.982   4.367
 1008SOL    HW2 3924   2.731   1.902   4.472
 1009SOL     OW 3925   2.654   5.811   5.362
 1009SOL    HW1 3926   2.718   5.803   5.438
 1009SOL    HW2 3927   2.700   5.785   5.277
 1010SOL     OW 3928   4.567   0.364   6.295
 1010SOL    HW1 3929   4.666   0.357   6.308
 1010SOL    HW2 3930   4.539   0.459   6.307
 1011SOL     OW 3931   3.388   5.925   3.543
 1011SOL    HW1 3932   3.361   5.972   3.459
 1011SOL    HW2 3933   3.444   5.986   3.599
 1012SOL     OW 3934   3.747   5.452   0.261
 1012SOL    HW1 3935   3.712   5.513   0.332
 1012SOL    HW2 3936   3.720   5.358   0.280
 1013SOL     OW 3937   0.511   0.888   0.131
 1013SOL    HW1 3938   0.517   0.798   0.173
 1013SOL    HW2 3939   0.424   0.897   0.082
 1014SOL     OW 3940   5.100   0.606   6.577
 1014SOL    HW1 3941   5.166   0.560   6.517
 1014SOL    HW2 3942   5.019   0.632   6.525
 1015SOL     OW 3943   3.368   6.999   4.642
 1015SOL    HW1 3944   3.441   0.006   4.580
 1015SOL    HW2 3945   3.289   0.035   4.632
 1016SOL     OW 3946   4.201   2.310   2.094
 1016SOL    HW1 3947   4.242   2.384   2.041
 1016SOL    HW2 3948   4.230   2.222   2.056
 1017SOL     OW 3949   5.026   1.227   6.406
 1017SOL    HW1 3950   5.042   1.283   6.487
 1017SOL    HW2 3951   5.106   1.168   6.390
 1018SOL     OW 3952   1.244   2.669   1.787
 1018SOL    HW1 3953   1.240   2.569   1.780
 1018SOL    HW2 3954   1.322   2.703   1.735
 1019SOL     OW 3955   5.909   1.260   0.500
 1019SOL    HW1 3956   5.924   1.181   0.440
 1019SOL    HW2 3957   5.814   1.259   0.533
 1020SOL     OW 3958   3.234   1.998   1.525
 1020SOL    HW1 3959   3.161   1.932   1.510
 1020SOL    HW2 3960   3.308   1.955   1.577
 1021SOL     OW 3961   6.340   0.864   0.775
 1021SOL    HW1 3962   6.334   0.955   0.734
 1021SOL    HW2 3963   6.329   0.795   0.703
 1022SOL     OW 3964   3.338   2.343   6.858
 1022SOL    HW1 3965   3.353   2.442   6.849
 1022SOL    HW2 3966   3.241   2.325   6.869
 1023SOL     OW 3967   6.168   0.701   4.515
 1023SOL    HW1 3968   6.150   0.798   4.532
 1023SOL    HW2 3969   6.261   0.690   4.481
 1024SOL     OW 3970   6.561   1.510   4.384
 1024SOL    HW1 3971   6.544   1.541   4.290
 1024SOL    HW2 3972   6.593   1.416   4.384
 1025SOL     OW 3973   3.343   4.125   1.441
 1025SOL    HW1 3974   3.309   4.194   1.378
 1025SOL    HW2 3975   3.266   4.079   1.485
 1026SOL     OW 3976   0.934   3.066   6.260
 1026SOL    HW1 3977   0.996   3.144   6.261
 1026SOL    HW2 3978   0.854   3.086   6.317
 1027SOL     OW 3979   2.428   4.575   1.644
 1027SOL    HW1 3980   2.391   4.515   1.573
 1027SOL    HW2 3981   2.527   4.562   1.649
 1028SOL     OW 3982   0.715   5.910   0.857
 1028SOL    HW1 3983   0.751   5.991   0.903
 1028SOL    HW2 3984   0.678   5.936   0.768
 1029SOL     OW 3985   3.508   1.210   5.228
 1029SOL    HW1 3986   3.540   1.117   5.213
 1029SOL    HW2 3987   3.566   1.274   5.179
 1030SOL     OW 3988   3.818   4.334   5.334
 1030SOL    HW1 3989   3.834   4.314   5.430
 1030SOL    HW2 3990   3.732   4.384   5.323
 1031SOL     OW 3991   2.178   5.120   0.892
 1031SOL    HW1 3992   2.257   5.164   0.935
 1031SOL    HW2 3993   2.199   5.101   0.796
 1032SOL     OW 3994   1.397   1.472   5.137
 1032SOL    HW1 3995   1.328   1.435   5.075
 1032SOL    HW2 3996   1.487   1.437   5.112
 1033SOL     OW 3997   2.465   6.109   3.175
 1033SOL    HW1 3998   2.519   6.095   3.257
 1033SOL    HW2 3999   2.371   6.134   3.200
 1034SOL     OW 4000   1.327   6.993   1.796
 1034SOL    HW1 4001   1.275   0.046   1.835
 1034SOL    HW2 4002   1.356   6.931   1.869
 1035SOL     OW 4003   3.038   0.463   3.825
 1035SOL    HW1 4004   2.966   0.451   3.893
 1035SOL    HW2 4005   3.035   0.388   3.758
 1036SOL     OW 4006   4.315   6.855   6.464
 1036SOL    HW1 4007   4.344   6.760   6.456
 1036SOL    HW2 4008   4.392   6.916   6.441
 1037SOL     OW 4009   2.721   1.909   6.545
 1037SOL    HW1 4010   2.694   1.884   6.452
 1037SOL    HW2 4011   2.711   1.830   6.605
 1038SOL     OW 4012   2.847   1.406   5.170
 1038SOL    HW1 4013   2.771   1.424   5.108
 1038SOL    HW2 4014   2.813   1.357   5.250
 1039SOL     OW 4015   4.013   2.124   3.448
 1039SOL    HW1 4016   3.958   2.044   3.472
 1039SOL    HW2 4017   4.025   2.128   3.348
 1040SOL     OW 4018   5.401   3.615   4.574
 1040SOL    HW1 4019   5.408   3.709   4.539
 1040SOL    HW2 4020   5.305   3.589   4.578
 1041SOL     OW 4021   1.627   7.000   4.410
 1041SOL    HW1 4022   1.668   0.067   4.396
 1041SOL    HW2 4023   1.531   7.002   4.383
 1042SOL     OW 4024   4.458   3.867   1.055
 1042SOL    HW1 4025   4.509   3.936   1.107
 1042SOL    HW2 4026   4.459   3.780   1.104
 1043SOL     OW 4027   3.501   0.055   6.634
 1043SOL    HW1 4028   3.423   0.012   6.588
 1043SOL    HW2 4029   3.483   0.059   6.733
 1044SOL     OW 4030   3.689   4.087   2.148
 1044SOL    HW1 4031   3.778   4.047   2.168
 1044SOL    HW2 4032   3.650   4.125   2.231
 1045SOL     OW 4033   3.823   1.214   3.062
 1045SOL    HW1 4034   3.725   1.201   3.075
 1045SOL    HW2 4035   3.847   1.309   3.083
 1046SOL     OW 4036   3.718   1.421   2.136
 1046SOL    HW1 4037   3.720   1.503   2.077
 1046SOL    HW2 4038   3.805   1.372   2.126
 1047SOL     OW 4039   0.735   5.444   1.995
 1047SOL    HW1 4040   0.811   5.488   1.948
 1047SOL    HW2 4041   0.654   5.502   1.991
 1048SOL     OW 4042   6.610   4.553   5.186
 1048SOL    HW1 4043   6.518   4.531   5.219
 1048SOL    HW2 4044   6.677   4.494   5.232
 1049SOL     OW 4045   0.472   3.524   4.906
 1049SOL    HW1 4046   0.405   3.452   4.886
 1049SOL    HW2 4047   0.565   3.487   4.897
 1050SOL     OW 4048   2.777   0.599   0.343
 1050SOL    HW1 4049   2.828   0.610   0.428
 1050SOL    HW2 4050   2.689   0.555   0.362
 1051SOL     OW 4051   4.769   4.537   2.549
 1051SOL    HW1 4052   4.702   4.464   2.565
 1051SOL    HW2 4053   4.824   4.515   2.469
 1052SOL     OW 4054   4.222   0.365   4.423
 1052SOL    HW1 4055   4.254   0.460   4.423
 1052SOL    HW2 4056   4.122   0.363   4.424
 1053SOL     OW 4057   3.657   5.213   3.522
 1053SOL    HW1 4058   3.557   5.206   3.516
 1053SOL    HW2 4059   3.697   5.122   3.524
 1054SOL     OW 4060   4.266   6.071   4.251
 1054SOL    HW1 4061   4.221   6.156   4.224
 1054SOL    HW2 4062   4.289   6.076   4.348
 1055SOL     OW 4063   3.898   5.450   3.923
 1055SOL    HW1 4064   3.960   5.383   3.964
 1055SOL    HW2 4065   3.838   5.404   3.858
 1056SOL     OW 4066   2.141   5.727   6.091
 1056SOL    HW1 4067   2.166   5.658   6.023
 1056SOL    HW2 4068   2.120   5.813   6.045
 1057SOL     OW 4069   3.731   3.988   1.163
 1057SOL    HW1 4070   3.688   4.018   1.249
 1057SOL    HW2 4071   3.828   3.971   1.179
 1058SOL     OW 4072   3.034   6.537   1.970
 1058SOL    HW1 4073   3.065   6.445   1.949
 1058SOL    HW2 4074   2.935   6.543   1.955
 1059SOL     OW 4075   3.353   0.563   0.454
 1059SOL    HW1 4076   3.376   0.491   0.389
 1059SOL    HW2 4077   3.293   0.630   0.410
 1060SOL     OW 4078   2.399   1.309   4.529
 1060SOL    HW1 4079   2.323   1.364   4.562
 1060SOL    HW2 4080   2.449   1.359   4.458
 1061SOL     OW 4081   3.076   5.862   1.174
 1061SOL    HW1 4082   3.115   5.931   1.234
 1061SOL    HW2 4083   3.011   5.806   1.226
 1062SOL     OW 4084   4.957   4.859   5.296
 1062SOL    HW1 4085   4.983   4.949   5.261
 1062SOL    HW2 4086   4.876   4.868   5.354
 1063SOL     OW 4087   2.665   3.093   6.062
 1063SOL    HW1 4088   2.618   3.160   6.119
 1063SOL    HW2 4089   2.615   3.080   5.976
 1064SOL     OW 4090   0.214   3.479   1.992
 1064SOL    HW1 4091   0.117   3.480   2.017
 1064SOL    HW2 4092   0.230   3.412   1.920
 1065SOL     OW 4093   4.368   4.897   5.590
 1065SOL    HW1 4094   4.423   4.980   5.594
 1065SOL    HW2 4095   4.363   4.864   5.496
 1066SOL     OW 4096   4.159   6.580   3.367
 1066SOL    HW1 4097   4.257   6.562   3.376
 1066SOL    HW2 4098   4.140   6.675   3.394
 1067SOL     OW 4099   2.673   3.003   0.923
 1067SOL    HW1 4100   2.634   2.972   0.836
 1067SOL    HW2 4101   2.698   3.100   0.915
 1068SOL     OW 4102   0.514   4.396   0.687
 1068SOL    HW1 4103   0.513   4.467   0.757
 1068SOL    HW2 4104   0.471   4.313   0.724
 1069SOL     OW 4105   3.604   3.675   1.957
 1069SOL    HW1 4106   3.682   3.679   1.894
 1069SOL    HW2 4107   3.593   3.581   1.990
 1070SOL     OW 4108   2.681   6.551   0.878
 1070SOL    HW1 4109   2.595   6.509   0.906
 1070SOL    HW2 4110   2.742   6.481   0.840
 1071SOL     OW 4111   4.573   5.830   3.549
 1071SOL    HW1 4112   4.575   5.730   3.559
 1071SOL    HW2 4113   4.593   5.854   3.454
 1072SOL     OW 4114   3.618   5.329   2.723
 1072SOL    HW1 4115   3.521   5.312   2.708
 1072SOL    HW2 4116   3.670   5.294   2.645
 1073SOL     OW 4117   2.602   5.394   3.010
 1073SOL    HW1 4118   2.582   5.352   2.921
 1073SOL    HW2 4119   2.698   5.420   3.013
 1074SOL     OW 4120   1.447   5.496   2.637
 1074SOL    HW1 4121   1.414   5.587   2.665
 1074SOL    HW2 4122   1.546   5.492   2.646
 1075SOL     OW 4123   0.919   4.165   3.133
 1075SOL    HW1 4124   1.019   4.161   3.136
 1075SOL    HW2 4125   0.884   4.182   3.225
 1076SOL     OW 4126   6.845   4.088   2.782
 1076SOL    HW1 4127   6.931   4.121   2.742
 1076SOL    HW2 4128   6.830   4.132   2.870
 1077SOL     OW 4129   5.385   1.115   1.561
 1077SOL    HW1 4130   5.297   1.073   1.583
 1077SOL    HW2 4131   5.458   1.047   1.572
 1078SOL     OW 4132   0.525   3.158   1.954
 1078SOL    HW1 4133   0.440   3.134   2.001
 1078SOL    HW2 4134   0.555   3.248   1.984
 1079SOL     OW 4135   2.345   5.501   3.021
 1079SOL    HW1 4136   2.439   5.467   3.015
 1079SOL    HW2 4137   2.338   5.567   3.096
 1080SOL     OW 4138   1.854   5.919   4.165
 1080SOL    HW1 4139   1.808   5.860   4.098
 1080SOL    HW2 4140   1.928   5.969   4.120
 1081SOL     OW 4141   1.784   1.223   0.346
 1081SOL    HW1 4142   1.700   1.269   0.373
 1081SOL    HW2 4143   1.794   1.226   0.247
 1082SOL     OW 4144   2.135   6.997   0.815
 1082SOL    HW1 4145   2.125   0.048   0.748
 1082SOL    HW2 4146   2.167   0.012   0.902
 1083SOL     OW 4147   3.444   2.416   1.700
 1083SOL    HW1 4148   3.458   2.338   1.639
 1083SOL    HW2 4149   3.515   2.418   1.769
 1084SOL     OW 4150   6.429   3.327   0.929
 1084SOL    HW1 4151   6.500   3.333   0.999
 1084SOL    HW2 4152   6.470   3.302   0.842
 1085SOL     OW 4153   1.331   5.004   3.486
 1085SOL    HW1 4154   1.403   4.993   3.417
 1085SOL    HW2 4155   1.374   5.026   3.574
 1086SOL     OW 4156   3.805   5.027   2.182
 1086SOL    HW1 4157   3.839   4.966   2.254
 1086SOL    HW2 4158   3.845   5.001   2.094
 1087SOL     OW 4159   3.764   3.514   4.531
 1087SOL    HW1 4160   3.861   3.534   4.515
 1087SOL    HW2 4161   3.736   3.438   4.473
 1088SOL     OW 4162   5.896   4.382   2.560
 1088SOL    HW1 4163   5.918   4.354   2.467
 1088SOL    HW2 4164   5.806   4.425   2.562
 1089SOL     OW 4165   6.651   6.880   3.504
 1089SOL    HW1 4166   6.725   6.940   3.473
 1089SOL    HW2 4167   6.634   6.895   3.601
 1090SOL     OW 4168   1.656   1.863   6.045
 1090SOL    HW1 4169   1.644   1.765   6.060
 1090SOL    HW2 4170   1.629   1.887   5.952
 1091SOL     OW 4171   1.071   2.905   5.558
 1091SOL    HW1 4172   0.976   2.922   5.535
 1091SOL    HW2 4173   1.121   2.992   5.561
 1092SOL     OW 4174   2.189   4.750   1.145
 1092SOL    HW1 4175   2.151   4.658   1.133
 1092SOL    HW2 4176   2.186   4.774   1.242
 1093SOL     OW 4177   0.288   2.240   1.607
 1093SOL    HW1 4178   0.278   2.172   1.679
 1093SOL    HW2 4179   0.252   2.204   1.521
 1094SOL     OW 4180   0.847   6.913   2.109
 1094SOL    HW1 4181   0.831   6.965   2.026
 1094SOL    HW2 4182   0.917   6.959   2.164
 1095SOL     OW 4183   6.578   3.636   5.598
 1095SOL    HW1 4184   6.646   3.709   5.604
 1095SOL    HW2 4185   6.617   3.558   5.550
 1096SOL     OW 4186   3.820   3.652   1.802
 1096SOL    HW1 4187   3.819   3.603   1.715
 1096SOL    HW2 4188   3.908   3.698   1.814
 1097SOL     OW 4189   2.574   4.014   5.477
 1097SOL    HW1 4190   2.535   4.105   5.494
 1097SOL    HW2 4191   2.547   3.984   5.385
 1098SOL     OW 4192   4.326   0.633   2.814
 1098SOL    HW1 4193   4.327   0.733   2.817
 1098SOL    HW2 4194   4.309   0.598   2.906
 1099SOL     OW 4195   3.416   0.570   2.836
 1099SOL    HW1 4196   3.493   0.633   2.845
 1099SOL    HW2 4197   3.409   0.515   2.920
 1100SOL     OW 4198   6.748   0.657   6.893
 1100SOL    HW1 4199   6.783   0.592   6.825
 1100SOL    HW2 4200   6.649   0.664   6.884
 1101SOL     OW 4201   5.631   3.334   1.435
 1101SOL    HW1 4202   5.691   3.254   1.429
 1101SOL    HW2 4203   5.538   3.304   1.460
 1102SOL     OW 4204   0.004   4.536   3.825
 1102SOL    HW1 4205   0.072   4.514   3.895
 1102SOL    HW2 4206   6.946   4.480   3.838
 1103SOL     OW 4207   0.176   3.197   0.443
 1103SOL    HW1 4208   0.195   3.278   0.498
 1103SOL    HW2 4209   0.188   3.219   0.346
 1104SOL     OW 4210   2.725   5.411   6.554
 1104SOL    HW1 4211   2.707   5.347   6.628
 1104SOL    HW2 4212   2.796   5.374   6.494
 1105SOL     OW 4213   3.886   5.506   1.268
 1105SOL    HW1 4214   3.940   5.539   1.190
 1105SOL    HW2 4215   3.807   5.565   1.281
 1106SOL     OW 4216   1.325   1.211   6.238
 1106SOL    HW1 4217   1.253   1.197   6.306
 1106SOL    HW2 4218   1.299   1.287   6.177
 1107SOL     OW 4219   6.733   0.155   0.928
 1107SOL    HW1 4220   6.808   0.215   0.902
 1107SOL    HW2 4221   6.686   0.193   1.007
 1108SOL     OW 4222   0.787   0.779   6.909
 1108SOL    HW1 4223   0.760   0.739   6.996
 1108SOL    HW2 4224   0.885   0.795   6.908
 1109SOL     OW 4225   5.286   0.966   3.804
 1109SOL    HW1 4226   5.306   0.911   3.723
 1109SOL    HW2 4227   5.263   0.906   3.881
 1110SOL     OW 4228   3.386   2.800   2.062
 1110SOL    HW1 4229   3.455   2.751   2.008
 1110SOL    HW2 4230   3.304   2.743   2.071
 1111SOL     OW 4231   4.543   0.164   6.610
 1111SOL    HW1 4232   4.642   0.173   6.609
 1111SOL    HW2 4233   4.517   0.089   6.671
 1112SOL     OW 4234   0.876   1.137   2.527
 1112SOL    HW1 4235   0.908   1.188   2.447
 1112SOL    HW2 4236   0.908   1.042   2.520
 1113SOL     OW 4237   5.824   4.248   1.732
 1113SOL    HW1 4238   5.861   4.200   1.652
 1113SOL    HW2 4239   5.756   4.315   1.702
 1114SOL     OW 4240   5.597   1.039   5.505
 1114SOL    HW1 4241   5.664   1.111   5.487
 1114SOL    HW2 4242   5.614   0.999   5.595
 1115SOL     OW 4243   2.677   4.142   0.788
 1115SOL    HW1 4244   2.619   4.133   0.707
 1115SOL    HW2 4245   2.668   4.235   0.825
 1116SOL     OW 4246   3.815   6.463   6.237
 1116SOL    HW1 4247   3.879   6.535   6.263
 1116SOL    HW2 4248   3.772   6.425   6.319
 1117SOL     OW 4249   2.413   2.517   0.930
 1117SOL    HW1 4250   2.415   2.448   0.857
 1117SOL    HW2 4251   2.462   2.482   1.009
 1118SOL     OW 4252   1.718   2.805   2.303
 1118SOL    HW1 4253   1.781   2.874   2.267
 1118SOL    HW2 4254   1.763   2.754   2.377
 1119SOL     OW 4255   3.120   3.847   2.570
 1119SOL    HW1 4256   3.109   3.888   2.479
 1119SOL    HW2 4257   3.204   3.794   2.573
 1120SOL     OW 4258   4.878   1.221   4.368
 1120SOL    HW1 4259   4.923   1.303   4.333
 1120SOL    HW2 4260   4.826   1.244   4.450
 1121SOL     OW 4261   5.279   3.114   2.707
 1121SOL    HW1 4262   5.275   3.014   2.710
 1121SOL    HW2 4263   5.280   3.149   2.801
 1122SOL     OW 4264   4.407   4.940   6.878
 1122SOL    HW1 4265   4.427   4.847   6.849
 1122SOL    HW2 4266   4.467   4.964   6.955
 1123SOL     OW 4267   3.900   1.247   1.839
 1123SOL    HW1 4268   3.842   1.317   1.797
 1123SOL    HW2 4269   3.852   1.159   1.839
 1124SOL     OW 4270   1.201   4.871   4.352
 1124SOL    HW1 4271   1.126   4.923   4.391
 1124SOL    HW2 4272   1.236   4.806   4.421
 1125SOL     OW 4273   2.915   3.283   5.098
 1125SOL    HW1 4274   2.971   3.362   5.125
 1125SOL    HW2 4275   2.842   3.270   5.165
 1126SOL     OW 4276   6.558   0.266   2.105
 1126SOL    HW1 4277   6.577   0.322   2.185
 1126SOL    HW2 4278   6.606   0.178   2.113
 1127SOL     OW 4279   1.901   5.547   6.205
 1127SOL    HW1 4280   1.825   5.608   6.184
 1127SOL    HW2 4281   1.987   5.589   6.176
 1128SOL     OW 4282   2.285   1.660   4.306
 1128SOL    HW1 4283   2.190   1.628   4.302
 1128SOL    HW2 4284   2.315   1.686   4.214
 1129SOL     OW 4285   4.701   0.084   6.081
 1129SOL    HW1 4286   4.629   0.088   6.013
 1129SOL    HW2 4287   4.737   0.176   6.098
 1130SOL     OW 4288   0.339   5.396   6.261
 1130SOL    HW1 4289   0.322   5.298   6.263
 1130SOL    HW2 4290   0.410   5.420   6.327
 1131SOL     OW 4291   0.500   4.899   5.334
 1131SOL    HW1 4292   0.583   4.946   5.304
 1131SOL    HW2 4293   0.453   4.860   5.254
 1132SOL     OW 4294   5.329   0.180   5.248
 1132SOL    HW1 4295   5.362   0.122   5.174
 1132SOL    HW2 4296   5.230   0.190   5.240
 1133SOL     OW 4297   0.154   2.590   6.831
 1133SOL    HW1 4298   0.193   2.596   6.923
 1133SOL    HW2 4299   0.214   2.635   6.766
 1134SOL     OW 4300   6.434   2.498   6.076
 1134SOL    HW1 4301   6.431   2.528   6.172
 1134SOL    HW2 4302   6.372   2.554   6.021
 1135SOL     OW 4303   6.538   1.508   4.069
 1135SOL    HW1 4304   6.459   1.507   4.009
 1135SOL    HW2 4305   6.620   1.527   4.016
 1136SOL     OW 4306   3.484   5.227   3.919
 1136SOL    HW1 4307   3.557   5.230   3.987
 1136SOL    HW2 4308   3.396   5.231   3.964
 1137SOL     OW 4309   1.547   0.822   6.028
 1137SOL    HW1 4310   1.471   0.885   6.048
 1137SOL    HW2 4311   1.622   0.838   6.092
 1138SOL     OW 4312   0.503   4.302   6.085
 1138SOL    HW1 4313   0.446   4.254   6.018
 1138SOL    HW2 4314   0.445   4.341   6.157
 1139SOL     OW 4315   0.846   6.592   1.375
 1139SOL    HW1 4316   0.942   6.592   1.402
 1139SOL    HW2 4317   0.832   6.529   1.299
 1140SOL     OW 4318   3.501   1.608   3.475
 1140SOL    HW1 4319   3.412   1.645   3.501
 1140SOL    HW2 4320   3.492   1.510   3.456
 1141SOL     OW 4321   0.021   6.128   5.535
 1141SOL    HW1 4322   7.005   6.036   5.532
 1141SOL    HW2 4323   6.974   6.195   5.511
 1142SOL     OW 4324   6.230   1.021   4.273
 1142SOL    HW1 4325   6.135   1.001   4.246
 1142SOL    HW2 4326   6.235   1.028   4.372
 1143SOL     OW 4327   4.476   1.573   1.829
 1143SOL    HW1 4328   4.480   1.657   1.773
 1143SOL    HW2 4329   4.559   1.566   1.884
 1144SOL     OW 4330   1.127   6.910   5.490
 1144SOL    HW1 4331   1.050   6.847   5.490
 1144SOL    HW2 4332   1.172   6.908   5.401
 1145SOL     OW 4333   1.919   4.790   4.624
 1145SOL    HW1 4334   1.986   4.818   4.693
 1145SOL    HW2 4335   1.850   4.732   4.667
 1146SOL     OW 4336   6.390   1.760   0.986
 1146SOL    HW1 4337   6.349   1.678   0.946
 1146SOL    HW2 4338   6.466   1.733   1.045
 1147SOL     OW 4339   6.617   3.424   2.291
 1147SOL    HW1 4340   6.540   3.360   2.294
 1147SOL    HW2 4341   6.587   3.513   2.327
 1148SOL     OW 4342   4.972   1.409   6.622
 1148SOL    HW1 4343   4.918   1.375   6.699
 1148SOL    HW2 4344   5.035   1.480   6.655
 1149SOL     OW 4345   6.249   2.637   3.671
 1149SOL    HW1 4346   6.209   2.582   3.597
 1149SOL    HW2 4347   6.261   2.580   3.752
 1150SOL     OW 4348   1.375   5.203   5.571
 1150SOL    HW1 4349   1.284   5.168   5.594
 1150SOL    HW2 4350   1.440   5.127   5.568
 1151SOL     OW 4351   3.448   5.210   6.755
 1151SOL    HW1 4352   3.389   5.131   6.741
 1151SOL    HW2 4353   3.401   5.278   6.810
 1152SOL     OW 4354   0.429   1.224   4.228
 1152SOL    HW1 4355   0.471   1.292   4.167
 1152SOL    HW2 4356   0.371   1.163   4.176
 1153SOL     OW 4357   2.463   4.762   3.018
 1153SOL    HW1 4358   2.454   4.676   2.968
 1153SOL    HW2 4359   2.560   4.780   3.037
 1154SOL     OW 4360   1.912   4.381   2.132
 1154SOL    HW1 4361   1.906   4.432   2.046
 1154SOL    HW2 4362   1.925   4.445   2.208
 1155SOL     OW 4363   4.063   6.654   2.598
 1155SOL    HW1 4364   4.124   6.689   2.669
 1155SOL    HW2 4365   4.087   6.697   2.510
 1156SOL     OW 4366   1.341   1.750   3.711
 1156SOL    HW1 4367   1.243   1.754   3.730
 1156SOL    HW2 4368   1.380   1.842   3.720
 1157SOL     OW 4369   1.070   3.578   4.417
 1157SOL    HW1 4370   1.125   3.656   4.446
 1157SOL    HW2 4371   1.117   3.529   4.343
 1158SOL     OW 4372   4.350   5.907   6.453
 1158SOL    HW1 4373   4.256   5.901   6.420
 1158SOL    HW2 4374   4.353   5.962   6.536
 1159SOL     OW 4375   5.561   4.773   2.628
 1159SOL    HW1 4376   5.643   4.828   2.606
 1159SOL    HW2 4377   5.572   4.681   2.590
 1160SOL     OW 4378   2.639   2.613   0.804
 1160SOL    HW1 4379   2.622   2.710   0.786
 1160SOL    HW2 4380   2.656   2.600   0.902
 1161SOL     OW 4381   4.073   0.826   4.328
 1161SOL    HW1 4382   4.170   0.817   4.307
 1161SOL    HW2 4383   4.061   0.896   4.399
 1162SOL     OW 4384   4.057   4.700   1.423
 1162SOL    HW1 4385   4.073   4.676   1.519
 1162SOL    HW2 4386   4.081   4.796   1.409
 1163SOL     OW 4387   5.504   1.194   2.187
 1163SOL    HW1 4388   5.405   1.200   2.193
 1163SOL    HW2 4389   5.529   1.121   2.124
 1164SOL     OW 4390   6.091   3.517   4.199
 1164SOL    HW1 4391   6.047   3.564   4.122
 1164SOL    HW2 4392   6.190   3.522   4.188
 1165SOL     OW 4393   1.834   4.744   2.182
 1165SOL    HW1 4394   1.744   4.769   2.218
 1165SOL    HW2 4395   1.863   4.658   2.224
 1166SOL     OW 4396   3.429   2.487   6.563
 1166SOL    HW1 4397   3.383   2.450   6.644
 1166SOL    HW2 4398   3.391   2.443   6.481
 1167SOL     OW 4399   4.043   1.948   5.038
 1167SOL    HW1 4400   3.974   1.908   4.978
 1167SOL    HW2 4401   4.022   2.044   5.055
 1168SOL     OW 4402   6.096   6.597   3.026
 1168SOL    HW1 4403   6.144   6.554   3.102
 1168SOL    HW2 4404   6.112   6.545   2.942
 1169SOL     OW 4405   0.899   3.834   1.200
 1169SOL    HW1 4406   0.970   3.765   1.215
 1169SOL    HW2 4407   0.835   3.834   1.276
 1170SOL     OW 4408   3.186   0.199   1.344
 1170SOL    HW1 4409   3.242   0.226   1.422
 1170SOL    HW2 4410   3.223   0.240   1.260
 1171SOL     OW 4411   3.051   0.516   0.314
 1171SOL    HW1 4412   3.082   0.603   0.353
 1171SOL    HW2 4413   2.952   0.509   0.324
 1172SOL     OW 4414   3.016   3.711   4.661
 1172SOL    HW1 4415   3.112   3.695   4.685
 1172SOL    HW2 4416   3.011   3.755   4.571
 1173SOL     OW 4417   4.828   0.700   6.474
 1173SOL    HW1 4418   4.867   0.746   6.394
 1173SOL    HW2 4419   4.824   0.765   6.550
 1174SOL     OW 4420   3.323   6.019   6.806
 1174SOL    HW1 4421   3.348   6.069   6.889
 1174SOL    HW2 4422   3.307   5.923   6.828
 1175SOL     OW 4423   0.189   5.090   4.661
 1175SOL    HW1 4424   0.263   5.038   4.703
 1175SOL    HW2 4425   0.227   5.156   4.597
 1176SOL     OW 4426   6.190   3.192   0.958
 1176SOL    HW1 4427   6.287   3.213   0.967
 1176SOL    HW2 4428   6.136   3.255   1.015
 1177SOL     OW 4429   5.634   3.321   6.854
 1177SOL    HW1 4430   5.682   3.290   6.936
 1177SOL    HW2 4431   5.675   3.407   6.823
 1178SOL     OW 4432   5.233   4.207   2.280
 1178SOL    HW1 4433   5.327   4.235   2.261
 1178SOL    HW2 4434   5.232   4.115   2.318
 1179SOL     OW 4435   2.256   5.754   5.717
 1179SOL    HW1 4436   2.216   5.743   5.808
 1179SOL    HW2 4437   2.352   5.728   5.719
 1180SOL     OW 4438   1.678   1.284   3.856
 1180SOL    HW1 4439   1.748   1.343   3.815
 1180SOL    HW2 4440   1.673   1.301   3.954
 1181SOL     OW 4441   1.953   4.474   2.843
 1181SOL    HW1 4442   1.901   4.445   2.923
 1181SOL    HW2 4443   2.043   4.508   2.871
 1182SOL     OW 4444   1.326   3.535   3.630
 1182SOL    HW1 4445   1.417   3.563   3.599
 1182SOL    HW2 4446   1.258   3.564   3.563
 1183SOL     OW 4447   4.517   5.747   0.530
 1183SOL    HW1 4448   4.600   5.802   0.533
 1183SOL    HW2 4449   4.456   5.782   0.458
 1184SOL     OW 4450   3.710   3.225   5.895
 1184SOL    HW1 4451   3.621   3.242   5.939
 1184SOL    HW2 4452   3.697   3.161   5.819
 1185SOL     OW 4453   2.601   1.505   6.833
 1185SOL    HW1 4454   2.515   1.481   6.787
 1185SOL    HW2 4455   2.597   1.600   6.863
 1186SOL     OW 4456   3.119   0.829   4.971
 1186SOL    HW1 4457   3.171   0.914   4.983
 1186SOL    HW2 4458   3.036   0.848   4.918
 1187SOL     OW 4459   0.730   1.743   5.305
 1187SOL    HW1 4460   0.776   1.803   5.240
 1187SOL    HW2 4461   0.668   1.682   5.255
 1188SOL     OW 4462   1.636   0.715   4.979
 1188SOL    HW1 4463   1.614   0.742   5.072
 1188SOL    HW2 4464   1.551   0.704   4.927
 1189SOL     OW 4465   0.463   0.683   0.935
 1189SOL    HW1 4466   0.533   0.754   0.927
 1189SOL    HW2 4467   0.383   0.709   0.882
 1190SOL     OW 4468   4.245   4.949   2.671
 1190SOL    HW1 4469   4.254   4.891   2.590
 1190SOL    HW2 4470   4.285   4.902   2.749
 1191SOL     OW 4471   3.197   4.636   0.863
 1191SOL    HW1 4472   3.104   4.599   0.863
 1191SOL    HW2 4473   3.262   4.561   0.875
 1192SOL     OW 4474   4.668   4.841   2.855
 1192SOL    HW1 4475   4.587   4.811   2.804
 1192SOL    HW2 4476   4.733   4.765   2.860
 1193SOL     OW 4477   4.057   6.832   3.543
 1193SOL    HW1 4478   4.022   6.769   3.612
 1193SOL    HW2 4479   4.022   6.924   3.560
 1194SOL     OW 4480   6.228   1.124   1.281
 1194SOL    HW1 4481   6.131   1.151   1.276
 1194SOL    HW2 4482   6.236   1.026   1.267
 1195SOL     OW 4483   3.470   6.374   6.994
 1195SOL    HW1 4484   3.511   6.463   6.977
 1195SOL    HW2 4485   3.421   6.376   0.059
 1196SOL     OW 4486   1.105   5.322   3.222
 1196SOL    HW1 4487   1.185   5.376   3.248
 1196SOL    HW2 4488   1.133   5.228   3.203
 1197SOL     OW 4489   3.330   5.015   6.519
 1197SOL    HW1 4490   3.268   4.958   6.464
 1197SOL    HW2 4491   3.411   5.038   6.465
 1198SOL     OW 4492   3.602   1.440   2.391
 1198SOL    HW1 4493   3.524   1.484   2.346
 1198SOL    HW2 4494   3.666   1.407   2.322
 1199SOL     OW 4495   3.094   3.982   3.926
 1199SOL    HW1 4496   3.010   3.935   3.952
 1199SOL    HW2 4497   3.128   4.034   4.004
 1200SOL     OW 4498   4.115   3.324   1.268
 1200SOL    HW1 4499   4.110   3.288   1.175
 1200SOL    HW2 4500   4.134   3.249   1.332
 1201SOL     OW 4501   1.048   0.947   4.960
 1201SOL    HW1 4502   0.979   0.948   5.033
 1201SOL    HW2 4503   1.026   0.876   4.894
 1202SOL     OW 4504   6.148   6.960   4.664
 1202SOL    HW1 4505   6.171   6.929   4.572
 1202SOL    HW2 4506   6.084   6.895   4.705
 1203SOL     OW 4507   6.254   6.354   1.731
 1203SOL    HW1 4508   6.168   6.352   1.782
 1203SOL    HW2 4509   6.276   6.448   1.705
 1204SOL     OW 4510   1.306   6.803   6.914
 1204SOL    HW1 4511   1.334   6.707   6.913
 1204SOL    HW2 4512   1.361   6.854   6.849
 1205SOL     OW 4513   0.587   3.294   5.180
 1205SOL    HW1 4514   0.636   3.381   5.180
 1205SOL    HW2 4515   0.500   3.304   5.131
 1206SOL     OW 4516   0.244   2.228   4.596
 1206SOL    HW1 4517   0.226   2.268   4.506
 1206SOL    HW2 4518   0.256   2.129   4.587
 1207SOL     OW 4519   5.812   6.472   6.771
 1207SOL    HW1 4520   5.895   6.416   6.764
 1207SOL    HW2 4521   5.732   6.415   6.750
 1208SOL     OW 4522   3.348   3.757   3.147
 1208SOL    HW1 4523   3.321   3.737   3.053
 1208SOL    HW2 4524   3.407   3.683   3.182
 1209SOL     OW 4525   6.778   4.212   4.798
 1209SOL    HW1 4526   6.823   4.300   4.787
 1209SOL    HW2 4527   6.748   4.177   4.708
 1210SOL     OW 4528   2.797   6.959   2.873
 1210SOL    HW1 4529   2.869   6.934   2.809
 1210SOL    HW2 4530   2.809   0.032   2.901
 1211SOL     OW 4531   1.198   3.213   3.405
 1211SOL    HW1 4532   1.283   3.262   3.423
 1211SOL    HW2 4533   1.171   3.225   3.310
 1212SOL     OW 4534   0.978   4.032   3.602
 1212SOL    HW1 4535   1.023   4.111   3.644
 1212SOL    HW2 4536   0.921   3.986   3.670
 1213SOL     OW 4537   5.596   3.417   5.256
 1213SOL    HW1 4538   5.589   3.457   5.165
 1213SOL    HW2 4539   5.507   3.377   5.281
 1214SOL     OW 4540   1.607   2.247   2.106
 1214SOL    HW1 4541   1.606   2.314   2.180
 1214SOL    HW2 4542   1.600   2.294   2.018
 1215SOL     OW 4543   7.017   5.362   2.317
 1215SOL    HW1 4544   0.054   5.308   2.376
 1215SOL    HW2 4545   0.028   5.359   2.223
 1216SOL     OW 4546   2.857   0.433   1.609
 1216SOL    HW1 4547   2.779   0.490   1.633
 1216SOL    HW2 4548   2.824   0.348   1.567
 1217SOL     OW 4549   1.981   1.935   2.433
 1217SOL    HW1 4550   1.930   1.872   2.491
 1217SOL    HW2 4551   1.917   1.993   2.382
 1218SOL     OW 4552   7.001   3.509   3.346
 1218SOL    HW1 4553   0.006   3.493   3.440
 1218SOL    HW2 4554   7.020   3.428   3.291
 1219SOL     OW 4555   2.671   6.041   3.982
 1219SOL    HW1 4556   2.642   6.132   4.013
 1219SOL    HW2 4557   2.762   6.047   3.942
 1220SOL     OW 4558   5.889   4.306   2.848
 1220SOL    HW1 4559   5.888   4.207   2.860
 1220SOL    HW2 4560   5.860   4.328   2.754
 1221SOL     OW 4561   5.029   4.068   6.306
 1221SOL    HW1 4562   5.003   4.071   6.209
 1221SOL    HW2 4563   5.086   4.148   6.327
 1222SOL     OW 4564   6.249   5.143   1.364
 1222SOL    HW1 4565   6.329   5.200   1.346
 1222SOL    HW2 4566   6.225   5.091   1.282
 1223SOL     OW 4567   6.710   4.788   5.266
 1223SOL    HW1 4568   6.695   4.691   5.245
 1223SOL    HW2 4569   6.789   4.797   5.326
 1224SOL     OW 4570   4.551   4.586   1.156
 1224SOL    HW1 4571   4.500   4.551   1.234
 1224SOL    HW2 4572   4.641   4.617   1.187
 1225SOL     OW 4573   3.576   1.958   6.987
 1225SOL    HW1 4574   3.543   2.004   6.905
 1225SOL    HW2 4575   3.499   1.913   0.010
 1226SOL     OW 4576   5.259   5.562   0.609
 1226SOL    HW1 4577   5.320   5.543   0.686
 1226SOL    HW2 4578   5.188   5.626   0.638
 1227SOL     OW 4579   5.101   4.744   6.733
 1227SOL    HW1 4580   5.188   4.718   6.689
 1227SOL    HW2 4581   5.066   4.665   6.783
 1228SOL     OW 4582   3.883   3.980   4.427
 1228SOL    HW1 4583   3.873   3.894   4.477
 1228SOL    HW2 4584   3.922   4.050   4.487
 1229SOL     OW 4585   2.436   5.851   3.091
 1229SOL    HW1 4586   2.407   5.941   3.124
 1229SOL    HW2 4587   2.521   5.824   3.136
 1230SOL     OW 4588   5.486   5.543   1.067
 1230SOL    HW1 4589   5.539   5.469   1.110
 1230SOL    HW2 4590   5.534   5.576   0.987
 1231SOL     OW 4591   2.300   1.667   6.943
 1231SOL    HW1 4592   2.307   1.624   6.853
 1231SOL    HW2 4593   2.226   1.734   6.942
 1232SOL     OW 4594   3.174   1.361   5.326
 1232SOL    HW1 4595   3.129   1.444   5.357
 1232SOL    HW2 4596   3.190   1.366   5.228
 1233SOL     OW 4597   6.715   5.420   4.757
 1233SOL    HW1 4598   6.718   5.333   4.709
 1233SOL    HW2 4599   6.805   5.441   4.794
 1234SOL     OW 4600   6.327   4.669   0.007
 1234SOL    HW1 4601   6.261   4.618   0.062
 1234SOL    HW2 4602   6.403   4.609   7.005
 1235SOL     OW 4603   5.986   4.839   0.970
 1235SOL    HW1 4604   5.980   4.917   0.908
 1235SOL    HW2 4605   6.081   4.824   0.995
 1236SOL     OW 4606   1.684   1.044   2.227
 1236SOL    HW1 4607   1.725   0.957   2.255
 1236SOL    HW2 4608   1.596   1.026   2.183
 1237SOL     OW 4609   0.987   0.386   4.484
 1237SOL    HW1 4610   0.969   0.453   4.413
 1237SOL    HW2 4611   1.069   0.412   4.534
 1238SOL     OW 4612   0.716   0.432   4.848
 1238SOL    HW1 4613   0.711   0.422   4.948
 1238SOL    HW2 4614   0.641   0.490   4.817
 1239SOL     OW 4615   4.877   4.916   4.184
 1239SOL    HW1 4616   4.941   4.964   4.123
 1239SOL    HW2 4617   4.929   4.864   4.252
 1240SOL     OW 4618   0.718   3.509   1.165
 1240SOL    HW1 4619   0.653   3.563   1.113
 1240SOL    HW2 4620   0.808   3.552   1.161
 1241SOL     OW 4621   4.006   4.939   6.200
 1241SOL    HW1 4622   4.029   4.882   6.279
 1241SOL    HW2 4623   4.090   4.973   6.158
 1242SOL     OW 4624   2.469   5.162   0.683
 1242SOL    HW1 4625   2.417   5.221   0.622
 1242SOL    HW2 4626   2.414   5.083   0.709
 1243SOL     OW 4627   0.995   3.385   3.468
 1243SOL    HW1 4628   1.060   3.316   3.437
 1243SOL    HW2 4629   1.030   3.476   3.448
 1244SOL     OW 4630   6.079   0.023   5.306
 1244SOL    HW1 4631   6.143   7.002   5.243
 1244SOL    HW2 4632   6.086   0.123   5.296
 1245SOL     OW 4633   4.673   6.419   1.363
 1245SOL    HW1 4634   4.757   6.388   1.408
 1245SOL    HW2 4635   4.667   6.377   1.272
 1246SOL     OW 4636   5.600   1.956   1.224
 1246SOL    HW1 4637   5.556   1.984   1.139
 1246SOL    HW2 4638   5.689   2.001   1.232
 1247SOL     OW 4639   6.119   6.708   2.335
 1247SOL    HW1 4640   6.023   6.734   2.339
 1247SOL    HW2 4641   6.127   6.614   2.301
 1248SOL     OW 4642   0.708   6.657   4.630
 1248SOL    HW1 4643   0.629   6.659   4.692
 1248SOL    HW2 4644   0.689   6.716   4.551
 1249SOL     OW 4645   5.674   6.160   6.342
 1249SOL    HW1 4646   5.644   6.256   6.344
 1249SOL    HW2 4647   5.667   6.122   6.435
 1250SOL     OW 4648   0.979   4.510   4.776
 1250SOL    HW1 4649   0.992   4.476   4.683
 1250SOL    HW2 4650   0.891   4.478   4.811
 1251SOL     OW 4651   3.007   0.265   2.710
 1251SOL    HW1 4652   2.990   0.332   2.637
 1251SOL    HW2 4653   2.961   0.179   2.688
 1252SOL     OW 4654   2.060   5.074   6.654
 1252SOL    HW1 4655   2.034   4.987   6.613
 1252SOL    HW2 4656   2.136   5.113   6.601
 1253SOL     OW 4657   2.913   6.533   7.014
 1253SOL    HW1 4658   2.948   6.623   0.017
 1253SOL    HW2 4659   2.951   6.507   6.925
 1254SOL     OW 4660   6.464   1.722   3.012
 1254SOL    HW1 4661   6.528   1.648   3.030
 1254SOL    HW2 4662   6.382   1.709   3.068
 1255SOL     OW 4663   5.759   1.937   5.936
 1255SOL    HW1 4664   5.835   2.000   5.924
 1255SOL    HW2 4665   5.758   1.871   5.861
 1256SOL     OW 4666   0.446   5.601   4.618
 1256SOL    HW1 4667   0.476   5.511   4.649
 1256SOL    HW2 4668   0.372   5.634   4.678
 1257SOL     OW 4669   6.866   6.250   3.436
 1257SOL    HW1 4670   6.812   6.335   3.434
 1257SOL    HW2 4671   6.814   6.179   3.483
 1258SOL     OW 4672   4.473   6.034   6.252
 1258SOL    HW1 4673   4.441   5.984   6.332
 1258SOL    HW2 4674   4.536   6.106   6.281
 1259SOL     OW 4675   5.431   0.150   5.542
 1259SOL    HW1 4676   5.437   0.051   5.532
 1259SOL    HW2 4677   5.389   0.190   5.460
 1260SOL     OW 4678   3.226   0.914   0.931
 1260SOL    HW1 4679   3.306   0.879   0.980
 1260SOL    HW2 4680   3.255   0.982   0.864
 1261SOL     OW 4681   0.145   4.433   5.280
 1261SOL    HW1 4682   0.227   4.482   5.310
 1261SOL    HW2 4683   0.168   4.338   5.262
 1262SOL     OW 4684   4.370   5.744   1.657
 1262SOL    HW1 4685   4.459   5.779   1.686
 1262SOL    HW2 4686   4.360   5.756   1.558
 1263SOL     OW 4687   0.002   1.946   0.481
 1263SOL    HW1 4688   6.977   1.964   0.568
 1263SOL    HW2 4689   6.988   2.007   0.411
 1264SOL     OW 4690   6.391   2.437   4.375
 1264SOL    HW1 4691   6.472   2.384   4.400
 1264SOL    HW2 4692   6.418   2.523   4.333
 1265SOL     OW 4693   6.453   5.774   4.840
 1265SOL    HW1 4694   6.359   5.784   4.874
 1265SOL    HW2 4695   6.467   5.680   4.810
 1266SOL     OW 4696   2.785   0.740   3.863
 1266SOL    HW1 4697   2.789   0.642   3.883
 1266SOL    HW2 4698   2.828   0.791   3.937
 1267SOL     OW 4699   0.155   4.608   3.145
 1267SOL    HW1 4700   0.130   4.635   3.052
 1267SOL    HW2 4701   0.086   4.640   3.209
 1268SOL     OW 4702   5.868   4.477   6.882
 1268SOL    HW1 4703   5.847   4.574   6.866
 1268SOL    HW2 4704   5.955   4.454   6.837
 1269SOL     OW 4705   6.823   5.041   6.066
 1269SOL    HW1 4706   6.902   5.018   6.009
 1269SOL    HW2 4707   6.838   5.129   6.112
 1270SOL     OW 4708   1.412   1.900   4.739
 1270SOL    HW1 4709   1.433   1.811   4.778
 1270SOL    HW2 4710   1.428   1.898   4.640
 1271SOL     OW 4711   5.348   2.691   3.380
 1271SOL    HW1 4712   5.261   2.732   3.409
 1271SOL    HW2 4713   5.349   2.594   3.403
 1272SOL     OW 4714   6.173   0.167   1.513
 1272SOL    HW1 4715   6.162   0.139   1.608
 1272SOL    HW2 4716   6.174   0.086   1.454
 1273SOL     OW 4717   2.783   6.248   6.026
 1273SOL    HW1 4718   2.799   6.183   5.951
 1273SOL    HW2 4719   2.687   6.244   6.053
 1274SOL     OW 4720   5.653   2.014   2.010
 1274SOL    HW1 4721   5.711   2.095   2.000
 1274SOL    HW2 4722   5.621   2.006   2.104
 1275SOL     OW 4723   4.006   1.660   3.838
 1275SOL    HW1 4724   3.930   1.632   3.779
 1275SOL    HW2 4725   4.068   1.583   3.850
 1276SOL     OW 4726   6.192   0.218   2.775
 1276SOL    HW1 4727   6.131   0.141   2.756
 1276SOL    HW2 4728   6.160   0.299   2.725
 1277SOL     OW 4729   0.412   1.686   4.908
 1277SOL    HW1 4730   0.508   1.658   4.916
 1277SOL    HW2 4731   0.401   1.780   4.941
 1278SOL     OW 4732   2.488   1.533   6.113
 1278SOL    HW1 4733   2.395   1.525   6.077
 1278SOL    HW2 4734   2.489   1.508   6.210
 1279SOL     OW 4735   2.229   5.014   0.631
 1279SOL    HW1 4736   2.159   5.033   0.561
 1279SOL    HW2 4737   2.302   4.959   0.591
 1280SOL     OW 4738   1.846   6.036   2.653
 1280SOL    HW1 4739   1.855   6.016   2.750
 1280SOL    HW2 4740   1.804   6.126   2.641
 1281SOL     OW 4741   0.694   6.864   4.154
 1281SOL    HW1 4742   0.627   6.890   4.223
 1281SOL    HW2 4743   0.664   6.780   4.108
 1282SOL     OW 4744   1.151   0.230   2.531
 1282SOL    HW1 4745   1.070   0.275   2.568
 1282SOL    HW2 4746   1.143   0.131   2.545
 1283SOL     OW 4747   4.911   4.241   5.135
 1283SOL    HW1 4748   4.977   4.166   5.133
 1283SOL    HW2 4749   4.920   4.290   5.222
 1284SOL     OW 4750   2.754   1.852   2.484
 1284SOL    HW1 4751   2.844   1.890   2.505
 1284SOL    HW2 4752   2.683   1.909   2.525
 1285SOL     OW 4753   5.726   2.683   6.482
 1285SOL    HW1 4754   5.794   2.629   6.532
 1285SOL    HW2 4755   5.635   2.657   6.512
 1286SOL     OW 4756   5.934   6.069   1.641
 1286SOL    HW1 4757   5.844   6.039   1.671
 1286SOL    HW2 4758   6.004   6.005   1.674
 1287SOL     OW 4759   6.048   4.766   6.282
 1287SOL    HW1 4760   6.117   4.766   6.354
 1287SOL    HW2 4761   5.957   4.759   6.323
 1288SOL     OW 4762   6.558   2.762   3.630
 1288SOL    HW1 4763   6.607   2.681   3.660
 1288SOL    HW2 4764   6.477   2.735   3.578
 1289SOL     OW 4765   6.982   5.332   2.596
 1289SOL    HW1 4766   6.938   5.416   2.564
 1289SOL    HW2 4767   0.016   5.351   2.675
 1290SOL     OW 4768   0.112   6.970   1.324
 1290SOL    HW1 4769   0.081   6.936   1.235
 1290SOL    HW2 4770   0.157   6.896   1.374
 1291SOL     OW 4771   1.509   0.000   0.610
 1291SOL    HW1 4772   1.533   6.936   0.567
 1291SOL    HW2 4773   1.410   0.006   0.621
 1292SOL     OW 4774   0.915   6.081   6.296
 1292SOL    HW1 4775   0.956   6.007   6.348
 1292SOL    HW2 4776   0.880   6.151   6.358
 1293SOL     OW 4777   6.273   2.655   5.912
 1293SOL    HW1 4778   6.215   2.727   5.949
 1293SOL    HW2 4779   6.343   2.695   5.852
 1294SOL     OW 4780   0.269   1.874   3.258
 1294SOL    HW1 4781   0.305   1.845   3.347
 1294SOL    HW2 4782   0.190   1.816   3.235
 1295SOL     OW 4783   4.595   3.495   1.665
 1295SOL    HW1 4784   4.666   3.553   1.705
 1295SOL    HW2 4785   4.513   3.550   1.648
 1296SOL     OW 4786   3.741   2.421   6.969
 1296SOL    HW1 4787   3.691   2.496   7.012
 1296SOL    HW2 4788   3.814   2.459   6.912
 1297SOL     OW 4789   6.259   1.167   6.819
 1297SOL    HW1 4790   6.195   1.103   6.861
 1297SOL    HW2 4791   6.322   1.201   6.889
 1298SOL     OW 4792   6.244   3.151   3.542
 1298SOL    HW1 4793   6.236   3.131   3.444
 1298SOL    HW2 4794   6.299   3.081   3.586
 1299SOL     OW 4795   1.243   3.306   4.206
 1299SOL    HW1 4796   1.212   3.219   4.168
 1299SOL    HW2 4797   1.342   3.313   4.199
 1300SOL     OW 4798   3.381   3.377   1.655
 1300SOL    HW1 4799   3.319   3.304   1.625
 1300SOL    HW2 4800   3.428   3.415   1.575
 1301SOL     OW 4801   0.251   0.561   2.631
 1301SOL    HW1 4802   0.223   0.597   2.720
 1301SOL    HW2 4803   0.351   0.551   2.629
 1302SOL     OW 4804   2.724   5.647   5.649
 1302SOL    HW1 4805   2.775   5.716   5.598
 1302SOL    HW2 4806   2.777   5.620   5.730
 1303SOL     OW 4807   3.522   0.154   1.009
 1303SOL    HW1 4808   3.601   0.212   1.027
 1303SOL    HW2 4809   3.534   0.066   1.056
 1304SOL     OW 4810   3.569   0.746   6.067
 1304SOL    HW1 4811   3.507   0.698   6.128
 1304SOL    HW2 4812   3.600   0.831   6.112
 1305SOL     OW 4813   6.190   6.469   3.881
 1305SOL    HW1 4814   6.283   6.483   3.849
 1305SOL    HW2 4815   6.165   6.373   3.870
 1306SOL     OW 4816   1.418   4.851   4.552
 1306SOL    HW1 4817   1.375   4.813   4.634
 1306SOL    HW2 4818   1.480   4.784   4.512
 1307SOL     OW 4819   1.430   1.871   4.423
 1307SOL    HW1 4820   1.524   1.880   4.390
 1307SOL    HW2 4821   1.405   1.774   4.428
 1308SOL     OW 4822   4.682   6.080   2.899
 1308SOL    HW1 4823   4.619   6.078   2.976
 1308SOL    HW2 4824   4.691   5.988   2.861
 1309SOL     OW 4825   5.988   3.212   4.776
 1309SOL    HW1 4826   6.006   3.161   4.692
 1309SOL    HW2 4827   6.050   3.290   4.781
 1310SOL     OW 4828   5.029   3.992   5.329
 1310SOL    HW1 4829   4.946   3.978   5.383
 1310SOL    HW2 4830   5.095   4.045   5.382
 1311SOL     OW 4831   5.497   5.372   5.212
 1311SOL    HW1 4832   5.546   5.447   5.257
 1311SOL    HW2 4833   5.451   5.316   5.281
 1312SOL     OW 4834   6.201   0.164   2.421
 1312SOL    HW1 4835   6.255   0.085   2.450
 1312SOL    HW2 4836   6.234   0.196   2.333
 1313SOL     OW 4837   3.155   4.906   5.047
 1313SOL    HW1 4838   3.098   4.921   4.966
 1313SOL    HW2 4839   3.126   4.822   5.092
 1314SOL     OW 4840   5.450   1.737   5.293
 1314SOL    HW1 4841   5.529   1.683   5.266
 1314SOL    HW2 4842   5.407   1.696   5.374
 1315SOL     OW 4843   2.358   0.517   3.441
 1315SOL    HW1 4844   2.265   0.480   3.443
 1315SOL    HW2 4845   2.390   0.533   3.534
 1316SOL     OW 4846   3.119   6.340   2.653
 1316SOL    HW1 4847   3.119   6.251   2.608
 1316SOL    HW2 4848   3.158   6.331   2.744
 1317SOL     OW 4849   6.922   4.495   4.184
 1317SOL    HW1 4850   6.855   4.569   4.182
 1317SOL    HW2 4851   6.881   4.413   4.223
 1318SOL     OW 4852   0.637   6.212   1.404
 1318SOL    HW1 4853   0.724   6.163   1.399
 1318SOL    HW2 4854   0.653   6.306   1.436
 1319SOL     OW 4855   6.236   0.786   0.146
 1319SOL    HW1 4856   6.258   0.696   0.110
 1319SOL    HW2 4857   6.188   0.776   0.233
 1320SOL     OW 4858   5.707   6.082   5.166
 1320SOL    HW1 4859   5.748   6.111   5.253
 1320SOL    HW2 4860   5.723   5.985   5.152
 1321SOL     OW 4861   3.063   1.676   0.001
 1321SOL    HW1 4862   3.118   1.675   0.085
 1321SOL    HW2 4863   3.103   1.741   6.959
 1322SOL     OW 4864   5.403   1.387   5.810
 1322SOL    HW1 4865   5.303   1.381   5.800
 1322SOL    HW2 4866   5.443   1.412   5.722
 1323SOL     OW 4867   6.145   0.949   3.826
 1323SOL    HW1 4868   6.131   1.048   3.828
 1323SOL    HW2 4869   6.199   0.921   3.906
 1324SOL     OW 4870   1.046   3.417   0.072
 1324SOL    HW1 4871   1.124   3.354   0.076
 1324SOL    HW2 4872   0.963   3.370   0.103
 1325SOL     OW 4873   3.467   5.321   3.300
 1325SOL    HW1 4874   3.523   5.376   3.361
 1325SOL    HW2 4875   3.515   5.308   3.213
 1326SOL     OW 4876   4.772   4.171   4.648
 1326SOL    HW1 4877   4.691   4.226   4.626
 1326SOL    HW2 4878   4.806   4.196   4.739
 1327SOL     OW 4879   3.119   5.757   3.514
 1327SOL    HW1 4880   3.068   5.837   3.481
 1327SOL    HW2 4881   3.150   5.774   3.608
 1328SOL     OW 4882   1.735   1.603   0.080
 1328SOL    HW1 4883   1.713   1.606   0.177
 1328SOL    HW2 4884   1.822   1.555   0.066
 1329SOL     OW 4885   0.702   0.413   1.636
 1329SOL    HW1 4886   0.730   0.509   1.627
 1329SOL    HW2 4887   0.678   0.377   1.546
 1330SOL     OW 4888   5.033   6.609   0.764
 1330SOL    HW1 4889   5.102   6.558   0.713
 1330SOL    HW2 4890   5.052   6.601   0.862
 1331SOL     OW 4891   0.160   1.421   2.751
 1331SOL    HW1 4892   0.120   1.482   2.683
 1331SOL    HW2 4893   0.159   1.465   2.840
 1332SOL     OW 4894   4.016   1.620   0.965
 1332SOL    HW1 4895   4.093   1.646   0.906
 1332SOL    HW2 4896   4.050   1.566   1.042
 1333SOL     OW 4897   3.884   3.229   4.419
 1333SOL    HW1 4898   3.974   3.268   4.398
 1333SOL    HW2 4899   3.896   3.143   4.468
 1334SOL     OW 4900   0.636   4.607   3.565
 1334SOL    HW1 4901   0.541   4.590   3.538
 1334SOL    HW2 4902   0.683   4.520   3.578
 1335SOL     OW 4903   2.515   5.549   1.772
 1335SOL    HW1 4904   2.482   5.458   1.748
 1335SOL    HW2 4905   2.467   5.582   1.852
 1336SOL     OW 4906   0.047   0.607   4.769
 1336SOL    HW1 4907   6.997   0.640   4.710
 1336SOL    HW2 4908   0.105   0.683   4.797
 1337SOL     OW 4909   2.818   0.764   6.551
 1337SOL    HW1 4910   2.890   0.721   6.498
 1337SOL    HW2 4911   2.745   0.698   6.570
 1338SOL     OW 4912   3.628   5.731   1.053
 1338SOL    HW1 4913   3.719   5.771   1.047
 1338SOL    HW2 4914   3.626   5.663   1.126
 1339SOL     OW 4915   0.395   4.900   5.841
 1339SOL    HW1 4916   0.460   4.826   5.858
 1339SOL    HW2 4917   0.407   4.933   5.747
 1340SOL     OW 4918   1.917   1.188   6.304
 1340SOL    HW1 4919   1.918   1.235   6.392
 1340SOL    HW2 4920   1.945   1.093   6.318
 1341SOL     OW 4921   5.955   1.999   4.164
 1341SOL    HW1 4922   5.895   1.945   4.106
 1341SOL    HW2 4923   5.987   2.079   4.113
 1342SOL     OW 4924   0.486   6.335   1.836
 1342SOL    HW1 4925   0.400   6.287   1.857
 1342SOL    HW2 4926   0.500   6.336   1.737
 1343SOL     OW 4927   3.329   4.951   3.498
 1343SOL    HW1 4928   3.378   4.970   3.583
 1343SOL    HW2 4929   3.392   4.908   3.433
 1344SOL     OW 4930   5.541   1.375   3.095
 1344SOL    HW1 4931   5.449   1.414   3.101
 1344SOL    HW2 4932   5.581   1.397   3.006
 1345SOL     OW 4933   1.013   6.825   3.433
 1345SOL    HW1 4934   1.026   6.788   3.525
 1345SOL    HW2 4935   1.073   6.904   3.420
 1346SOL     OW 4936   0.128   0.836   3.961
 1346SOL    HW1 4937   0.193   0.884   4.019
 1346SOL    HW2 4938   0.164   0.745   3.939
 1347SOL     OW 4939   5.257   0.555   3.620
 1347SOL    HW1 4940   5.335   0.604   3.659
 1347SOL    HW2 4941   5.175   0.613   3.626
 1348SOL     OW 4942   4.822   6.038   4.770
 1348SOL    HW1 4943   4.863   5.992   4.849
 1348SOL    HW2 4944   4.816   5.974   4.694
 1349SOL     OW 4945   4.997   2.387   0.310
 1349SOL    HW1 4946   5.063   2.320   0.344
 1349SOL    HW2 4947   5.032   2.428   0.225
 1350SOL     OW 4948   3.699   0.334   5.044
 1350SOL    HW1 4949   3.620   0.390   5.069
 1350SOL    HW2 4950   3.775   0.393   5.017
 1351SOL     OW 4951   0.983   1.402   4.467
 1351SOL    HW1 4952   1.031   1.407   4.554
 1351SOL    HW2 4953   0.969   1.494   4.431
 1352SOL     OW 4954   0.642   6.575   3.964
 1352SOL    HW1 4955   0.595   6.508   3.907
 1352SOL    HW2 4956   0.616   6.562   4.060
 1353SOL     OW 4957   2.053   2.518   4.671
 1353SOL    HW1 4958   2.024   2.535   4.765
 1353SOL    HW2 4959   2.010   2.585   4.610
 1354SOL     OW 4960   0.605   6.753   0.391
 1354SOL    HW1 4961   0.599   6.737   0.293
 1354SOL    HW2 4962   0.520   6.723   0.435
 1355SOL     OW 4963   3.984   3.364   6.991
 1355SOL    HW1 4964   3.983   3.308   6.909
 1355SOL    HW2 4965   3.924   3.322   0.038
 1356SOL     OW 4966   3.259   2.970   1.668
 1356SOL    HW1 4967   3.189   2.898   1.660
 1356SOL    HW2 4968   3.233   3.035   1.738
 1357SOL     OW 4969   2.918   3.083   5.945
 1357SOL    HW1 4970   2.926   3.001   5.888
 1357SOL    HW2 4971   2.831   3.082   5.994
 1358SOL     OW 4972   2.120   3.644   5.933
 1358SOL    HW1 4973   2.193   3.652   5.865
 1358SOL    HW2 4974   2.031   3.644   5.888
 1359SOL     OW 4975   0.261   0.899   0.049
 1359SOL    HW1 4976   0.188   0.888   0.115
 1359SOL    HW2 4977   0.223   0.901   6.979
 1360SOL     OW 4978   3.390   3.058   4.320
 1360SOL    HW1 4979   3.313   3.077   4.380
 1360SOL    HW2 4980   3.366   3.082   4.226
 1361SOL     OW 4981   0.953   6.187   1.382
 1361SOL    HW1 4982   1.003   6.241   1.314
 1361SOL    HW2 4983   0.997   6.098   1.392
 1362SOL     OW 4984   2.794   2.145   6.194
 1362SOL    HW1 4985   2.870   2.155   6.130
 1362SOL    HW2 4986   2.782   2.230   6.245
 1363SOL     OW 4987   6.885   6.701   1.274
 1363SOL    HW1 4988   6.932   6.759   1.207
 1363SOL    HW2 4989   6.928   6.611   1.276
 1364SOL     OW 4990   1.240   3.881   0.972
 1364SOL    HW1 4991   1.297   3.952   0.932
 1364SOL    HW2 4992   1.220   3.811   0.903
 1365SOL     OW 4993   0.536   3.656   5.599
 1365SOL    HW1 4994   0.488   3.728   5.549
 1365SOL    HW2 4995   0.513   3.567   5.559
 1366SOL     OW 4996   4.076   0.371   0.772
 1366SOL    HW1 4997   3.985   0.411   0.777
 1366SOL    HW2 4998   4.111   0.380   0.678
 1367SOL     OW 4999   1.355   6.993   4.406
 1367SOL    HW1 5000   1.325   7.002   4.312
 1367SOL    HW2 5001   1.325   6.905   4.443
 1368SOL     OW 5002   1.186   0.053   4.682
 1368SOL    HW1 5003   1.097   0.041   4.638
 1368SOL    HW2 5004   1.243   0.112   4.624
 1369SOL     OW 5005   2.905   5.844   3.843
 1369SOL    HW1 5006   2.982   5.806   3.896
 1369SOL    HW2 5007   2.862   5.770   3.791
 1370SOL     OW 5008   0.029   2.592   3.138
 1370SOL    HW1 5009   0.007   2.545   3.224
 1370SOL    HW2 5010   0.110   2.648   3.151
 1371SOL     OW 5011   6.257   2.245   5.622
 1371SOL    HW1 5012   6.158   2.245   5.626
 1371SOL    HW2 5013   6.292   2.154   5.644
 1372SOL     OW 5014   5.614   2.799   1.203
 1372SOL    HW1 5015   5.675   2.828   1.129
 1372SOL    HW2 5016   5.531   2.759   1.165
 1373SOL     OW 5017   5.706   3.029   1.817
 1373SOL    HW1 5018   5.725   3.117   1.859
 1373SOL    HW2 5019   5.654   3.042   1.732
 1374SOL     OW 5020   4.090   3.731   1.800
 1374SOL    HW1 5021   4.110   3.710   1.895
 1374SOL    HW2 5022   4.072   3.829   1.790
 1375SOL     OW 5023   5.458   4.853   4.463
 1375SOL    HW1 5024   5.475   4.768   4.412
 1375SOL    HW2 5025   5.506   4.849   4.551
 1376SOL     OW 5026   3.057   4.543   6.144
 1376SOL    HW1 5027   2.993   4.505   6.077
 1376SOL    HW2 5028   3.092   4.469   6.202
 1377SOL     OW 5029   2.331   1.843   3.012
 1377SOL    HW1 5030   2.390   1.788   3.071
 1377SOL    HW2 5031   2.385   1.910   2.962
 1378SOL     OW 5032   5.361   2.772   3.985
 1378SOL    HW1 5033   5.287   2.740   4.045
 1378SOL    HW2 5034   5.341   2.747   3.891
 1379SOL     OW 5035   4.626   5.481   0.592
 1379SOL    HW1 5036   4.585   5.563   0.552
 1379SOL    HW2 5037   4.555   5.429   0.641
 1380SOL     OW 5038   0.399   6.098   2.713
 1380SOL    HW1 5039   0.461   6.065   2.783
 1380SOL    HW2 5040   0.376   6.194   2.731
 1381SOL     OW 5041   6.056   2.344   6.402
 1381SOL    HW1 5042   6.102   2.335   6.490
 1381SOL    HW2 5043   6.063   2.438   6.369
 1382SOL     OW 5044   4.803   2.285   0.143
 1382SOL    HW1 5045   4.865   2.304   0.219
 1382SOL    HW2 5046   4.769   2.371   0.105
 1383SOL     OW 5047   6.893   0.539   0.717
 1383SOL    HW1 5048   6.911   0.561   0.812
 1383SOL    HW2 5049   6.832   0.460   0.711
 1384SOL     OW 5050   6.146   1.959   1.799
 1384SOL    HW1 5051   6.126   2.042   1.852
 1384SOL    HW2 5052   6.225   1.975   1.740
 1385SOL     OW 5053   0.249   6.041   1.551
 1385SOL    HW1 5054   0.151   6.041   1.531
 1385SOL    HW2 5055   0.270   5.966   1.613
 1386SOL     OW 5056   2.215   5.752   4.048
 1386SOL    HW1 5057   2.264   5.781   3.966
 1386SOL    HW2 5058   2.268   5.775   4.129
 1387SOL     OW 5059   2.581   6.135   1.343
 1387SOL    HW1 5060   2.573   6.038   1.366
 1387SOL    HW2 5061   2.620   6.185   1.420
 1388SOL     OW 5062   6.878   0.469   2.074
 1388SOL    HW1 5063   6.861   0.393   2.011
 1388SOL    HW2 5064   6.928   0.435   2.153
 1389SOL     OW 5065   6.103   1.107   2.267
 1389SOL    HW1 5066   6.140   1.160   2.343
 1389SOL    HW2 5067   6.012   1.142   2.244
 1390SOL     OW 5068   1.530   1.881   5.033
 1390SOL    HW1 5069   1.439   1.843   5.017
 1390SOL    HW2 5070   1.528   1.944   5.111
 1391SOL     OW 5071   0.195   3.257   3.380
 1391SOL    HW1 5072   0.166   3.212   3.464
 1391SOL    HW2 5073   0.246   3.193   3.323
 1392SOL     OW 5074   4.955   4.497   4.533
 1392SOL    HW1 5075   4.930   4.502   4.630
 1392SOL    HW2 5076   4.878   4.529   4.477
 1393SOL     OW 5077   3.174   6.041   6.002
 1393SOL    HW1 5078   3.186   6.075   5.909
 1393SOL    HW2 5079   3.254   6.066   6.057
 1394SOL     OW 5080   1.469   5.781   6.138
 1394SOL    HW1 5081   1.469   5.834   6.053
 1394SOL    HW2 5082   1.375   5.765   6.166
 1395SOL     OW 5083   3.450   4.243   5.770
 1395SOL    HW1 5084   3.449   4.339   5.744
 1395SOL    HW2 5085   3.360   4.218   5.806
 1396SOL     OW 5086   6.228   6.264   3.650
 1396SOL    HW1 5087   6.286   6.211   3.589
 1396SOL    HW2 5088   6.212   6.212   3.734
 1397SOL     OW 5089   4.578   6.166   5.512
 1397SOL    HW1 5090   4.612   6.228   5.582
 1397SOL    HW2 5091   4.632   6.082   5.513
 1398SOL     OW 5092   2.071   1.288   4.681
 1398SOL    HW1 5093   2.111   1.351   4.614
 1398SOL    HW2 5094   2.039   1.206   4.634
 1399SOL     OW 5095   3.435   5.987   1.658
 1399SOL    HW1 5096   3.349   6.033   1.637
 1399SOL    HW2 5097   3.417   5.890   1.673
 1400SOL     OW 5098   2.191   6.682   2.425
 1400SOL    HW1 5099   2.227   6.716   2.512
 1400SOL    HW2 5100   2.196   6.582   2.425
 1401SOL     OW 5101   6.645   1.105   4.853
 1401SOL    HW1 5102   6.647   1.198   4.816
 1401SOL    HW2 5103   6.720   1.053   4.814
 1402SOL     OW 5104   6.710   2.981   0.217
 1402SOL    HW1 5105   6.754   3.063   0.254
 1402SOL    HW2 5106   6.612   2.983   0.236
 1403SOL     OW 5107   3.557   0.420   2.475
 1403SOL    HW1 5108   3.534   0.514   2.500
 1403SOL    HW2 5109   3.550   0.361   2.556
 1404SOL     OW 5110   5.340   1.765   0.523
 1404SOL    HW1 5111   5.275   1.796   0.453
 1404SOL    HW2 5112   5.300   1.778   0.614
 1405SOL     OW 5113   3.053   2.988   1.116
 1405SOL    HW1 5114   3.124   2.919   1.107
 1405SOL    HW2 5115   2.992   2.963   1.191
 1406SOL     OW 5116   1.529   4.087   1.371
 1406SOL    HW1 5117   1.623   4.119   1.382
 1406SOL    HW2 5118   1.513   4.008   1.430
 1407SOL     OW 5119   6.245   2.699   3.167
 1407SOL    HW1 5120   6.153   2.668   3.142
 1407SOL    HW2 5121   6.280   2.761   3.096
 1408SOL     OW 5122   6.419   0.044   6.339
 1408SOL    HW1 5123   6.451   0.026   6.432
 1408SOL    HW2 5124   6.322   0.067   6.341
 1409SOL     OW 5125   0.525   1.666   4.611
 1409SOL    HW1 5126   0.439   1.631   4.647
 1409SOL    HW2 5127   0.506   1.743   4.550
 1410SOL     OW 5128   0.067   3.085   6.881
 1410SOL    HW1 5129   0.112   2.998   6.902
 1410SOL    HW2 5130   0.023   3.119   6.964
 1411SOL     OW 5131   1.760   6.957   1.407
 1411SOL    HW1 5132   1.758   6.897   1.327
 1411SOL    HW2 5133   1.677   7.014   1.408
 1412SOL     OW 5134   1.274   3.270   0.124
 1412SOL    HW1 5135   1.246   3.179   0.156
 1412SOL    HW2 5136   1.309   3.262   0.030
 1413SOL     OW 5137   2.819   0.173   4.080
 1413SOL    HW1 5138   2.801   0.192   4.176
 1413SOL    HW2 5139   2.915   0.147   4.069
 1414SOL     OW 5140   2.869   0.783   1.634
 1414SOL    HW1 5141   2.938   0.825   1.692
 1414SOL    HW2 5142   2.891   0.799   1.537
 1415SOL     OW 5143   4.263   5.944   6.077
 1415SOL    HW1 5144   4.234   6.029   6.032
 1415SOL    HW2 5145   4.343   5.963   6.134
 1416SOL     OW 5146   4.311   5.861   2.861
 1416SOL    HW1 5147   4.339   5.771   2.825
 1416SOL    HW2 5148   4.304   5.856   2.960
 1417SOL     OW 5149   3.032   2.494   6.087
 1417SOL    HW1 5150   3.033   2.544   6.001
 1417SOL    HW2 5151   3.091   2.541   6.153
 1418SOL     OW 5152   3.124   4.017   2.784
 1418SOL    HW1 5153   3.161   3.950   2.720
 1418SOL    HW2 5154   3.028   4.034   2.763
 1419SOL     OW 5155   4.761   6.308   4.709
 1419SOL    HW1 5156   4.769   6.211   4.733
 1419SOL    HW2 5157   4.671   6.341   4.736
 1420SOL     OW 5158   0.261   5.667   2.220
 1420SOL    HW1 5159   0.259   5.649   2.318
 1420SOL    HW2 5160   0.259   5.766   2.204
 1421SOL     OW 5161   3.617   1.155   2.693
 1421SOL    HW1 5162   3.526   1.189   2.669
 1421SOL    HW2 5163   3.681   1.232   2.699
 1422SOL     OW 5164   2.871   6.293   0.085
 1422SOL    HW1 5165   2.806   6.239   0.031
 1422SOL    HW2 5166   2.885   6.382   0.041
 1423SOL     OW 5167   4.879   0.868   2.805
 1423SOL    HW1 5168   4.779   0.874   2.813
 1423SOL    HW2 5169   4.916   0.823   2.887
 1424SOL     OW 5170   6.336   4.755   2.972
 1424SOL    HW1 5171   6.311   4.848   2.946
 1424SOL    HW2 5172   6.435   4.743   2.962
 1425SOL     OW 5173   1.887   0.159   4.823
 1425SOL    HW1 5174   1.924   0.238   4.872
 1425SOL    HW2 5175   1.808   0.122   4.873
 1426SOL     OW 5176   1.286   1.541   5.674
 1426SOL    HW1 5177   1.290   1.482   5.593
 1426SOL    HW2 5178   1.362   1.606   5.672
 1427SOL     OW 5179   6.123   0.648   4.771
 1427SOL    HW1 5180   6.196   0.694   4.821
 1427SOL    HW2 5181   6.133   0.666   4.673
 1428SOL     OW 5182   5.481   1.050   0.111
 1428SOL    HW1 5183   5.522   1.067   0.021
 1428SOL    HW2 5184   5.522   1.110   0.179
 1429SOL     OW 5185   5.597   0.243   0.542
 1429SOL    HW1 5186   5.511   0.283   0.575
 1429SOL    HW2 5187   5.581   0.202   0.452
 1430SOL     OW 5188   1.942   4.748   4.004
 1430SOL    HW1 5189   2.025   4.694   4.010
 1430SOL    HW2 5190   1.930   4.799   4.089
 1431SOL     OW 5191   1.487   0.416   0.903
 1431SOL    HW1 5192   1.541   0.451   0.979
 1431SOL    HW2 5193   1.537   0.430   0.817
 1432SOL     OW 5194   2.487   0.586   1.986
 1432SOL    HW1 5195   2.514   0.569   1.891
 1432SOL    HW2 5196   2.566   0.617   2.038
 1433SOL     OW 5197   4.784   0.955   3.934
 1433SOL    HW1 5198   4.853   1.010   3.981
 1433SOL    HW2 5199   4.771   0.869   3.984
 1434SOL     OW 5200   1.293   0.513   5.270
 1434SOL    HW1 5201   1.204   0.537   5.230
 1434SOL    HW2 5202   1.297   0.415   5.286
 1435SOL     OW 5203   6.877   1.802   3.427
 1435SOL    HW1 5204   6.795   1.846   3.464
 1435SOL    HW2 5205   6.900   1.843   3.339
 1436SOL     OW 5206   4.069   3.902   0.450
 1436SOL    HW1 5207   4.109   3.941   0.533
 1436SOL    HW2 5208   4.034   3.976   0.392
 1437SOL     OW 5209   3.927   1.256   2.130
 1437SOL    HW1 5210   3.900   1.205   2.049
 1437SOL    HW2 5211   4.012   1.306   2.111
 1438SOL     OW 5212   2.140   0.359   0.868
 1438SOL    HW1 5213   2.073   0.307   0.922
 1438SOL    HW2 5214   2.232   0.337   0.900
 1439SOL     OW 5215   0.653   5.590   2.772
 1439SOL    HW1 5216   0.637   5.637   2.858
 1439SOL    HW2 5217   0.750   5.566   2.764
 1440SOL     OW 5218   2.401   3.110   1.631
 1440SOL    HW1 5219   2.343   3.185   1.599
 1440SOL    HW2 5220   2.362   3.023   1.600
 1441SOL     OW 5221   5.202   6.140   0.772
 1441SOL    HW1 5222   5.210   6.081   0.852
 1441SOL    HW2 5223   5.201   6.084   0.689
 1442SOL     OW 5224   5.214   5.794   0.460
 1442SOL    HW1 5225   5.182   5.795   0.365
 1442SOL    HW2 5226   5.247   5.702   0.483
 1443SOL     OW 5227   0.345   3.033   3.286
 1443SOL    HW1 5228   0.413   3.069   3.222
 1443SOL    HW2 5229   0.264   3.003   3.235
 1444SOL     OW 5230   6.571   5.041   0.204
 1444SOL    HW1 5231   6.521   4.958   0.228
 1444SOL    HW2 5232   6.668   5.020   0.193
 1445SOL     OW 5233   1.004   3.604   1.559
 1445SOL    HW1 5234   1.016   3.613   1.460
 1445SOL    HW2 5235   1.050   3.679   1.605
 1446SOL     OW 5236   6.194   6.842   1.092
 1446SOL    HW1 5237   6.265   6.886   1.037
 1446SOL    HW2 5238   6.109   6.837   1.039
 1447SOL     OW 5239   5.873   5.153   4.370
 1447SOL    HW1 5240   5.785   5.192   4.399
 1447SOL    HW2 5241   5.857   5.092   4.293
 1448SOL     OW 5242   1.332   3.095   5.572
 1448SOL    HW1 5243   1.431   3.096   5.554
 1448SOL    HW2 5244   1.309   3.171   5.633
 1449SOL     OW 5245   2.079   3.290   3.654
 1449SOL    HW1 5246   2.007   3.223   3.637
 1449SOL    HW2 5247   2.128   3.309   3.569
 1450SOL     OW 5248   2.537   2.431   3.689
 1450SOL    HW1 5249   2.491   2.512   3.650
 1450SOL    HW2 5250   2.616   2.407   3.632
 1451SOL     OW 5251   2.824   1.126   2.705
 1451SOL    HW1 5252   2.838   1.179   2.622
 1451SOL    HW2 5253   2.899   1.144   2.769
 1452SOL     OW 5254   5.177   3.012   6.912
 1452SOL    HW1 5255   5.132   3.045   6.994
 1452SOL    HW2 5256   5.226   3.088   6.868
 1453SOL     OW 5257   6.772   4.545   5.762
 1453SOL    HW1 5258   6.782   4.641   5.788
 1453SOL    HW2 5259   6.812   4.531   5.672
 1454SOL     OW 5260   3.374   2.087   3.653
 1454SOL    HW1 5261   3.282   2.091   3.613
 1454SOL    HW2 5262   3.442   2.112   3.585
 1455SOL     OW 5263   0.446   5.761   1.969
 1455SOL    HW1 5264   0.368   5.701   1.987
 1455SOL    HW2 5265   0.514   5.750   2.041
 1456SOL     OW 5266   6.541   5.009   4.252
 1456SOL    HW1 5267   6.490   5.076   4.306
 1456SOL    HW2 5268   6.634   5.002   4.286
 1457SOL     OW 5269   1.032   5.524   6.120
 1457SOL    HW1 5270   1.053   5.473   6.037
 1457SOL    HW2 5271   0.971   5.470   6.178
 1458SOL     OW 5272   5.063   5.120   5.240
 1458SOL    HW1 5273   5.027   5.197   5.293
 1458SOL    HW2 5274   5.150   5.090   5.280
 1459SOL     OW 5275   5.760   6.617   5.482
 1459SOL    HW1 5276   5.707   6.661   5.410
 1459SOL    HW2 5277   5.750   6.518   5.474
 1460SOL     OW 5278   1.150   6.675   4.673
 1460SOL    HW1 5279   1.142   6.576   4.686
 1460SOL    HW2 5280   1.140   6.720   4.762
 1461SOL     OW 5281   6.641   3.148   3.796
 1461SOL    HW1 5282   6.565   3.204   3.829
 1461SOL    HW2 5283   6.721   3.163   3.855
 1462SOL     OW 5284   0.178   0.852   1.560
 1462SOL    HW1 5285   0.267   0.857   1.515
 1462SOL    HW2 5286   0.154   0.942   1.596
 1463SOL     OW 5287   2.244   5.263   0.078
 1463SOL    HW1 5288   2.263   5.253   0.175
 1463SOL    HW2 5289   2.282   5.186   0.028
 1464SOL     OW 5290   1.014   4.028   3.932
 1464SOL    HW1 5291   1.049   4.010   4.023
 1464SOL    HW2 5292   0.963   3.948   3.899
 1465SOL     OW 5293   0.751   3.078   3.777
 1465SOL    HW1 5294   0.850   3.061   3.778
 1465SOL    HW2 5295   0.732   3.169   3.814
 1466SOL     OW 5296   5.447   2.506   2.568
 1466SOL    HW1 5297   5.396   2.528   2.484
 1466SOL    HW2 5298   5.384   2.468   2.636
 1467SOL     OW 5299   0.725   0.743   4.125
 1467SOL    HW1 5300   0.667   0.727   4.205
 1467SOL    HW2 5301   0.691   0.823   4.075
 1468SOL     OW 5302   2.869   5.083   2.691
 1468SOL    HW1 5303   2.911   5.025   2.621
 1468SOL    HW2 5304   2.929   5.091   2.770
 1469SOL     OW 5305   5.965   3.721   3.289
 1469SOL    HW1 5306   5.973   3.716   3.190
 1469SOL    HW2 5307   5.888   3.665   3.319
 1470SOL     OW 5308   6.047   1.755   1.945
 1470SOL    HW1 5309   6.058   1.675   1.886
 1470SOL    HW2 5310   6.090   1.834   1.901
 1471SOL     OW 5311   4.382   6.748   1.384
 1471SOL    HW1 5312   4.369   6.715   1.290
 1471SOL    HW2 5313   4.297   6.789   1.417
 1472SOL     OW 5314   1.927   0.059   6.017
 1472SOL    HW1 5315   1.945   0.129   6.087
 1472SOL    HW2 5316   1.973   0.085   5.932
 1473SOL     OW 5317   1.702   5.756   4.013
 1473SOL    HW1 5318   1.711   5.697   3.933
 1473SOL    HW2 5319   1.632   5.826   3.995
 1474SOL     OW 5320   2.867   5.015   0.773
 1474SOL    HW1 5321   2.793   4.961   0.731
 1474SOL    HW2 5322   2.881   4.984   0.867
 1475SOL     OW 5323   5.517   0.296   6.203
 1475SOL    HW1 5324   5.532   0.367   6.272
 1475SOL    HW2 5325   5.601   0.243   6.192
 1476SOL     OW 5326   5.157   0.849   0.633
 1476SOL    HW1 5327   5.234   0.913   0.642
 1476SOL    HW2 5328   5.102   0.851   0.717
 1477SOL     OW 5329   3.520   4.732   1.525
 1477SOL    HW1 5330   3.501   4.734   1.427
 1477SOL    HW2 5331   3.434   4.727   1.576
 1478SOL     OW 5332   4.722   5.476   0.055
 1478SOL    HW1 5333   4.674   5.564   0.051
 1478SOL    HW2 5334   4.695   5.427   0.138
 1479SOL     OW 5335   4.147   3.512   1.461
 1479SOL    HW1 5336   4.230   3.525   1.516
 1479SOL    HW2 5337   4.162   3.440   1.394
 1480SOL     OW 5338   2.899   0.522   4.334
 1480SOL    HW1 5339   2.860   0.614   4.333
 1480SOL    HW2 5340   2.985   0.522   4.283
 1481SOL     OW 5341   5.376   2.916   6.451
 1481SOL    HW1 5342   5.368   2.821   6.420
 1481SOL    HW2 5343   5.393   2.917   6.549
 1482SOL     OW 5344   5.403   1.330   1.385
 1482SOL    HW1 5345   5.415   1.264   1.459
 1482SOL    HW2 5346   5.316   1.314   1.339
 1483SOL     OW 5347   5.748   0.898   7.004
 1483SOL    HW1 5348   5.675   0.938   6.948
 1483SOL    HW2 5349   5.753   0.800   6.988
 1484SOL     OW 5350   3.513   5.608   5.052
 1484SOL    HW1 5351   3.449   5.560   5.112
 1484SOL    HW2 5352   3.462   5.666   4.989
 1485SOL     OW 5353   5.542   2.678   3.189
 1485SOL    HW1 5354   5.471   2.686   3.258
 1485SOL    HW2 5355   5.622   2.731   3.216
 1486SOL     OW 5356   4.799   6.239   3.621
 1486SOL    HW1 5357   4.833   6.306   3.687
 1486SOL    HW2 5358   4.818   6.147   3.653
 1487SOL     OW 5359   6.526   0.717   0.152
 1487SOL    HW1 5360   6.610   0.769   0.138
 1487SOL    HW2 5361   6.451   0.779   0.172
 1488SOL     OW 5362   6.585   2.064   2.712
 1488SOL    HW1 5363   6.681   2.088   2.722
 1488SOL    HW2 5364   6.570   1.972   2.749
 1489SOL     OW 5365   3.104   4.177   0.468
 1489SOL    HW1 5366   3.010   4.145   0.486
 1489SOL    HW2 5367   3.101   4.253   0.402
 1490SOL     OW 5368   6.372   2.386   2.001
 1490SOL    HW1 5369   6.380   2.445   2.081
 1490SOL    HW2 5370   6.451   2.402   1.941
 1491SOL     OW 5371   5.899   2.565   4.204
 1491SOL    HW1 5372   5.946   2.585   4.290
 1491SOL    HW2 5373   5.824   2.631   4.190
 1492SOL     OW 5374   6.056   1.566   3.525
 1492SOL    HW1 5375   6.082   1.651   3.478
 1492SOL    HW2 5376   6.138   1.511   3.542
 1493SOL     OW 5377   5.377   1.743   6.101
 1493SOL    HW1 5378   5.447   1.701   6.044
 1493SOL    HW2 5379   5.359   1.685   6.180
 1494SOL     OW 5380   6.465   4.849   6.259
 1494SOL    HW1 5381   6.432   4.766   6.214
 1494SOL    HW2 5382   6.403   4.874   6.333
 1495SOL     OW 5383   6.715   4.060   4.538
 1495SOL    HW1 5384   6.787   3.994   4.560
 1495SOL    HW2 5385   6.650   4.018   4.474
 1496SOL     OW 5386   6.439   6.443   6.150
 1496SOL    HW1 5387   6.415   6.371   6.085
 1496SOL    HW2 5388   6.515   6.497   6.114
 1497SOL     OW 5389   6.387   2.536   2.235
 1497SOL    HW1 5390   6.475   2.582   2.242
 1497SOL    HW2 5391   6.356   2.508   2.326
 1498SOL     OW 5392   3.134   3.575   0.536
 1498SOL    HW1 5393   3.136   3.501   0.470
 1498SOL    HW2 5394   3.039   3.601   0.555
 1499SOL     OW 5395   0.244   4.371   4.664
 1499SOL    HW1 5396   0.293   4.304   4.720
 1499SOL    HW2 5397   0.276   4.365   4.570
 1500SOL     OW 5398   0.508   5.983   2.285
 1500SOL    HW1 5399   0.538   6.051   2.218
 1500SOL    HW2 5400   0.549   5.894   2.263
 1501SOL     OW 5401   5.821   1.588   0.745
 1501SOL    HW1 5402   5.726   1.559   0.742
 1501SOL    HW2 5403   5.870   1.548   0.668
 1502SOL     OW 5404   6.443   0.346   6.202
 1502SOL    HW1 5405   6.520   0.349   6.265
 1502SOL    HW2 5406   6.458   0.276   6.132
 1503SOL     OW 5407   0.474   4.929   1.409
 1503SOL    HW1 5408   0.382   4.969   1.408
 1503SOL    HW2 5409   0.510   4.925   1.316
 1504SOL     OW 5410   2.002   7.021   2.265
 1504SOL    HW1 5411   2.095   0.034   2.281
 1504SOL    HW2 5412   2.005   6.922   2.260
 1505SOL     OW 5413   6.459   5.158   4.976
 1505SOL    HW1 5414   6.540   5.100   4.968
 1505SOL    HW2 5415   6.487   5.254   4.981
 1506SOL     OW 5416   0.696   1.409   0.646
 1506SOL    HW1 5417   0.790   1.376   0.645
 1506SOL    HW2 5418   0.663   1.411   0.741
 1507SOL     OW 5419   1.789   2.770   3.859
 1507SOL    HW1 5420   1.863   2.809   3.912
 1507SOL    HW2 5421   1.757   2.686   3.903
 1508SOL     OW 5422   1.848   0.852   1.379
 1508SOL    HW1 5423   1.829   0.935   1.326
 1508SOL    HW2 5424   1.906   0.791   1.325
 1509SOL     OW 5425   5.175   1.197   4.495
 1509SOL    HW1 5426   5.161   1.108   4.451
 1509SOL    HW2 5427   5.242   1.249   4.443
 1510SOL     OW 5428   3.453   6.398   4.253
 1510SOL    HW1 5429   3.438   6.329   4.324
 1510SOL    HW2 5430   3.460   6.353   4.164
 1511SOL     OW 5431   3.035   3.544   5.124
 1511SOL    HW1 5432   2.943   3.542   5.164
 1511SOL    HW2 5433   3.081   3.629   5.150
 1512SOL     OW 5434   5.516   6.588   1.126
 1512SOL    HW1 5435   5.430   6.638   1.119
 1512SOL    HW2 5436   5.522   6.545   1.216
 1513SOL     OW 5437   2.655   0.233   6.136
 1513SOL    HW1 5438   2.610   0.194   6.055
 1513SOL    HW2 5439   2.587   0.247   6.208
 1514SOL     OW 5440   2.993   2.734   6.365
 1514SOL    HW1 5441   3.086   2.770   6.355
 1514SOL    HW2 5442   2.938   2.763   6.287
 1515SOL     OW 5443   4.563   0.774   2.438
 1515SOL    HW1 5444   4.623   0.853   2.453
 1515SOL    HW2 5445   4.484   0.802   2.382
 1516SOL     OW 5446   5.883   0.267   5.439
 1516SOL    HW1 5447   5.846   0.183   5.478
 1516SOL    HW2 5448   5.971   0.288   5.484
 1517SOL     OW 5449   3.385   6.233   4.023
 1517SOL    HW1 5450   3.286   6.240   4.036
 1517SOL    HW2 5451   3.421   6.160   4.081
 1518SOL     OW 5452   0.747   2.926   6.704
 1518SOL    HW1 5453   0.700   2.847   6.664
 1518SOL    HW2 5454   0.818   2.895   6.767
 1519SOL     OW 5455   6.559   5.356   6.727
 1519SOL    HW1 5456   6.583   5.377   6.632
 1519SOL    HW2 5457   6.510   5.433   6.767
 1520SOL     OW 5458   0.421   6.150   3.040
 1520SOL    HW1 5459   0.502   6.196   3.003
 1520SOL    HW2 5460   0.359   6.126   2.964
 1521SOL     OW 5461   2.367   5.247   6.011
 1521SOL    HW1 5462   2.413   5.159   5.996
 1521SOL    HW2 5463   2.276   5.231   6.049
 1522SOL     OW 5464   5.886   6.246   4.119
 1522SOL    HW1 5465   5.820   6.319   4.100
 1522SOL    HW2 5466   5.837   6.158   4.122
 1523SOL     OW 5467   3.605   6.445   0.979
 1523SOL    HW1 5468   3.514   6.422   0.945
 1523SOL    HW2 5469   3.659   6.361   0.990
 1524SOL     OW 5470   2.445   1.785   2.746
 1524SOL    HW1 5471   2.498   1.846   2.687
 1524SOL    HW2 5472   2.507   1.724   2.796
 1525SOL     OW 5473   5.732   4.002   6.855
 1525SOL    HW1 5474   5.662   3.931   6.856
 1525SOL    HW2 5475   5.811   3.973   6.909
 1526SOL     OW 5476   1.090   1.681   0.641
 1526SOL    HW1 5477   1.059   1.637   0.725
 1526SOL    HW2 5478   1.150   1.757   0.663
 1527SOL     OW 5479   4.353   1.945   3.607
 1527SOL    HW1 5480   4.329   2.022   3.548
 1527SOL    HW2 5481   4.272   1.913   3.655
 1528SOL     OW 5482   3.554   4.146   2.374
 1528SOL    HW1 5483   3.477   4.128   2.313
 1528SOL    HW2 5484   3.521   4.153   2.468
 1529SOL     OW 5485   4.122   1.642   5.853
 1529SOL    HW1 5486   4.076   1.720   5.810
 1529SOL    HW2 5487   4.102   1.559   5.801
 1530SOL     OW 5488   3.124   6.592   1.085
 1530SOL    HW1 5489   3.028   6.596   1.059
 1530SOL    HW2 5490   3.153   6.681   1.121
 1531SOL     OW 5491   4.625   6.633   4.232
 1531SOL    HW1 5492   4.661   6.540   4.231
 1531SOL    HW2 5493   4.680   6.689   4.294
 1532SOL     OW 5494   3.442   5.542   6.673
 1532SOL    HW1 5495   3.348   5.510   6.661
 1532SOL    HW2 5496   3.497   5.518   6.593
 1533SOL     OW 5497   5.560   5.865   0.982
 1533SOL    HW1 5498   5.468   5.899   0.965
 1533SOL    HW2 5499   5.583   5.795   0.914
 1534SOL     OW 5500   3.378   4.606   6.769
 1534SOL    HW1 5501   3.414   4.572   6.682
 1534SOL    HW2 5502   3.279   4.619   6.761
 1535SOL     OW 5503   5.694   4.943   4.273
 1535SOL    HW1 5504   5.674   4.852   4.236
 1535SOL    HW2 5505   5.690   4.939   4.373
 1536SOL     OW 5506   4.778   3.564   6.900
 1536SOL    HW1 5507   4.810   3.474   6.930
 1536SOL    HW2 5508   4.763   3.563   6.801
 1537SOL     OW 5509   2.642   5.012   2.963
 1537SOL    HW1 5510   2.589   4.973   2.888
 1537SOL    HW2 5511   2.587   5.081   3.011
 1538SOL     OW 5512   2.711   1.207   0.586
 1538SOL    HW1 5513   2.664   1.287   0.548
 1538SOL    HW2 5514   2.675   1.188   0.678
 1539SOL     OW 5515   5.896   3.194   0.714
 1539SOL    HW1 5516   5.897   3.242   0.802
 1539SOL    HW2 5517   5.989   3.166   0.690
 1540SOL     OW 5518   3.430   6.998   3.837
 1540SOL    HW1 5519   3.428   0.027   3.923
 1540SOL    HW2 5520   3.463   0.034   3.763
 1541SOL     OW 5521   3.970   3.314   5.857
 1541SOL    HW1 5522   4.031   3.313   5.936
 1541SOL    HW2 5523   3.882   3.273   5.882
 1542SOL     OW 5524   0.411   6.648   2.384
 1542SOL    HW1 5525   0.378   6.566   2.432
 1542SOL    HW2 5526   0.478   6.621   2.315
 1543SOL     OW 5527   2.910   4.561   0.158
 1543SOL    HW1 5528   2.976   4.525   0.092
 1543SOL    HW2 5529   2.946   4.644   0.199
 1544SOL     OW 5530   3.760   3.459   3.939
 1544SOL    HW1 5531   3.682   3.426   3.885
 1544SOL    HW2 5532   3.838   3.474   3.879
 1545SOL     OW 5533   5.687   6.003   1.697
 1545SOL    HW1 5534   5.608   5.965   1.649
 1545SOL    HW2 5535   5.660   6.087   1.744
 1546SOL     OW 5536   5.517   6.500   5.877
 1546SOL    HW1 5537   5.423   6.464   5.882
 1546SOL    HW2 5538   5.531   6.567   5.949
 1547SOL     OW 5539   2.144   3.548   6.544
 1547SOL    HW1 5540   2.190   3.473   6.497
 1547SOL    HW2 5541   2.180   3.557   6.637
 1548SOL     OW 5542   6.519   1.847   0.211
 1548SOL    HW1 5543   6.493   1.752   0.227
 1548SOL    HW2 5544   6.524   1.896   0.298
 1549SOL     OW 5545   5.059   0.740   4.694
 1549SOL    HW1 5546   5.090   0.829   4.662
 1549SOL    HW2 5547   5.123   0.669   4.664
 1550SOL     OW 5548   3.848   2.993   4.206
 1550SOL    HW1 5549   3.930   2.982   4.151
 1550SOL    HW2 5550   3.800   3.077   4.179
 1551SOL     OW 5551   6.522   4.790   5.640
 1551SOL    HW1 5552   6.450   4.721   5.642
 1551SOL    HW2 5553   6.593   4.766   5.705
 1552SOL     OW 5554   1.984   4.375   1.246
 1552SOL    HW1 5555   2.081   4.369   1.271
 1552SOL    HW2 5556   1.962   4.469   1.219
 1553SOL     OW 5557   1.929   1.630   5.946
 1553SOL    HW1 5558   1.975   1.697   5.888
 1553SOL    HW2 5559   1.867   1.575   5.890
 1554SOL     OW 5560   3.396   1.721   4.044
 1554SOL    HW1 5561   3.352   1.714   3.955
 1554SOL    HW2 5562   3.495   1.725   4.032
 1555SOL     OW 5563   6.234   4.086   6.113
 1555SOL    HW1 5564   6.157   4.108   6.172
 1555SOL    HW2 5565   6.313   4.060   6.169
 1556SOL     OW 5566   2.199   0.742   5.829
 1556SOL    HW1 5567   2.255   0.686   5.768
 1556SOL    HW2 5568   2.222   0.838   5.816
 1557SOL     OW 5569   0.380   2.881   6.182
 1557SOL    HW1 5570   0.406   2.871   6.278
 1557SOL    HW2 5571   0.384   2.792   6.137
 1558SOL     OW 5572   0.205   6.889   4.673
 1558SOL    HW1 5573   0.116   6.918   4.638
 1558SOL    HW2 5574   0.205   6.790   4.687
 1559SOL     OW 5575   1.509   1.990   6.259
 1559SOL    HW1 5576   1.527   1.957   6.166
 1559SOL    HW2 5577   1.509   1.914   6.323
 1560SOL     OW 5578   0.003   0.345   6.669
 1560SOL    HW1 5579   6.993   0.385   6.583
 1560SOL    HW2 5580   0.103   0.348   6.670
 1561SOL     OW 5581   5.350   6.079   2.074
 1561SOL    HW1 5582   5.417   6.005   2.077
 1561SOL    HW2 5583   5.258   6.041   2.080
 1562SOL     OW 5584   6.212   0.715   3.711
 1562SOL    HW1 5585   6.157   0.639   3.746
 1562SOL    HW2 5586   6.173   0.802   3.743
 1563SOL     OW 5587   3.812   6.795   5.004
 1563SOL    HW1 5588   3.893   6.783   4.946
 1563SOL    HW2 5589   3.742   6.729   4.978
 1564SOL     OW 5590   0.785   2.138   2.429
 1564SOL    HW1 5591   0.732   2.118   2.346
 1564SOL    HW2 5592   0.724   2.169   2.501
 1565SOL     OW 5593   5.883   4.734   1.572
 1565SOL    HW1 5594   5.974   4.758   1.538
 1565SOL    HW2 5595   5.855   4.801   1.641
 1566SOL     OW 5596   6.143   4.319   3.194
 1566SOL    HW1 5597   6.066   4.367   3.152
 1566SOL    HW2 5598   6.120   4.296   3.289
 1567SOL     OW 5599   6.284   5.897   5.188
 1567SOL    HW1 5600   6.208   5.908   5.253
 1567SOL    HW2 5601   6.349   5.971   5.200
 1568SOL     OW 5602   0.565   6.957   0.000
 1568SOL    HW1 5603   0.611   0.007   6.973
 1568SOL    HW2 5604   0.468   6.957   6.999
 1569SOL     OW 5605   3.386   6.544   4.695
 1569SOL    HW1 5606   3.426   6.546   4.604
 1569SOL    HW2 5607   3.304   6.601   4.697
 1570SOL     OW 5608   3.185   1.946   1.920
 1570SOL    HW1 5609   3.133   1.999   1.853
 1570SOL    HW2 5610   3.213   2.005   1.995
 1571SOL     OW 5611   6.824   3.880   0.738
 1571SOL    HW1 5612   6.904   3.843   0.786
 1571SOL    HW2 5613   6.744   3.824   0.760
 1572SOL     OW 5614   1.371   5.791   2.558
 1572SOL    HW1 5615   1.341   5.881   2.525
 1572SOL    HW2 5616   1.470   5.793   2.575
 1573SOL     OW 5617   3.780   0.566   0.655
 1573SOL    HW1 5618   3.835   0.615   0.722
 1573SOL    HW2 5619   3.707   0.626   0.622
 1574SOL     OW 5620   6.284   3.072   2.469
 1574SOL    HW1 5621   6.187   3.089   2.484
 1574SOL    HW2 5622   6.319   3.134   2.399
 1575SOL     OW 5623   3.247   2.130   0.271
 1575SOL    HW1 5624   3.329   2.182   0.247
 1575SOL    HW2 5625   3.166   2.181   0.240
 1576SOL     OW 5626   6.567   5.599   3.602
 1576SOL    HW1 5627   6.472   5.588   3.571
 1576SOL    HW2 5628   6.580   5.549   3.688
 1577SOL     OW 5629   1.417   0.634   0.265
 1577SOL    HW1 5630   1.485   0.561   0.258
 1577SOL    HW2 5631   1.455   0.719   0.231
 1578SOL     OW 5632   5.588   5.529   4.403
 1578SOL    HW1 5633   5.579   5.563   4.310
 1578SOL    HW2 5634   5.667   5.572   4.447
 1579SOL     OW 5635   0.398   0.036   3.324
 1579SOL    HW1 5636   0.467   0.010   3.256
 1579SOL    HW2 5637   0.372   6.979   3.378
 1580SOL     OW 5638   3.419   3.872   5.829
 1580SOL    HW1 5639   3.337   3.829   5.792
 1580SOL    HW2 5640   3.471   3.914   5.754
 1581SOL     OW 5641   6.356   4.093   3.864
 1581SOL    HW1 5642   6.326   4.027   3.933
 1581SOL    HW2 5643   6.384   4.178   3.908
 1582SOL     OW 5644   6.134   5.313   4.441
 1582SOL    HW1 5645   6.136   5.405   4.480
 1582SOL    HW2 5646   6.049   5.268   4.467
 1583SOL     OW 5647   2.150   2.129   2.670
 1583SOL    HW1 5648   2.051   2.118   2.675
 1583SOL    HW2 5649   2.195   2.045   2.699
 1584SOL     OW 5650   2.211   0.307   6.154
 1584SOL    HW1 5651   2.141   0.255   6.204
 1584SOL    HW2 5652   2.168   0.386   6.109
 1585SOL     OW 5653   6.012   1.399   5.395
 1585SOL    HW1 5654   6.081   1.470   5.382
 1585SOL    HW2 5655   6.040   1.316   5.347
 1586SOL     OW 5656   3.740   3.947   2.948
 1586SOL    HW1 5657   3.809   3.974   3.016
 1586SOL    HW2 5658   3.662   4.009   2.953
 1587SOL     OW 5659   2.204   6.598   6.364
 1587SOL    HW1 5660   2.190   6.667   6.294
 1587SOL    HW2 5661   2.249   6.639   6.443
 1588SOL     OW 5662   5.991   3.706   1.332
 1588SOL    HW1 5663   5.914   3.641   1.329
 1588SOL    HW2 5664   5.970   3.780   1.395
 1589SOL     OW 5665   5.130   4.018   3.554
 1589SOL    HW1 5666   5.039   3.980   3.540
 1589SOL    HW2 5667   5.172   4.039   3.466
 1590SOL     OW 5668   2.342   0.070   5.516
 1590SOL    HW1 5669   2.381   0.116   5.596
 1590SOL    HW2 5670   2.305   7.004   5.543
 1591SOL     OW 5671   0.479   4.036   1.405
 1591SOL    HW1 5672   0.469   4.112   1.469
 1591SOL    HW2 5673   0.559   3.982   1.430
 1592SOL     OW 5674   2.896   3.455   3.689
 1592SOL    HW1 5675   2.910   3.521   3.763
 1592SOL    HW2 5676   2.930   3.365   3.719
 1593SOL     OW 5677   1.198   5.137   4.762
 1593SOL    HW1 5678   1.184   5.198   4.839
 1593SOL    HW2 5679   1.188   5.187   4.676
 1594SOL     OW 5680   0.661   5.080   3.138
 1594SOL    HW1 5681   0.759   5.079   3.122
 1594SOL    HW2 5682   0.643   5.057   3.234
 1595SOL     OW 5683   0.239   5.189   5.754
 1595SOL    HW1 5684   0.154   5.178   5.805
 1595SOL    HW2 5685   0.280   5.100   5.738
 1596SOL     OW 5686   2.838   4.871   6.852
 1596SOL    HW1 5687   2.897   4.951   6.840
 1596SOL    HW2 5688   2.769   4.891   6.921
 1597SOL     OW 5689   2.576   6.642   0.650
 1597SOL    HW1 5690   2.627   6.610   0.730
 1597SOL    HW2 5691   2.487   6.678   0.679
 1598SOL     OW 5692   6.823   5.876   1.785
 1598SOL    HW1 5693   6.854   5.886   1.879
 1598SOL    HW2 5694   6.895   5.832   1.730
 1599SOL     OW 5695   3.446   4.629   0.120
 1599SOL    HW1 5696   3.453   4.540   0.075
 1599SOL    HW2 5697   3.458   4.702   0.053
 1600SOL     OW 5698   3.259   1.100   5.250
 1600SOL    HW1 5699   3.192   1.169   5.277
 1600SOL    HW2 5700   3.348   1.143   5.238
 1601SOL     OW 5701   1.104   4.786   4.717
 1601SOL    HW1 5702   1.161   4.775   4.635
 1601SOL    HW2 5703   1.063   4.698   4.741
 1602SOL     OW 5704   0.429   4.550   2.319
 1602SOL    HW1 5705   0.432   4.455   2.286
 1602SOL    HW2 5706   0.478   4.557   2.405
 1603SOL     OW 5707   6.115   6.655   1.261
 1603SOL    HW1 5708   6.109   6.559   1.236
 1603SOL    HW2 5709   6.156   6.707   1.186
 1604SOL     OW 5710   0.457   5.810   5.065
 1604SOL    HW1 5711   0.405   5.738   5.111
 1604SOL    HW2 5712   0.520   5.852   5.130
 1605SOL     OW 5713   4.816   6.521   3.021
 1605SOL    HW1 5714   4.747   6.529   2.950
 1605SOL    HW2 5715   4.902   6.558   2.988
 1606SOL     OW 5716   4.946   6.974   5.498
 1606SOL    HW1 5717   5.019   6.923   5.451
 1606SOL    HW2 5718   4.865   6.978   5.440
 1607SOL     OW 5719   4.851   2.834   0.719
 1607SOL    HW1 5720   4.891   2.849   0.629
 1607SOL    HW2 5721   4.813   2.742   0.723
 1608SOL     OW 5722   2.226   0.080   0.409
 1608SOL    HW1 5723   2.316   0.089   0.451
 1608SOL    HW2 5724   2.156   0.111   0.473
 1609SOL     OW 5725   5.292   1.313   5.386
 1609SOL    HW1 5726   5.283   1.227   5.436
 1609SOL    HW2 5727   5.202   1.358   5.382
 1610SOL     OW 5728   5.673   6.414   4.052
 1610SOL    HW1 5729   5.629   6.478   3.989
 1610SOL    HW2 5730   5.615   6.400   4.132
 1611SOL     OW 5731   3.843   3.405   1.280
 1611SOL    HW1 5732   3.804   3.336   1.218
 1611SOL    HW2 5733   3.942   3.408   1.267
 1612SOL     OW 5734   3.128   1.477   4.404
 1612SOL    HW1 5735   3.198   1.440   4.343
 1612SOL    HW2 5736   3.109   1.412   4.477
 1613SOL     OW 5737   1.608   6.511   0.841
 1613SOL    HW1 5738   1.592   6.610   0.838
 1613SOL    HW2 5739   1.706   6.492   0.833
 1614SOL     OW 5740   0.457   2.972   6.486
 1614SOL    HW1 5741   0.555   2.961   6.501
 1614SOL    HW2 5742   0.436   3.068   6.467
 1615SOL     OW 5743   6.175   5.039   6.208
 1615SOL    HW1 5744   6.134   4.950   6.230
 1615SOL    HW2 5745   6.197   5.087   6.293
 1616SOL     OW 5746   2.416   1.892   5.912
 1616SOL    HW1 5747   2.398   1.966   5.848
 1616SOL    HW2 5748   2.430   1.807   5.862
 1617SOL     OW 5749   4.659   0.847   4.447
 1617SOL    HW1 5750   4.738   0.875   4.393
 1617SOL    HW2 5751   4.576   0.859   4.393
 1618SOL     OW 5752   5.512   2.325   1.234
 1618SOL    HW1 5753   5.585   2.263   1.206
 1618SOL    HW2 5754   5.434   2.271   1.267
 1619SOL     OW 5755   1.958   2.923   4.700
 1619SOL    HW1 5756   2.056   2.939   4.689
 1619SOL    HW2 5757   1.909   3.010   4.698
 1620SOL     OW 5758   3.755   5.688   2.016
 1620SOL    HW1 5759   3.802   5.677   1.929
 1620SOL    HW2 5760   3.753   5.600   2.064
 1621SOL     OW 5761   2.038   1.529   1.599
 1621SOL    HW1 5762   2.130   1.552   1.566
 1621SOL    HW2 5763   2.022   1.574   1.687
 1622SOL     OW 5764   2.098   2.102   4.875
 1622SOL    HW1 5765   2.137   2.143   4.792
 1622SOL    HW2 5766   2.087   2.172   4.945
 1623SOL     OW 5767   2.735   2.401   4.921
 1623SOL    HW1 5768   2.797   2.428   4.994
 1623SOL    HW2 5769   2.744   2.303   4.904
 1624SOL     OW 5770   2.371   0.329   0.578
 1624SOL    HW1 5771   2.420   0.242   0.581
 1624SOL    HW2 5772   2.279   0.317   0.616
 1625SOL     OW 5773   6.849   5.539   2.466
 1625SOL    HW1 5774   6.756   5.534   2.429
 1625SOL    HW2 5775   6.913   5.507   2.397
 1626SOL     OW 5776   2.154   3.268   6.021
 1626SOL    HW1 5777   2.234   3.314   5.983
 1626SOL    HW2 5778   2.122   3.197   5.957
 1627SOL     OW 5779   5.105   3.298   3.788
 1627SOL    HW1 5780   5.156   3.251   3.860
 1627SOL    HW2 5781   5.012   3.317   3.821
 1628SOL     OW 5782   2.948   3.014   0.306
 1628SOL    HW1 5783   2.924   3.073   0.230
 1628SOL    HW2 5784   3.031   2.963   0.285
 1629SOL     OW 5785   4.226   1.888   3.203
 1629SOL    HW1 5786   4.200   1.883   3.107
 1629SOL    HW2 5787   4.280   1.970   3.218
 1630SOL     OW 5788   0.485   4.759   4.714
 1630SOL    HW1 5789   0.409   4.725   4.769
 1630SOL    HW2 5790   0.484   4.859   4.715
 1631SOL     OW 5791   0.530   6.946   5.767
 1631SOL    HW1 5792   0.590   6.906   5.697
 1631SOL    HW2 5793   0.580   6.951   5.854
 1632SOL     OW 5794   5.588   0.012   1.412
 1632SOL    HW1 5795   5.509   0.021   1.351
 1632SOL    HW2 5796   5.573   6.959   1.475
 1633SOL     OW 5797   5.715   2.804   3.390
 1633SOL    HW1 5798   5.739   2.836   3.482
 1633SOL    HW2 5799   5.725   2.879   3.325
 1634SOL     OW 5800   3.851   0.991   0.057
 1634SOL    HW1 5801   3.765   1.040   0.038
 1634SOL    HW2 5802   3.832   0.893   0.063
 1635SOL     OW 5803   1.066   5.229   4.284
 1635SOL    HW1 5804   1.160   5.211   4.254
 1635SOL    HW2 5805   1.035   5.155   4.343
 1636SOL     OW 5806   2.832   6.449   1.339
 1636SOL    HW1 5807   2.880   6.368   1.305
 1636SOL    HW2 5808   2.829   6.518   1.267
 1637SOL     OW 5809   0.000   3.217   3.039
 1637SOL    HW1 5810   7.014   3.177   2.948
 1637SOL    HW2 5811   0.000   3.317   3.032
 1638SOL     OW 5812   1.537   3.049   5.364
 1638SOL    HW1 5813   1.538   2.958   5.404
 1638SOL    HW2 5814   1.503   3.044   5.270
 1639SOL     OW 5815   4.878   4.646   2.781
 1639SOL    HW1 5816   4.840   4.625   2.691
 1639SOL    HW2 5817   4.977   4.638   2.777
 1640SOL     OW 5818   5.820   0.223   1.268
 1640SOL    HW1 5819   5.752   0.266   1.327
 1640SOL    HW2 5820   5.901   0.282   1.261
 1641SOL     OW 5821   6.980   3.003   5.545
 1641SOL    HW1 5822   7.010   2.977   5.453
 1641SOL    HW2 5823   6.905   2.943   5.573
 1642SOL     OW 5824   0.162   2.200   1.351
 1642SOL    HW1 5825   0.066   2.183   1.373
 1642SOL    HW2 5826   0.199   2.122   1.301
 1643SOL     OW 5827   3.862   0.637   6.180
 1643SOL    HW1 5828   3.821   0.682   6.101
 1643SOL    HW2 5829   3.940   0.690   6.213
 1644SOL     OW 5830   3.122   0.374   0.912
 1644SOL    HW1 5831   3.062   0.307   0.958
 1644SOL    HW2 5832   3.170   0.330   0.836
 1645SOL     OW 5833   2.127   6.412   5.899
 1645SOL    HW1 5834   2.163   6.337   5.955
 1645SOL    HW2 5835   2.065   6.374   5.830
 1646SOL     OW 5836   1.190   3.427   0.381
 1646SOL    HW1 5837   1.122   3.424   0.454
 1646SOL    HW2 5838   1.145   3.410   0.293
 1647SOL     OW 5839   6.078   2.860   3.698
 1647SOL    HW1 5840   6.068   2.885   3.795
 1647SOL    HW2 5841   6.141   2.783   3.690
 1648SOL     OW 5842   4.124   7.015   2.685
 1648SOL    HW1 5843   4.093   0.073   2.735
 1648SOL    HW2 5844   4.113   0.008   2.587
 1649SOL     OW 5845   3.030   6.973   2.691
 1649SOL    HW1 5846   3.030   6.877   2.663
 1649SOL    HW2 5847   3.121   6.999   2.722
 1650SOL     OW 5848   3.260   6.815   3.749
 1650SOL    HW1 5849   3.327   6.872   3.797
 1650SOL    HW2 5850   3.293   6.721   3.744
 1651SOL     OW 5851   1.446   6.763   1.328
 1651SOL    HW1 5852   1.381   6.722   1.264
 1651SOL    HW2 5853   1.400   6.783   1.414
 1652SOL     OW 5854   2.927   2.953   1.379
 1652SOL    HW1 5855   2.873   2.874   1.407
 1652SOL    HW2 5856   2.872   3.036   1.388
 1653SOL     OW 5857   1.007   5.322   0.484
 1653SOL    HW1 5858   1.062   5.392   0.530
 1653SOL    HW2 5859   1.051   5.233   0.494
 1654SOL     OW 5860   0.527   2.379   3.475
 1654SOL    HW1 5861   0.439   2.372   3.428
 1654SOL    HW2 5862   0.553   2.475   3.485
 1655SOL     OW 5863   4.965   4.926   5.574
 1655SOL    HW1 5864   5.021   4.918   5.657
 1655SOL    HW2 5865   5.001   4.999   5.516
 1656SOL     OW 5866   0.538   4.386   3.305
 1656SOL    HW1 5867   0.456   4.329   3.304
 1656SOL    HW2 5868   0.525   4.465   3.245
 1657SOL     OW 5869   0.500   0.086   5.285
 1657SOL    HW1 5870   0.556   0.077   5.203
 1657SOL    HW2 5871   0.560   0.094   5.365
 1658SOL     OW 5872   6.018   6.203   2.319
 1658SOL    HW1 5873   6.068   6.135   2.373
 1658SOL    HW2 5874   6.061   6.212   2.229
 1659SOL     OW 5875   4.996   2.204   6.221
 1659SOL    HW1 5876   4.928   2.131   6.235
 1659SOL    HW2 5877   4.974   2.281   6.280
 1660SOL     OW 5878   1.974   5.991   3.408
 1660SOL    HW1 5879   2.069   5.970   3.433
 1660SOL    HW2 5880   1.971   6.079   3.360
 1661SOL     OW 5881   3.300   0.040   2.631
 1661SOL    HW1 5882   3.227   0.061   2.566
 1661SOL    HW2 5883   3.324   6.966   2.625
 1662SOL     OW 5884   6.951   0.429   3.105
 1662SOL    HW1 5885   6.910   0.343   3.077
 1662SOL    HW2 5886   0.021   0.436   3.067
 1663SOL     OW 5887   2.497   0.085   3.533
 1663SOL    HW1 5888   2.432   0.019   3.495
 1663SOL    HW2 5889   2.504   0.164   3.473
 1664SOL     OW 5890   2.419   5.551   4.674
 1664SOL    HW1 5891   2.448   5.647   4.684
 1664SOL    HW2 5892   2.347   5.546   4.605
 1665SOL     OW 5893   1.164   0.651   4.980
 1665SOL    HW1 5894   1.132   0.700   5.061
 1665SOL    HW2 5895   1.087   0.634   4.919
 1666SOL     OW 5896   5.357   3.611   6.763
 1666SOL    HW1 5897   5.415   3.530   6.755
 1666SOL    HW2 5898   5.271   3.595   6.714
 1667SOL     OW 5899   6.454   0.953   6.229
 1667SOL    HW1 5900   6.388   0.878   6.227
 1667SOL    HW2 5901   6.439   1.014   6.151
 1668SOL     OW 5902   2.688   0.458   5.018
 1668SOL    HW1 5903   2.642   0.464   5.107
 1668SOL    HW2 5904   2.704   0.551   4.983
 1669SOL     OW 5905   5.945   6.315   6.461
 1669SOL    HW1 5906   6.001   6.398   6.460
 1669SOL    HW2 5907   5.932   6.282   6.367
 1670SOL     OW 5908   6.044   3.836   6.284
 1670SOL    HW1 5909   5.945   3.840   6.300
 1670SOL    HW2 5910   6.061   3.812   6.188
 1671SOL     OW 5911   6.118   4.723   0.413
 1671SOL    HW1 5912   6.152   4.809   0.376
 1671SOL    HW2 5913   6.105   4.733   0.512
 1672SOL     OW 5914   2.277   5.392   2.182
 1672SOL    HW1 5915   2.329   5.371   2.099
 1672SOL    HW2 5916   2.253   5.307   2.229
 1673SOL     OW 5917   6.599   1.909   3.440
 1673SOL    HW1 5918   6.593   1.875   3.346
 1673SOL    HW2 5919   6.558   2.001   3.445
 1674SOL     OW 5920   1.800   5.357   6.019
 1674SOL    HW1 5921   1.817   5.446   6.060
 1674SOL    HW2 5922   1.702   5.336   6.022
 1675SOL     OW 5923   4.629   2.610   0.508
 1675SOL    HW1 5924   4.600   2.525   0.464
 1675SOL    HW2 5925   4.642   2.681   0.439
 1676SOL     OW 5926   2.398   1.380   3.973
 1676SOL    HW1 5927   2.388   1.345   3.880
 1676SOL    HW2 5928   2.495   1.390   3.994
 1677SOL     OW 5929   6.465   0.556   5.589
 1677SOL    HW1 5930   6.529   0.542   5.665
 1677SOL    HW2 5931   6.465   0.474   5.531
 1678SOL     OW 5932   4.716   0.130   1.343
 1678SOL    HW1 5933   4.668   0.115   1.257
 1678SOL    HW2 5934   4.686   0.062   1.410
 1679SOL     OW 5935   6.078   4.047   0.428
 1679SOL    HW1 5936   6.090   4.098   0.344
 1679SOL    HW2 5937   6.095   3.949   0.410
 1680SOL     OW 5938   1.456   2.631   5.180
 1680SOL    HW1 5939   1.481   2.548   5.231
 1680SOL    HW2 5940   1.376   2.673   5.221
 1681SOL     OW 5941   5.098   5.398   1.194
 1681SOL    HW1 5942   5.159   5.382   1.272
 1681SOL    HW2 5943   5.040   5.478   1.213
 1682SOL     OW 5944   6.336   3.503   5.542
 1682SOL    HW1 5945   6.419   3.549   5.572
 1682SOL    HW2 5946   6.306   3.541   5.454
 1683SOL     OW 5947   5.613   6.327   6.639
 1683SOL    HW1 5948   5.644   6.235   6.615
 1683SOL    HW2 5949   5.625   6.388   6.561
 1684SOL     OW 5950   0.288   5.917   4.736
 1684SOL    HW1 5951   0.370   5.968   4.710
 1684SOL    HW2 5952   0.217   5.982   4.766
 1685SOL     OW 5953   1.410   1.927   0.429
 1685SOL    HW1 5954   1.458   1.969   0.352
 1685SOL    HW2 5955   1.350   1.855   0.397
 1686SOL     OW 5956   2.053   5.703   6.690
 1686SOL    HW1 5957   2.043   5.622   6.633
 1686SOL    HW2 5958   2.100   5.775   6.638
 1687SOL     OW 5959   2.128   6.730   1.849
 1687SOL    HW1 5960   2.070   6.811   1.861
 1687SOL    HW2 5961   2.205   6.735   1.913
 1688SOL     OW 5962   0.330   1.979   3.977
 1688SOL    HW1 5963   0.268   1.908   3.944
 1688SOL    HW2 5964   0.286   2.068   3.968
 1689SOL     OW 5965   3.565   1.165   2.386
 1689SOL    HW1 5966   3.491   1.157   2.453
 1689SOL    HW2 5967   3.612   1.252   2.398
 1690SOL     OW 5968   0.852   2.034   0.843
 1690SOL    HW1 5969   0.797   1.966   0.796
 1690SOL    HW2 5970   0.793   2.109   0.874
 1691SOL     OW 5971   4.564   4.401   2.672
 1691SOL    HW1 5972   4.501   4.435   2.742
 1691SOL    HW2 5973   4.599   4.312   2.700
 1692SOL     OW 5974   1.621   0.229   3.387
 1692SOL    HW1 5975   1.632   0.220   3.288
 1692SOL    HW2 5976   1.709   0.216   3.432
 1693SOL     OW 5977   2.349   2.077   3.831
 1693SOL    HW1 5978   2.271   2.076   3.894
 1693SOL    HW2 5979   2.369   1.984   3.802
 1694SOL     OW 5980   4.640   6.373   5.693
 1694SOL    HW1 5981   4.647   6.411   5.786
 1694SOL    HW2 5982   4.730   6.370   5.652
 1695SOL     OW 5983   2.878   1.213   6.103
 1695SOL    HW1 5984   2.821   1.281   6.056
 1695SOL    HW2 5985   2.883   1.130   6.047
 1696SOL     OW 5986   3.214   5.518   1.467
 1696SOL    HW1 5987   3.257   5.439   1.511
 1696SOL    HW2 5988   3.220   5.508   1.367
 1697SOL     OW 5989   1.498   1.222   2.372
 1697SOL    HW1 5990   1.580   1.165   2.370
 1697SOL    HW2 5991   1.506   1.290   2.445
 1698SOL     OW 5992   5.192   1.765   0.753
 1698SOL    HW1 5993   5.223   1.735   0.843
 1698SOL    HW2 5994   5.097   1.795   0.759
 1699SOL     OW 5995   2.349   3.947   0.760
 1699SOL    HW1 5996   2.337   3.873   0.694
 1699SOL    HW2 5997   2.396   3.913   0.841
 1700SOL     OW 5998   6.609   2.874   5.055
 1700SOL    HW1 5999   6.645   2.811   5.123
 1700SOL    HW2 6000   6.682   2.935   5.023
 1701SOL     OW 6001   5.909   3.468   5.222
 1701SOL    HW1 6002   5.809   3.461   5.223
 1701SOL    HW2 6003   5.947   3.408   5.292
 1702SOL     OW 6004   4.884   2.969   1.808
 1702SOL    HW1 6005   4.898   3.035   1.735
 1702SOL    HW2 6006   4.800   2.990   1.857
 1703SOL     OW 6007   1.543   3.873   6.969
 1703SOL    HW1 6008   1.516   3.811   0.021
 1703SOL    HW2 6009   1.560   3.819   6.886
 1704SOL     OW 6010   0.432   0.852   1.490
 1704SOL    HW1 6011   0.510   0.809   1.536
 1704SOL    HW2 6012   0.463   0.930   1.437
 1705SOL     OW 6013   3.927   3.487   2.499
 1705SOL    HW1 6014   3.913   3.512   2.403
 1705SOL    HW2 6015   3.967   3.396   2.504
 1706SOL     OW 6016   2.632   0.599   6.663
 1706SOL    HW1 6017   2.563   0.627   6.730
 1706SOL    HW2 6018   2.681   0.519   6.696
 1707SOL     OW 6019   5.841   1.386   2.977
 1707SOL    HW1 6020   5.814   1.396   3.073
 1707SOL    HW2 6021   5.766   1.418   2.919
 1708SOL     OW 6022   0.263   4.686   2.163
 1708SOL    HW1 6023   0.339   4.638   2.206
 1708SOL    HW2 6024   0.296   4.768   2.117
 1709SOL     OW 6025   3.439   6.100   4.264
 1709SOL    HW1 6026   3.494   6.055   4.334
 1709SOL    HW2 6027   3.347   6.061   4.264
 1710SOL     OW 6028   0.383   6.010   4.085
 1710SOL    HW1 6029   0.369   6.085   4.151
 1710SOL    HW2 6030   0.303   5.951   4.083
 1711SOL     OW 6031   2.042   4.389   5.645
 1711SOL    HW1 6032   2.099   4.332   5.704
 1711SOL    HW2 6033   2.100   4.445   5.586
 1712SOL     OW 6034   1.632   4.781   0.911
 1712SOL    HW1 6035   1.732   4.776   0.914
 1712SOL    HW2 6036   1.602   4.864   0.957
 1713SOL     OW 6037   1.767   3.356   0.380
 1713SOL    HW1 6038   1.826   3.313   0.312
 1713SOL    HW2 6039   1.671   3.345   0.352
 1714SOL     OW 6040   3.559   1.766   1.134
 1714SOL    HW1 6041   3.554   1.862   1.161
 1714SOL    HW2 6042   3.654   1.735   1.139
 1715SOL     OW 6043   0.176   3.229   3.825
 1715SOL    HW1 6044   0.107   3.201   3.758
 1715SOL    HW2 6045   0.264   3.190   3.799
 1716SOL     OW 6046   6.925   6.893   0.177
 1716SOL    HW1 6047   7.011   6.919   0.221
 1716SOL    HW2 6048   6.918   6.936   0.087
 1717SOL     OW 6049   3.227   0.138   0.424
 1717SOL    HW1 6050   3.172   0.132   0.341
 1717SOL    HW2 6051   3.254   0.233   0.440
 1718SOL     OW 6052   1.407   4.859   5.302
 1718SOL    HW1 6053   1.336   4.789   5.290
 1718SOL    HW2 6054   1.369   4.949   5.283
 1719SOL     OW 6055   2.322   3.286   1.466
 1719SOL    HW1 6056   2.244   3.302   1.406
 1719SOL    HW2 6057   2.388   3.227   1.419
 1720SOL     OW 6058   6.293   1.418   2.197
 1720SOL    HW1 6059   6.303   1.516   2.178
 1720SOL    HW2 6060   6.198   1.398   2.219
 1721SOL     OW 6061   1.758   6.117   3.503
 1721SOL    HW1 6062   1.845   6.070   3.484
 1721SOL    HW2 6063   1.692   6.093   3.432
 1722SOL     OW 6064   5.695   6.774   1.579
 1722SOL    HW1 6065   5.700   6.729   1.668
 1722SOL    HW2 6066   5.695   6.705   1.507
 1723SOL     OW 6067   6.067   1.238   2.542
 1723SOL    HW1 6068   5.986   1.294   2.526
 1723SOL    HW2 6069   6.041   1.153   2.589
 1724SOL     OW 6070   5.143   0.673   0.107
 1724SOL    HW1 6071   5.206   0.699   0.181
 1724SOL    HW2 6072   5.189   0.612   0.043
 1725SOL     OW 6073   4.080   5.301   2.215
 1725SOL    HW1 6074   3.980   5.295   2.211
 1725SOL    HW2 6075   4.115   5.238   2.284
 1726SOL     OW 6076   0.264   4.672   4.884
 1726SOL    HW1 6077   0.229   4.665   4.791
 1726SOL    HW2 6078   0.257   4.583   4.929
 1727SOL     OW 6079   3.351   3.193   5.350
 1727SOL    HW1 6080   3.290   3.136   5.295
 1727SOL    HW2 6081   3.334   3.177   5.447
 1728SOL     OW 6082   4.253   4.723   3.660
 1728SOL    HW1 6083   4.214   4.772   3.582
 1728SOL    HW2 6084   4.345   4.689   3.636
 1729SOL     OW 6085   2.060   3.248   2.764
 1729SOL    HW1 6086   2.103   3.225   2.852
 1729SOL    HW2 6087   2.040   3.163   2.714
 1730SOL     OW 6088   5.510   2.432   4.495
 1730SOL    HW1 6089   5.579   2.436   4.568
 1730SOL    HW2 6090   5.523   2.348   4.441
 1731SOL     OW 6091   1.061   5.809   0.373
 1731SOL    HW1 6092   1.137   5.767   0.323
 1731SOL    HW2 6093   0.996   5.739   0.401
 1732SOL     OW 6094   0.630   4.785   6.836
 1732SOL    HW1 6095   0.721   4.773   6.797
 1732SOL    HW2 6096   0.609   4.709   6.897
 1733SOL     OW 6097   1.220   4.032   0.590
 1733SOL    HW1 6098   1.253   4.103   0.653
 1733SOL    HW2 6099   1.122   4.018   0.604
 1734SOL     OW 6100   4.705   3.056   1.373
 1734SOL    HW1 6101   4.697   3.140   1.427
 1734SOL    HW2 6102   4.678   2.978   1.430
 1735SOL     OW 6103   5.677   6.135   1.212
 1735SOL    HW1 6104   5.585   6.166   1.188
 1735SOL    HW2 6105   5.673   6.039   1.239
 1736SOL     OW 6106   2.948   3.747   0.387
 1736SOL    HW1 6107   3.022   3.814   0.388
 1736SOL    HW2 6108   2.887   3.765   0.465
 1737SOL     OW 6109   1.174   5.974   3.852
 1737SOL    HW1 6110   1.228   5.978   3.768
 1737SOL    HW2 6111   1.078   5.956   3.830
 1738SOL     OW 6112   0.976   1.639   1.391
 1738SOL    HW1 6113   0.983   1.643   1.291
 1738SOL    HW2 6114   1.067   1.625   1.430
 1739SOL     OW 6115   4.236   2.057   5.755
 1739SOL    HW1 6116   4.207   2.128   5.691
 1739SOL    HW2 6117   4.332   2.034   5.738
 1740SOL     OW 6118   0.567   1.039   5.654
 1740SOL    HW1 6119   0.602   1.021   5.562
 1740SOL    HW2 6120   0.633   1.095   5.704
 1741SOL     OW 6121   2.374   0.532   2.237
 1741SOL    HW1 6122   2.274   0.539   2.233
 1741SOL    HW2 6123   2.411   0.544   2.145
 1742SOL     OW 6124   6.210   6.148   4.205
 1742SOL    HW1 6125   6.152   6.077   4.164
 1742SOL    HW2 6126   6.173   6.238   4.183
 1743SOL     OW 6127   4.604   0.834   0.537
 1743SOL    HW1 6128   4.603   0.881   0.625
 1743SOL    HW2 6129   4.661   0.884   0.473
 1744SOL     OW 6130   3.007   6.942   1.599
 1744SOL    HW1 6131   3.079   6.975   1.537
 1744SOL    HW2 6132   3.048   6.881   1.667
 1745SOL     OW 6133   6.240   3.143   5.088
 1745SOL    HW1 6134   6.189   3.214   5.041
 1745SOL    HW2 6135   6.274   3.076   5.021
 1746SOL     OW 6136   2.551   1.073   5.934
 1746SOL    HW1 6137   2.576   1.169   5.947
 1746SOL    HW2 6138   2.574   1.021   6.016
 1747SOL     OW 6139   4.867   0.377   6.311
 1747SOL    HW1 6140   4.903   0.321   6.236
 1747SOL    HW2 6141   4.885   0.474   6.291
 1748SOL     OW 6142   6.027   1.763   1.650
 1748SOL    HW1 6143   6.080   1.681   1.669
 1748SOL    HW2 6144   6.064   1.840   1.701
 1749SOL     OW 6145   4.574   0.041   5.847
 1749SOL    HW1 6146   4.586   0.117   5.783
 1749SOL    HW2 6147   4.522   6.990   5.801
 1750SOL     OW 6148   4.869   0.557   3.711
 1750SOL    HW1 6149   4.916   0.639   3.678
 1750SOL    HW2 6150   4.936   0.496   3.754
 1751SOL     OW 6151   2.027   5.802   3.817
 1751SOL    HW1 6152   2.045   5.796   3.915
 1751SOL    HW2 6153   1.996   5.895   3.795
 1752SOL     OW 6154   6.446   2.460   0.002
 1752SOL    HW1 6155   6.527   2.405   0.021
 1752SOL    HW2 6156   6.371   2.430   0.062
 1753SOL     OW 6157   2.716   0.130   2.396
 1753SOL    HW1 6158   2.758   0.046   2.364
 1753SOL    HW2 6159   2.667   0.175   2.321
 1754SOL     OW 6160   3.715   2.509   1.455
 1754SOL    HW1 6161   3.669   2.456   1.526
 1754SOL    HW2 6162   3.737   2.450   1.378
 1755SOL     OW 6163   5.297   3.662   0.368
 1755SOL    HW1 6164   5.295   3.606   0.285
 1755SOL    HW2 6165   5.287   3.758   0.343
 1756SOL     OW 6166   5.808   5.653   4.534
 1756SOL    HW1 6167   5.798   5.652   4.634
 1756SOL    HW2 6168   5.862   5.733   4.507
 1757SOL     OW 6169   3.416   0.683   4.792
 1757SOL    HW1 6170   3.367   0.759   4.750
 1757SOL    HW2 6171   3.365   0.650   4.872
 1758SOL     OW 6172   2.373   1.587   3.143
 1758SOL    HW1 6173   2.284   1.556   3.177
 1758SOL    HW2 6174   2.383   1.560   3.047
 1759SOL     OW 6175   0.723   5.603   6.002
 1759SOL    HW1 6176   0.712   5.507   6.031
 1759SOL    HW2 6177   0.769   5.654   6.074
 1760SOL     OW 6178   5.295   0.756   2.165
 1760SOL    HW1 6179   5.218   0.793   2.217
 1760SOL    HW2 6180   5.381   0.780   2.211
 1761SOL     OW 6181   5.707   2.855   1.449
 1761SOL    HW1 6182   5.652   2.826   1.370
 1761SOL    HW2 6183   5.737   2.774   1.500
 1762SOL     OW 6184   5.742   2.693   0.575
 1762SOL    HW1 6185   5.680   2.678   0.652
 1762SOL    HW2 6186   5.805   2.767   0.597
 1763SOL     OW 6187   2.142   3.713   3.793
 1763SOL    HW1 6188   2.228   3.748   3.831
 1763SOL    HW2 6189   2.066   3.736   3.853
 1764SOL     OW 6190   6.149   2.864   4.757
 1764SOL    HW1 6191   6.059   2.825   4.737
 1764SOL    HW2 6192   6.177   2.923   4.680
 1765SOL     OW 6193   2.240   2.718   6.291
 1765SOL    HW1 6194   2.291   2.718   6.378
 1765SOL    HW2 6195   2.305   2.714   6.215
 1766SOL     OW 6196   5.876   3.096   5.308
 1766SOL    HW1 6197   5.944   3.024   5.299
 1766SOL    HW2 6198   5.787   3.055   5.328
 1767SOL     OW 6199   6.530   3.775   1.839
 1767SOL    HW1 6200   6.557   3.869   1.862
 1767SOL    HW2 6201   6.582   3.745   1.759
 1768SOL     OW 6202   5.921   6.560   3.816
 1768SOL    HW1 6203   5.903   6.469   3.779
 1768SOL    HW2 6204   6.019   6.571   3.831
 1769SOL     OW 6205   5.760   0.919   4.019
 1769SOL    HW1 6206   5.731   0.962   3.933
 1769SOL    HW2 6207   5.721   0.968   4.096
 1770SOL     OW 6208   3.210   5.367   4.750
 1770SOL    HW1 6209   3.191   5.310   4.830
 1770SOL    HW2 6210   3.309   5.380   4.743
 1771SOL     OW 6211   4.632   6.419   6.747
 1771SOL    HW1 6212   4.699   6.428   6.821
 1771SOL    HW2 6213   4.664   6.467   6.666
 1772SOL     OW 6214   3.336   6.358   2.840
 1772SOL    HW1 6215   3.382   6.434   2.795
 1772SOL    HW2 6216   3.370   6.272   2.804
 1773SOL     OW 6217   0.920   5.553   0.025
 1773SOL    HW1 6218   1.018   5.572   0.016
 1773SOL    HW2 6219   0.869   5.640   0.021
 1774SOL     OW 6220   3.531   4.933   2.216
 1774SOL    HW1 6221   3.625   4.916   2.187
 1774SOL    HW2 6222   3.468   4.908   2.143
 1775SOL     OW 6223   1.011   4.779   1.380
 1775SOL    HW1 6224   0.982   4.869   1.348
 1775SOL    HW2 6225   1.034   4.785   1.477
 1776SOL     OW 6226   3.335   5.763   4.885
 1776SOL    HW1 6227   3.261   5.732   4.825
 1776SOL    HW2 6228   3.323   5.860   4.905
 1777SOL     OW 6229   3.268   5.349   6.968
 1777SOL    HW1 6230   3.340   5.412   6.995
 1777SOL    HW2 6231   3.213   5.324   0.025
 1778SOL     OW 6232   6.237   3.795   5.853
 1778SOL    HW1 6233   6.188   3.808   5.940
 1778SOL    HW2 6234   6.194   3.721   5.802
 1779SOL     OW 6235   3.413   0.313   5.349
 1779SOL    HW1 6236   3.427   0.281   5.255
 1779SOL    HW2 6237   3.499   0.349   5.385
 1780SOL     OW 6238   3.478   3.249   6.706
 1780SOL    HW1 6239   3.441   3.156   6.702
 1780SOL    HW2 6240   3.443   3.302   6.629
 1781SOL     OW 6241   3.844   5.421   3.438
 1781SOL    HW1 6242   3.887   5.331   3.448
 1781SOL    HW2 6243   3.760   5.424   3.491
 1782SOL     OW 6244   3.361   1.902   4.392
 1782SOL    HW1 6245   3.303   1.840   4.445
 1782SOL    HW2 6246   3.374   1.987   4.442
 1783SOL     OW 6247   1.987   5.756   6.952
 1783SOL    HW1 6248   1.895   5.722   6.971
 1783SOL    HW2 6249   2.000   5.761   6.853
 1784SOL     OW 6250   3.696   6.538   5.351
 1784SOL    HW1 6251   3.658   6.532   5.444
 1784SOL    HW2 6252   3.736   6.450   5.326
 1785SOL     OW 6253   6.460   4.472   1.895
 1785SOL    HW1 6254   6.408   4.492   1.978
 1785SOL    HW2 6255   6.422   4.391   1.851
 1786SOL     OW 6256   3.909   2.455   1.188
 1786SOL    HW1 6257   3.830   2.486   1.134
 1786SOL    HW2 6258   3.979   2.418   1.127
 1787SOL     OW 6259   3.707   0.691   5.821
 1787SOL    HW1 6260   3.663   0.756   5.759
 1787SOL    HW2 6261   3.653   0.682   5.904
 1788SOL     OW 6262   1.958   4.487   5.909
 1788SOL    HW1 6263   1.940   4.584   5.892
 1788SOL    HW2 6264   1.992   4.444   5.826
 1789SOL     OW 6265   5.824   0.429   0.524
 1789SOL    HW1 6266   5.746   0.373   0.552
 1789SOL    HW2 6267   5.909   0.379   0.542
 1790SOL     OW 6268   3.464   6.865   2.947
 1790SOL    HW1 6269   3.523   6.870   2.866
 1790SOL    HW2 6270   3.455   6.769   2.975
 1791SOL     OW 6271   0.114   6.722   2.639
 1791SOL    HW1 6272   0.073   6.672   2.716
 1791SOL    HW2 6273   0.208   6.747   2.662
 1792SOL     OW 6274   1.086   4.107   5.340
 1792SOL    HW1 6275   1.090   4.188   5.398
 1792SOL    HW2 6276   1.121   4.028   5.390
 1793SOL     OW 6277   0.514   0.636   3.922
 1793SOL    HW1 6278   0.604   0.674   3.942
 1793SOL    HW2 6279   0.455   0.706   3.883
 1794SOL     OW 6280   4.622   6.258   6.280
 1794SOL    HW1 6281   4.697   6.229   6.221
 1794SOL    HW2 6282   4.569   6.329   6.233
 1795SOL     OW 6283   0.466   3.120   0.063
 1795SOL    HW1 6284   0.386   3.168   0.099
 1795SOL    HW2 6285   0.508   3.066   0.136
 1796SOL     OW 6286   3.509   0.358   6.668
 1796SOL    HW1 6287   3.455   0.282   6.631
 1796SOL    HW2 6288   3.606   0.338   6.656
 1797SOL     OW 6289   0.538   0.222   0.494
 1797SOL    HW1 6290   0.566   0.315   0.519
 1797SOL    HW2 6291   0.564   0.204   0.399
 1798SOL     OW 6292   5.986   2.680   3.318
 1798SOL    HW1 6293   6.026   2.772   3.322
 1798SOL    HW2 6294   5.886   2.688   3.321
 1799SOL     OW 6295   2.098   1.611   6.523
 1799SOL    HW1 6296   2.052   1.582   6.606
 1799SOL    HW2 6297   2.054   1.694   6.487
 1800SOL     OW 6298   4.180   5.062   2.388
 1800SOL    HW1 6299   4.272   5.082   2.421
 1800SOL    HW2 6300   4.177   4.969   2.352
 1801SOL     OW 6301   5.555   6.922   0.939
 1801SOL    HW1 6302   5.519   6.831   0.918
 1801SOL    HW2 6303   5.636   6.940   0.883
 1802SOL     OW 6304   5.312   5.118   4.118
 1802SOL    HW1 6305   5.412   5.109   4.121
 1802SOL    HW2 6306   5.288   5.215   4.119
 1803SOL     OW 6307   5.928   5.778   0.959
 1803SOL    HW1 6308   5.989   5.849   0.994
 1803SOL    HW2 6309   5.912   5.709   1.029
 1804SOL     OW 6310   3.460   3.200   5.961
 1804SOL    HW1 6311   3.417   3.255   5.890
 1804SOL    HW2 6312   3.390   3.148   6.010
 1805SOL     OW 6313   5.035   2.791   6.805
 1805SOL    HW1 6314   5.075   2.870   6.850
 1805SOL    HW2 6315   4.955   2.819   6.752
 1806SOL     OW 6316   0.431   0.340   1.147
 1806SOL    HW1 6317   0.490   0.280   1.202
 1806SOL    HW2 6318   0.346   0.358   1.197
 1807SOL     OW 6319   5.332   1.663   5.516
 1807SOL    HW1 6320   5.249   1.618   5.548
 1807SOL    HW2 6321   5.386   1.693   5.595
 1808SOL     OW 6322   2.137   4.558   4.138
 1808SOL    HW1 6323   2.192   4.519   4.212
 1808SOL    HW2 6324   2.072   4.490   4.105
 1809SOL     OW 6325   3.190   7.014   6.334
 1809SOL    HW1 6326   3.127   0.060   6.298
 1809SOL    HW2 6327   3.284   0.017   6.312
 1810SOL     OW 6328   3.424   5.948   2.712
 1810SOL    HW1 6329   3.512   5.978   2.676
 1810SOL    HW2 6330   3.438   5.898   2.798
 1811SOL     OW 6331   6.171   5.432   2.276
 1811SOL    HW1 6332   6.172   5.364   2.203
 1811SOL    HW2 6333   6.233   5.507   2.253
 1812SOL     OW 6334   4.239   5.031   6.492
 1812SOL    HW1 6335   4.154   5.047   6.442
 1812SOL    HW2 6336   4.293   5.116   6.493
 1813SOL     OW 6337   6.337   4.964   5.517
 1813SOL    HW1 6338   6.375   4.964   5.425
 1813SOL    HW2 6339   6.406   4.932   5.582
 1814SOL     OW 6340   5.005   6.527   2.393
 1814SOL    HW1 6341   4.958   6.459   2.337
 1814SOL    HW2 6342   5.102   6.506   2.396
 1815SOL     OW 6343   7.015   1.170   2.723
 1815SOL    HW1 6344   6.935   1.224   2.746
 1815SOL    HW2 6345   0.025   1.195   2.632
 1816SOL     OW 6346   0.835   4.132   0.061
 1816SOL    HW1 6347   0.855   4.040   0.094
 1816SOL    HW2 6348   0.870   4.142   6.991
 1817SOL     OW 6349   1.554   5.352   1.953
 1817SOL    HW1 6350   1.603   5.302   1.882
 1817SOL    HW2 6351   1.469   5.389   1.915
 1818SOL     OW 6352   2.578   1.328   3.077
 1818SOL    HW1 6353   2.597   1.326   2.979
 1818SOL    HW2 6354   2.598   1.419   3.113
 1819SOL     OW 6355   1.579   4.366   2.172
 1819SOL    HW1 6356   1.528   4.304   2.231
 1819SOL    HW2 6357   1.639   4.313   2.112
 1820SOL     OW 6358   5.525   0.349   2.710
 1820SOL    HW1 6359   5.428   0.328   2.701
 1820SOL    HW2 6360   5.543   0.385   2.802
 1821SOL     OW 6361   2.164   1.379   3.195
 1821SOL    HW1 6362   2.108   1.451   3.153
 1821SOL    HW2 6363   2.213   1.329   3.123
 1822SOL     OW 6364   3.567   3.561   1.538
 1822SOL    HW1 6365   3.636   3.631   1.559
 1822SOL    HW2 6366   3.541   3.567   1.442
 1823SOL     OW 6367   4.160   0.112   2.421
 1823SOL    HW1 6368   4.203   0.053   2.353
 1823SOL    HW2 6369   4.197   0.204   2.415
 1824SOL     OW 6370   5.231   2.711   1.620
 1824SOL    HW1 6371   5.307   2.775   1.607
 1824SOL    HW2 6372   5.232   2.677   1.714
 1825SOL     OW 6373   1.501   1.039   1.251
 1825SOL    HW1 6374   1.526   1.136   1.247
 1825SOL    HW2 6375   1.414   1.025   1.205
 1826SOL     OW 6376   3.203   6.317   6.364
 1826SOL    HW1 6377   3.136   6.291   6.294
 1826SOL    HW2 6378   3.223   6.239   6.422
 1827SOL     OW 6379   6.228   6.929   1.615
 1827SOL    HW1 6380   6.239   6.922   1.714
 1827SOL    HW2 6381   6.134   6.906   1.590
 1828SOL     OW 6382   1.801   2.062   0.333
 1828SOL    HW1 6383   1.735   2.134   0.355
 1828SOL    HW2 6384   1.787   1.984   0.394
 1829SOL     OW 6385   6.220   5.401   1.065
 1829SOL    HW1 6386   6.177   5.369   0.981
 1829SOL    HW2 6387   6.149   5.418   1.134
 1830SOL     OW 6388   5.592   6.306   3.691
 1830SOL    HW1 6389   5.548   6.365   3.759
 1830SOL    HW2 6390   5.690   6.323   3.691
 1831SOL     OW 6391   5.047   0.846   3.320
 1831SOL    HW1 6392   5.116   0.800   3.263
 1831SOL    HW2 6393   5.079   0.938   3.343
 1832SOL     OW 6394   5.389   2.566   0.598
 1832SOL    HW1 6395   5.450   2.605   0.667
 1832SOL    HW2 6396   5.297   2.554   0.637
 1833SOL     OW 6397   6.088   1.848   5.700
 1833SOL    HW1 6398   6.045   1.904   5.771
 1833SOL    HW2 6399   6.034   1.854   5.616
 1834SOL     OW 6400   2.763   3.498   0.709
 1834SOL    HW1 6401   2.800   3.491   0.616
 1834SOL    HW2 6402   2.831   3.542   0.768
 1835SOL     OW 6403   1.359   4.471   0.176
 1835SOL    HW1 6404   1.274   4.473   0.124
 1835SOL    HW2 6405   1.342   4.433   0.267
 1836SOL     OW 6406   0.423   6.170   0.613
 1836SOL    HW1 6407   0.334   6.123   0.616
 1836SOL    HW2 6408   0.443   6.208   0.704
 1837SOL     OW 6409   1.242   2.595   4.731
 1837SOL    HW1 6410   1.189   2.591   4.815
 1837SOL    HW2 6411   1.298   2.513   4.722
 1838SOL     OW 6412   0.387   2.743   3.897
 1838SOL    HW1 6413   0.473   2.742   3.846
 1838SOL    HW2 6414   0.397   2.801   3.977
 1839SOL     OW 6415   6.999   2.179   6.106
 1839SOL    HW1 6416   7.022   2.135   6.193
 1839SOL    HW2 6417   0.050   2.165   6.040
 1840SOL     OW 6418   1.474   4.998   0.445
 1840SOL    HW1 6419   1.443   4.976   0.538
 1840SOL    HW2 6420   1.459   5.095   0.427
 1841SOL     OW 6421   1.642   3.111   3.148
 1841SOL    HW1 6422   1.637   3.058   3.233
 1841SOL    HW2 6423   1.552   3.113   3.104
 1842SOL     OW 6424   1.172   4.723   6.913
 1842SOL    HW1 6425   1.156   4.764   7.003
 1842SOL    HW2 6426   1.238   4.780   6.863
 1843SOL     OW 6427   3.457   2.094   4.683
 1843SOL    HW1 6428   3.388   2.129   4.621
 1843SOL    HW2 6429   3.415   2.074   4.772
 1844SOL     OW 6430   5.264   3.742   3.653
 1844SOL    HW1 6431   5.268   3.752   3.753
 1844SOL    HW2 6432   5.220   3.823   3.614
 1845SOL     OW 6433   4.050   0.250   0.057
 1845SOL    HW1 6434   4.098   0.264   6.993
 1845SOL    HW2 6435   4.060   0.155   0.086
 1846SOL     OW 6436   3.287   1.226   5.527
 1846SOL    HW1 6437   3.296   1.151   5.461
 1846SOL    HW2 6438   3.265   1.311   5.478
 1847SOL     OW 6439   1.566   0.048   0.337
 1847SOL    HW1 6440   1.528   0.022   0.425
 1847SOL    HW2 6441   1.493   0.088   0.280
 1848SOL     OW 6442   3.286   7.017   2.335
 1848SOL    HW1 6443   3.356   6.945   2.334
 1848SOL    HW2 6444   3.328   0.080   2.366
 1849SOL     OW 6445   2.827   1.203   6.388
 1849SOL    HW1 6446   2.732   1.187   6.415
 1849SOL    HW2 6447   2.834   1.201   6.288
 1850SOL     OW 6448   5.440   1.454   1.951
 1850SOL    HW1 6449   5.511   1.418   2.011
 1850SOL    HW2 6450   5.479   1.524   1.891
 1851SOL     OW 6451   6.609   3.484   3.396
 1851SOL    HW1 6452   6.581   3.403   3.447
 1851SOL    HW2 6453   6.639   3.555   3.460
 1852SOL     OW 6454   5.374   3.338   6.952
 1852SOL    HW1 6455   5.304   3.305   6.888
 1852SOL    HW2 6456   5.463   3.339   6.907
 1853SOL     OW 6457   1.756   4.612   0.550
 1853SOL    HW1 6458   1.818   4.683   0.583
 1853SOL    HW2 6459   1.808   4.545   0.497
 1854SOL     OW 6460   3.233   5.498   3.828
 1854SOL    HW1 6461   3.197   5.449   3.749
 1854SOL    HW2 6462   3.173   5.576   3.849
 1855SOL     OW 6463   5.374   4.630   1.775
 1855SOL    HW1 6464   5.469   4.662   1.784
 1855SOL    HW2 6465   5.313   4.697   1.817
 1856SOL     OW 6466   4.764   2.614   6.054
 1856SOL    HW1 6467   4.839   2.556   6.024
 1856SOL    HW2 6468   4.687   2.606   5.991
 1857SOL     OW 6469   4.449   1.491   3.743
 1857SOL    HW1 6470   4.485   1.580   3.713
 1857SOL    HW2 6471   4.432   1.434   3.662
 1858SOL     OW 6472   5.016   4.086   3.281
 1858SOL    HW1 6473   4.921   4.101   3.311
 1858SOL    HW2 6474   5.069   4.169   3.293
 1859SOL     OW 6475   5.469   1.371   3.498
 1859SOL    HW1 6476   5.543   1.429   3.464
 1859SOL    HW2 6477   5.381   1.416   3.481
 1860SOL     OW 6478   4.517   1.772   5.042
 1860SOL    HW1 6479   4.471   1.768   5.130
 1860SOL    HW2 6480   4.449   1.790   4.970
 1861SOL     OW 6481   5.741   6.314   2.058
 1861SOL    HW1 6482   5.748   6.414   2.059
 1861SOL    HW2 6483   5.687   6.286   1.978
 1862SOL     OW 6484   1.754   1.866   0.504
 1862SOL    HW1 6485   1.679   1.832   0.559
 1862SOL    HW2 6486   1.816   1.791   0.480
 1863SOL     OW 6487   2.469   2.688   1.548
 1863SOL    HW1 6488   2.464   2.595   1.513
 1863SOL    HW2 6489   2.538   2.694   1.620
 1864SOL     OW 6490   0.944   6.657   4.171
 1864SOL    HW1 6491   0.900   6.576   4.131
 1864SOL    HW2 6492   0.885   6.737   4.159
 1865SOL     OW 6493   5.098   1.819   6.780
 1865SOL    HW1 6494   5.006   1.847   6.752
 1865SOL    HW2 6495   5.164   1.891   6.755
 1866SOL     OW 6496   5.208   5.180   2.694
 1866SOL    HW1 6497   5.148   5.250   2.735
 1866SOL    HW2 6498   5.283   5.160   2.756
 1867SOL     OW 6499   0.987   4.813   6.375
 1867SOL    HW1 6500   1.012   4.906   6.350
 1867SOL    HW2 6501   0.936   4.771   6.300
 1868SOL     OW 6502   6.172   4.291   5.501
 1868SOL    HW1 6503   6.129   4.382   5.508
 1868SOL    HW2 6504   6.115   4.232   5.444
 1869SOL     OW 6505   6.320   1.609   4.689
 1869SOL    HW1 6506   6.339   1.522   4.733
 1869SOL    HW2 6507   6.221   1.627   4.692
 1870SOL     OW 6508   2.276   4.419   4.398
 1870SOL    HW1 6509   2.292   4.370   4.484
 1870SOL    HW2 6510   2.202   4.485   4.412
 1871SOL     OW 6511   1.304   0.091   0.830
 1871SOL    HW1 6512   1.230   0.132   0.883
 1871SOL    HW2 6513   1.392   0.115   0.871
 1872SOL     OW 6514   2.437   4.957   0.202
 1872SOL    HW1 6515   2.494   4.879   0.180
 1872SOL    HW2 6516   2.476   5.007   0.279
 1873SOL     OW 6517   4.714   1.120   0.563
 1873SOL    HW1 6518   4.796   1.137   0.618
 1873SOL    HW2 6519   4.737   1.124   0.466
 1874SOL     OW 6520   1.291   3.432   2.670
 1874SOL    HW1 6521   1.266   3.521   2.708
 1874SOL    HW2 6522   1.214   3.369   2.680
 1875SOL     OW 6523   1.036   6.850   0.817
 1875SOL    HW1 6524   1.107   6.911   0.783
 1875SOL    HW2 6525   1.040   6.763   0.768
 1876SOL     OW 6526   2.124   7.007   4.815
 1876SOL    HW1 6527   2.116   6.926   4.873
 1876SOL    HW2 6528   2.042   0.040   4.823
 1877SOL     OW 6529   0.174   6.736   3.664
 1877SOL    HW1 6530   0.202   6.752   3.569
 1877SOL    HW2 6531   0.253   6.708   3.718
 1878SOL     OW 6532   5.623   2.352   5.867
 1878SOL    HW1 6533   5.668   2.288   5.929
 1878SOL    HW2 6534   5.553   2.304   5.815
 1879SOL     OW 6535   1.506   4.746   5.532
 1879SOL    HW1 6536   1.474   4.785   5.446
 1879SOL    HW2 6537   1.594   4.701   5.517
 1880SOL     OW 6538   6.291   0.478   5.271
 1880SOL    HW1 6539   6.390   0.462   5.274
 1880SOL    HW2 6540   6.254   0.474   5.364
 1881SOL     OW 6541   6.846   2.294   6.935
 1881SOL    HW1 6542   6.841   2.381   6.983
 1881SOL    HW2 6543   6.894   2.306   6.848
 1882SOL     OW 6544   1.184   6.092   6.460
 1882SOL    HW1 6545   1.129   6.141   6.528
 1882SOL    HW2 6546   1.148   6.000   6.449
 1883SOL     OW 6547   0.052   2.118   4.121
 1883SOL    HW1 6548   7.018   2.188   4.164
 1883SOL    HW2 6549   0.116   2.162   4.057
 1884SOL     OW 6550   0.205   2.862   1.051
 1884SOL    HW1 6551   0.250   2.880   0.964
 1884SOL    HW2 6552   0.112   2.828   1.034
 1885SOL     OW 6553   1.876   1.451   4.776
 1885SOL    HW1 6554   1.920   1.532   4.814
 1885SOL    HW2 6555   1.945   1.389   4.741
 1886SOL     OW 6556   1.015   6.663   3.178
 1886SOL    HW1 6557   1.069   6.580   3.190
 1886SOL    HW2 6558   1.007   6.710   3.266
 1887SOL     OW 6559   2.415   6.479   5.931
 1887SOL    HW1 6560   2.458   6.398   5.891
 1887SOL    HW2 6561   2.319   6.483   5.904
 1888SOL     OW 6562   2.913   1.033   2.989
 1888SOL    HW1 6563   2.962   1.116   2.963
 1888SOL    HW2 6564   2.832   1.057   3.042
 1889SOL     OW 6565   0.251   3.458   2.902
 1889SOL    HW1 6566   0.320   3.530   2.908
 1889SOL    HW2 6567   0.175   3.479   2.963
 1890SOL     OW 6568   0.772   6.028   4.545
 1890SOL    HW1 6569   0.822   6.079   4.615
 1890SOL    HW2 6570   0.774   5.931   4.566
 1891SOL     OW 6571   3.505   3.115   3.675
 1891SOL    HW1 6572   3.536   3.089   3.583
 1891SOL    HW2 6573   3.467   3.035   3.721
 1892SOL     OW 6574   0.879   0.773   2.475
 1892SOL    HW1 6575   0.815   0.820   2.414
 1892SOL    HW2 6576   0.848   0.783   2.570
 1893SOL     OW 6577   3.633   3.285   4.347
 1893SOL    HW1 6578   3.579   3.203   4.327
 1893SOL    HW2 6579   3.722   3.258   4.381
 1894SOL     OW 6580   3.155   3.138   4.568
 1894SOL    HW1 6581   3.225   3.209   4.571
 1894SOL    HW2 6582   3.069   3.177   4.534
 1895SOL     OW 6583   1.826   6.360   0.073
 1895SOL    HW1 6584   1.870   6.390   0.157
 1895SOL    HW2 6585   1.729   6.342   0.091
 1896SOL     OW 6586   5.353   2.988   0.962
 1896SOL    HW1 6587   5.433   3.047   0.964
 1896SOL    HW2 6588   5.271   3.041   0.986
 1897SOL     OW 6589   1.659   4.137   4.614
 1897SOL    HW1 6590   1.586   4.147   4.547
 1897SOL    HW2 6591   1.621   4.105   4.701
 1898SOL     OW 6592   1.744   6.374   3.295
 1898SOL    HW1 6593   1.840   6.345   3.292
 1898SOL    HW2 6594   1.734   6.447   3.361
 1899SOL     OW 6595   0.067   0.817   2.281
 1899SOL    HW1 6596   6.991   0.836   2.279
 1899SOL    HW2 6597   0.109   0.863   2.359
 1900SOL     OW 6598   2.545   6.301   0.048
 1900SOL    HW1 6599   2.608   6.233   0.010
 1900SOL    HW2 6600   2.575   6.393   0.022
 1901SOL     OW 6601   2.972   3.562   1.750
 1901SOL    HW1 6602   2.974   3.498   1.673
 1901SOL    HW2 6603   2.911   3.526   1.821
 1902SOL     OW 6604   1.313   0.450   4.065
 1902SOL    HW1 6605   1.319   0.351   4.076
 1902SOL    HW2 6606   1.219   0.476   4.043
 1903SOL     OW 6607   1.199   2.435   3.933
 1903SOL    HW1 6608   1.207   2.414   4.030
 1903SOL    HW2 6609   1.290   2.437   3.892
 1904SOL     OW 6610   5.940   5.676   1.574
 1904SOL    HW1 6611   5.890   5.705   1.655
 1904SOL    HW2 6612   5.915   5.734   1.496
 1905SOL     OW 6613   0.725   1.732   4.106
 1905SOL    HW1 6614   0.762   1.799   4.170
 1905SOL    HW2 6615   0.713   1.644   4.152
 1906SOL     OW 6616   1.450   6.929   4.918
 1906SOL    HW1 6617   1.408   6.962   5.002
 1906SOL    HW2 6618   1.379   6.893   4.857
 1907SOL     OW 6619   5.367   2.772   0.403
 1907SOL    HW1 6620   5.337   2.696   0.461
 1907SOL    HW2 6621   5.310   2.777   0.321
 1908SOL     OW 6622   3.164   1.145   1.070
 1908SOL    HW1 6623   3.202   1.056   1.043
 1908SOL    HW2 6624   3.197   1.169   1.161
 1909SOL     OW 6625   6.561   4.822   4.586
 1909SOL    HW1 6626   6.586   4.725   4.585
 1909SOL    HW2 6627   6.471   4.834   4.544
 1910SOL     OW 6628   0.794   5.870   5.600
 1910SOL    HW1 6629   0.840   5.908   5.519
 1910SOL    HW2 6630   0.863   5.840   5.666
 1911SOL     OW 6631   6.376   5.379   4.207
 1911SOL    HW1 6632   6.382   5.453   4.141
 1911SOL    HW2 6633   6.322   5.304   4.168
 1912SOL     OW 6634   3.361   4.876   1.963
 1912SOL    HW1 6635   3.386   4.805   1.897
 1912SOL    HW2 6636   3.262   4.871   1.981
 1913SOL     OW 6637   4.073   4.221   6.790
 1913SOL    HW1 6638   4.100   4.194   6.883
 1913SOL    HW2 6639   4.108   4.312   6.770
 1914SOL     OW 6640   2.935   4.640   6.502
 1914SOL    HW1 6641   2.874   4.561   6.508
 1914SOL    HW2 6642   2.881   4.721   6.478
 1915SOL     OW 6643   3.732   2.695   5.908
 1915SOL    HW1 6644   3.684   2.609   5.893
 1915SOL    HW2 6645   3.740   2.712   6.006
 1916SOL     OW 6646   3.935   0.977   2.971
 1916SOL    HW1 6647   3.988   0.929   3.041
 1916SOL    HW2 6648   3.902   1.064   3.009
 1917SOL     OW 6649   1.849   4.135   1.380
 1917SOL    HW1 6650   1.896   4.168   1.299
 1917SOL    HW2 6651   1.911   4.136   1.458
 1918SOL     OW 6652   5.592   2.621   3.796
 1918SOL    HW1 6653   5.679   2.582   3.826
 1918SOL    HW2 6654   5.520   2.597   3.862
 1919SOL     OW 6655   6.896   2.716   6.821
 1919SOL    HW1 6656   6.993   2.690   6.823
 1919SOL    HW2 6657   6.888   2.813   6.797
 1920SOL     OW 6658   4.664   3.047   1.111
 1920SOL    HW1 6659   4.687   3.032   1.207
 1920SOL    HW2 6660   4.722   3.119   1.074
 1921SOL     OW 6661   2.297   2.397   0.065
 1921SOL    HW1 6662   2.261   2.348   0.144
 1921SOL    HW2 6663   2.302   2.495   0.086
 1922SOL     OW 6664   3.279   2.937   2.771
 1922SOL    HW1 6665   3.235   2.891   2.849
 1922SOL    HW2 6666   3.254   3.034   2.771
 1923SOL     OW 6667   3.442   1.206   4.407
 1923SOL    HW1 6668   3.459   1.159   4.321
 1923SOL    HW2 6669   3.381   1.150   4.464
 1924SOL     OW 6670   4.664   1.192   0.234
 1924SOL    HW1 6671   4.719   1.115   0.266
 1924SOL    HW2 6672   4.709   1.277   0.259
 1925SOL     OW 6673   1.512   3.297   1.177
 1925SOL    HW1 6674   1.548   3.333   1.091
 1925SOL    HW2 6675   1.412   3.302   1.177
 1926SOL     OW 6676   3.993   0.358   1.976
 1926SOL    HW1 6677   4.039   0.425   2.034
 1926SOL    HW2 6678   3.919   0.401   1.926
 1927SOL     OW 6679   2.020   4.959   1.085
 1927SOL    HW1 6680   2.057   5.026   1.021
 1927SOL    HW2 6681   2.090   4.890   1.105
 1928SOL     OW 6682   5.506   4.258   3.023
 1928SOL    HW1 6683   5.481   4.179   2.966
 1928SOL    HW2 6684   5.584   4.234   3.081
 1929SOL     OW 6685   3.175   6.885   2.993
 1929SOL    HW1 6686   3.165   6.837   2.906
 1929SOL    HW2 6687   3.269   6.918   3.001
 1930SOL     OW 6688   3.868   3.233   0.258
 1930SOL    HW1 6689   3.814   3.156   0.292
 1930SOL    HW2 6690   3.890   3.295   0.333
 1931SOL     OW 6691   6.823   2.208   4.340
 1931SOL    HW1 6692   6.796   2.176   4.249
 1931SOL    HW2 6693   6.866   2.298   4.332
 1932SOL     OW 6694   4.835   1.956   2.288
 1932SOL    HW1 6695   4.827   1.859   2.264
 1932SOL    HW2 6696   4.743   1.997   2.289
 1933SOL     OW 6697   1.172   0.699   1.240
 1933SOL    HW1 6698   1.268   0.679   1.257
 1933SOL    HW2 6699   1.121   0.694   1.325
 1934SOL     OW 6700   6.939   0.608   6.499
 1934SOL    HW1 6701   6.918   0.701   6.472
 1934SOL    HW2 6702   6.866   0.573   6.559
 1935SOL     OW 6703   6.048   5.019   3.433
 1935SOL    HW1 6704   6.125   4.978   3.383
 1935SOL    HW2 6705   6.002   4.949   3.487
 1936SOL     OW 6706   4.722   2.868   6.188
 1936SOL    HW1 6707   4.651   2.900   6.125
 1936SOL    HW2 6708   4.740   2.771   6.172
 1937SOL     OW 6709   6.108   5.014   6.905
 1937SOL    HW1 6710   6.203   4.982   6.906
 1937SOL    HW2 6711   6.055   4.964   6.973
 1938SOL     OW 6712   6.420   3.020   6.925
 1938SOL    HW1 6713   6.387   3.082   6.997
 1938SOL    HW2 6714   6.423   2.927   6.960
 1939SOL     OW 6715   0.962   0.612   4.781
 1939SOL    HW1 6716   0.907   0.539   4.825
 1939SOL    HW2 6717   0.900   0.678   4.739
 1940SOL     OW 6718   0.354   5.073   0.790
 1940SOL    HW1 6719   0.287   5.048   0.860
 1940SOL    HW2 6720   0.341   5.169   0.765
 1941SOL     OW 6721   5.409   1.783   4.843
 1941SOL    HW1 6722   5.339   1.712   4.853
 1941SOL    HW2 6723   5.375   1.854   4.781
 1942SOL     OW 6724   6.695   4.550   1.773
 1942SOL    HW1 6725   6.604   4.522   1.804
 1942SOL    HW2 6726   6.697   4.548   1.673
 1943SOL     OW 6727   1.199   2.685   3.372
 1943SOL    HW1 6728   1.250   2.771   3.376
 1943SOL    HW2 6729   1.252   2.612   3.416
 1944SOL     OW 6730   0.492   3.438   3.671
 1944SOL    HW1 6731   0.590   3.457   3.674
 1944SOL    HW2 6732   0.460   3.440   3.576
 1945SOL     OW 6733   5.209   1.224   2.109
 1945SOL    HW1 6734   5.196   1.257   2.015
 1945SOL    HW2 6735   5.206   1.124   2.111
 1946SOL     OW 6736   6.612   6.387   0.773
 1946SOL    HW1 6737   6.568   6.303   0.739
 1946SOL    HW2 6738   6.711   6.373   0.778
 1947SOL     OW 6739   6.113   5.329   3.008
 1947SOL    HW1 6740   6.071   5.379   3.083
 1947SOL    HW2 6741   6.058   5.340   2.925
 1948SOL     OW 6742   5.186   3.272   3.516
 1948SOL    HW1 6743   5.155   3.297   3.608
 1948SOL    HW2 6744   5.261   3.205   3.524
 1949SOL     OW 6745   3.538   4.441   6.591
 1949SOL    HW1 6746   3.589   4.441   6.678
 1949SOL    HW2 6747   3.545   4.350   6.549
 1950SOL     OW 6748   3.880   3.993   3.174
 1950SOL    HW1 6749   3.854   3.989   3.270
 1950SOL    HW2 6750   3.973   3.957   3.163
 1951SOL     OW 6751   6.005   5.289   6.097
 1951SOL    HW1 6752   6.054   5.216   6.144
 1951SOL    HW2 6753   5.970   5.355   6.164
 1952SOL     OW 6754   5.863   5.633   0.115
 1952SOL    HW1 6755   5.829   5.558   0.057
 1952SOL    HW2 6756   5.822   5.719   0.086
 1953SOL     OW 6757   1.345   1.251   6.629
 1953SOL    HW1 6758   1.383   1.172   6.678
 1953SOL    HW2 6759   1.409   1.279   6.557
 1954SOL     OW 6760   4.383   6.757   1.769
 1954SOL    HW1 6761   4.429   6.674   1.800
 1954SOL    HW2 6762   4.434   6.798   1.693
 1955SOL     OW 6763   0.246   2.545   4.028
 1955SOL    HW1 6764   0.270   2.610   3.956
 1955SOL    HW2 6765   0.276   2.580   4.117
 1956SOL     OW 6766   5.439   0.852   1.703
 1956SOL    HW1 6767   5.431   0.783   1.632
 1956SOL    HW2 6768   5.491   0.815   1.780
 1957SOL     OW 6769   6.524   2.499   4.104
 1957SOL    HW1 6770   6.492   2.407   4.080
 1957SOL    HW2 6771   6.492   2.564   4.035
 1958SOL     OW 6772   3.781   1.511   0.783
 1958SOL    HW1 6773   3.866   1.524   0.834
 1958SOL    HW2 6774   3.794   1.540   0.688
 1959SOL     OW 6775   1.079   2.535   5.273
 1959SOL    HW1 6776   1.135   2.592   5.332
 1959SOL    HW2 6777   0.984   2.536   5.305
 1960SOL     OW 6778   5.985   4.084   3.842
 1960SOL    HW1 6779   6.054   4.048   3.779
 1960SOL    HW2 6780   5.962   4.014   3.910
 1961SOL     OW 6781   0.371   3.832   3.791
 1961SOL    HW1 6782   0.371   3.862   3.696
 1961SOL    HW2 6783   0.300   3.763   3.805
 1962SOL     OW 6784   0.931   0.657   2.140
 1962SOL    HW1 6785   1.016   0.668   2.089
 1962SOL    HW2 6786   0.921   0.732   2.205
 1963SOL     OW 6787   0.656   2.622   6.835
 1963SOL    HW1 6788   0.673   2.525   6.853
 1963SOL    HW2 6789   0.706   2.677   6.903
 1964SOL     OW 6790   5.559   3.665   0.629
 1964SOL    HW1 6791   5.643   3.616   0.604
 1964SOL    HW2 6792   5.539   3.735   0.560
 1965SOL     OW 6793   6.196   3.987   3.681
 1965SOL    HW1 6794   6.190   4.044   3.599
 1965SOL    HW2 6795   6.260   4.028   3.745
 1966SOL     OW 6796   1.373   4.340   6.822
 1966SOL    HW1 6797   1.366   4.431   6.863
 1966SOL    HW2 6798   1.401   4.275   6.892
 1967SOL     OW 6799   6.137   3.395   5.013
 1967SOL    HW1 6800   6.200   3.450   4.958
 1967SOL    HW2 6801   6.065   3.454   5.050
 1968SOL     OW 6802   2.983   1.402   5.682
 1968SOL    HW1 6803   2.932   1.460   5.744
 1968SOL    HW2 6804   3.039   1.337   5.734
 1969SOL     OW 6805   1.824   5.758   0.859
 1969SOL    HW1 6806   1.812   5.795   0.767
 1969SOL    HW2 6807   1.822   5.832   0.926
 1970SOL     OW 6808   5.620   5.151   4.079
 1970SOL    HW1 6809   5.630   5.078   4.147
 1970SOL    HW2 6810   5.695   5.216   4.089
 1971SOL     OW 6811   1.673   4.621   4.708
 1971SOL    HW1 6812   1.669   4.626   4.608
 1971SOL    HW2 6813   1.691   4.527   4.736
 1972SOL     OW 6814   6.309   2.456   2.488
 1972SOL    HW1 6815   6.338   2.536   2.541
 1972SOL    HW2 6816   6.256   2.395   2.547
 1973SOL     OW 6817   3.200   2.196   1.106
 1973SOL    HW1 6818   3.122   2.240   1.061
 1973SOL    HW2 6819   3.259   2.155   1.037
 1974SOL     OW 6820   2.479   6.854   4.976
 1974SOL    HW1 6821   2.411   6.780   4.969
 1974SOL    HW2 6822   2.439   6.931   5.027
 1975SOL     OW 6823   1.928   3.069   3.107
 1975SOL    HW1 6824   1.976   3.114   3.183
 1975SOL    HW2 6825   1.830   3.065   3.127
 1976SOL     OW 6826   1.065   0.859   5.465
 1976SOL    HW1 6827   0.968   0.837   5.469
 1976SOL    HW2 6828   1.114   0.807   5.536
 1977SOL     OW 6829   2.025   4.163   6.502
 1977SOL    HW1 6830   1.943   4.185   6.555
 1977SOL    HW2 6831   2.073   4.087   6.546
 1978SOL     OW 6832   3.152   0.437   2.495
 1978SOL    HW1 6833   3.093   0.368   2.454
 1978SOL    HW2 6834   3.095   0.512   2.530
 1979SOL     OW 6835   6.154   4.459   6.336
 1979SOL    HW1 6836   6.077   4.499   6.385
 1979SOL    HW2 6837   6.132   4.365   6.310
 1980SOL     OW 6838   3.651   0.806   0.827
 1980SOL    HW1 6839   3.704   0.868   0.769
 1980SOL    HW2 6840   3.566   0.782   0.780
 1981SOL     OW 6841   3.810   1.780   2.198
 1981SOL    HW1 6842   3.837   1.875   2.208
 1981SOL    HW2 6843   3.859   1.723   2.264
 1982SOL     OW 6844   1.482   2.919   6.241
 1982SOL    HW1 6845   1.515   2.908   6.147
 1982SOL    HW2 6846   1.558   2.943   6.301
 1983SOL     OW 6847   0.060   1.012   2.033
 1983SOL    HW1 6848   0.046   1.076   2.108
 1983SOL    HW2 6849   7.021   0.934   2.044
 1984SOL     OW 6850   4.485   3.329   5.922
 1984SOL    HW1 6851   4.549   3.268   5.876
 1984SOL    HW2 6852   4.400   3.334   5.869
 1985SOL     OW 6853   6.581   3.846   4.049
 1985SOL    HW1 6854   6.484   3.848   4.025
 1985SOL    HW2 6855   6.633   3.895   3.978
 1986SOL     OW 6856   3.137   3.594   2.195
 1986SOL    HW1 6857   3.221   3.602   2.140
 1986SOL    HW2 6858   3.134   3.503   2.237
 1987SOL     OW 6859   2.305   0.771   1.861
 1987SOL    HW1 6860   2.322   0.724   1.947
 1987SOL    HW2 6861   2.329   0.868   1.871
 1988SOL     OW 6862   0.502   1.454   2.061
 1988SOL    HW1 6863   0.471   1.374   2.113
 1988SOL    HW2 6864   0.597   1.441   2.034
 1989SOL     OW 6865   2.973   5.296   5.059
 1989SOL    HW1 6866   2.875   5.293   5.078
 1989SOL    HW2 6867   3.012   5.381   5.095
 1990SOL     OW 6868   4.055   0.576   6.958
 1990SOL    HW1 6869   4.119   0.522   6.904
 1990SOL    HW2 6870   4.087   0.582   0.029
 1991SOL     OW 6871   2.832   5.282   1.380
 1991SOL    HW1 6872   2.871   5.359   1.432
 1991SOL    HW2 6873   2.733   5.282   1.391
 1992SOL     OW 6874   1.056   6.467   2.775
 1992SOL    HW1 6875   0.998   6.486   2.696
 1992SOL    HW2 6876   1.129   6.404   2.747
 1993SOL     OW 6877   2.109   1.990   2.957
 1993SOL    HW1 6878   2.102   2.088   2.977
 1993SOL    HW2 6879   2.195   1.955   2.993
 1994SOL     OW 6880   3.757   2.813   0.814
 1994SOL    HW1 6881   3.704   2.790   0.895
 1994SOL    HW2 6882   3.791   2.729   0.771
 1995SOL     OW 6883   5.666   1.681   4.055
 1995SOL    HW1 6884   5.666   1.781   4.049
 1995SOL    HW2 6885   5.733   1.652   4.123
 1996SOL     OW 6886   4.523   1.117   0.740
 1996SOL    HW1 6887   4.569   1.089   0.825
 1996SOL    HW2 6888   4.586   1.105   0.663
 1997SOL     OW 6889   3.252   1.370   3.771
 1997SOL    HW1 6890   3.244   1.469   3.787
 1997SOL    HW2 6891   3.348   1.344   3.770
 1998SOL     OW 6892   2.360   3.879   1.650
 1998SOL    HW1 6893   2.363   3.922   1.559
 1998SOL    HW2 6894   2.417   3.931   1.713
 1999SOL     OW 6895   0.813   0.024   6.888
 1999SOL    HW1 6896   0.883   6.980   6.912
 1999SOL    HW2 6897   0.832   0.061   6.797
 2000SOL     OW 6898   4.176   4.242   5.914
 2000SOL    HW1 6899   4.159   4.233   6.012
 2000SOL    HW2 6900   4.244   4.175   5.885
 2001SOL     OW 6901   1.386   2.293   1.375
 2001SOL    HW1 6902   1.442   2.374   1.357
 2001SOL    HW2 6903   1.439   2.211   1.354
 2002SOL     OW 6904   6.950   5.446   1.254
 2002SOL    HW1 6905   6.986   5.362   1.295
 2002SOL    HW2 6906   6.928   5.429   1.158
 2003SOL     OW 6907   5.561   5.103   2.109
 2003SOL    HW1 6908   5.490   5.167   2.077
 2003SOL    HW2 6909   5.562   5.023   2.049
 2004SOL     OW 6910   3.186   6.557   2.950
 2004SOL    HW1 6911   3.213   6.633   2.891
 2004SOL    HW2 6912   3.233   6.474   2.921
 2005SOL     OW 6913   1.457   6.342   0.317
 2005SOL    HW1 6914   1.473   6.371   0.411
 2005SOL    HW2 6915   1.427   6.247   0.316
 2006SOL     OW 6916   5.627   6.676   2.347
 2006SOL    HW1 6917   5.605   6.585   2.312
 2006SOL    HW2 6918   5.554   6.740   2.322
 2007SOL     OW 6919   5.255   4.921   6.077
 2007SOL    HW1 6920   5.187   4.871   6.131
 2007SOL    HW2 6921   5.343   4.875   6.085
 2008SOL     OW 6922   2.072   3.595   3.109
 2008SOL    HW1 6923   2.077   3.663   3.035
 2008SOL    HW2 6924   1.977   3.584   3.138
 2009SOL     OW 6925   6.339   6.856   2.442
 2009SOL    HW1 6926   6.416   6.844   2.380
 2009SOL    HW2 6927   6.254   6.828   2.396
 2010SOL     OW 6928   6.648   2.020   2.003
 2010SOL    HW1 6929   6.664   2.007   2.101
 2010SOL    HW2 6930   6.556   2.056   1.988
 2011SOL     OW 6931   0.596   0.110   4.794
 2011SOL    HW1 6932   0.546   0.089   4.710
 2011SOL    HW2 6933   0.671   0.174   4.773
 2012SOL     OW 6934   0.517   3.048   1.109
 2012SOL    HW1 6935   0.584   3.121   1.119
 2012SOL    HW2 6936   0.425   3.087   1.115
 2013SOL     OW 6937   0.065   2.699   1.963
 2013SOL    HW1 6938   0.073   2.709   1.864
 2013SOL    HW2 6939   7.012   2.637   1.985
 2014SOL     OW 6940   3.971   1.158   4.215
 2014SOL    HW1 6941   4.029   1.220   4.268
 2014SOL    HW2 6942   3.886   1.140   4.265
 2015SOL     OW 6943   4.162   6.739   1.968
 2015SOL    HW1 6944   4.144   6.831   2.001
 2015SOL    HW2 6945   4.214   6.744   1.882
 2016SOL     OW 6946   2.136   0.781   4.400
 2016SOL    HW1 6947   2.225   0.813   4.432
 2016SOL    HW2 6948   2.078   0.760   4.479
 2017SOL     OW 6949   3.464   6.338   3.731
 2017SOL    HW1 6950   3.463   6.437   3.716
 2017SOL    HW2 6951   3.443   6.319   3.827
 2018SOL     OW 6952   0.877   0.547   4.267
 2018SOL    HW1 6953   0.892   0.593   4.179
 2018SOL    HW2 6954   0.791   0.496   4.263
 2019SOL     OW 6955   5.633   5.544   6.547
 2019SOL    HW1 6956   5.720   5.557   6.596
 2019SOL    HW2 6957   5.643   5.577   6.453
 2020SOL     OW 6958   1.858   6.876   0.386
 2020SOL    HW1 6959   1.929   6.812   0.358
 2020SOL    HW2 6960   1.770   6.829   0.388
 2021SOL     OW 6961   0.130   5.991   4.325
 2021SOL    HW1 6962   0.062   5.958   4.390
 2021SOL    HW2 6963   0.169   6.077   4.358
 2022SOL     OW 6964   1.864   3.412   4.373
 2022SOL    HW1 6965   1.956   3.416   4.411
 2022SOL    HW2 6966   1.798   3.402   4.447
 2023SOL     OW 6967   6.565   6.093   6.305
 2023SOL    HW1 6968   6.564   6.072   6.207
 2023SOL    HW2 6969   6.553   6.008   6.357
 2024SOL     OW 6970   0.255   5.478   3.849
 2024SOL    HW1 6971   0.196   5.458   3.770
 2024SOL    HW2 6972   0.293   5.393   3.884
 2025SOL     OW 6973   1.880   6.115   4.700
 2025SOL    HW1 6974   1.957   6.054   4.683
 2025SOL    HW2 6975   1.795   6.069   4.675
 2026SOL     OW 6976   6.834   0.590   6.017
 2026SOL    HW1 6977   6.828   0.641   6.103
 2026SOL    HW2 6978   6.830   0.492   6.037
 2027SOL     OW 6979   0.134   6.289   2.208
 2027SOL    HW1 6980   0.175   6.375   2.178
 2027SOL    HW2 6981   0.135   6.285   2.308
 2028SOL     OW 6982   3.074   5.403   4.517
 2028SOL    HW1 6983   3.099   5.374   4.609
 2028SOL    HW2 6984   3.138   5.365   4.451
 2029SOL     OW 6985   6.122   2.754   6.584
 2029SOL    HW1 6986   6.085   2.774   6.494
 2029SOL    HW2 6987   6.101   2.830   6.646
 2030SOL     OW 6988   2.566   6.842   2.473
 2030SOL    HW1 6989   2.590   6.886   2.386
 2030SOL    HW2 6990   2.632   6.769   2.493
 2031SOL     OW 6991   0.857   6.227   4.741
 2031SOL    HW1 6992   0.952   6.257   4.756
 2031SOL    HW2 6993   0.814   6.287   4.674
 2032SOL     OW 6994   2.493   2.929   5.806
 2032SOL    HW1 6995   2.397   2.911   5.826
 2032SOL    HW2 6996   2.540   2.843   5.788
 2033SOL     OW 6997   2.311   1.313   0.618
 2033SOL    HW1 6998   2.400   1.344   0.651
 2033SOL    HW2 6999   2.246   1.388   0.623
 2034SOL     OW 7000   0.651   4.474   5.300
 2034SOL    HW1 7001   0.643   4.378   5.275
 2034SOL    HW2 7002   0.736   4.511   5.261
 2035SOL     OW 7003   5.413   6.096   3.150
 2035SOL    HW1 7004   5.340   6.163   3.134
 2035SOL    HW2 7005   5.427   6.041   3.068
 2036SOL     OW 7006   0.326   4.771   6.448
 2036SOL    HW1 7007   0.299   4.790   6.353
 2036SOL    HW2 7008   0.252   4.798   6.509
 2037SOL     OW 7009   1.240   2.483   0.046
 2037SOL    HW1 7010   1.293   2.409   0.006
 2037SOL    HW2 7011   1.198   2.537   6.996
 2038SOL     OW 7012   0.753   1.177   5.822
 2038SOL    HW1 7013   0.817   1.252   5.807
 2038SOL    HW2 7014   0.762   1.142   5.915
 2039SOL     OW 7015   4.948   6.055   3.279
 2039SOL    HW1 7016   5.012   6.112   3.331
 2039SOL    HW2 7017   4.871   6.112   3.249
 2040SOL     OW 7018   2.456   1.958   0.120
 2040SOL    HW1 7019   2.389   1.891   0.150
 2040SOL    HW2 7020   2.436   2.046   0.164
 2041SOL     OW 7021   2.655   6.437   6.734
 2041SOL    HW1 7022   2.711   6.495   6.675
 2041SOL    HW2 7023   2.644   6.481   6.823
 2042SOL     OW 7024   6.142   0.757   6.010
 2042SOL    HW1 7025   6.114   0.748   5.914
 2042SOL    HW2 7026   6.225   0.704   6.025
 2043SOL     OW 7027   0.849   4.163   0.869
 2043SOL    HW1 7028   0.822   4.255   0.840
 2043SOL    HW2 7029   0.864   4.106   0.789
 2044SOL     OW 7030   4.415   0.741   1.637
 2044SOL    HW1 7031   4.504   0.696   1.634
 2044SOL    HW2 7032   4.388   0.768   1.545
 2045SOL     OW 7033   2.146   6.051   4.387
 2045SOL    HW1 7034   2.208   6.117   4.344
 2045SOL    HW2 7035   2.051   6.078   4.371
 2046SOL     OW 7036   0.699   3.353   5.961
 2046SOL    HW1 7037   0.680   3.387   5.870
 2046SOL    HW2 7038   0.789   3.308   5.962
 2047SOL     OW 7039   6.969   0.284   0.906
 2047SOL    HW1 7040   0.004   0.289   0.987
 2047SOL    HW2 7041   0.003   0.264   0.826
 2048SOL     OW 7042   2.167   1.394   4.144
 2048SOL    HW1 7043   2.114   1.326   4.195
 2048SOL    HW2 7044   2.255   1.355   4.118
 2049SOL     OW 7045   4.806   2.882   4.951
 2049SOL    HW1 7046   4.734   2.859   5.016
 2049SOL    HW2 7047   4.826   2.980   4.957
 2050SOL     OW 7048   0.508   0.999   3.609
 2050SOL    HW1 7049   0.595   0.994   3.559
 2050SOL    HW2 7050   0.503   1.085   3.658
 2051SOL     OW 7051   3.425   5.864   0.699
 2051SOL    HW1 7052   3.475   5.787   0.658
 2051SOL    HW2 7053   3.330   5.837   0.714
 2052SOL     OW 7054   0.987   3.792   0.733
 2052SOL    HW1 7055   0.936   3.797   0.819
 2052SOL    HW2 7056   1.081   3.764   0.751
 2053SOL     OW 7057   6.237   4.864   2.572
 2053SOL    HW1 7058   6.239   4.899   2.666
 2053SOL    HW2 7059   6.144   4.874   2.536
 2054SOL     OW 7060   3.176   3.912   3.272
 2054SOL    HW1 7061   3.096   3.853   3.273
 2054SOL    HW2 7062   3.249   3.870   3.218
 2055SOL     OW 7063   4.249   2.680   5.653
 2055SOL    HW1 7064   4.218   2.734   5.574
 2055SOL    HW2 7065   4.308   2.606   5.622
 2056SOL     OW 7066   3.155   5.032   1.365
 2056SOL    HW1 7067   3.204   5.106   1.319
 2056SOL    HW2 7068   3.168   5.040   1.464
 2057SOL     OW 7069   5.739   3.243   4.448
 2057SOL    HW1 7070   5.688   3.242   4.362
 2057SOL    HW2 7071   5.837   3.249   4.429
 2058SOL     OW 7072   6.250   6.700   3.477
 2058SOL    HW1 7073   6.345   6.687   3.448
 2058SOL    HW2 7074   6.247   6.723   3.574
 2059SOL     OW 7075   2.004   1.902   5.427
 2059SOL    HW1 7076   1.972   1.935   5.338
 2059SOL    HW2 7077   1.953   1.819   5.452
 2060SOL     OW 7078   1.841   2.592   6.381
 2060SOL    HW1 7079   1.928   2.542   6.386
 2060SOL    HW2 7080   1.807   2.588   6.287
 2061SOL     OW 7081   2.036   2.657   2.877
 2061SOL    HW1 7082   2.032   2.667   2.976
 2061SOL    HW2 7083   2.124   2.691   2.844
 2062SOL     OW 7084   6.340   4.954   4.048
 2062SOL    HW1 7085   6.289   5.014   4.109
 2062SOL    HW2 7086   6.416   4.912   4.098
 2063SOL     OW 7087   0.962   2.344   4.366
 2063SOL    HW1 7088   0.950   2.442   4.377
 2063SOL    HW2 7089   0.965   2.322   4.268
 2064SOL     OW 7090   0.630   3.572   4.094
 2064SOL    HW1 7091   0.576   3.654   4.078
 2064SOL    HW2 7092   0.592   3.522   4.173
 2065SOL     OW 7093   4.007   3.599   5.925
 2065SOL    HW1 7094   3.991   3.506   5.890
 2065SOL    HW2 7095   3.938   3.660   5.886
 2066SOL     OW 7096   1.059   3.048   5.031
 2066SOL    HW1 7097   1.056   3.087   4.939
 2066SOL    HW2 7098   1.103   3.113   5.093
 2067SOL     OW 7099   6.553   4.936   1.880
 2067SOL    HW1 7100   6.590   4.878   1.953
 2067SOL    HW2 7101   6.548   5.031   1.912
 2068SOL     OW 7102   4.435   0.157   4.056
 2068SOL    HW1 7103   4.357   0.167   4.118
 2068SOL    HW2 7104   4.492   0.081   4.086
 2069SOL     OW 7105   6.875   1.194   3.746
 2069SOL    HW1 7106   6.939   1.118   3.757
 2069SOL    HW2 7107   6.899   1.246   3.664
 2070SOL     OW 7108   1.596   5.305   1.117
 2070SOL    HW1 7109   1.503   5.342   1.126
 2070SOL    HW2 7110   1.648   5.363   1.054
 2071SOL     OW 7111   0.168   2.425   5.122
 2071SOL    HW1 7112   0.218   2.343   5.094
 2071SOL    HW2 7113   0.194   2.450   5.215
 2072SOL     OW 7114   5.611   4.313   5.384
 2072SOL    HW1 7115   5.583   4.273   5.471
 2072SOL    HW2 7116   5.549   4.284   5.312
 2073SOL     OW 7117   3.548   5.482   6.371
 2073SOL    HW1 7118   3.598   5.568   6.365
 2073SOL    HW2 7119   3.593   5.422   6.437
 2074SOL     OW 7120   2.618   4.641   5.898
 2074SOL    HW1 7121   2.635   4.544   5.919
 2074SOL    HW2 7122   2.607   4.692   5.983
 2075SOL     OW 7123   6.138   2.641   1.609
 2075SOL    HW1 7124   6.217   2.633   1.548
 2075SOL    HW2 7125   6.054   2.642   1.554
 2076SOL     OW 7126   6.645   6.535   4.498
 2076SOL    HW1 7127   6.576   6.505   4.564
 2076SOL    HW2 7128   6.610   6.524   4.405
 2077SOL     OW 7129   6.357   4.561   0.318
 2077SOL    HW1 7130   6.453   4.553   0.343
 2077SOL    HW2 7131   6.307   4.607   0.391
 2078SOL     OW 7132   0.918   3.157   5.950
 2078SOL    HW1 7133   0.976   3.129   5.873
 2078SOL    HW2 7134   0.933   3.094   6.026
 2079SOL     OW 7135   5.612   1.113   3.167
 2079SOL    HW1 7136   5.585   1.200   3.125
 2079SOL    HW2 7137   5.568   1.104   3.256
 2080SOL     OW 7138   2.619   3.434   6.789
 2080SOL    HW1 7139   2.597   3.432   6.886
 2080SOL    HW2 7140   2.569   3.508   6.745
 2081SOL     OW 7141   6.729   6.118   2.253
 2081SOL    HW1 7142   6.744   6.131   2.351
 2081SOL    HW2 7143   6.814   6.138   2.204
 2082SOL     OW 7144   6.672   5.306   4.150
 2082SOL    HW1 7145   6.576   5.331   4.161
 2082SOL    HW2 7146   6.717   5.305   4.239
 2083SOL     OW 7147   0.136   6.329   4.131
 2083SOL    HW1 7148   0.123   6.233   4.108
 2083SOL    HW2 7149   0.137   6.384   4.048
 2084SOL     OW 7150   6.971   1.768   1.186
 2084SOL    HW1 7151   6.896   1.823   1.150
 2084SOL    HW2 7152   7.013   1.716   1.112
 2085SOL     OW 7153   6.644   6.132   0.683
 2085SOL    HW1 7154   6.727   6.147   0.630
 2085SOL    HW2 7155   6.601   6.047   0.654
 2086SOL     OW 7156   4.925   0.558   6.790
 2086SOL    HW1 7157   4.993   0.579   6.720
 2086SOL    HW2 7158   4.948   0.471   6.834
 2087SOL     OW 7159   3.923   1.522   6.847
 2087SOL    HW1 7160   3.865   1.601   6.866
 2087SOL    HW2 7161   3.865   1.443   6.825
 2088SOL     OW 7162   0.192   4.736   5.963
 2088SOL    HW1 7163   0.094   4.748   5.976
 2088SOL    HW2 7164   0.233   4.824   5.937
 2089SOL     OW 7165   2.850   4.165   6.199
 2089SOL    HW1 7166   2.870   4.068   6.217
 2089SOL    HW2 7167   2.927   4.207   6.151
 2090SOL     OW 7168   5.281   2.828   0.143
 2090SOL    HW1 7169   5.301   2.760   0.073
 2090SOL    HW2 7170   5.344   2.906   0.133
 2091SOL     OW 7171   5.316   6.464   0.428
 2091SOL    HW1 7172   5.404   6.511   0.423
 2091SOL    HW2 7173   5.277   6.476   0.520
 2092SOL     OW 7174   3.362   3.566   2.032
 2092SOL    HW1 7175   3.313   3.522   1.957
 2092SOL    HW2 7176   3.414   3.644   1.997
 2093SOL     OW 7177   4.382   0.679   1.200
 2093SOL    HW1 7178   4.406   0.585   1.223
 2093SOL    HW2 7179   4.340   0.723   1.280
 2094SOL     OW 7180   5.376   2.112   0.332
 2094SOL    HW1 7181   5.455   2.052   0.342
 2094SOL    HW2 7182   5.405   2.207   0.342
 2095SOL     OW 7183   5.361   5.111   4.444
 2095SOL    HW1 7184   5.420   5.182   4.406
 2095SOL    HW2 7185   5.416   5.030   4.465
 2096SOL     OW 7186   4.137   6.771   2.345
 2096SOL    HW1 7187   4.181   6.822   2.271
 2096SOL    HW2 7188   4.038   6.772   2.331
 2097SOL     OW 7189   0.856   5.513   5.777
 2097SOL    HW1 7190   0.796   5.460   5.717
 2097SOL    HW2 7191   0.808   5.535   5.862
 2098SOL     OW 7192   2.676   6.768   3.827
 2098SOL    HW1 7193   2.640   6.862   3.823
 2098SOL    HW2 7194   2.662   6.723   3.738
 2099SOL     OW 7195   4.019   1.934   6.965
 2099SOL    HW1 7196   4.051   1.916   0.035
 2099SOL    HW2 7197   4.019   2.032   6.948
 2100SOL     OW 7198   4.541   0.455   0.317
 2100SOL    HW1 7199   4.525   0.445   0.219
 2100SOL    HW2 7200   4.504   0.543   0.348
 2101SOL     OW 7201   1.350   0.140   2.746
 2101SOL    HW1 7202   1.256   0.136   2.711
 2101SOL    HW2 7203   1.401   0.210   2.696
 2102SOL     OW 7204   4.078   2.445   1.615
 2102SOL    HW1 7205   4.114   2.520   1.670
 2102SOL    HW2 7206   4.052   2.370   1.676
 2103SOL     OW 7207   1.266   6.580   0.639
 2103SOL    HW1 7208   1.279   6.641   0.561
 2103SOL    HW2 7209   1.168   6.568   0.656
 2104SOL     OW 7210   1.943   3.884   3.029
 2104SOL    HW1 7211   1.861   3.831   3.006
 2104SOL    HW2 7212   2.014   3.865   2.961
 2105SOL     OW 7213   5.619   0.226   4.781
 2105SOL    HW1 7214   5.641   0.157   4.713
 2105SOL    HW2 7215   5.675   0.212   4.863
 2106SOL     OW 7216   3.711   2.773   1.422
 2106SOL    HW1 7217   3.661   2.802   1.504
 2106SOL    HW2 7218   3.732   2.676   1.428
 2107SOL     OW 7219   5.056   4.724   4.776
 2107SOL    HW1 7220   5.121   4.656   4.742
 2107SOL    HW2 7221   5.073   4.812   4.731
 2108SOL     OW 7222   5.138   6.672   5.139
 2108SOL    HW1 7223   5.207   6.705   5.074
 2108SOL    HW2 7224   5.181   6.658   5.228
 2109SOL     OW 7225   2.777   6.098   1.966
 2109SOL    HW1 7226   2.814   6.134   2.052
 2109SOL    HW2 7227   2.837   6.025   1.932
 2110SOL     OW 7228   3.596   5.844   6.921
 2110SOL    HW1 7229   3.651   5.781   6.866
 2110SOL    HW2 7230   3.499   5.825   6.906
 2111SOL     OW 7231   1.285   2.528   5.947
 2111SOL    HW1 7232   1.255   2.471   6.024
 2111SOL    HW2 7233   1.248   2.492   5.862
 2112SOL     OW 7234   1.342   6.841   6.540
 2112SOL    HW1 7235   1.327   6.899   6.459
 2112SOL    HW2 7236   1.389   6.893   6.611
 2113SOL     OW 7237   6.509   1.700   5.341
 2113SOL    HW1 7238   6.475   1.777   5.395
 2113SOL    HW2 7239   6.600   1.721   5.307
 2114SOL     OW 7240   2.122   0.737   5.488
 2114SOL    HW1 7241   2.144   0.705   5.396
 2114SOL    HW2 7242   2.131   0.660   5.553
 2115SOL     OW 7243   6.715   6.020   3.466
 2115SOL    HW1 7244   6.631   5.996   3.418
 2115SOL    HW2 7245   6.793   6.009   3.404
 2116SOL     OW 7246   1.967   1.429   6.949
 2116SOL    HW1 7247   1.928   1.350   6.997
 2116SOL    HW2 7248   2.065   1.416   6.938
 2117SOL     OW 7249   6.759   2.613   2.792
 2117SOL    HW1 7250   6.741   2.553   2.870
 2117SOL    HW2 7251   6.857   2.611   2.771
 2118SOL     OW 7252   0.311   2.633   2.762
 2118SOL    HW1 7253   0.282   2.716   2.809
 2118SOL    HW2 7254   0.371   2.657   2.686
 2119SOL     OW 7255   0.184   2.741   0.377
 2119SOL    HW1 7256   0.107   2.684   0.407
 2119SOL    HW2 7257   0.163   2.780   0.287
 2120SOL     OW 7258   5.438   2.066   0.662
 2120SOL    HW1 7259   5.341   2.088   0.671
 2120SOL    HW2 7260   5.452   2.005   0.584
 2121SOL     OW 7261   2.032   6.665   1.318
 2121SOL    HW1 7262   2.079   6.581   1.345
 2121SOL    HW2 7263   1.962   6.643   1.250
 2122SOL     OW 7264   6.449   0.936   4.681
 2122SOL    HW1 7265   6.501   0.994   4.744
 2122SOL    HW2 7266   6.506   0.911   4.603
 2123SOL     OW 7267   1.140   5.503   2.920
 2123SOL    HW1 7268   1.219   5.457   2.959
 2123SOL    HW2 7269   1.126   5.591   2.965
 2124SOL     OW 7270   4.667   3.399   6.383
 2124SOL    HW1 7271   4.756   3.354   6.376
 2124SOL    HW2 7272   4.636   3.427   6.292
 2125SOL     OW 7273   1.261   5.458   4.291
 2125SOL    HW1 7274   1.314   5.491   4.369
 2125SOL    HW2 7275   1.290   5.365   4.268
 2126SOL     OW 7276   2.515   3.494   0.305
 2126SOL    HW1 7277   2.465   3.512   0.389
 2126SOL    HW2 7278   2.612   3.479   0.326
 2127SOL     OW 7279   1.461   3.275   3.746
 2127SOL    HW1 7280   1.499   3.362   3.778
 2127SOL    HW2 7281   1.408   3.233   3.820
 2128SOL     OW 7282   5.510   3.089   2.511
 2128SOL    HW1 7283   5.497   3.007   2.455
 2128SOL    HW2 7284   5.428   3.106   2.565
 2129SOL     OW 7285   4.915   4.567   4.218
 2129SOL    HW1 7286   4.848   4.506   4.174
 2129SOL    HW2 7287   4.977   4.603   4.148
 2130SOL     OW 7288   1.663   0.668   1.799
 2130SOL    HW1 7289   1.613   0.615   1.731
 2130SOL    HW2 7290   1.729   0.727   1.753
 2131SOL     OW 7291   5.975   0.614   6.420
 2131SOL    HW1 7292   5.991   0.588   6.325
 2131SOL    HW2 7293   5.979   0.713   6.429
 2132SOL     OW 7294   2.603   2.794   0.161
 2132SOL    HW1 7295   2.653   2.709   0.177
 2132SOL    HW2 7296   2.517   2.775   0.115
 2133SOL     OW 7297   3.633   2.011   1.288
 2133SOL    HW1 7298   3.659   1.945   1.359
 2133SOL    HW2 7299   3.539   2.041   1.305
 2134SOL     OW 7300   1.700   6.480   5.172
 2134SOL    HW1 7301   1.691   6.537   5.254
 2134SOL    HW2 7302   1.796   6.475   5.144
 2135SOL     OW 7303   1.081   6.213   3.944
 2135SOL    HW1 7304   1.123   6.139   3.892
 2135SOL    HW2 7305   1.152   6.273   3.981
 2136SOL     OW 7306   1.495   4.389   3.835
 2136SOL    HW1 7307   1.450   4.323   3.775
 2136SOL    HW2 7308   1.453   4.386   3.925
 2137SOL     OW 7309   0.274   0.602   4.061
 2137SOL    HW1 7310   0.221   0.532   4.109
 2137SOL    HW2 7311   0.349   0.558   4.012
 2138SOL     OW 7312   1.052   2.311   5.887
 2138SOL    HW1 7313   1.081   2.220   5.861
 2138SOL    HW2 7314   1.005   2.308   5.975
 2139SOL     OW 7315   3.019   6.914   4.232
 2139SOL    HW1 7316   3.077   6.882   4.307
 2139SOL    HW2 7317   2.923   6.912   4.261
 2140SOL     OW 7318   1.532   5.957   3.966
 2140SOL    HW1 7319   1.525   6.015   3.885
 2140SOL    HW2 7320   1.461   5.983   4.032
 2141SOL     OW 7321   6.399   2.049   6.740
 2141SOL    HW1 7322   6.344   1.988   6.797
 2141SOL    HW2 7323   6.479   2.080   6.793
 2142SOL     OW 7324   3.493   1.033   3.446
 2142SOL    HW1 7325   3.496   0.967   3.521
 2142SOL    HW2 7326   3.405   1.027   3.400
 2143SOL     OW 7327   3.799   6.281   6.966
 2143SOL    HW1 7328   3.878   6.267   0.003
 2143SOL    HW2 7329   3.769   6.376   6.970
 2144SOL     OW 7330   1.070   0.878   1.871
 2144SOL    HW1 7331   1.021   0.961   1.896
 2144SOL    HW2 7332   1.151   0.902   1.818
 2145SOL     OW 7333   2.782   5.641   2.667
 2145SOL    HW1 7334   2.695   5.674   2.629
 2145SOL    HW2 7335   2.809   5.700   2.743
 2146SOL     OW 7336   2.629   1.664   1.012
 2146SOL    HW1 7337   2.611   1.724   1.089
 2146SOL    HW2 7338   2.550   1.665   0.950
 2147SOL     OW 7339   0.231   1.207   4.779
 2147SOL    HW1 7340   0.207   1.124   4.729
 2147SOL    HW2 7341   0.181   1.209   4.866
 2148SOL     OW 7342   5.811   3.548   4.356
 2148SOL    HW1 7343   5.837   3.452   4.361
 2148SOL    HW2 7344   5.805   3.587   4.448
 2149SOL     OW 7345   3.156   0.443   3.160
 2149SOL    HW1 7346   3.086   0.407   3.223
 2149SOL    HW2 7347   3.155   0.389   3.075
 2150SOL     OW 7348   4.253   0.044   3.474
 2150SOL    HW1 7349   4.260   6.969   3.494
 2150SOL    HW2 7350   4.342   0.079   3.445
 2151SOL     OW 7351   3.832   4.386   5.601
 2151SOL    HW1 7352   3.766   4.460   5.612
 2151SOL    HW2 7353   3.857   4.349   5.691
 2152SOL     OW 7354   6.857   6.641   2.303
 2152SOL    HW1 7355   6.854   6.727   2.353
 2152SOL    HW2 7356   6.776   6.586   2.325
 2153SOL     OW 7357   4.774   1.851   3.458
 2153SOL    HW1 7358   4.745   1.943   3.432
 2153SOL    HW2 7359   4.872   1.851   3.477
 2154SOL     OW 7360   4.053   6.428   5.294
 2154SOL    HW1 7361   4.031   6.402   5.388
 2154SOL    HW2 7362   4.150   6.452   5.288
 2155SOL     OW 7363   6.260   3.701   6.885
 2155SOL    HW1 7364   6.201   3.679   6.963
 2155SOL    HW2 7365   6.349   3.733   6.919
 2156SOL     OW 7366   7.018   0.464   1.544
 2156SOL    HW1 7367   0.025   0.522   1.468
 2156SOL    HW2 7368   6.964   0.519   1.608
 2157SOL     OW 7369   6.337   0.975   4.025
 2157SOL    HW1 7370   6.319   0.993   4.122
 2157SOL    HW2 7371   6.409   1.036   3.993
 2158SOL     OW 7372   4.826   0.156   3.637
 2158SOL    HW1 7373   4.804   0.212   3.717
 2158SOL    HW2 7374   4.768   0.181   3.560
 2159SOL     OW 7375   2.364   0.693   5.352
 2159SOL    HW1 7376   2.406   0.671   5.440
 2159SOL    HW2 7377   2.375   0.616   5.289
 2160SOL     OW 7378   2.949   2.570   0.529
 2160SOL    HW1 7379   3.022   2.547   0.465
 2160SOL    HW2 7380   2.909   2.658   0.503
 2161SOL     OW 7381   5.294   2.321   3.956
 2161SOL    HW1 7382   5.238   2.391   3.999
 2161SOL    HW2 7383   5.269   2.231   3.992
 2162SOL     OW 7384   1.871   1.098   1.219
 2162SOL    HW1 7385   1.949   1.161   1.228
 2162SOL    HW2 7386   1.805   1.116   1.291
 2163SOL     OW 7387   2.285   1.446   0.954
 2163SOL    HW1 7388   2.260   1.353   0.981
 2163SOL    HW2 7389   2.330   1.492   1.031
 2164SOL     OW 7390   6.545   0.053   1.238
 2164SOL    HW1 7391   6.565   0.026   1.333
 2164SOL    HW2 7392   6.454   0.094   1.233
 2165SOL     OW 7393   3.054   0.004   1.987
 2165SOL    HW1 7394   3.031   6.947   1.932
 2165SOL    HW2 7395   3.028   0.087   1.938
 2166SOL     OW 7396   5.569   2.641   6.003
 2166SOL    HW1 7397   5.637   2.683   6.062
 2166SOL    HW2 7398   5.605   2.555   5.967
 2167SOL     OW 7399   3.261   0.889   1.335
 2167SOL    HW1 7400   3.313   0.966   1.299
 2167SOL    HW2 7401   3.241   0.905   1.432
 2168SOL     OW 7402   5.971   6.499   4.677
 2168SOL    HW1 7403   6.063   6.474   4.709
 2168SOL    HW2 7404   5.949   6.447   4.595
 2169SOL     OW 7405   5.582   1.351   6.156
 2169SOL    HW1 7406   5.502   1.391   6.111
 2169SOL    HW2 7407   5.624   1.283   6.096
 2170SOL     OW 7408   5.254   4.601   4.621
 2170SOL    HW1 7409   5.242   4.510   4.662
 2170SOL    HW2 7410   5.260   4.592   4.522
 2171SOL     OW 7411   6.937   3.464   0.227
 2171SOL    HW1 7412   6.984   3.537   0.277
 2171SOL    HW2 7413   7.000   3.423   0.161
 2172SOL     OW 7414   2.325   0.261   2.013
 2172SOL    HW1 7415   2.360   0.224   1.927
 2172SOL    HW2 7416   2.263   0.337   1.993
 2173SOL     OW 7417   4.648   2.310   4.609
 2173SOL    HW1 7418   4.725   2.248   4.603
 2173SOL    HW2 7419   4.647   2.355   4.699
 2174SOL     OW 7420   1.486   5.322   4.744
 2174SOL    HW1 7421   1.487   5.244   4.682
 2174SOL    HW2 7422   1.566   5.318   4.804
 2175SOL     OW 7423   2.009   6.149   5.732
 2175SOL    HW1 7424   2.061   6.087   5.674
 2175SOL    HW2 7425   1.917   6.160   5.695
 2176SOL     OW 7426   1.601   2.481   2.652
 2176SOL    HW1 7427   1.643   2.390   2.656
 2176SOL    HW2 7428   1.672   2.551   2.661
 2177SOL     OW 7429   0.693   2.309   1.348
 2177SOL    HW1 7430   0.747   2.361   1.414
 2177SOL    HW2 7431   0.609   2.277   1.391
 2178SOL     OW 7432   6.419   6.651   1.150
 2178SOL    HW1 7433   6.496   6.620   1.206
 2178SOL    HW2 7434   6.400   6.747   1.169
 2179SOL     OW 7435   1.461   4.030   4.162
 2179SOL    HW1 7436   1.527   4.048   4.089
 2179SOL    HW2 7437   1.376   4.079   4.141
 2180SOL     OW 7438   3.321   2.694   1.496
 2180SOL    HW1 7439   3.403   2.746   1.520
 2180SOL    HW2 7440   3.287   2.645   1.576
 2181SOL     OW 7441   3.369   6.604   1.453
 2181SOL    HW1 7442   3.290   6.665   1.445
 2181SOL    HW2 7443   3.442   6.635   1.393
 2182SOL     OW 7444   4.777   2.530   1.136
 2182SOL    HW1 7445   4.829   2.504   1.217
 2182SOL    HW2 7446   4.824   2.606   1.090
 2183SOL     OW 7447   3.303   2.230   0.648
 2183SOL    HW1 7448   3.330   2.139   0.618
 2183SOL    HW2 7449   3.204   2.240   0.638
 2184SOL     OW 7450   4.579   3.211   6.587
 2184SOL    HW1 7451   4.618   3.282   6.528
 2184SOL    HW2 7452   4.493   3.244   6.626
 2185SOL     OW 7453   6.888   6.632   1.802
 2185SOL    HW1 7454   6.964   6.617   1.739
 2185SOL    HW2 7455   6.920   6.625   1.896
 2186SOL     OW 7456   0.345   4.534   3.486
 2186SOL    HW1 7457   0.383   4.502   3.399
 2186SOL    HW2 7458   0.272   4.472   3.516
 2187SOL     OW 7459   6.186   1.439   0.308
 2187SOL    HW1 7460   6.215   1.492   0.228
 2187SOL    HW2 7461   6.086   1.438   0.312
 2188SOL     OW 7462   4.770   1.377   4.132
 2188SOL    HW1 7463   4.829   1.399   4.055
 2188SOL    HW2 7464   4.810   1.302   4.185
 2189SOL     OW 7465   2.960   0.082   6.966
 2189SOL    HW1 7466   3.038   0.059   6.908
 2189SOL    HW2 7467   2.881   0.027   6.938
 2190SOL     OW 7468   4.931   2.778   1.062
 2190SOL    HW1 7469   4.933   2.837   1.143
 2190SOL    HW2 7470   5.002   2.807   0.998
 2191SOL     OW 7471   2.401   1.712   0.467
 2191SOL    HW1 7472   2.413   1.685   0.371
 2191SOL    HW2 7473   2.322   1.665   0.505
 2192SOL     OW 7474   3.881   5.548   2.554
 2192SOL    HW1 7475   3.915   5.594   2.473
 2192SOL    HW2 7476   3.812   5.480   2.528
 2193SOL     OW 7477   6.711   5.964   4.679
 2193SOL    HW1 7478   6.635   6.009   4.633
 2193SOL    HW2 7479   6.787   5.953   4.615
 2194SOL     OW 7480   2.709   0.282   1.865
 2194SOL    HW1 7481   2.804   0.262   1.840
 2194SOL    HW2 7482   2.677   0.363   1.815
 2195SOL     OW 7483   0.825   4.623   2.041
 2195SOL    HW1 7484   0.831   4.552   1.971
 2195SOL    HW2 7485   0.914   4.634   2.085
 2196SOL     OW 7486   4.338   3.032   0.659
 2196SOL    HW1 7487   4.280   2.988   0.589
 2196SOL    HW2 7488   4.335   2.978   0.743
 2197SOL     OW 7489   4.417   4.244   6.804
 2197SOL    HW1 7490   4.351   4.310   6.769
 2197SOL    HW2 7491   4.458   4.194   6.727
 2198SOL     OW 7492   6.429   4.518   0.682
 2198SOL    HW1 7493   6.383   4.607   0.687
 2198SOL    HW2 7494   6.361   4.447   0.663
 2199SOL     OW 7495   4.513   0.906   3.297
 2199SOL    HW1 7496   4.495   0.882   3.201
 2199SOL    HW2 7497   4.603   0.871   3.323
 2200SOL     OW 7498   2.817   6.904   4.412
 2200SOL    HW1 7499   2.816   6.913   4.511
 2200SOL    HW2 7500   2.723   6.896   4.378
 2201SOL     OW 7501   4.804   4.252   4.381
 2201SOL    HW1 7502   4.816   4.194   4.462
 2201SOL    HW2 7503   4.785   4.346   4.409
 2202SOL     OW 7504   4.590   5.661   3.879
 2202SOL    HW1 7505   4.666   5.607   3.842
 2202SOL    HW2 7506   4.619   5.756   3.889
 2203SOL     OW 7507   3.079   2.224   2.692
 2203SOL    HW1 7508   2.988   2.239   2.653
 2203SOL    HW2 7509   3.069   2.189   2.785
 2204SOL     OW 7510   2.574   2.402   0.285
 2204SOL    HW1 7511   2.484   2.362   0.269
 2204SOL    HW2 7512   2.594   2.402   0.383
 2205SOL     OW 7513   3.094   0.869   1.848
 2205SOL    HW1 7514   3.172   0.927   1.871
 2205SOL    HW2 7515   3.027   0.870   1.922
 2206SOL     OW 7516   1.503   3.043   0.270
 2206SOL    HW1 7517   1.506   3.134   0.229
 2206SOL    HW2 7518   1.596   3.006   0.274
 2207SOL     OW 7519   0.156   4.897   5.042
 2207SOL    HW1 7520   0.085   4.954   5.000
 2207SOL    HW2 7521   0.176   4.819   4.982
 2208SOL     OW 7522   6.688   4.978   2.388
 2208SOL    HW1 7523   6.645   4.956   2.476
 2208SOL    HW2 7524   6.724   5.071   2.392
 2209SOL     OW 7525   0.808   0.056   1.867
 2209SOL    HW1 7526   0.794   0.024   1.773
 2209SOL    HW2 7527   0.720   0.054   1.915
 2210SOL     OW 7528   1.848   5.154   3.631
 2210SOL    HW1 7529   1.795   5.098   3.568
 2210SOL    HW2 7530   1.786   5.204   3.692
 2211SOL     OW 7531   0.045   1.801   5.060
 2211SOL    HW1 7532   7.007   1.725   5.037
 2211SOL    HW2 7533   0.066   1.853   4.978
 2212SOL     OW 7534   1.761   6.510   6.416
 2212SOL    HW1 7535   1.763   6.491   6.514
 2212SOL    HW2 7536   1.666   6.507   6.384
 2213SOL     OW 7537   3.831   0.776   3.391
 2213SOL    HW1 7538   3.775   0.716   3.449
 2213SOL    HW2 7539   3.771   0.829   3.331
 2214SOL     OW 7540   4.424   0.401   4.940
 2214SOL    HW1 7541   4.378   0.314   4.920
 2214SOL    HW2 7542   4.504   0.411   4.882
 2215SOL     OW 7543   5.874   2.121   5.289
 2215SOL    HW1 7544   5.875   2.115   5.189
 2215SOL    HW2 7545   5.926   2.201   5.318
 2216SOL     OW 7546   3.123   0.906   2.512
 2216SOL    HW1 7547   3.218   0.892   2.539
 2216SOL    HW2 7548   3.106   1.004   2.503
 2217SOL     OW 7549   4.400   1.191   1.887
 2217SOL    HW1 7550   4.373   1.096   1.872
 2217SOL    HW2 7551   4.323   1.251   1.863
 2218SOL     OW 7552   0.932   0.377   2.588
 2218SOL    HW1 7553   0.879   0.413   2.665
 2218SOL    HW2 7554   0.928   0.442   2.512
 2219SOL     OW 7555   1.418   2.031   2.723
 2219SOL    HW1 7556   1.382   2.044   2.816
 2219SOL    HW2 7557   1.397   2.112   2.669
 2220SOL     OW 7558   0.838   0.694   1.791
 2220SOL    HW1 7559   0.802   0.665   1.880
 2220SOL    HW2 7560   0.903   0.769   1.805
 2221SOL     OW 7561   0.548   0.522   6.280
 2221SOL    HW1 7562   0.506   0.605   6.244
 2221SOL    HW2 7563   0.646   0.535   6.290
 2222SOL     OW 7564   6.428   5.466   3.347
 2222SOL    HW1 7565   6.338   5.504   3.368
 2222SOL    HW2 7566   6.481   5.533   3.296
 2223SOL     OW 7567   6.720   6.474   1.602
 2223SOL    HW1 7568   6.641   6.415   1.622
 2223SOL    HW2 7569   6.738   6.533   1.681
 2224SOL     OW 7570   1.030   5.010   1.033
 2224SOL    HW1 7571   0.994   4.993   0.941
 2224SOL    HW2 7572   0.981   5.087   1.073
 2225SOL     OW 7573   0.674   3.622   0.754
 2225SOL    HW1 7574   0.725   3.642   0.671
 2225SOL    HW2 7575   0.661   3.706   0.807
 2226SOL     OW 7576   3.873   3.953   2.690
 2226SOL    HW1 7577   3.895   3.856   2.686
 2226SOL    HW2 7578   3.806   3.970   2.763
 2227SOL     OW 7579   1.088   2.775   4.154
 2227SOL    HW1 7580   1.152   2.703   4.129
 2227SOL    HW2 7581   0.994   2.741   4.147
 2228SOL     OW 7582   2.820   4.774   4.021
 2228SOL    HW1 7583   2.775   4.708   3.961
 2228SOL    HW2 7584   2.778   4.771   4.112
 2229SOL     OW 7585   5.767   6.378   2.986
 2229SOL    HW1 7586   5.698   6.394   2.915
 2229SOL    HW2 7587   5.858   6.380   2.944
 2230SOL     OW 7588   2.889   5.036   1.562
 2230SOL    HW1 7589   2.931   5.081   1.641
 2230SOL    HW2 7590   2.860   5.104   1.496
 2231SOL     OW 7591   2.230   6.036   1.290
 2231SOL    HW1 7592   2.143   5.989   1.275
 2231SOL    HW2 7593   2.233   6.070   1.383
 2232SOL     OW 7594   5.578   2.871   3.711
 2232SOL    HW1 7595   5.668   2.894   3.676
 2232SOL    HW2 7596   5.574   2.773   3.730
 2233SOL     OW 7597   3.146   1.176   6.251
 2233SOL    HW1 7598   3.235   1.134   6.234
 2233SOL    HW2 7599   3.074   1.110   6.232
 2234SOL     OW 7600   3.649   2.440   1.061
 2234SOL    HW1 7601   3.592   2.395   1.129
 2234SOL    HW2 7602   3.634   2.398   0.972
 2235SOL     OW 7603   1.920   2.044   1.583
 2235SOL    HW1 7604   1.821   2.058   1.581
 2235SOL    HW2 7605   1.945   1.989   1.662
 2236SOL     OW 7606   1.564   5.115   5.781
 2236SOL    HW1 7607   1.530   5.176   5.853
 2236SOL    HW2 7608   1.561   5.162   5.693
 2237SOL     OW 7609   6.232   3.299   4.484
 2237SOL    HW1 7610   6.266   3.293   4.578
 2237SOL    HW2 7611   6.306   3.273   4.421
 2238SOL     OW 7612   5.991   6.471   0.629
 2238SOL    HW1 7613   6.009   6.430   0.540
 2238SOL    HW2 7614   5.909   6.430   0.668
 2239SOL     OW 7615   6.051   5.934   1.854
 2239SOL    HW1 7616   5.992   5.975   1.923
 2239SOL    HW2 7617   6.145   5.929   1.889
 2240SOL     OW 7618   6.253   3.745   1.901
 2240SOL    HW1 7619   6.351   3.749   1.883
 2240SOL    HW2 7620   6.204   3.801   1.834
 2241SOL     OW 7621   1.188   0.451   3.234
 2241SOL    HW1 7622   1.183   0.398   3.319
 2241SOL    HW2 7623   1.190   0.388   3.156
 2242SOL     OW 7624   3.570   1.775   2.383
 2242SOL    HW1 7625   3.591   1.872   2.399
 2242SOL    HW2 7626   3.637   1.737   2.319
 2243SOL     OW 7627   2.865   0.080   5.156
 2243SOL    HW1 7628   2.816   0.092   5.069
 2243SOL    HW2 7629   2.799   0.084   5.231
 2244SOL     OW 7630   3.332   1.363   4.800
 2244SOL    HW1 7631   3.401   1.397   4.736
 2244SOL    HW2 7632   3.243   1.361   4.755
 2245SOL     OW 7633   0.349   2.210   2.082
 2245SOL    HW1 7634   0.336   2.196   2.180
 2245SOL    HW2 7635   0.261   2.205   2.036
 2246SOL     OW 7636   1.597   4.858   5.091
 2246SOL    HW1 7637   1.591   4.939   5.032
 2246SOL    HW2 7638   1.529   4.865   5.164
 2247SOL     OW 7639   1.679   1.276   4.822
 2247SOL    HW1 7640   1.763   1.330   4.811
 2247SOL    HW2 7641   1.703   1.181   4.841
 2248SOL     OW 7642   4.297   3.765   5.491
 2248SOL    HW1 7643   4.241   3.831   5.441
 2248SOL    HW2 7644   4.338   3.700   5.427
 2249SOL     OW 7645   3.887   5.362   5.210
 2249SOL    HW1 7646   3.950   5.310   5.267
 2249SOL    HW2 7647   3.933   5.388   5.124
 2250SOL     OW 7648   4.184   4.974   1.444
 2250SOL    HW1 7649   4.257   4.919   1.403
 2250SOL    HW2 7650   4.206   5.071   1.434
 2251SOL     OW 7651   0.215   0.443   6.503
 2251SOL    HW1 7652   0.228   0.509   6.429
 2251SOL    HW2 7653   0.287   0.374   6.499
 2252SOL     OW 7654   3.222   0.606   6.187
 2252SOL    HW1 7655   3.289   0.548   6.234
 2252SOL    HW2 7656   3.220   0.581   6.090
 2253SOL     OW 7657   1.022   3.722   6.459
 2253SOL    HW1 7658   1.052   3.688   6.548
 2253SOL    HW2 7659   0.936   3.679   6.433
 2254SOL     OW 7660   1.647   4.635   6.481
 2254SOL    HW1 7661   1.624   4.576   6.558
 2254SOL    HW2 7662   1.595   4.720   6.488
 2255SOL     OW 7663   6.249   3.527   6.669
 2255SOL    HW1 7664   6.345   3.501   6.656
 2255SOL    HW2 7665   6.243   3.598   6.739
 2256SOL     OW 7666   2.579   4.611   2.135
 2256SOL    HW1 7667   2.574   4.518   2.171
 2256SOL    HW2 7668   2.661   4.621   2.079
 2257SOL     OW 7669   1.869   3.898   5.020
 2257SOL    HW1 7670   1.948   3.956   5.044
 2257SOL    HW2 7671   1.901   3.807   4.996
 2258SOL     OW 7672   2.169   5.216   4.873
 2258SOL    HW1 7673   2.103   5.141   4.881
 2258SOL    HW2 7674   2.243   5.190   4.811
 2259SOL     OW 7675   6.232   3.053   6.389
 2259SOL    HW1 7676   6.292   3.061   6.469
 2259SOL    HW2 7677   6.281   3.085   6.308
 2260SOL     OW 7678   4.165   2.932   1.143
 2260SOL    HW1 7679   4.195   2.978   1.227
 2260SOL    HW2 7680   4.143   2.836   1.164
 2261SOL     OW 7681   3.065   6.565   4.916
 2261SOL    HW1 7682   3.006   6.587   4.838
 2261SOL    HW2 7683   3.136   6.501   4.886
 2262SOL     OW 7684   3.615   1.716   2.908
 2262SOL    HW1 7685   3.711   1.692   2.913
 2262SOL    HW2 7686   3.589   1.770   2.988
 2263SOL     OW 7687   0.770   4.305   6.004
 2263SOL    HW1 7688   0.805   4.213   5.985
 2263SOL    HW2 7689   0.678   4.299   6.042
 2264SOL     OW 7690   2.984   3.654   3.503
 2264SOL    HW1 7691   2.923   3.590   3.551
 2264SOL    HW2 7692   3.019   3.721   3.568
 2265SOL     OW 7693   0.328   6.798   3.413
 2265SOL    HW1 7694   0.271   6.720   3.387
 2265SOL    HW2 7695   0.425   6.775   3.401
 2266SOL     OW 7696   6.348   0.614   6.094
 2266SOL    HW1 7697   6.377   0.531   6.142
 2266SOL    HW2 7698   6.427   0.657   6.051
 2267SOL     OW 7699   5.210   2.130   4.960
 2267SOL    HW1 7700   5.129   2.087   5.001
 2267SOL    HW2 7701   5.274   2.155   5.033
 2268SOL     OW 7702   6.706   5.606   6.759
 2268SOL    HW1 7703   6.742   5.641   6.673
 2268SOL    HW2 7704   6.608   5.590   6.750
 2269SOL     OW 7705   0.102   0.135   3.071
 2269SOL    HW1 7706   0.042   0.093   3.003
 2269SOL    HW2 7707   0.063   0.122   3.162
 2270SOL     OW 7708   3.451   3.181   3.127
 2270SOL    HW1 7709   3.439   3.181   3.226
 2270SOL    HW2 7710   3.535   3.131   3.104
 2271SOL     OW 7711   0.918   5.004   3.137
 2271SOL    HW1 7712   1.012   5.021   3.167
 2271SOL    HW2 7713   0.895   4.908   3.152
 2272SOL     OW 7714   5.094   1.877   5.518
 2272SOL    HW1 7715   5.054   1.826   5.594
 2272SOL    HW2 7716   5.179   1.920   5.548
 2273SOL     OW 7717   0.361   1.002   2.726
 2273SOL    HW1 7718   0.298   0.959   2.661
 2273SOL    HW2 7719   0.421   1.065   2.677
 2274SOL     OW 7720   0.993   4.654   3.499
 2274SOL    HW1 7721   1.020   4.572   3.449
 2274SOL    HW2 7722   1.058   4.673   3.571
 2275SOL     OW 7723   4.465   6.462   3.816
 2275SOL    HW1 7724   4.557   6.425   3.808
 2275SOL    HW2 7725   4.470   6.557   3.846
 2276SOL     OW 7726   3.255   5.792   2.347
 2276SOL    HW1 7727   3.207   5.785   2.434
 2276SOL    HW2 7728   3.202   5.848   2.284
 2277SOL     OW 7729   3.382   3.261   1.283
 2277SOL    HW1 7730   3.398   3.360   1.283
 2277SOL    HW2 7731   3.391   3.226   1.190
 2278SOL     OW 7732   4.074   6.051   1.584
 2278SOL    HW1 7733   4.170   6.049   1.612
 2278SOL    HW2 7734   4.067   6.031   1.486
 2279SOL     OW 7735   5.715   4.268   5.785
 2279SOL    HW1 7736   5.781   4.196   5.806
 2279SOL    HW2 7737   5.662   4.290   5.867
 2280SOL     OW 7738   5.306   0.274   5.999
 2280SOL    HW1 7739   5.320   0.293   5.902
 2280SOL    HW2 7740   5.389   0.294   6.050
 2281SOL     OW 7741   2.174   1.594   0.302
 2281SOL    HW1 7742   2.122   1.510   0.292
 2281SOL    HW2 7743   2.268   1.579   0.272
 2282SOL     OW 7744   3.718   5.911   2.424
 2282SOL    HW1 7745   3.653   5.835   2.434
 2282SOL    HW2 7746   3.702   5.955   2.336
 2283SOL     OW 7747   0.589   3.613   1.875
 2283SOL    HW1 7748   0.596   3.557   1.958
 2283SOL    HW2 7749   0.630   3.703   1.891
 2284SOL     OW 7750   2.217   1.951   1.778
 2284SOL    HW1 7751   2.291   2.002   1.821
 2284SOL    HW2 7752   2.129   1.982   1.816
 2285SOL     OW 7753   1.703   3.517   6.592
 2285SOL    HW1 7754   1.760   3.525   6.511
 2285SOL    HW2 7755   1.634   3.446   6.578
 2286SOL     OW 7756   6.651   6.300   4.222
 2286SOL    HW1 7757   6.729   6.361   4.209
 2286SOL    HW2 7758   6.682   6.206   4.230
 2287SOL     OW 7759   2.087   1.955   0.701
 2287SOL    HW1 7760   2.033   1.877   0.733
 2287SOL    HW2 7761   2.078   1.964   0.602
 2288SOL     OW 7762   2.626   5.653   4.830
 2288SOL    HW1 7763   2.628   5.697   4.920
 2288SOL    HW2 7764   2.582   5.563   4.838
 2289SOL     OW 7765   3.812   0.727   6.965
 2289SOL    HW1 7766   3.899   0.677   6.959
 2289SOL    HW2 7767   3.800   0.781   6.882
 2290SOL     OW 7768   3.302   3.801   4.283
 2290SOL    HW1 7769   3.301   3.798   4.183
 2290SOL    HW2 7770   3.396   3.802   4.316
 2291SOL     OW 7771   1.988   2.423   0.378
 2291SOL    HW1 7772   1.930   2.493   0.419
 2291SOL    HW2 7773   1.946   2.389   0.294
 2292SOL     OW 7774   4.713   1.724   3.011
 2292SOL    HW1 7775   4.635   1.720   3.074
 2292SOL    HW2 7776   4.795   1.692   3.058
 2293SOL     OW 7777   0.715   1.135   6.592
 2293SOL    HW1 7778   0.746   1.105   6.502
 2293SOL    HW2 7779   0.763   1.083   6.663
 2294SOL     OW 7780   6.799   1.254   5.063
 2294SOL    HW1 7781   6.729   1.324   5.057
 2294SOL    HW2 7782   6.763   1.174   5.112
 2295SOL     OW 7783   5.326   5.860   0.696
 2295SOL    HW1 7784   5.284   5.862   0.605
 2295SOL    HW2 7785   5.421   5.829   0.688
 2296SOL     OW 7786   3.766   5.592   4.556
 2296SOL    HW1 7787   3.811   5.615   4.469
 2296SOL    HW2 7788   3.835   5.586   4.628
 2297SOL     OW 7789   6.121   3.576   5.734
 2297SOL    HW1 7790   6.084   3.483   5.745
 2297SOL    HW2 7791   6.191   3.575   5.663
 2298SOL     OW 7792   2.716   3.276   5.279
 2298SOL    HW1 7793   2.770   3.253   5.360
 2298SOL    HW2 7794   2.663   3.196   5.251
 2299SOL     OW 7795   5.669   3.517   4.642
 2299SOL    HW1 7796   5.667   3.426   4.600
 2299SOL    HW2 7797   5.585   3.566   4.619
 2300SOL     OW 7798   5.260   0.244   2.711
 2300SOL    HW1 7799   5.196   0.211   2.642
 2300SOL    HW2 7800   5.276   0.171   2.778
 2301SOL     OW 7801   3.759   3.257   4.930
 2301SOL    HW1 7802   3.686   3.267   4.997
 2301SOL    HW2 7803   3.755   3.332   4.864
 2302SOL     OW 7804   6.059   2.852   6.332
 2302SOL    HW1 7805   5.987   2.894   6.278
 2302SOL    HW2 7806   6.125   2.922   6.361
 2303SOL     OW 7807   2.819   1.746   6.750
 2303SOL    HW1 7808   2.867   1.677   6.696
 2303SOL    HW2 7809   2.772   1.702   6.827
 2304SOL     OW 7810   6.699   0.028   2.176
 2304SOL    HW1 7811   6.651   6.963   2.176
 2304SOL    HW2 7812   6.745   0.040   2.264
 2305SOL     OW 7813   2.998   6.765   5.278
 2305SOL    HW1 7814   2.992   6.789   5.181
 2305SOL    HW2 7815   3.007   6.848   5.332
 2306SOL     OW 7816   2.000   4.434   4.783
 2306SOL    HW1 7817   1.953   4.395   4.704
 2306SOL    HW2 7818   2.076   4.490   4.753
 2307SOL     OW 7819   6.906   3.774   5.023
 2307SOL    HW1 7820   6.936   3.736   4.935
 2307SOL    HW2 7821   6.985   3.794   5.080
 2308SOL     OW 7822   0.538   5.433   2.375
 2308SOL    HW1 7823   0.533   5.507   2.443
 2308SOL    HW2 7824   0.623   5.382   2.388
 2309SOL     OW 7825   2.244   0.470   4.916
 2309SOL    HW1 7826   2.215   0.566   4.928
 2309SOL    HW2 7827   2.244   0.447   4.819
 2310SOL     OW 7828   4.386   0.004   0.472
 2310SOL    HW1 7829   4.404   0.099   0.496
 2310SOL    HW2 7830   4.351   6.978   0.552
 2311SOL     OW 7831   2.176   5.662   0.641
 2311SOL    HW1 7832   2.273   5.656   0.620
 2311SOL    HW2 7833   2.164   5.677   0.739
 2312SOL     OW 7834   3.573   4.963   2.761
 2312SOL    HW1 7835   3.665   4.996   2.785
 2312SOL    HW2 7836   3.571   4.936   2.665
 2313SOL     OW 7837   4.816   4.517   1.632
 2313SOL    HW1 7838   4.889   4.506   1.700
 2313SOL    HW2 7839   4.803   4.431   1.583
 2314SOL     OW 7840   2.652   4.717   3.703
 2314SOL    HW1 7841   2.626   4.682   3.793
 2314SOL    HW2 7842   2.732   4.776   3.713
 2315SOL     OW 7843   4.861   1.853   0.105
 2315SOL    HW1 7844   4.793   1.884   0.172
 2315SOL    HW2 7845   4.815   1.807   0.029
 2316SOL     OW 7846   5.016   3.327   2.154
 2316SOL    HW1 7847   4.975   3.394   2.216
 2316SOL    HW2 7848   4.968   3.240   2.163
 2317SOL     OW 7849   0.869   6.133   3.497
 2317SOL    HW1 7850   0.862   6.233   3.501
 2317SOL    HW2 7851   0.963   6.107   3.474
 2318SOL     OW 7852   0.433   1.625   3.981
 2318SOL    HW1 7853   0.449   1.529   4.003
 2318SOL    HW2 7854   0.335   1.641   3.972
 2319SOL     OW 7855   1.200   4.649   1.811
 2319SOL    HW1 7856   1.220   4.691   1.899
 2319SOL    HW2 7857   1.207   4.550   1.819
 2320SOL     OW 7858   6.638   4.535   4.539
 2320SOL    HW1 7859   6.565   4.507   4.476
 2320SOL    HW2 7860   6.634   4.478   4.622
 2321SOL     OW 7861   4.038   5.309   4.487
 2321SOL    HW1 7862   4.131   5.274   4.477
 2321SOL    HW2 7863   4.015   5.366   4.408
 2322SOL     OW 7864   2.643   0.648   4.582
 2322SOL    HW1 7865   2.601   0.609   4.500
 2322SOL    HW2 7866   2.585   0.629   4.661
 2323SOL     OW 7867   4.887   3.691   2.066
 2323SOL    HW1 7868   4.833   3.680   2.149
 2323SOL    HW2 7869   4.972   3.640   2.074
 2324SOL     OW 7870   0.664   5.024   4.055
 2324SOL    HW1 7871   0.606   5.035   3.975
 2324SOL    HW2 7872   0.621   4.960   4.119
 2325SOL     OW 7873   0.138   2.456   0.208
 2325SOL    HW1 7874   0.106   2.548   0.185
 2325SOL    HW2 7875   0.233   2.461   0.240
 2326SOL     OW 7876   0.765   4.273   0.321
 2326SOL    HW1 7877   0.784   4.236   0.230
 2326SOL    HW2 7878   0.713   4.206   0.374
 2327SOL     OW 7879   5.158   1.177   3.659
 2327SOL    HW1 7880   5.209   1.110   3.712
 2327SOL    HW2 7881   5.118   1.245   3.720
 2328SOL     OW 7882   6.437   5.092   3.752
 2328SOL    HW1 7883   6.374   5.015   3.763
 2328SOL    HW2 7884   6.508   5.088   3.823
 2329SOL     OW 7885   1.122   6.032   3.433
 2329SOL    HW1 7886   1.197   6.086   3.469
 2329SOL    HW2 7887   1.146   5.935   3.435
 2330SOL     OW 7888   0.685   4.394   1.096
 2330SOL    HW1 7889   0.771   4.400   1.148
 2330SOL    HW2 7890   0.706   4.391   0.998
 2331SOL     OW 7891   1.375   4.520   5.501
 2331SOL    HW1 7892   1.311   4.518   5.424
 2331SOL    HW2 7893   1.420   4.609   5.504
 2332SOL     OW 7894   5.176   2.891   5.717
 2332SOL    HW1 7895   5.216   2.813   5.765
 2332SOL    HW2 7896   5.144   2.862   5.627
 2333SOL     OW 7897   2.871   4.833   3.750
 2333SOL    HW1 7898   2.928   4.908   3.718
 2333SOL    HW2 7899   2.907   4.797   3.836
 2334SOL     OW 7900   2.708   0.367   6.461
 2334SOL    HW1 7901   2.725   0.387   6.558
 2334SOL    HW2 7902   2.667   0.276   6.453
 2335SOL     OW 7903   4.516   4.601   4.586
 2335SOL    HW1 7904   4.435   4.636   4.539
 2335SOL    HW2 7905   4.501   4.605   4.685
 2336SOL     OW 7906   4.317   2.887   5.830
 2336SOL    HW1 7907   4.238   2.929   5.873
 2336SOL    HW2 7908   4.287   2.816   5.767
 2337SOL     OW 7909   5.987   0.303   4.476
 2337SOL    HW1 7910   6.050   0.252   4.534
 2337SOL    HW2 7911   5.914   0.342   4.533
 2338SOL     OW 7912   1.493   6.964   6.723
 2338SOL    HW1 7913   1.583   6.920   6.718
 2338SOL    HW2 7914   1.499   0.034   6.687
 2339SOL     OW 7915   4.236   5.152   0.082
 2339SOL    HW1 7916   4.307   5.223   0.082
 2339SOL    HW2 7917   4.147   5.195   0.071
 2340SOL     OW 7918   3.651   5.245   4.374
 2340SOL    HW1 7919   3.662   5.277   4.280
 2340SOL    HW2 7920   3.730   5.189   4.400
 2341SOL     OW 7921   5.479   5.053   6.332
 2341SOL    HW1 7922   5.568   5.063   6.288
 2341SOL    HW2 7923   5.491   5.032   6.429
 2342SOL     OW 7924   6.809   0.269   5.153
 2342SOL    HW1 7925   6.797   0.170   5.162
 2342SOL    HW2 7926   6.890   0.288   5.097
 2343SOL     OW 7927   0.915   0.173   0.169
 2343SOL    HW1 7928   0.995   0.113   0.169
 2343SOL    HW2 7929   0.843   0.132   0.225
 2344SOL     OW 7930   2.413   1.028   2.611
 2344SOL    HW1 7931   2.423   1.004   2.707
 2344SOL    HW2 7932   2.487   0.986   2.558
 2345SOL     OW 7933   0.837   1.915   2.152
 2345SOL    HW1 7934   0.928   1.953   2.137
 2345SOL    HW2 7935   0.769   1.989   2.147
 2346SOL     OW 7936   4.741   3.095   5.282
 2346SOL    HW1 7937   4.735   3.194   5.268
 2346SOL    HW2 7938   4.817   3.075   5.344
 2347SOL     OW 7939   1.851   3.482   1.010
 2347SOL    HW1 7940   1.801   3.568   0.995
 2347SOL    HW2 7941   1.943   3.490   0.971
 2348SOL     OW 7942   2.603   6.895   1.865
 2348SOL    HW1 7943   2.573   6.861   1.953
 2348SOL    HW2 7944   2.681   6.841   1.832
 2349SOL     OW 7945   4.830   4.094   6.918
 2349SOL    HW1 7946   4.810   4.191   6.931
 2349SOL    HW2 7947   4.817   4.071   6.821
 2350SOL     OW 7948   2.713   6.373   5.129
 2350SOL    HW1 7949   2.727   6.431   5.210
 2350SOL    HW2 7950   2.740   6.424   5.047
 2351SOL     OW 7951   1.634   5.189   3.090
 2351SOL    HW1 7952   1.652   5.220   3.184
 2351SOL    HW2 7953   1.564   5.248   3.049
 2352SOL     OW 7954   5.931   4.992   0.664
 2352SOL    HW1 7955   5.834   4.965   0.660
 2352SOL    HW2 7956   5.947   5.070   0.604
 2353SOL     OW 7957   2.457   3.867   6.296
 2353SOL    HW1 7958   2.359   3.857   6.276
 2353SOL    HW2 7959   2.506   3.887   6.211
 2354SOL     OW 7960   4.597   1.745   2.359
 2354SOL    HW1 7961   4.662   1.744   2.283
 2354SOL    HW2 7962   4.512   1.788   2.330
 2355SOL     OW 7963   0.004   1.571   1.971
 2355SOL    HW1 7964   6.954   1.631   2.005
 2355SOL    HW2 7965   0.093   1.607   1.999
 2356SOL     OW 7966   2.898   5.346   3.818
 2356SOL    HW1 7967   2.910   5.316   3.913
 2356SOL    HW2 7968   2.843   5.429   3.817
 2357SOL     OW 7969   0.836   4.770   0.610
 2357SOL    HW1 7970   0.891   4.693   0.640
 2357SOL    HW2 7971   0.872   4.855   0.649
 2358SOL     OW 7972   3.206   1.093   4.986
 2358SOL    HW1 7973   3.301   1.103   4.955
 2358SOL    HW2 7974   3.204   1.093   5.086
 2359SOL     OW 7975   2.052   2.077   5.609
 2359SOL    HW1 7976   2.096   2.162   5.578
 2359SOL    HW2 7977   2.038   2.017   5.531
 2360SOL     OW 7978   3.442   5.223   0.583
 2360SOL    HW1 7979   3.428   5.124   0.572
 2360SOL    HW2 7980   3.497   5.239   0.665
 2361SOL     OW 7981   3.484   6.071   1.202
 2361SOL    HW1 7982   3.400   6.116   1.232
 2361SOL    HW2 7983   3.491   6.075   1.103
 2362SOL     OW 7984   3.208   4.997   3.896
 2362SOL    HW1 7985   3.144   5.013   3.821
 2362SOL    HW2 7986   3.215   5.079   3.953
 2363SOL     OW 7987   1.902   3.856   1.285
 2363SOL    HW1 7988   1.871   3.934   1.340
 2363SOL    HW2 7989   1.934   3.889   1.196
 2364SOL     OW 7990   3.942   1.591   2.321
 2364SOL    HW1 7991   3.989   1.535   2.252
 2364SOL    HW2 7992   3.990   1.584   2.408
 2365SOL     OW 7993   5.057   4.339   3.003
 2365SOL    HW1 7994   5.143   4.388   3.018
 2365SOL    HW2 7995   4.992   4.362   3.076
 2366SOL     OW 7996   2.894   5.064   5.319
 2366SOL    HW1 7997   2.887   5.055   5.219
 2366SOL    HW2 7998   2.985   5.097   5.343
 2367SOL     OW 7999   5.703   5.099   5.764
 2367SOL    HW1 8000   5.693   5.124   5.668
 2367SOL    HW2 8001   5.688   5.180   5.822
 2368SOL     OW 8002   4.949   0.846   5.589
 2368SOL    HW1 8003   5.046   0.820   5.597
 2368SOL    HW2 8004   4.922   0.843   5.493
 2369SOL     OW 8005   3.762   2.033   4.020
 2369SOL    HW1 8006   3.690   2.026   4.089
 2369SOL    HW2 8007   3.835   1.967   4.041
 2370SOL     OW 8008   5.397   1.798   1.922
 2370SOL    HW1 8009   5.492   1.773   1.941
 2370SOL    HW2 8010   5.390   1.838   1.831
 2371SOL     OW 8011   1.271   6.416   1.934
 2371SOL    HW1 8012   1.253   6.420   1.836
 2371SOL    HW2 8013   1.369   6.402   1.950
 2372SOL     OW 8014   6.750   0.334   6.074
 2372SOL    HW1 8015   6.675   0.344   6.008
 2372SOL    HW2 8016   6.717   0.356   6.166
 2373SOL     OW 8017   5.738   4.681   6.063
 2373SOL    HW1 8018   5.820   4.717   6.020
 2373SOL    HW2 8019   5.763   4.609   6.128
 2374SOL     OW 8020   6.567   6.505   2.290
 2374SOL    HW1 8021   6.542   6.436   2.357
 2374SOL    HW2 8022   6.629   6.465   2.222
 2375SOL     OW 8023   1.982   0.447   4.501
 2375SOL    HW1 8024   1.941   0.537   4.520
 2375SOL    HW2 8025   2.042   0.454   4.421
 2376SOL     OW 8026   5.025   2.283   3.299
 2376SOL    HW1 8027   5.049   2.308   3.393
 2376SOL    HW2 8028   5.079   2.336   3.235
 2377SOL     OW 8029   4.217   3.762   5.967
 2377SOL    HW1 8030   4.286   3.718   5.909
 2377SOL    HW2 8031   4.130   3.712   5.958
 2378SOL     OW 8032   0.565   1.404   0.205
 2378SOL    HW1 8033   0.575   1.339   0.280
 2378SOL    HW2 8034   0.505   1.366   0.135
 2379SOL     OW 8035   0.494   5.110   2.574
 2379SOL    HW1 8036   0.541   5.057   2.504
 2379SOL    HW2 8037   0.559   5.171   2.620
 2380SOL     OW 8038   4.560   6.205   6.956
 2380SOL    HW1 8039   4.513   6.237   0.015
 2380SOL    HW2 8040   4.553   6.275   6.885
 2381SOL     OW 8041   2.151   3.239   4.130
 2381SOL    HW1 8042   2.153   3.307   4.057
 2381SOL    HW2 8043   2.186   3.152   4.095
 2382SOL     OW 8044   0.290   5.408   3.051
 2382SOL    HW1 8045   0.202   5.446   3.079
 2382SOL    HW2 8046   0.319   5.338   3.117
 2383SOL     OW 8047   4.619   4.007   5.748
 2383SOL    HW1 8048   4.628   4.065   5.667
 2383SOL    HW2 8049   4.552   4.047   5.810
 2384SOL     OW 8050   0.357   2.439   2.496
 2384SOL    HW1 8051   0.307   2.408   2.577
 2384SOL    HW2 8052   0.309   2.517   2.455
 2385SOL     OW 8053   0.163   1.220   0.179
 2385SOL    HW1 8054   0.220   1.147   0.215
 2385SOL    HW2 8055   0.097   1.183   0.114
 2386SOL     OW 8056   5.918   5.932   4.435
 2386SOL    HW1 8057   5.864   5.975   4.363
 2386SOL    HW2 8058   5.994   5.991   4.460
 2387SOL     OW 8059   0.768   1.142   4.005
 2387SOL    HW1 8060   0.787   1.182   4.095
 2387SOL    HW2 8061   0.696   1.073   4.014
 2388SOL     OW 8062   0.541   3.693   5.867
 2388SOL    HW1 8063   0.541   3.691   5.767
 2388SOL    HW2 8064   0.496   3.611   5.902
 2389SOL     OW 8065   4.309   5.385   3.040
 2389SOL    HW1 8066   4.234   5.368   3.104
 2389SOL    HW2 8067   4.395   5.389   3.089
 2390SOL     OW 8068   4.784   2.543   6.703
 2390SOL    HW1 8069   4.773   2.626   6.647
 2390SOL    HW2 8070   4.882   2.528   6.720
 2391SOL     OW 8071   3.409   3.990   6.735
 2391SOL    HW1 8072   3.322   3.978   6.783
 2391SOL    HW2 8073   3.483   3.987   6.802
 2392SOL     OW 8074   4.158   4.864   5.803
 2392SOL    HW1 8075   4.232   4.884   5.740
 2392SOL    HW2 8076   4.083   4.928   5.787
 2393SOL     OW 8077   4.225   4.391   0.546
 2393SOL    HW1 8078   4.143   4.448   0.558
 2393SOL    HW2 8079   4.258   4.399   0.452
 2394SOL     OW 8080   6.436   1.529   3.508
 2394SOL    HW1 8081   6.510   1.575   3.460
 2394SOL    HW2 8082   6.442   1.549   3.605
 2395SOL     OW 8083   1.472   2.733   3.608
 2395SOL    HW1 8084   1.478   2.799   3.532
 2395SOL    HW2 8085   1.557   2.681   3.614
 2396SOL     OW 8086   6.846   0.209   6.835
 2396SOL    HW1 8087   6.826   0.266   6.915
 2396SOL    HW2 8088   6.916   0.253   6.779
 2397SOL     OW 8089   2.092   4.436   5.258
 2397SOL    HW1 8090   2.053   4.350   5.293
 2397SOL    HW2 8091   2.139   4.483   5.332
 2398SOL     OW 8092   4.086   6.668   4.173
 2398SOL    HW1 8093   4.065   6.703   4.082
 2398SOL    HW2 8094   4.185   6.651   4.179
 2399SOL     OW 8095   3.368   1.940   2.582
 2399SOL    HW1 8096   3.415   1.970   2.665
 2399SOL    HW2 8097   3.366   1.840   2.579
 2400SOL     OW 8098   1.689   3.618   0.239
 2400SOL    HW1 8099   1.691   3.709   0.281
 2400SOL    HW2 8100   1.704   3.548   0.309
 2401SOL     OW 8101   2.025   6.241   6.682
 2401SOL    HW1 8102   1.952   6.178   6.653
 2401SOL    HW2 8103   2.040   6.310   6.611
 2402SOL     OW 8104   1.141   4.042   2.373
 2402SOL    HW1 8105   1.150   4.121   2.434
 2402SOL    HW2 8106   1.110   3.963   2.425
 2403SOL     OW 8107   2.977   3.630   5.448
 2403SOL    HW1 8108   2.931   3.572   5.381
 2403SOL    HW2 8109   2.943   3.724   5.440
 2404SOL     OW 8110   6.216   1.246   0.972
 2404SOL    HW1 8111   6.148   1.181   0.939
 2404SOL    HW2 8112   6.204   1.261   1.070
 2405SOL     OW 8113   1.682   3.146   0.737
 2405SOL    HW1 8114   1.727   3.229   0.703
 2405SOL    HW2 8115   1.652   3.161   0.831
 2406SOL     OW 8116   3.983   5.615   4.743
 2406SOL    HW1 8117   3.959   5.542   4.808
 2406SOL    HW2 8118   3.951   5.703   4.779
 2407SOL     OW 8119   2.573   1.765   3.248
 2407SOL    HW1 8120   2.603   1.807   3.162
 2407SOL    HW2 8121   2.502   1.697   3.228
 2408SOL     OW 8122   3.150   0.522   5.593
 2408SOL    HW1 8123   3.129   0.435   5.549
 2408SOL    HW2 8124   3.237   0.515   5.642
 2409SOL     OW 8125   0.613   3.021   0.273
 2409SOL    HW1 8126   0.587   3.036   0.368
 2409SOL    HW2 8127   0.713   3.012   0.266
 2410SOL     OW 8128   0.046   3.483   4.427
 2410SOL    HW1 8129   7.010   3.417   4.475
 2410SOL    HW2 8130   0.015   3.493   4.333
 2411SOL     OW 8131   2.815   1.949   0.218
 2411SOL    HW1 8132   2.746   1.888   0.182
 2411SOL    HW2 8133   2.817   1.943   0.318
 2412SOL     OW 8134   3.389   2.485   5.907
 2412SOL    HW1 8135   3.362   2.446   5.819
 2412SOL    HW2 8136   3.370   2.420   5.980
 2413SOL     OW 8137   0.421   3.423   6.885
 2413SOL    HW1 8138   0.361   3.350   6.851
 2413SOL    HW2 8139   0.501   3.383   6.929
 2414SOL     OW 8140   6.728   1.096   5.294
 2414SOL    HW1 8141   6.779   1.121   5.376
 2414SOL    HW2 8142   6.763   1.009   5.258
 2415SOL     OW 8143   3.165   4.855   6.361
 2415SOL    HW1 8144   3.182   4.835   6.265
 2415SOL    HW2 8145   3.070   4.834   6.383
 2416SOL     OW 8146   6.985   2.405   2.960
 2416SOL    HW1 8147   7.011   2.481   3.019
 2416SOL    HW2 8148   6.887   2.408   2.942
 2417SOL     OW 8149   3.474   2.310   1.223
 2417SOL    HW1 8150   3.412   2.366   1.278
 2417SOL    HW2 8151   3.461   2.214   1.247
 2418SOL     OW 8152   5.129   3.987   6.965
 2418SOL    HW1 8153   5.040   4.018   6.998
 2418SOL    HW2 8154   5.116   3.913   6.899
 2419SOL     OW 8155   2.803   1.000   3.476
 2419SOL    HW1 8156   2.825   1.061   3.400
 2419SOL    HW2 8157   2.769   1.054   3.553
 2420SOL     OW 8158   1.268   3.786   2.742
 2420SOL    HW1 8159   1.205   3.809   2.667
 2420SOL    HW2 8160   1.360   3.774   2.706
 2421SOL     OW 8161   3.013   6.739   3.183
 2421SOL    HW1 8162   3.066   6.782   3.111
 2421SOL    HW2 8163   3.050   6.766   3.272
 2422SOL     OW 8164   4.260   5.097   0.447
 2422SOL    HW1 8165   4.309   5.151   0.378
 2422SOL    HW2 8166   4.186   5.046   0.402
 2423SOL     OW 8167   2.588   5.424   3.625
 2423SOL    HW1 8168   2.563   5.490   3.554
 2423SOL    HW2 8169   2.598   5.333   3.584
 2424SOL     OW 8170   4.869   6.961   6.255
 2424SOL    HW1 8171   4.940   7.001   6.314
 2424SOL    HW2 8172   4.834   0.008   6.192
 2425SOL     OW 8173   4.317   5.748   5.141
 2425SOL    HW1 8174   4.268   5.673   5.098
 2425SOL    HW2 8175   4.317   5.827   5.079
 2426SOL     OW 8176   2.953   2.136   5.091
 2426SOL    HW1 8177   3.044   2.152   5.053
 2426SOL    HW2 8178   2.917   2.221   5.130
 2427SOL     OW 8179   4.619   1.493   0.766
 2427SOL    HW1 8180   4.672   1.490   0.681
 2427SOL    HW2 8181   4.531   1.449   0.752
 2428SOL     OW 8182   1.882   1.520   2.713
 2428SOL    HW1 8183   1.842   1.439   2.758
 2428SOL    HW2 8184   1.971   1.496   2.674
 2429SOL     OW 8185   6.335   5.643   1.031
 2429SOL    HW1 8186   6.282   5.560   1.016
 2429SOL    HW2 8187   6.340   5.663   1.128
 2430SOL     OW 8188   6.270   0.782   6.353
 2430SOL    HW1 8189   6.329   0.712   6.392
 2430SOL    HW2 8190   6.206   0.740   6.289
 2431SOL     OW 8191   0.822   3.315   2.153
 2431SOL    HW1 8192   0.825   3.248   2.078
 2431SOL    HW2 8193   0.910   3.315   2.201
 2432SOL     OW 8194   2.665   5.282   1.731
 2432SOL    HW1 8195   2.569   5.277   1.707
 2432SOL    HW2 8196   2.690   5.200   1.784
 2433SOL     OW 8197   0.463   4.138   5.392
 2433SOL    HW1 8198   0.502   4.160   5.302
 2433SOL    HW2 8199   0.537   4.112   5.454
 2434SOL     OW 8200   4.838   1.240   3.386
 2434SOL    HW1 8201   4.751   1.258   3.340
 2434SOL    HW2 8202   4.901   1.195   3.322
 2435SOL     OW 8203   6.054   6.623   6.515
 2435SOL    HW1 8204   6.059   6.648   6.611
 2435SOL    HW2 8205   6.144   6.637   6.472
 2436SOL     OW 8206   0.305   2.967   0.544
 2436SOL    HW1 8207   0.279   3.050   0.495
 2436SOL    HW2 8208   0.269   2.887   0.497
 2437SOL     OW 8209   0.086   3.797   1.254
 2437SOL    HW1 8210   0.074   3.842   1.166
 2437SOL    HW2 8211   0.139   3.713   1.242
 2438SOL     OW 8212   3.578   1.719   4.463
 2438SOL    HW1 8213   3.502   1.754   4.407
 2438SOL    HW2 8214   3.636   1.660   4.407
 2439SOL     OW 8215   1.349   5.431   1.381
 2439SOL    HW1 8216   1.412   5.495   1.336
 2439SOL    HW2 8217   1.385   5.406   1.470
 2440SOL     OW 8218   6.859   0.671   5.413
 2440SOL    HW1 8219   6.860   0.571   5.404
 2440SOL    HW2 8220   6.914   0.697   5.493
 2441SOL     OW 8221   5.879   0.724   1.044
 2441SOL    HW1 8222   5.871   0.650   0.977
 2441SOL    HW2 8223   5.968   0.768   1.035
 2442SOL     OW 8224   5.466   3.288   2.028
 2442SOL    HW1 8225   5.464   3.214   2.096
 2442SOL    HW2 8226   5.558   3.294   1.989
 2443SOL     OW 8227   0.685   3.347   1.607
 2443SOL    HW1 8228   0.666   3.268   1.665
 2443SOL    HW2 8229   0.677   3.431   1.660
 2444SOL     OW 8230   3.342   5.164   1.932
 2444SOL    HW1 8231   3.363   5.194   2.025
 2444SOL    HW2 8232   3.327   5.065   1.931
 2445SOL     OW 8233   0.480   1.811   0.930
 2445SOL    HW1 8234   0.539   1.841   0.855
 2445SOL    HW2 8235   0.386   1.802   0.897
 2446SOL     OW 8236   0.475   5.519   2.128
 2446SOL    HW1 8237   0.505   5.463   2.206
 2446SOL    HW2 8238   0.395   5.574   2.156
 2447SOL     OW 8239   1.769   0.045   0.726
 2447SOL    HW1 8240   1.743   0.114   0.794
 2447SOL    HW2 8241   1.687   7.018   0.696
 2448SOL     OW 8242   5.817   0.980   4.662
 2448SOL    HW1 8243   5.907   0.964   4.704
 2448SOL    HW2 8244   5.751   1.002   4.733
 2449SOL     OW 8245   1.638   4.635   1.160
 2449SOL    HW1 8246   1.612   4.540   1.178
 2449SOL    HW2 8247   1.617   4.658   1.066
 2450SOL     OW 8248   0.623   6.405   4.833
 2450SOL    HW1 8249   0.592   6.499   4.823
 2450SOL    HW2 8250   0.683   6.380   4.757
 2451SOL     OW 8251   2.041   6.733   5.626
 2451SOL    HW1 8252   2.023   6.831   5.615
 2451SOL    HW2 8253   2.032   6.708   5.722
 2452SOL     OW 8254   2.414   1.740   4.076
 2452SOL    HW1 8255   2.509   1.758   4.050
 2452SOL    HW2 8256   2.367   1.692   4.002
 2453SOL     OW 8257   1.603   1.948   5.798
 2453SOL    HW1 8258   1.586   2.045   5.782
 2453SOL    HW2 8259   1.683   1.919   5.746
 2454SOL     OW 8260   3.188   6.187   0.850
 2454SOL    HW1 8261   3.199   6.194   0.751
 2454SOL    HW2 8262   3.158   6.094   0.874
 2455SOL     OW 8263   4.112   2.315   1.047
 2455SOL    HW1 8264   4.186   2.382   1.047
 2455SOL    HW2 8265   4.149   2.224   1.068
 2456SOL     OW 8266   0.402   3.907   6.009
 2456SOL    HW1 8267   0.473   3.841   5.985
 2456SOL    HW2 8268   0.399   3.918   6.108
 2457SOL     OW 8269   4.185   1.990   5.287
 2457SOL    HW1 8270   4.211   2.086   5.279
 2457SOL    HW2 8271   4.136   1.961   5.204
 2458SOL     OW 8272   0.602   0.001   3.101
 2458SOL    HW1 8273   0.626   6.947   3.042
 2458SOL    HW2 8274   0.642   0.085   3.065
 2459SOL     OW 8275   1.597   6.767   0.802
 2459SOL    HW1 8276   1.511   6.793   0.846
 2459SOL    HW2 8277   1.671   6.823   0.840
 2460SOL     OW 8278   0.421   0.917   4.619
 2460SOL    HW1 8279   0.517   0.943   4.628
 2460SOL    HW2 8280   0.414   0.828   4.575
 2461SOL     OW 8281   4.405   1.280   3.580
 2461SOL    HW1 8282   4.358   1.192   3.584
 2461SOL    HW2 8283   4.504   1.264   3.583
 2462SOL     OW 8284   0.461   5.651   0.568
 2462SOL    HW1 8285   0.474   5.553   0.580
 2462SOL    HW2 8286   0.439   5.693   0.657
 2463SOL     OW 8287   6.608   0.021   0.129
 2463SOL    HW1 8288   6.684   0.084   0.144
 2463SOL    HW2 8289   6.644   6.952   0.110
 2464SOL     OW 8290   0.496   2.169   4.733
 2464SOL    HW1 8291   0.562   2.213   4.671
 2464SOL    HW2 8292   0.403   2.195   4.706
 2465SOL     OW 8293   6.792   6.929   6.341
 2465SOL    HW1 8294   6.877   6.900   6.297
 2465SOL    HW2 8295   6.737   6.982   6.277
 2466SOL     OW 8296   0.776   1.550   1.688
 2466SOL    HW1 8297   0.792   1.607   1.769
 2466SOL    HW2 8298   0.682   1.565   1.656
 2467SOL     OW 8299   5.582   3.027   5.089
 2467SOL    HW1 8300   5.677   3.055   5.072
 2467SOL    HW2 8301   5.582   2.944   5.145
 2468SOL     OW 8302   3.466   6.923   5.346
 2468SOL    HW1 8303   3.459   6.935   5.445
 2468SOL    HW2 8304   3.558   6.891   5.323
 2469SOL     OW 8305   3.709   1.901   5.826
 2469SOL    HW1 8306   3.637   1.937   5.887
 2469SOL    HW2 8307   3.787   1.964   5.827
 2470SOL     OW 8308   2.248   5.359   6.604
 2470SOL    HW1 8309   2.341   5.351   6.640
 2470SOL    HW2 8310   2.186   5.389   6.677
 2471SOL     OW 8311   2.991   5.121   1.785
 2471SOL    HW1 8312   3.061   5.189   1.807
 2471SOL    HW2 8313   2.938   5.100   1.867
 2472SOL     OW 8314   4.683   1.300   3.638
 2472SOL    HW1 8315   4.728   1.304   3.550
 2472SOL    HW2 8316   4.734   1.354   3.705
 2473SOL     OW 8317   0.218   4.161   3.816
 2473SOL    HW1 8318   0.283   4.192   3.885
 2473SOL    HW2 8319   0.238   4.206   3.729
 2474SOL     OW 8320   0.775   6.070   1.833
 2474SOL    HW1 8321   0.690   6.047   1.786
 2474SOL    HW2 8322   0.819   6.147   1.788
 2475SOL     OW 8323   4.785   0.937   0.310
 2475SOL    HW1 8324   4.882   0.919   0.330
 2475SOL    HW2 8325   4.754   0.876   0.238
 2476SOL     OW 8326   4.581   0.613   0.891
 2476SOL    HW1 8327   4.526   0.600   0.808
 2476SOL    HW2 8328   4.538   0.682   0.949
 2477SOL     OW 8329   3.541   0.017   3.347
 2477SOL    HW1 8330   3.588   0.093   3.302
 2477SOL    HW2 8331   3.442   0.029   3.338
 2478SOL     OW 8332   4.588   0.251   4.672
 2478SOL    HW1 8333   4.523   0.205   4.611
 2478SOL    HW2 8334   4.667   0.192   4.686
 2479SOL     OW 8335   5.817   3.107   1.172
 2479SOL    HW1 8336   5.841   3.101   1.269
 2479SOL    HW2 8337   5.766   3.026   1.145
 2480SOL     OW 8338   3.787   2.201   1.479
 2480SOL    HW1 8339   3.773   2.133   1.407
 2480SOL    HW2 8340   3.869   2.254   1.460
 2481SOL     OW 8341   3.100   6.787   1.829
 2481SOL    HW1 8342   3.090   6.705   1.886
 2481SOL    HW2 8343   3.197   6.805   1.813
 2482SOL     OW 8344   6.406   3.317   6.935
 2482SOL    HW1 8345   6.431   3.388   7.000
 2482SOL    HW2 8346   6.481   3.303   6.869
 2483SOL     OW 8347   1.380   2.631   0.930
 2483SOL    HW1 8348   1.295   2.601   0.887
 2483SOL    HW2 8349   1.437   2.678   0.863
 2484SOL     OW 8350   4.209   1.060   0.181
 2484SOL    HW1 8351   4.280   1.130   0.191
 2484SOL    HW2 8352   4.122   1.096   0.214
 2485SOL     OW 8353   0.317   2.010   6.318
 2485SOL    HW1 8354   0.320   2.007   6.218
 2485SOL    HW2 8355   0.238   2.064   6.348
 2486SOL     OW 8356   6.828   5.874   4.051
 2486SOL    HW1 8357   6.873   5.786   4.033
 2486SOL    HW2 8358   6.740   5.877   4.003
 2487SOL     OW 8359   4.874   6.266   6.703
 2487SOL    HW1 8360   4.776   6.250   6.687
 2487SOL    HW2 8361   4.889   6.274   6.802
 2488SOL     OW 8362   6.439   4.023   0.776
 2488SOL    HW1 8363   6.444   3.924   0.760
 2488SOL    HW2 8364   6.345   4.054   0.758
 2489SOL     OW 8365   6.399   5.200   4.435
 2489SOL    HW1 8366   6.330   5.193   4.507
 2489SOL    HW2 8367   6.376   5.275   4.373
 2490SOL     OW 8368   2.757   5.587   3.350
 2490SOL    HW1 8369   2.847   5.543   3.347
 2490SOL    HW2 8370   2.686   5.518   3.334
 2491SOL     OW 8371   3.793   4.486   1.593
 2491SOL    HW1 8372   3.718   4.436   1.636
 2491SOL    HW2 8373   3.837   4.428   1.525
 2492SOL     OW 8374   6.698   5.237   1.383
 2492SOL    HW1 8375   6.664   5.299   1.453
 2492SOL    HW2 8376   6.798   5.234   1.386
 2493SOL     OW 8377   5.344   6.724   0.898
 2493SOL    HW1 8378   5.397   6.639   0.896
 2493SOL    HW2 8379   5.311   6.745   0.806
 2494SOL     OW 8380   6.613   4.286   1.573
 2494SOL    HW1 8381   6.670   4.211   1.607
 2494SOL    HW2 8382   6.528   4.290   1.624
 2495SOL     OW 8383   0.492   4.594   2.607
 2495SOL    HW1 8384   0.579   4.593   2.655
 2495SOL    HW2 8385   0.438   4.673   2.638
 2496SOL     OW 8386   5.798   4.838   6.412
 2496SOL    HW1 8387   5.850   4.824   6.497
 2496SOL    HW2 8388   5.813   4.931   6.379
 2497SOL     OW 8389   0.078   0.017   2.494
 2497SOL    HW1 8390   0.062   0.082   2.568
 2497SOL    HW2 8391   0.152   6.978   2.519
 2498SOL     OW 8392   2.037   3.597   5.547
 2498SOL    HW1 8393   1.951   3.630   5.585
 2498SOL    HW2 8394   2.050   3.635   5.455
 2499SOL     OW 8395   6.763   4.084   1.716
 2499SOL    HW1 8396   6.778   4.009   1.652
 2499SOL    HW2 8397   6.783   4.054   1.809
 2500SOL     OW 8398   3.704   3.200   1.119
 2500SOL    HW1 8399   3.611   3.184   1.086
 2500SOL    HW2 8400   3.739   3.117   1.161
 2501SOL     OW 8401   5.868   5.341   6.455
 2501SOL    HW1 8402   5.770   5.349   6.436
 2501SOL    HW2 8403   5.919   5.401   6.394
 2502SOL     OW 8404   2.540   6.150   4.357
 2502SOL    HW1 8405   2.493   6.061   4.353
 2502SOL    HW2 8406   2.482   6.216   4.405
 2503SOL     OW 8407   3.230   6.677   5.581
 2503SOL    HW1 8408   3.253   6.676   5.484
 2503SOL    HW2 8409   3.313   6.676   5.636
 2504SOL     OW 8410   3.635   6.814   3.557
 2504SOL    HW1 8411   3.648   6.883   3.629
 2504SOL    HW2 8412   3.673   6.849   3.471
 2505SOL     OW 8413   0.175   4.690   4.180
 2505SOL    HW1 8414   0.102   4.625   4.157
 2505SOL    HW2 8415   0.218   4.724   4.097
 2506SOL     OW 8416   5.186   5.474   5.689
 2506SOL    HW1 8417   5.206   5.377   5.679
 2506SOL    HW2 8418   5.103   5.485   5.744
 2507SOL     OW 8419   6.843   3.076   1.383
 2507SOL    HW1 8420   6.862   3.117   1.294
 2507SOL    HW2 8421   6.748   3.043   1.385
 2508SOL     OW 8422   5.104   1.708   4.653
 2508SOL    HW1 8423   5.190   1.747   4.621
 2508SOL    HW2 8424   5.029   1.744   4.597
 2509SOL     OW 8425   0.014   4.130   5.813
 2509SOL    HW1 8426   7.014   4.185   5.732
 2509SOL    HW2 8427   6.990   4.166   5.893
 2510SOL     OW 8428   3.299   3.969   1.958
 2510SOL    HW1 8429   3.377   3.951   2.019
 2510SOL    HW2 8430   3.328   4.029   1.883
 2511SOL     OW 8431   2.222   0.412   4.648
 2511SOL    HW1 8432   2.242   0.339   4.583
 2511SOL    HW2 8433   2.131   0.450   4.630
 2512SOL     OW 8434   3.515   4.972   4.092
 2512SOL    HW1 8435   3.471   4.883   4.092
 2512SOL    HW2 8436   3.456   5.039   4.138
 2513SOL     OW 8437   2.540   5.459   6.020
 2513SOL    HW1 8438   2.578   5.465   6.112
 2513SOL    HW2 8439   2.462   5.397   6.019
 2514SOL     OW 8440   1.306   2.001   2.396
 2514SOL    HW1 8441   1.390   2.042   2.362
 2514SOL    HW2 8442   1.251   2.071   2.442
 2515SOL     OW 8443   1.362   1.378   1.237
 2515SOL    HW1 8444   1.322   1.468   1.250
 2515SOL    HW2 8445   1.445   1.369   1.292
 2516SOL     OW 8446   6.180   2.017   4.546
 2516SOL    HW1 8447   6.102   2.080   4.551
 2516SOL    HW2 8448   6.161   1.945   4.480
 2517SOL     OW 8449   1.248   1.533   4.429
 2517SOL    HW1 8450   1.148   1.528   4.431
 2517SOL    HW2 8451   1.281   1.575   4.513
 2518SOL     OW 8452   2.872   4.917   1.033
 2518SOL    HW1 8453   2.800   4.862   1.074
 2518SOL    HW2 8454   2.890   4.997   1.090
 2519SOL     OW 8455   1.149   1.366   1.029
 2519SOL    HW1 8456   1.220   1.348   1.097
 2519SOL    HW2 8457   1.154   1.462   1.000
 2520SOL     OW 8458   2.391   2.128   0.334
 2520SOL    HW1 8459   2.430   2.086   0.416
 2520SOL    HW2 8460   2.317   2.190   0.361
 2521SOL     OW 8461   4.744   1.224   5.370
 2521SOL    HW1 8462   4.677   1.154   5.395
 2521SOL    HW2 8463   4.802   1.244   5.449
 2522SOL     OW 8464   0.936   2.602   6.251
 2522SOL    HW1 8465   0.931   2.689   6.203
 2522SOL    HW2 8466   0.889   2.609   6.339
 2523SOL     OW 8467   1.833   5.195   6.583
 2523SOL    HW1 8468   1.785   5.109   6.568
 2523SOL    HW2 8469   1.924   5.176   6.621
 2524SOL     OW 8470   1.414   0.659   4.201
 2524SOL    HW1 8471   1.505   0.663   4.159
 2524SOL    HW2 8472   1.359   0.589   4.155
 2525SOL     OW 8473   6.449   2.687   5.436
 2525SOL    HW1 8474   6.539   2.701   5.395
 2525SOL    HW2 8475   6.391   2.638   5.371
 2526SOL     OW 8476   1.267   6.640   1.147
 2526SOL    HW1 8477   1.172   6.670   1.144
 2526SOL    HW2 8478   1.276   6.553   1.097
 2527SOL     OW 8479   4.883   4.998   5.962
 2527SOL    HW1 8480   4.797   4.948   5.951
 2527SOL    HW2 8481   4.913   4.992   6.058
 2528SOL     OW 8482   4.525   6.044   6.675
 2528SOL    HW1 8483   4.568   5.954   6.665
 2528SOL    HW2 8484   4.477   6.048   6.762
 2529SOL     OW 8485   0.559   0.004   6.629
 2529SOL    HW1 8486   0.513   0.093   6.632
 2529SOL    HW2 8487   0.491   6.954   6.625
 2530SOL     OW 8488   2.189   5.789   6.398
 2530SOL    HW1 8489   2.151   5.720   6.336
 2530SOL    HW2 8490   2.288   5.795   6.385
 2531SOL     OW 8491   6.755   5.429   5.811
 2531SOL    HW1 8492   6.692   5.497   5.850
 2531SOL    HW2 8493   6.846   5.470   5.800
 2532SOL     OW 8494   5.479   6.472   0.852
 2532SOL    HW1 8495   5.523   6.504   0.936
 2532SOL    HW2 8496   5.500   6.375   0.839
 2533SOL     OW 8497   4.982   0.976   3.723
 2533SOL    HW1 8498   5.021   1.054   3.674
 2533SOL    HW2 8499   4.927   1.009   3.800
 2534SOL     OW 8500   3.859   1.281   2.783
 2534SOL    HW1 8501   3.830   1.270   2.878
 2534SOL    HW2 8502   3.958   1.277   2.778
 2535SOL     OW 8503   3.829   2.889   6.462
 2535SOL    HW1 8504   3.812   2.873   6.559
 2535SOL    HW2 8505   3.861   2.983   6.449
 2536SOL     OW 8506   1.292   0.746   0.480
 2536SOL    HW1 8507   1.330   0.717   0.392
 2536SOL    HW2 8508   1.349   0.818   0.519
 2537SOL     OW 8509   3.794   6.892   6.551
 2537SOL    HW1 8510   3.892   6.879   6.566
 2537SOL    HW2 8511   3.773   6.990   6.545
 2538SOL     OW 8512   6.469   3.340   3.841
 2538SOL    HW1 8513   6.401   3.313   3.909
 2538SOL    HW2 8514   6.489   3.438   3.851
 2539SOL     OW 8515   5.308   2.316   5.531
 2539SOL    HW1 8516   5.264   2.274   5.451
 2539SOL    HW2 8517   5.287   2.414   5.531
 2540SOL     OW 8518   3.121   1.502   2.094
 2540SOL    HW1 8519   3.180   1.531   2.019
 2540SOL    HW2 8520   3.107   1.579   2.157
 2541SOL     OW 8521   3.573   6.609   4.422
 2541SOL    HW1 8522   3.669   6.595   4.395
 2541SOL    HW2 8523   3.513   6.555   4.363
 2542SOL     OW 8524   1.836   4.929   6.263
 2542SOL    HW1 8525   1.779   4.858   6.224
 2542SOL    HW2 8526   1.853   5.000   6.195
 2543SOL     OW 8527   1.445   1.168   3.795
 2543SOL    HW1 8528   1.530   1.216   3.814
 2543SOL    HW2 8529   1.464   1.071   3.782
 2544SOL     OW 8530   1.251   5.075   6.952
 2544SOL    HW1 8531   1.173   5.131   6.925
 2544SOL    HW2 8532   1.229   5.025   0.014
 2545SOL     OW 8533   2.929   5.858   2.727
 2545SOL    HW1 8534   2.907   5.911   2.809
 2545SOL    HW2 8535   2.881   5.898   2.649
 2546SOL     OW 8536   6.927   1.375   1.086
 2546SOL    HW1 8537   6.981   1.415   1.160
 2546SOL    HW2 8538   6.982   1.369   1.003
 2547SOL     OW 8539   0.753   3.460   4.918
 2547SOL    HW1 8540   0.770   3.481   5.014
 2547SOL    HW2 8541   0.839   3.464   4.867
 2548SOL     OW 8542   0.758   0.292   4.269
 2548SOL    HW1 8543   0.743   0.272   4.172
 2548SOL    HW2 8544   0.819   0.223   4.308
 2549SOL     OW 8545   6.602   2.534   1.159
 2549SOL    HW1 8546   6.530   2.471   1.190
 2549SOL    HW2 8547   6.690   2.488   1.165
 2550SOL     OW 8548   6.329   6.212   0.242
 2550SOL    HW1 8549   6.318   6.134   0.305
 2550SOL    HW2 8550   6.426   6.224   0.221
 2551SOL     OW 8551   1.277   3.937   6.568
 2551SOL    HW1 8552   1.272   3.895   6.477
 2551SOL    HW2 8553   1.236   3.874   6.635
 2552SOL     OW 8554   1.735   5.581   3.787
 2552SOL    HW1 8555   1.717   5.637   3.706
 2552SOL    HW2 8556   1.826   5.601   3.821
 2553SOL     OW 8557   4.002   3.590   6.811
 2553SOL    HW1 8558   4.038   3.583   6.904
 2553SOL    HW2 8559   4.075   3.617   6.749
 2554SOL     OW 8560   1.579   1.224   7.014
 2554SOL    HW1 8561   1.540   1.315   0.003
 2554SOL    HW2 8562   1.596   1.207   6.917
 2555SOL     OW 8563   6.121   1.019   6.993
 2555SOL    HW1 8564   6.136   0.921   7.007
 2555SOL    HW2 8565   6.061   1.054   0.041
 2556SOL     OW 8566   2.670   5.749   0.944
 2556SOL    HW1 8567   2.661   5.677   0.875
 2556SOL    HW2 8568   2.735   5.818   0.913
 2557SOL     OW 8569   2.088   3.949   0.132
 2557SOL    HW1 8570   2.023   3.873   0.121
 2557SOL    HW2 8571   2.068   3.996   0.218
 2558SOL     OW 8572   3.903   0.364   5.569
 2558SOL    HW1 8573   3.993   0.389   5.533
 2558SOL    HW2 8574   3.893   0.397   5.663
 2559SOL     OW 8575   6.953   5.048   4.981
 2559SOL    HW1 8576   6.857   5.073   4.969
 2559SOL    HW2 8577   7.011   5.125   4.958
 2560SOL     OW 8578   6.184   1.444   0.008
 2560SOL    HW1 8579   6.223   1.521   6.980
 2560SOL    HW2 8580   6.088   1.463   0.030
 2561SOL     OW 8581   3.538   5.478   4.476
 2561SOL    HW1 8582   3.563   5.382   4.461
 2561SOL    HW2 8583   3.622   5.532   4.487
 2562SOL     OW 8584   1.963   4.091   6.854
 2562SOL    HW1 8585   1.935   4.014   6.912
 2562SOL    HW2 8586   1.887   4.116   6.794
 2563SOL     OW 8587   2.277   1.176   0.173
 2563SOL    HW1 8588   2.335   1.107   0.131
 2563SOL    HW2 8589   2.326   1.218   0.250
 2564SOL     OW 8590   1.573   6.008   1.185
 2564SOL    HW1 8591   1.511   6.028   1.261
 2564SOL    HW2 8592   1.627   5.926   1.207
 2565SOL     OW 8593   1.809   0.445   1.511
 2565SOL    HW1 8594   1.777   0.378   1.444
 2565SOL    HW2 8595   1.866   0.399   1.579
 2566SOL     OW 8596   1.519   6.491   6.264
 2566SOL    HW1 8597   1.420   6.500   6.251
 2566SOL    HW2 8598   1.553   6.416   6.206
 2567SOL     OW 8599   1.211   6.300   0.167
 2567SOL    HW1 8600   1.231   6.205   0.193
 2567SOL    HW2 8601   1.289   6.358   0.190
 2568SOL     OW 8602   4.447   2.882   0.054
 2568SOL    HW1 8603   4.453   2.960   7.014
 2568SOL    HW2 8604   4.431   2.915   0.147
 2569SOL     OW 8605   2.636   0.640   2.987
 2569SOL    HW1 8606   2.592   0.648   2.897
 2569SOL    HW2 8607   2.566   0.622   3.056
 2570SOL     OW 8608   5.343   2.264   6.265
 2570SOL    HW1 8609   5.418   2.329   6.262
 2570SOL    HW2 8610   5.379   2.171   6.280
 2571SOL     OW 8611   1.190   4.115   4.497
 2571SOL    HW1 8612   1.186   4.015   4.495
 2571SOL    HW2 8613   1.117   4.150   4.556
 2572SOL     OW 8614   1.618   4.748   3.637
 2572SOL    HW1 8615   1.674   4.677   3.594
 2572SOL    HW2 8616   1.675   4.807   3.694
 2573SOL     OW 8617   1.197   0.401   0.914
 2573SOL    HW1 8618   1.176   0.376   0.819
 2573SOL    HW2 8619   1.294   0.390   0.931
 2574SOL     OW 8620   5.998   2.897   0.458
 2574SOL    HW1 8621   5.991   2.827   0.387
 2574SOL    HW2 8622   6.045   2.977   0.421
 2575SOL     OW 8623   0.979   5.388   6.473
 2575SOL    HW1 8624   1.069   5.423   6.448
 2575SOL    HW2 8625   0.933   5.454   6.532
 2576SOL     OW 8626   4.309   5.986   3.740
 2576SOL    HW1 8627   4.314   5.889   3.718
 2576SOL    HW2 8628   4.398   6.029   3.723
 2577SOL     OW 8629   2.271   4.273   2.378
 2577SOL    HW1 8630   2.276   4.235   2.285
 2577SOL    HW2 8631   2.219   4.358   2.376
 2578SOL     OW 8632   4.083   1.737   3.371
 2578SOL    HW1 8633   4.138   1.798   3.314
 2578SOL    HW2 8634   4.137   1.710   3.452
 2579SOL     OW 8635   0.984   6.774   3.717
 2579SOL    HW1 8636   0.950   6.715   3.790
 2579SOL    HW2 8637   0.992   6.867   3.750
 2580SOL     OW 8638   1.642   2.194   6.380
 2580SOL    HW1 8639   1.599   2.113   6.337
 2580SOL    HW2 8640   1.711   2.231   6.318
 2581SOL     OW 8641   3.478   0.492   5.062
 2581SOL    HW1 8642   3.398   0.506   5.119
 2581SOL    HW2 8643   3.459   0.525   4.969
 2582SOL     OW 8644   0.178   3.020   1.807
 2582SOL    HW1 8645   0.194   2.940   1.748
 2582SOL    HW2 8646   0.080   3.031   1.822
 2583SOL     OW 8647   5.772   0.207   0.767
 2583SOL    HW1 8648   5.777   0.255   0.855
 2583SOL    HW2 8649   5.689   0.235   0.719
 2584SOL     OW 8650   4.337   4.444   6.057
 2584SOL    HW1 8651   4.257   4.385   6.056
 2584SOL    HW2 8652   4.349   4.485   5.966
 2585SOL     OW 8653   3.324   4.642   6.470
 2585SOL    HW1 8654   3.243   4.643   6.529
 2585SOL    HW2 8655   3.321   4.721   6.409
 2586SOL     OW 8656   2.589   0.937   3.697
 2586SOL    HW1 8657   2.636   0.867   3.752
 2586SOL    HW2 8658   2.555   0.896   3.613
 2587SOL     OW 8659   6.716   1.377   3.885
 2587SOL    HW1 8660   6.626   1.339   3.863
 2587SOL    HW2 8661   6.787   1.319   3.844
 2588SOL     OW 8662   4.594   0.629   6.365
 2588SOL    HW1 8663   4.532   0.672   6.432
 2588SOL    HW2 8664   4.689   0.643   6.394
 2589SOL     OW 8665   2.098   6.583   0.276
 2589SOL    HW1 8666   2.017   6.530   0.304
 2589SOL    HW2 8667   2.180   6.537   0.309
 2590SOL     OW 8668   2.480   5.282   0.271
 2590SOL    HW1 8669   2.576   5.294   0.294
 2590SOL    HW2 8670   2.429   5.256   0.353
 2591SOL     OW 8671   6.204   5.499   3.627
 2591SOL    HW1 8672   6.164   5.424   3.574
 2591SOL    HW2 8673   6.172   5.587   3.592
 2592SOL     OW 8674   2.474   3.858   0.986
 2592SOL    HW1 8675   2.432   3.876   1.075
 2592SOL    HW2 8676   2.568   3.893   0.985
 2593SOL     OW 8677   3.205   3.871   0.647
 2593SOL    HW1 8678   3.183   3.884   0.551
 2593SOL    HW2 8679   3.224   3.775   0.664
 2594SOL     OW 8680   1.725   3.544   4.590
 2594SOL    HW1 8681   1.636   3.560   4.630
 2594SOL    HW2 8682   1.794   3.538   4.662
 2595SOL     OW 8683   2.124   1.462   2.565
 2595SOL    HW1 8684   2.158   1.379   2.608
 2595SOL    HW2 8685   2.201   1.521   2.541
 2596SOL     OW 8686   1.118   2.110   0.152
 2596SOL    HW1 8687   1.040   2.145   0.101
 2596SOL    HW2 8688   1.093   2.097   0.247
 2597SOL     OW 8689   6.856   6.200   6.624
 2597SOL    HW1 8690   6.955   6.201   6.631
 2597SOL    HW2 8691   6.818   6.277   6.676
 2598SOL     OW 8692   5.927   2.634   2.704
 2598SOL    HW1 8693   5.853   2.585   2.658
 2598SOL    HW2 8694   5.984   2.680   2.636
 2599SOL     OW 8695   3.247   5.803   1.411
 2599SOL    HW1 8696   3.345   5.810   1.393
 2599SOL    HW2 8697   3.229   5.721   1.465
 2600SOL     OW 8698   5.826   4.128   4.413
 2600SOL    HW1 8699   5.844   4.226   4.413
 2600SOL    HW2 8700   5.892   4.082   4.472
 2601SOL     OW 8701   6.857   1.615   3.759
 2601SOL    HW1 8702   6.884   1.670   3.839
 2601SOL    HW2 8703   6.820   1.528   3.790
 2602SOL     OW 8704   1.216   4.230   3.250
 2602SOL    HW1 8705   1.275   4.302   3.213
 2602SOL    HW2 8706   1.269   4.147   3.266
 2603SOL     OW 8707   2.746   6.268   2.753
 2603SOL    HW1 8708   2.757   6.169   2.761
 2603SOL    HW2 8709   2.804   6.314   2.821
 2604SOL     OW 8710   4.660   2.724   3.571
 2604SOL    HW1 8711   4.700   2.811   3.544
 2604SOL    HW2 8712   4.653   2.719   3.670
 2605SOL     OW 8713   1.801   4.133   2.075
 2605SOL    HW1 8714   1.818   4.220   2.120
 2605SOL    HW2 8715   1.884   4.078   2.075
 2606SOL     OW 8716   4.523   3.635   1.166
 2606SOL    HW1 8717   4.504   3.536   1.169
 2606SOL    HW2 8718   4.607   3.654   1.215
 2607SOL     OW 8719   2.756   2.274   1.551
 2607SOL    HW1 8720   2.807   2.282   1.637
 2607SOL    HW2 8721   2.817   2.297   1.474
 2608SOL     OW 8722   2.768   4.926   5.710
 2608SOL    HW1 8723   2.748   4.961   5.619
 2608SOL    HW2 8724   2.706   4.850   5.731
 2609SOL     OW 8725   0.203   2.493   0.819
 2609SOL    HW1 8726   0.233   2.402   0.847
 2609SOL    HW2 8727   0.142   2.485   0.740
 2610SOL     OW 8728   1.714   4.129   5.024
 2610SOL    HW1 8729   1.635   4.138   5.084
 2610SOL    HW2 8730   1.756   4.039   5.038
 2611SOL     OW 8731   5.013   0.351   6.932
 2611SOL    HW1 8732   5.073   0.282   6.892
 2611SOL    HW2 8733   4.985   0.323   0.001
 2612SOL     OW 8734   6.508   0.195   5.967
 2612SOL    HW1 8735   6.544   0.124   5.906
 2612SOL    HW2 8736   6.497   0.280   5.916
 2613SOL     OW 8737   0.815   6.728   6.823
 2613SOL    HW1 8738   0.821   6.790   6.745
 2613SOL    HW2 8739   0.733   6.748   6.876
 2614SOL     OW 8740   6.160   1.577   6.697
 2614SOL    HW1 8741   6.202   1.632   6.624
 2614SOL    HW2 8742   6.092   1.633   6.745
 2615SOL     OW 8743   0.563   3.099   6.839
 2615SOL    HW1 8744   0.531   3.099   6.934
 2615SOL    HW2 8745   0.626   3.023   6.824
 2616SOL     OW 8746   1.177   1.186   5.182
 2616SOL    HW1 8747   1.197   1.209   5.277
 2616SOL    HW2 8748   1.180   1.087   5.171
 2617SOL     OW 8749   4.938   0.152   1.479
 2617SOL    HW1 8750   4.849   0.175   1.441
 2617SOL    HW2 8751   4.966   0.221   1.545
 2618SOL     OW 8752   1.052   6.345   5.929
 2618SOL    HW1 8753   0.957   6.312   5.931
 2618SOL    HW2 8754   1.088   6.338   5.837
 2619SOL     OW 8755   5.359   1.342   2.621
 2619SOL    HW1 8756   5.405   1.280   2.685
 2619SOL    HW2 8757   5.265   1.311   2.607
 2620SOL     OW 8758   6.041   1.428   1.428
 2620SOL    HW1 8759   5.986   1.362   1.480
 2620SOL    HW2 8760   6.137   1.402   1.431
 2621SOL     OW 8761   1.786   6.029   1.485
 2621SOL    HW1 8762   1.748   5.936   1.488
 2621SOL    HW2 8763   1.861   6.036   1.550
 2622SOL     OW 8764   3.169   3.522   6.744
 2622SOL    HW1 8765   3.125   3.610   6.727
 2622SOL    HW2 8766   3.111   3.467   6.804
 2623SOL     OW 8767   0.289   6.111   3.266
 2623SOL    HW1 8768   0.331   6.122   3.175
 2623SOL    HW2 8769   0.256   6.017   3.276
 2624SOL     OW 8770   0.171   1.523   4.841
 2624SOL    HW1 8771   0.168   1.478   4.751
 2624SOL    HW2 8772   0.250   1.585   4.844
 2625SOL     OW 8773   2.443   5.054   6.456
 2625SOL    HW1 8774   2.534   5.080   6.424
 2625SOL    HW2 8775   2.414   4.970   6.411
 2626SOL     OW 8776   0.009   5.809   6.673
 2626SOL    HW1 8777   6.997   5.898   6.703
 2626SOL    HW2 8778   0.102   5.819   6.637
 2627SOL     OW 8779   1.995   0.176   6.283
 2627SOL    HW1 8780   1.975   0.173   6.381
 2627SOL    HW2 8781   1.916   0.214   6.234
 2628SOL     OW 8782   7.005   4.588   1.247
 2628SOL    HW1 8783   0.049   4.550   1.183
 2628SOL    HW2 8784   0.017   4.580   1.340
 2629SOL     OW 8785   3.278   4.120   2.556
 2629SOL    HW1 8786   3.213   4.148   2.627
 2629SOL    HW2 8787   3.235   4.051   2.497
 2630SOL     OW 8788   3.620   0.820   4.351
 2630SOL    HW1 8789   3.686   0.797   4.279
 2630SOL    HW2 8790   3.587   0.736   4.394
 2631SOL     OW 8791   5.402   0.211   7.019
 2631SOL    HW1 8792   5.450   0.269   6.952
 2631SOL    HW2 8793   5.449   0.216   0.084
 2632SOL     OW 8794   5.998   5.036   2.031
 2632SOL    HW1 8795   5.968   5.069   1.942
 2632SOL    HW2 8796   5.942   4.959   2.060
 2633SOL     OW 8797   0.111   3.229   6.038
 2633SOL    HW1 8798   0.112   3.167   6.117
 2633SOL    HW2 8799   0.193   3.213   5.982
 2634SOL     OW 8800   0.468   0.822   5.827
 2634SOL    HW1 8801   0.457   0.910   5.779
 2634SOL    HW2 8802   0.502   0.754   5.764
 2635SOL     OW 8803   4.427   5.430   3.394
 2635SOL    HW1 8804   4.387   5.345   3.427
 2635SOL    HW2 8805   4.361   5.504   3.406
 2636SOL     OW 8806   3.665   6.229   5.953
 2636SOL    HW1 8807   3.758   6.259   5.972
 2636SOL    HW2 8808   3.618   6.298   5.898
 2637SOL     OW 8809   0.775   0.974   3.192
 2637SOL    HW1 8810   0.865   0.999   3.226
 2637SOL    HW2 8811   0.705   1.010   3.253
 2638SOL     OW 8812   0.944   6.326   4.404
 2638SOL    HW1 8813   1.007   6.391   4.362
 2638SOL    HW2 8814   0.936   6.244   4.347
 2639SOL     OW 8815   4.216   4.803   4.995
 2639SOL    HW1 8816   4.247   4.719   5.040
 2639SOL    HW2 8817   4.274   4.822   4.916
 2640SOL     OW 8818   2.190   0.764   3.647
 2640SOL    HW1 8819   2.170   0.841   3.586
 2640SOL    HW2 8820   2.178   0.678   3.597
 2641SOL     OW 8821   5.992   2.128   6.856
 2641SOL    HW1 8822   5.907   2.086   6.826
 2641SOL    HW2 8823   5.973   2.193   6.929
 2642SOL     OW 8824   6.128   0.435   3.502
 2642SOL    HW1 8825   6.099   0.358   3.444
 2642SOL    HW2 8826   6.060   0.450   3.574
 2643SOL     OW 8827   2.310   4.777   3.970
 2643SOL    HW1 8828   2.247   4.707   4.005
 2643SOL    HW2 8829   2.258   4.853   3.931
 2644SOL     OW 8830   5.445   5.455   4.730
 2644SOL    HW1 8831   5.406   5.401   4.805
 2644SOL    HW2 8832   5.537   5.422   4.709
 2645SOL     OW 8833   4.733   5.862   3.283
 2645SOL    HW1 8834   4.756   5.772   3.320
 2645SOL    HW2 8835   4.816   5.907   3.250
 2646SOL     OW 8836   1.097   2.891   6.449
 2646SOL    HW1 8837   1.172   2.952   6.425
 2646SOL    HW2 8838   1.016   2.916   6.396
 2647SOL     OW 8839   4.876   6.908   2.346
 2647SOL    HW1 8840   4.838   7.000   2.357
 2647SOL    HW2 8841   4.808   6.841   2.377
 2648SOL     OW 8842   0.781   6.523   6.363
 2648SOL    HW1 8843   0.682   6.517   6.373
 2648SOL    HW2 8844   0.810   6.619   6.367
 2649SOL     OW 8845   5.229   1.516   3.466
 2649SOL    HW1 8846   5.139   1.474   3.473
 2649SOL    HW2 8847   5.231   1.600   3.520
 2650SOL     OW 8848   3.046   6.760   4.012
 2650SOL    HW1 8849   3.133   6.710   4.004
 2650SOL    HW2 8850   3.055   6.830   4.083
 2651SOL     OW 8851   4.484   2.465   4.097
 2651SOL    HW1 8852   4.494   2.509   4.187
 2651SOL    HW2 8853   4.388   2.437   4.085
 2652SOL     OW 8854   4.844   4.437   5.369
 2652SOL    HW1 8855   4.866   4.380   5.449
 2652SOL    HW2 8856   4.905   4.516   5.367
 2653SOL     OW 8857   2.199   5.936   6.618
 2653SOL    HW1 8858   2.190   6.034   6.604
 2653SOL    HW2 8859   2.195   5.889   6.530
 2654SOL     OW 8860   0.067   0.885   0.262
 2654SOL    HW1 8861   0.048   0.885   0.361
 2654SOL    HW2 8862   0.025   0.966   0.221
 2655SOL     OW 8863   5.566   6.485   2.809
 2655SOL    HW1 8864   5.574   6.527   2.718
 2655SOL    HW2 8865   5.527   6.551   2.873
 2656SOL     OW 8866   4.271   6.034   3.326
 2656SOL    HW1 8867   4.366   6.057   3.344
 2656SOL    HW2 8868   4.213   6.114   3.344
 2657SOL     OW 8869   0.896   3.443   6.791
 2657SOL    HW1 8870   0.909   3.520   6.854
 2657SOL    HW2 8871   0.817   3.462   6.732
 2658SOL     OW 8872   3.643   5.297   0.791
 2658SOL    HW1 8873   3.632   5.274   0.887
 2658SOL    HW2 8874   3.733   5.340   0.777
 2659SOL     OW 8875   6.923   2.175   5.095
 2659SOL    HW1 8876   6.834   2.196   5.056
 2659SOL    HW2 8877   6.982   2.135   5.024
 2660SOL     OW 8878   0.016   1.585   1.709
 2660SOL    HW1 8879   0.027   1.495   1.668
 2660SOL    HW2 8880   7.013   1.575   1.805
 2661SOL     OW 8881   1.699   1.018   0.900
 2661SOL    HW1 8882   1.784   1.069   0.890
 2661SOL    HW2 8883   1.633   1.072   0.953
 2662SOL     OW 8884   2.861   1.794   2.225
 2662SOL    HW1 8885   2.952   1.752   2.223
 2662SOL    HW2 8886   2.831   1.805   2.319
 2663SOL     OW 8887   4.057   0.006   0.131
 2663SOL    HW1 8888   4.017   6.964   0.066
 2663SOL    HW2 8889   4.081   6.980   0.215
 2664SOL     OW 8890   5.145   3.754   5.339
 2664SOL    HW1 8891   5.102   3.844   5.338
 2664SOL    HW2 8892   5.133   3.713   5.429
 2665SOL     OW 8893   1.883   2.929   4.068
 2665SOL    HW1 8894   1.864   2.867   4.144
 2665SOL    HW2 8895   1.889   3.023   4.102
 2666SOL     OW 8896   1.806   3.974   1.718
 2666SOL    HW1 8897   1.844   4.064   1.696
 2666SOL    HW2 8898   1.729   3.985   1.781
 2667SOL     OW 8899   6.703   2.634   5.339
 2667SOL    HW1 8900   6.771   2.586   5.283
 2667SOL    HW2 8901   6.747   2.670   5.421
 2668SOL     OW 8902   6.254   0.695   2.984
 2668SOL    HW1 8903   6.199   0.667   3.063
 2668SOL    HW2 8904   6.198   0.753   2.924
 2669SOL     OW 8905   2.511   0.519   0.409
 2669SOL    HW1 8906   2.438   0.588   0.414
 2669SOL    HW2 8907   2.500   0.454   0.484
 2670SOL     OW 8908   0.187   0.069   6.381
 2670SOL    HW1 8909   0.276   0.114   6.386
 2670SOL    HW2 8910   0.139   0.100   6.299
 2671SOL     OW 8911   5.058   4.451   6.196
 2671SOL    HW1 8912   5.068   4.503   6.281
 2671SOL    HW2 8913   5.070   4.513   6.118
 2672SOL     OW 8914   3.386   0.909   2.005
 2672SOL    HW1 8915   3.329   0.870   2.077
 2672SOL    HW2 8916   3.441   0.984   2.043
 2673SOL     OW 8917   4.038   0.666   2.658
 2673SOL    HW1 8918   4.011   0.758   2.686
 2673SOL    HW2 8919   4.124   0.642   2.703
 2674SOL     OW 8920   0.282   5.663   2.889
 2674SOL    HW1 8921   0.367   5.682   2.938
 2674SOL    HW2 8922   0.270   5.564   2.880
 2675SOL     OW 8923   4.340   1.375   4.425
 2675SOL    HW1 8924   4.369   1.330   4.340
 2675SOL    HW2 8925   4.420   1.395   4.481
 2676SOL     OW 8926   3.492   4.087   3.817
 2676SOL    HW1 8927   3.508   4.109   3.914
 2676SOL    HW2 8928   3.394   4.073   3.802
 2677SOL     OW 8929   1.945   5.822   1.291
 2677SOL    HW1 8930   2.012   5.752   1.315
 2677SOL    HW2 8931   1.866   5.815   1.351
 2678SOL     OW 8932   3.805   1.763   2.670
 2678SOL    HW1 8933   3.837   1.726   2.756
 2678SOL    HW2 8934   3.784   1.688   2.607
 2679SOL     OW 8935   1.898   3.163   2.514
 2679SOL    HW1 8936   1.932   3.090   2.574
 2679SOL    HW2 8937   1.820   3.208   2.558
 2680SOL     OW 8938   5.609   2.236   0.160
 2680SOL    HW1 8939   5.699   2.215   0.199
 2680SOL    HW2 8940   5.572   2.154   0.116
 2681SOL     OW 8941   2.123   2.678   3.472
 2681SOL    HW1 8942   2.137   2.665   3.570
 2681SOL    HW2 8943   2.180   2.614   3.421
 2682SOL     OW 8944   3.653   4.178   1.413
 2682SOL    HW1 8945   3.648   4.246   1.340
 2682SOL    HW2 8946   3.566   4.129   1.419
 2683SOL     OW 8947   2.114   3.999   1.724
 2683SOL    HW1 8948   2.202   3.963   1.693
 2683SOL    HW2 8949   2.047   3.924   1.725
 2684SOL     OW 8950   6.736   0.013   3.981
 2684SOL    HW1 8951   6.806   0.060   4.036
 2684SOL    HW2 8952   6.649   0.062   3.990
 2685SOL     OW 8953   0.864   6.083   5.286
 2685SOL    HW1 8954   0.878   5.988   5.258
 2685SOL    HW2 8955   0.804   6.128   5.220
 2686SOL     OW 8956   1.521   0.735   5.646
 2686SOL    HW1 8957   1.616   0.708   5.626
 2686SOL    HW2 8958   1.469   0.741   5.561
 2687SOL     OW 8959   4.105   1.894   1.577
 2687SOL    HW1 8960   4.111   1.954   1.497
 2687SOL    HW2 8961   4.009   1.883   1.603
 2688SOL     OW 8962   3.904   2.592   6.834
 2688SOL    HW1 8963   3.989   2.604   6.782
 2688SOL    HW2 8964   3.828   2.635   6.785
 2689SOL     OW 8965   0.672   3.727   3.539
 2689SOL    HW1 8966   0.594   3.784   3.516
 2689SOL    HW2 8967   0.748   3.749   3.478
 2690SOL     OW 8968   4.541   1.039   5.517
 2690SOL    HW1 8969   4.560   1.063   5.612
 2690SOL    HW2 8970   4.617   0.985   5.480
 2691SOL     OW 8971   0.207   4.168   5.307
 2691SOL    HW1 8972   0.304   4.173   5.333
 2691SOL    HW2 8973   0.198   4.115   5.223
 2692SOL     OW 8974   2.513   5.959   2.209
 2692SOL    HW1 8975   2.438   5.992   2.266
 2692SOL    HW2 8976   2.522   5.860   2.220
 2693SOL     OW 8977   1.141   6.401   3.517
 2693SOL    HW1 8978   1.189   6.313   3.516
 2693SOL    HW2 8979   1.130   6.432   3.612
 2694SOL     OW 8980   2.489   0.275   2.570
 2694SOL    HW1 8981   2.504   0.374   2.567
 2694SOL    HW2 8982   2.459   0.243   2.480
 2695SOL     OW 8983   0.248   4.981   3.946
 2695SOL    HW1 8984   0.288   4.922   4.016
 2695SOL    HW2 8985   0.159   4.945   3.919
 2696SOL     OW 8986   4.954   5.188   6.397
 2696SOL    HW1 8987   4.896   5.262   6.362
 2696SOL    HW2 8988   4.913   5.151   6.480
 2697SOL     OW 8989   4.123   1.849   0.199
 2697SOL    HW1 8990   4.118   1.782   0.125
 2697SOL    HW2 8991   4.174   1.810   0.276
 2698SOL     OW 8992   1.858   5.699   5.806
 2698SOL    HW1 8993   1.925   5.760   5.849
 2698SOL    HW2 8994   1.804   5.750   5.739
 2699SOL     OW 8995   2.521   6.357   2.371
 2699SOL    HW1 8996   2.580   6.278   2.356
 2699SOL    HW2 8997   2.560   6.414   2.444
 2700SOL     OW 8998   4.456   2.036   1.346
 2700SOL    HW1 8999   4.360   2.014   1.361
 2700SOL    HW2 9000   4.502   1.961   1.299
 2701SOL     OW 9001   4.873   3.566   4.435
 2701SOL    HW1 9002   4.853   3.586   4.339
 2701SOL    HW2 9003   4.862   3.649   4.490
 2702SOL     OW 9004   2.697   1.538   4.958
 2702SOL    HW1 9005   2.681   1.543   4.860
 2702SOL    HW2 9006   2.610   1.532   5.006
 2703SOL     OW 9007   2.620   6.477   2.616
 2703SOL    HW1 9008   2.552   6.530   2.667
 2703SOL    HW2 9009   2.658   6.406   2.676
 2704SOL     OW 9010   5.030   0.756   3.577
 2704SOL    HW1 9011   5.059   0.785   3.486
 2704SOL    HW2 9012   5.007   0.836   3.632
 2705SOL     OW 9013   0.236   0.232   5.613
 2705SOL    HW1 9014   0.200   0.325   5.611
 2705SOL    HW2 9015   0.162   0.167   5.600
 2706SOL     OW 9016   6.684   3.980   3.183
 2706SOL    HW1 9017   6.599   4.009   3.226
 2706SOL    HW2 9018   6.680   3.881   3.165
 2707SOL     OW 9019   4.153   0.746   3.605
 2707SOL    HW1 9020   4.223   0.814   3.583
 2707SOL    HW2 9021   4.162   0.718   3.701
 2708SOL     OW 9022   5.244   3.656   5.999
 2708SOL    HW1 9023   5.284   3.691   6.084
 2708SOL    HW2 9024   5.145   3.670   6.000
 2709SOL     OW 9025   4.453   1.297   5.584
 2709SOL    HW1 9026   4.378   1.284   5.649
 2709SOL    HW2 9027   4.460   1.217   5.525
 2710SOL     OW 9028   0.816   3.084   4.266
 2710SOL    HW1 9029   0.862   3.113   4.182
 2710SOL    HW2 9030   0.850   3.139   4.342
 2711SOL     OW 9031   4.312   0.910   1.808
 2711SOL    HW1 9032   4.360   0.848   1.747
 2711SOL    HW2 9033   4.214   0.905   1.791
 2712SOL     OW 9034   4.936   6.271   2.235
 2712SOL    HW1 9035   4.981   6.193   2.279
 2712SOL    HW2 9036   4.969   6.281   2.141
 2713SOL     OW 9037   3.670   5.099   5.013
 2713SOL    HW1 9038   3.763   5.094   5.049
 2713SOL    HW2 9039   3.639   5.194   5.015
 2714SOL     OW 9040   3.266   4.392   6.470
 2714SOL    HW1 9041   3.338   4.330   6.500
 2714SOL    HW2 9042   3.305   4.484   6.457
 2715SOL     OW 9043   4.106   6.950   6.216
 2715SOL    HW1 9044   4.196   6.959   6.172
 2715SOL    HW2 9045   4.069   0.019   6.233
 2716SOL     OW 9046   4.077   0.831   3.133
 2716SOL    HW1 9047   4.073   0.862   3.228
 2716SOL    HW2 9048   4.127   0.744   3.129
 2717SOL     OW 9049   1.192   1.966   1.720
 2717SOL    HW1 9050   1.287   1.993   1.738
 2717SOL    HW2 9051   1.145   2.039   1.671
 2718SOL     OW 9052   6.750   1.587   5.626
 2718SOL    HW1 9053   6.738   1.596   5.724
 2718SOL    HW2 9054   6.838   1.544   5.606
 2719SOL     OW 9055   1.431   5.350   3.525
 2719SOL    HW1 9056   1.418   5.266   3.579
 2719SOL    HW2 9057   1.414   5.430   3.584
 2720SOL     OW 9058   1.437   5.907   5.880
 2720SOL    HW1 9059   1.340   5.902   5.856
 2720SOL    HW2 9060   1.473   5.996   5.853
 2721SOL     OW 9061   2.805   6.709   1.739
 2721SOL    HW1 9062   2.833   6.682   1.647
 2721SOL    HW2 9063   2.862   6.786   1.770
 2722SOL     OW 9064   3.804   4.926   6.381
 2722SOL    HW1 9065   3.856   4.968   6.307
 2722SOL    HW2 9066   3.829   4.830   6.391
 2723SOL     OW 9067   3.737   5.925   6.617
 2723SOL    HW1 9068   3.699   5.991   6.681
 2723SOL    HW2 9069   3.806   5.870   6.662
 2724SOL     OW 9070   0.273   5.962   1.019
 2724SOL    HW1 9071   0.237   6.049   1.055
 2724SOL    HW2 9072   0.226   5.939   0.934
 2725SOL     OW 9073   5.830   4.481   3.994
 2725SOL    HW1 9074   5.765   4.410   4.023
 2725SOL    HW2 9075   5.823   4.493   3.895
 2726SOL     OW 9076   6.710   1.955   2.272
 2726SOL    HW1 9077   6.630   2.007   2.303
 2726SOL    HW2 9078   6.689   1.858   2.270
 2727SOL     OW 9079   1.376   5.896   3.636
 2727SOL    HW1 9080   1.393   5.807   3.678
 2727SOL    HW2 9081   1.386   5.888   3.537
 2728SOL     OW 9082   4.518   5.555   6.223
 2728SOL    HW1 9083   4.441   5.520   6.170
 2728SOL    HW2 9084   4.556   5.636   6.179
 2729SOL     OW 9085   5.771   0.472   6.532
 2729SOL    HW1 9086   5.803   0.381   6.556
 2729SOL    HW2 9087   5.843   0.521   6.483
 2730SOL     OW 9088   1.299   6.091   2.954
 2730SOL    HW1 9089   1.237   6.068   3.029
 2730SOL    HW2 9090   1.255   6.071   2.867
 2731SOL     OW 9091   3.054   4.033   4.580
 2731SOL    HW1 9092   3.145   4.063   4.553
 2731SOL    HW2 9093   3.042   4.050   4.678
 2732SOL     OW 9094   5.228   0.467   1.762
 2732SOL    HW1 9095   5.259   0.456   1.857
 2732SOL    HW2 9096   5.246   0.383   1.711
 2733SOL     OW 9097   0.792   5.980   0.069
 2733SOL    HW1 9098   0.876   5.944   0.110
 2733SOL    HW2 9099   0.724   5.908   0.062
 2734SOL     OW 9100   3.707   6.303   2.474
 2734SOL    HW1 9101   3.760   6.370   2.423
 2734SOL    HW2 9102   3.722   6.316   2.572
 2735SOL     OW 9103   0.531   1.545   1.577
 2735SOL    HW1 9104   0.515   1.454   1.539
 2735SOL    HW2 9105   0.457   1.568   1.641
 2736SOL     OW 9106   5.692   4.247   3.216
 2736SOL    HW1 9107   5.718   4.259   3.312
 2736SOL    HW2 9108   5.724   4.325   3.163
 2737SOL     OW 9109   3.227   0.679   5.193
 2737SOL    HW1 9110   3.250   0.736   5.272
 2737SOL    HW2 9111   3.188   0.736   5.121
 2738SOL     OW 9112   4.754   5.708   1.397
 2738SOL    HW1 9113   4.695   5.691   1.319
 2738SOL    HW2 9114   4.702   5.695   1.482
 2739SOL     OW 9115   6.988   5.232   1.447
 2739SOL    HW1 9116   6.978   5.314   1.504
 2739SOL    HW2 9117   6.954   5.153   1.498
 2740SOL     OW 9118   0.650   5.548   3.437
 2740SOL    HW1 9119   0.663   5.548   3.536
 2740SOL    HW2 9120   0.673   5.458   3.400
 2741SOL     OW 9121   0.653   0.092   5.503
 2741SOL    HW1 9122   0.571   0.103   5.559
 2741SOL    HW2 9123   0.721   0.039   5.554
 2742SOL     OW 9124   3.272   5.574   2.171
 2742SOL    HW1 9125   3.290   5.649   2.236
 2742SOL    HW2 9126   3.337   5.580   2.095
 2743SOL     OW 9127   5.351   1.524   2.435
 2743SOL    HW1 9128   5.366   1.466   2.515
 2743SOL    HW2 9129   5.270   1.491   2.386
 2744SOL     OW 9130   3.526   4.103   2.693
 2744SOL    HW1 9131   3.428   4.100   2.671
 2744SOL    HW2 9132   3.537   4.125   2.790
 2745SOL     OW 9133   0.606   5.963   0.621
 2745SOL    HW1 9134   0.617   5.886   0.558
 2745SOL    HW2 9135   0.539   6.027   0.584
 2746SOL     OW 9136   1.656   1.583   3.462
 2746SOL    HW1 9137   1.724   1.646   3.424
 2746SOL    HW2 9138   1.698   1.494   3.477
 2747SOL     OW 9139   3.784   4.432   0.994
 2747SOL    HW1 9140   3.839   4.514   1.006
 2747SOL    HW2 9141   3.830   4.369   0.932
 2748SOL     OW 9142   4.031   0.119   0.558
 2748SOL    HW1 9143   4.004   0.213   0.539
 2748SOL    HW2 9144   3.989   0.089   0.644
 2749SOL     OW 9145   3.208   1.473   0.913
 2749SOL    HW1 9146   3.148   1.495   0.837
 2749SOL    HW2 9147   3.187   1.532   0.991
 2750SOL     OW 9148   3.176   5.385   2.380
 2750SOL    HW1 9149   3.099   5.433   2.422
 2750SOL    HW2 9150   3.212   5.441   2.305
 2751SOL     OW 9151   6.229   5.002   1.132
 2751SOL    HW1 9152   6.203   5.029   1.040
 2751SOL    HW2 9153   6.315   4.951   1.129
 2752SOL     OW 9154   4.178   5.673   6.680
 2752SOL    HW1 9155   4.177   5.765   6.641
 2752SOL    HW2 9156   4.117   5.614   6.627
 2753SOL     OW 9157   5.422   5.881   5.271
 2753SOL    HW1 9158   5.404   5.965   5.323
 2753SOL    HW2 9159   5.400   5.896   5.175
 2754SOL     OW 9160   1.397   6.682   6.006
 2754SOL    HW1 9161   1.350   6.638   6.082
 2754SOL    HW2 9162   1.443   6.765   6.038
 2755SOL     OW 9163   4.103   0.651   2.330
 2755SOL    HW1 9164   4.047   0.635   2.412
 2755SOL    HW2 9165   4.182   0.706   2.354
 2756SOL     OW 9166   4.668   5.965   6.981
 2756SOL    HW1 9167   4.634   6.059   6.986
 2756SOL    HW2 9168   4.762   5.961   7.014
 2757SOL     OW 9169   0.306   4.884   1.081
 2757SOL    HW1 9170   0.315   4.790   1.049
 2757SOL    HW2 9171   0.391   4.913   1.125
 2758SOL     OW 9172   3.980   1.020   5.611
 2758SOL    HW1 9173   4.020   1.069   5.688
 2758SOL    HW2 9174   4.030   1.042   5.527
 2759SOL     OW 9175   4.904   5.252   4.778
 2759SOL    HW1 9176   4.992   5.258   4.731
 2759SOL    HW2 9177   4.830   5.250   4.712
 2760SOL     OW 9178   1.796   6.474   3.889
 2760SOL    HW1 9179   1.784   6.408   3.814
 2760SOL    HW2 9180   1.756   6.436   3.972
 2761SOL     OW 9181   2.118   5.296   3.636
 2761SOL    HW1 9182   2.178   5.216   3.629
 2761SOL    HW2 9183   2.023   5.266   3.643
 2762SOL     OW 9184   1.403   0.607   4.835
 2762SOL    HW1 9185   1.347   0.641   4.911
 2762SOL    HW2 9186   1.386   0.510   4.822
 2763SOL     OW 9187   5.430   1.916   2.722
 2763SOL    HW1 9188   5.439   1.985   2.794
 2763SOL    HW2 9189   5.334   1.891   2.712
 2764SOL     OW 9190   6.512   0.924   2.086
 2764SOL    HW1 9191   6.535   0.827   2.087
 2764SOL    HW2 9192   6.580   0.974   2.033
 2765SOL     OW 9193   5.804   2.270   2.371
 2765SOL    HW1 9194   5.892   2.250   2.415
 2765SOL    HW2 9195   5.792   2.369   2.363
 2766SOL     OW 9196   6.088   0.397   2.587
 2766SOL    HW1 9197   6.023   0.442   2.526
 2766SOL    HW2 9198   6.135   0.324   2.538
 2767SOL     OW 9199   6.233   4.593   5.850
 2767SOL    HW1 9200   6.296   4.579   5.774
 2767SOL    HW2 9201   6.223   4.507   5.901
 2768SOL     OW 9202   5.963   1.313   6.424
 2768SOL    HW1 9203   5.989   1.401   6.384
 2768SOL    HW2 9204   5.980   1.314   6.522
 2769SOL     OW 9205   1.232   4.635   1.354
 2769SOL    HW1 9206   1.147   4.686   1.345
 2769SOL    HW2 9207   1.218   4.557   1.414
 2770SOL     OW 9208   6.400   5.894   1.617
 2770SOL    HW1 9209   6.330   5.824   1.614
 2770SOL    HW2 9210   6.365   5.978   1.575
 2771SOL     OW 9211   4.869   1.336   1.166
 2771SOL    HW1 9212   4.770   1.347   1.152
 2771SOL    HW2 9213   4.887   1.324   1.264
 2772SOL     OW 9214   3.884   2.312   6.457
 2772SOL    HW1 9215   3.927   2.398   6.483
 2772SOL    HW2 9216   3.936   2.236   6.495
 2773SOL     OW 9217   3.356   4.356   0.884
 2773SOL    HW1 9218   3.415   4.333   0.806
 2773SOL    HW2 9219   3.263   4.324   0.867
 2774SOL     OW 9220   5.542   3.402   2.545
 2774SOL    HW1 9221   5.566   3.313   2.508
 2774SOL    HW2 9222   5.625   3.458   2.555
 2775SOL     OW 9223   6.729   0.136   2.473
 2775SOL    HW1 9224   6.819   0.153   2.513
 2775SOL    HW2 9225   6.682   0.065   2.525
 2776SOL     OW 9226   3.497   5.825   5.892
 2776SOL    HW1 9227   3.534   5.915   5.868
 2776SOL    HW2 9228   3.434   5.795   5.821
 2777SOL     OW 9229   2.771   1.285   3.575
 2777SOL    HW1 9230   2.870   1.295   3.585
 2777SOL    HW2 9231   2.730   1.271   3.665
 2778SOL     OW 9232   2.379   1.984   4.634
 2778SOL    HW1 9233   2.390   2.054   4.705
 2778SOL    HW2 9234   2.459   1.923   4.635
 2779SOL     OW 9235   6.152   1.129   0.633
 2779SOL    HW1 9236   6.064   1.166   0.602
 2779SOL    HW2 9237   6.219   1.137   0.559
 2780SOL     OW 9238   4.357   6.014   0.155
 2780SOL    HW1 9239   4.279   6.061   0.196
 2780SOL    HW2 9240   4.360   5.919   0.187
 2781SOL     OW 9241   5.008   4.564   0.434
 2781SOL    HW1 9242   5.060   4.478   0.440
 2781SOL    HW2 9243   4.968   4.585   0.523
 2782SOL     OW 9244   2.518   1.441   6.381
 2782SOL    HW1 9245   2.553   1.364   6.328
 2782SOL    HW2 9246   2.537   1.427   6.478
 2783SOL     OW 9247   0.606   4.674   6.100
 2783SOL    HW1 9248   0.532   4.639   6.044
 2783SOL    HW2 9249   0.651   4.599   6.147
 2784SOL     OW 9250   2.415   2.136   1.880
 2784SOL    HW1 9251   2.390   2.226   1.844
 2784SOL    HW2 9252   2.468   2.146   1.964
 2785SOL     OW 9253   5.930   1.122   1.279
 2785SOL    HW1 9254   5.921   1.023   1.283
 2785SOL    HW2 9255   5.884   1.157   1.197
 2786SOL     OW 9256   3.020   0.024   0.210
 2786SOL    HW1 9257   2.955   0.036   0.285
 2786SOL    HW2 9258   2.990   0.076   0.131
 2787SOL     OW 9259   2.025   2.926   5.296
 2787SOL    HW1 9260   2.106   2.882   5.335
 2787SOL    HW2 9261   1.966   2.958   5.369
 2788SOL     OW 9262   0.909   3.751   6.928
 2788SOL    HW1 9263   0.886   3.757   0.003
 2788SOL    HW2 9264   0.845   3.807   6.875
 2789SOL     OW 9265   7.002   2.385   4.289
 2789SOL    HW1 9266   0.073   2.403   4.318
 2789SOL    HW2 9267   6.966   2.465   4.243
 2790SOL     OW 9268   3.540   6.029   3.753
 2790SOL    HW1 9269   3.564   6.125   3.738
 2790SOL    HW2 9270   3.528   6.013   3.851
 2791SOL     OW 9271   2.253   2.710   2.516
 2791SOL    HW1 9272   2.288   2.617   2.502
 2791SOL    HW2 9273   2.261   2.735   2.613
 2792SOL     OW 9274   1.097   2.584   4.977
 2792SOL    HW1 9275   1.113   2.547   5.068
 2792SOL    HW2 9276   0.999   2.577   4.955
 2793SOL     OW 9277   5.250   0.837   4.046
 2793SOL    HW1 9278   5.195   0.801   4.121
 2793SOL    HW2 9279   5.347   0.821   4.065
 2794SOL     OW 9280   0.696   0.836   1.122
 2794SOL    HW1 9281   0.677   0.751   1.172
 2794SOL    HW2 9282   0.790   0.833   1.086
 2795SOL     OW 9283   1.923   4.193   1.651
 2795SOL    HW1 9284   2.021   4.172   1.653
 2795SOL    HW2 9285   1.910   4.290   1.629
 2796SOL     OW 9286   5.066   4.306   2.484
 2796SOL    HW1 9287   4.971   4.335   2.470
 2796SOL    HW2 9288   5.106   4.280   2.397
 2797SOL     OW 9289   4.497   4.575   4.883
 2797SOL    HW1 9290   4.534   4.665   4.906
 2797SOL    HW2 9291   4.415   4.558   4.938
 2798SOL     OW 9292   1.607   3.269   4.135
 2798SOL    HW1 9293   1.705   3.247   4.131
 2798SOL    HW2 9294   1.596   3.366   4.158
 2799SOL     OW 9295   6.564   5.616   5.838
 2799SOL    HW1 9296   6.494   5.629   5.908
 2799SOL    HW2 9297   6.520   5.599   5.750
 2800SOL     OW 9298   2.878   2.012   6.825
 2800SOL    HW1 9299   2.857   1.931   6.769
 2800SOL    HW2 9300   2.793   2.049   6.863
 2801SOL     OW 9301   4.440   5.366   2.764
 2801SOL    HW1 9302   4.395   5.435   2.822
 2801SOL    HW2 9303   4.503   5.312   2.820
 2802SOL     OW 9304   5.672   0.820   5.849
 2802SOL    HW1 9305   5.698   0.857   5.939
 2802SOL    HW2 9306   5.573   0.803   5.848
 2803SOL     OW 9307   2.126   5.593   5.434
 2803SOL    HW1 9308   2.215   5.596   5.389
 2803SOL    HW2 9309   2.134   5.625   5.528
 2804SOL     OW 9310   0.308   4.817   2.671
 2804SOL    HW1 9311   0.230   4.796   2.612
 2804SOL    HW2 9312   0.316   4.916   2.682
 2805SOL     OW 9313   4.909   3.717   6.111
 2805SOL    HW1 9314   4.814   3.737   6.134
 2805SOL    HW2 9315   4.930   3.751   6.020
 2806SOL     OW 9316   6.892   5.623   2.721
 2806SOL    HW1 9317   6.882   5.598   2.625
 2806SOL    HW2 9318   6.815   5.587   2.773
 2807SOL     OW 9319   3.778   4.981   4.094
 2807SOL    HW1 9320   3.680   4.969   4.080
 2807SOL    HW2 9321   3.817   5.027   4.014
 2808SOL     OW 9322   4.565   6.056   3.707
 2808SOL    HW1 9323   4.560   5.977   3.645
 2808SOL    HW2 9324   4.616   6.129   3.663
 2809SOL     OW 9325   5.264   3.331   0.732
 2809SOL    HW1 9326   5.230   3.297   0.820
 2809SOL    HW2 9327   5.198   3.396   0.694
 2810SOL     OW 9328   1.531   0.184   5.506
 2810SOL    HW1 9329   1.626   0.165   5.481
 2810SOL    HW2 9330   1.530   0.240   5.589
 2811SOL     OW 9331   0.175   1.040   4.190
 2811SOL    HW1 9332   0.149   1.087   4.274
 2811SOL    HW2 9333   0.228   0.958   4.213
 2812SOL     OW 9334   5.470   3.984   2.329
 2812SOL    HW1 9335   5.441   3.905   2.275
 2812SOL    HW2 9336   5.398   4.009   2.394
 2813SOL     OW 9337   6.084   1.810   6.354
 2813SOL    HW1 9338   6.028   1.893   6.344
 2813SOL    HW2 9339   6.181   1.836   6.355
 2814SOL     OW 9340   5.299   4.546   5.377
 2814SOL    HW1 9341   5.288   4.467   5.437
 2814SOL    HW2 9342   5.395   4.576   5.379
 2815SOL     OW 9343   6.922   1.549   5.113
 2815SOL    HW1 9344   6.918   1.610   5.192
 2815SOL    HW2 9345   6.928   1.454   5.145
 2816SOL     OW 9346   5.788   6.223   3.223
 2816SOL    HW1 9347   5.770   6.301   3.162
 2816SOL    HW2 9348   5.789   6.139   3.169
 2817SOL     OW 9349   1.364   1.982   1.123
 2817SOL    HW1 9350   1.339   2.049   1.192
 2817SOL    HW2 9351   1.291   1.975   1.055
 2818SOL     OW 9352   0.308   4.018   5.753
 2818SOL    HW1 9353   0.357   3.973   5.828
 2818SOL    HW2 9354   0.370   4.032   5.677
 2819SOL     OW 9355   5.696   2.997   0.708
 2819SOL    HW1 9356   5.619   3.054   0.678
 2819SOL    HW2 9357   5.778   3.053   0.713
 2820SOL     OW 9358   6.071   2.701   4.381
 2820SOL    HW1 9359   6.128   2.729   4.304
 2820SOL    HW2 9360   6.120   2.632   4.435
 2821SOL     OW 9361   1.345   2.909   3.849
 2821SOL    HW1 9362   1.428   2.965   3.847
 2821SOL    HW2 9363   1.344   2.849   3.769
 2822SOL     OW 9364   3.232   1.788   0.566
 2822SOL    HW1 9365   3.292   1.729   0.513
 2822SOL    HW2 9366   3.259   1.884   0.554
 2823SOL     OW 9367   2.046   6.635   3.436
 2823SOL    HW1 9368   2.071   6.577   3.513
 2823SOL    HW2 9369   2.029   6.579   3.355
 2824SOL     OW 9370   3.030   1.467   4.767
 2824SOL    HW1 9371   3.097   1.541   4.757
 2824SOL    HW2 9372   2.988   1.472   4.857
 2825SOL     OW 9373   6.441   6.242   1.077
 2825SOL    HW1 9374   6.475   6.189   0.999
 2825SOL    HW2 9375   6.422   6.336   1.049
 2826SOL     OW 9376   4.540   2.600   4.340
 2826SOL    HW1 9377   4.479   2.603   4.419
 2826SOL    HW2 9378   4.623   2.651   4.361
 2827SOL     OW 9379   5.593   0.937   6.267
 2827SOL    HW1 9380   5.667   0.986   6.313
 2827SOL    HW2 9381   5.549   0.999   6.201
 2828SOL     OW 9382   3.017   1.971   6.272
 2828SOL    HW1 9383   3.059   2.060   6.257
 2828SOL    HW2 9384   2.993   1.961   6.369
 2829SOL     OW 9385   1.730   7.019   6.525
 2829SOL    HW1 9386   1.764   0.039   6.608
 2829SOL    HW2 9387   1.775   6.931   6.511
 2830SOL     OW 9388   3.693   3.294   6.862
 2830SOL    HW1 9389   3.765   3.357   6.834
 2830SOL    HW2 9390   3.635   3.272   6.783
 2831SOL     OW 9391   6.060   5.579   3.882
 2831SOL    HW1 9392   6.112   5.538   3.807
 2831SOL    HW2 9393   6.117   5.647   3.928
 2832SOL     OW 9394   0.202   0.705   1.803
 2832SOL    HW1 9395   0.187   0.712   1.705
 2832SOL    HW2 9396   0.115   0.716   1.851
 2833SOL     OW 9397   6.159   3.069   2.146
 2833SOL    HW1 9398   6.091   3.008   2.105
 2833SOL    HW2 9399   6.243   3.018   2.163
 2834SOL     OW 9400   3.759   1.010   5.894
 2834SOL    HW1 9401   3.732   1.072   5.821
 2834SOL    HW2 9402   3.843   0.962   5.867
 2835SOL     OW 9403   0.523   6.649   3.131
 2835SOL    HW1 9404   0.525   6.707   3.212
 2835SOL    HW2 9405   0.596   6.678   3.068
 2836SOL     OW 9406   6.639   0.913   0.548
 2836SOL    HW1 9407   6.542   0.904   0.525
 2836SOL    HW2 9408   6.690   0.838   0.506
 2837SOL     OW 9409   6.317   2.809   3.907
 2837SOL    HW1 9410   6.322   2.718   3.865
 2837SOL    HW2 9411   6.334   2.879   3.837
 2838SOL     OW 9412   2.132   4.987   3.862
 2838SOL    HW1 9413   2.154   5.010   3.767
 2838SOL    HW2 9414   2.069   5.056   3.899
 2839SOL     OW 9415   4.944   2.111   1.751
 2839SOL    HW1 9416   4.938   2.035   1.816
 2839SOL    HW2 9417   4.862   2.112   1.694
 2840SOL     OW 9418   6.920   2.045   5.795
 2840SOL    HW1 9419   6.991   2.111   5.820
 2840SOL    HW2 9420   6.838   2.094   5.766
 2841SOL     OW 9421   0.698   6.442   1.561
 2841SOL    HW1 9422   0.739   6.489   1.483
 2841SOL    HW2 9423   0.754   6.459   1.642
 2842SOL     OW 9424   6.203   3.141   3.237
 2842SOL    HW1 9425   6.301   3.155   3.256
 2842SOL    HW2 9426   6.188   3.145   3.138
 2843SOL     OW 9427   3.979   2.085   4.656
 2843SOL    HW1 9428   3.883   2.095   4.630
 2843SOL    HW2 9429   4.036   2.143   4.597
 2844SOL     OW 9430   0.080   3.872   5.513
 2844SOL    HW1 9431   0.026   3.932   5.573
 2844SOL    HW2 9432   0.021   3.831   5.444
 2845SOL     OW 9433   6.614   4.206   5.158
 2845SOL    HW1 9434   6.644   4.261   5.236
 2845SOL    HW2 9435   6.695   4.179   5.105
 2846SOL     OW 9436   4.424   1.258   6.809
 2846SOL    HW1 9437   4.473   1.236   6.725
 2846SOL    HW2 9438   4.328   1.276   6.789
 2847SOL     OW 9439   4.626   4.589   3.963
 2847SOL    HW1 9440   4.629   4.600   4.062
 2847SOL    HW2 9441   4.535   4.614   3.929
 2848SOL     OW 9442   1.335   6.231   5.149
 2848SOL    HW1 9443   1.404   6.286   5.102
 2848SOL    HW2 9444   1.284   6.289   5.213
 2849SOL     OW 9445   2.264   2.876   1.528
 2849SOL    HW1 9446   2.225   2.877   1.435
 2849SOL    HW2 9447   2.345   2.818   1.529
 2850SOL     OW 9448   3.579   1.109   0.037
 2850SOL    HW1 9449   3.529   1.050   0.100
 2850SOL    HW2 9450   3.566   1.205   0.062
 2851SOL     OW 9451   2.283   4.595   6.209
 2851SOL    HW1 9452   2.221   4.599   6.131
 2851SOL    HW2 9453   2.356   4.528   6.191
 2852SOL     OW 9454   0.022   3.373   6.261
 2852SOL    HW1 9455   0.060   3.338   6.176
 2852SOL    HW2 9456   6.995   3.457   6.243
 2853SOL     OW 9457   3.873   3.510   1.563
 2853SOL    HW1 9458   3.967   3.499   1.530
 2853SOL    HW2 9459   3.809   3.484   1.491
 2854SOL     OW 9460   1.148   0.981   3.617
 2854SOL    HW1 9461   1.242   1.002   3.591
 2854SOL    HW2 9462   1.132   1.008   3.712
 2855SOL     OW 9463   3.252   0.852   5.411
 2855SOL    HW1 9464   3.206   0.846   5.500
 2855SOL    HW2 9465   3.218   0.932   5.361
 2856SOL     OW 9466   2.473   1.565   5.122
 2856SOL    HW1 9467   2.415   1.486   5.143
 2856SOL    HW2 9468   2.528   1.589   5.202
 2857SOL     OW 9469   2.931   3.742   3.243
 2857SOL    HW1 9470   2.875   3.695   3.175
 2857SOL    HW2 9471   2.940   3.684   3.325
 2858SOL     OW 9472   5.802   2.752   3.038
 2858SOL    HW1 9473   5.781   2.841   3.078
 2858SOL    HW2 9474   5.743   2.737   2.959
 2859SOL     OW 9475   6.201   6.222   0.654
 2859SOL    HW1 9476   6.135   6.286   0.691
 2859SOL    HW2 9477   6.262   6.270   0.590
 2860SOL     OW 9478   4.537   1.789   1.561
 2860SOL    HW1 9479   4.590   1.818   1.641
 2860SOL    HW2 9480   4.570   1.838   1.480
 2861SOL     OW 9481   3.357   5.377   5.457
 2861SOL    HW1 9482   3.333   5.432   5.537
 2861SOL    HW2 9483   3.287   5.306   5.444
 2862SOL     OW 9484   5.760   0.453   4.586
 2862SOL    HW1 9485   5.746   0.507   4.669
 2862SOL    HW2 9486   5.672   0.426   4.548
 2863SOL     OW 9487   6.227   1.526   0.895
 2863SOL    HW1 9488   6.256   1.430   0.904
 2863SOL    HW2 9489   6.202   1.544   0.800
 2864SOL     OW 9490   3.189   1.375   0.055
 2864SOL    HW1 9491   3.237   1.291   0.029
 2864SOL    HW2 9492   3.124   1.400   7.006
 2865SOL     OW 9493   4.212   5.225   4.878
 2865SOL    HW1 9494   4.116   5.229   4.852
 2865SOL    HW2 9495   4.268   5.202   4.798
 2866SOL     OW 9496   6.882   6.982   6.039
 2866SOL    HW1 9497   6.892   6.954   5.944
 2866SOL    HW2 9498   6.792   6.954   6.072
 2867SOL     OW 9499   6.686   4.474   3.500
 2867SOL    HW1 9500   6.652   4.500   3.409
 2867SOL    HW2 9501   6.651   4.539   3.568
 2868SOL     OW 9502   1.739   4.565   5.409
 2868SOL    HW1 9503   1.756   4.466   5.411
 2868SOL    HW2 9504   1.805   4.611   5.469
 2869SOL     OW 9505   6.081   1.595   2.504
 2869SOL    HW1 9506   6.061   1.653   2.425
 2869SOL    HW2 9507   5.996   1.558   2.541
 2870SOL     OW 9508   4.865   1.908   2.873
 2870SOL    HW1 9509   4.786   1.849   2.892
 2870SOL    HW2 9510   4.874   1.977   2.944
 2871SOL     OW 9511   2.055   1.846   5.845
 2871SOL    HW1 9512   2.015   1.938   5.849
 2871SOL    HW2 9513   2.147   1.852   5.806
 2872SOL     OW 9514   2.108   6.349   4.307
 2872SOL    HW1 9515   2.021   6.321   4.347
 2872SOL    HW2 9516   2.128   6.444   4.332
 2873SOL     OW 9517   0.057   5.312   2.039
 2873SOL    HW1 9518   7.006   5.341   1.978
 2873SOL    HW2 9519   0.078   5.215   2.022
 2874SOL     OW 9520   5.862   1.971   2.327
 2874SOL    HW1 9521   5.864   2.071   2.331
 2874SOL    HW2 9522   5.820   1.942   2.242
 2875SOL     OW 9523   3.067   4.730   0.306
 2875SOL    HW1 9524   3.132   4.779   0.249
 2875SOL    HW2 9525   3.109   4.709   0.394
 2876SOL     OW 9526   6.921   1.584   2.677
 2876SOL    HW1 9527   6.913   1.513   2.747
 2876SOL    HW2 9528   6.847   1.575   2.611
 2877SOL     OW 9529   2.403   3.380   5.944
 2877SOL    HW1 9530   2.467   3.420   5.878
 2877SOL    HW2 9531   2.415   3.423   6.033
 2878SOL     OW 9532   2.884   4.436   6.833
 2878SOL    HW1 9533   2.842   4.346   6.819
 2878SOL    HW2 9534   2.872   4.491   6.751
 2879SOL     OW 9535   5.143   4.960   6.572
 2879SOL    HW1 9536   5.106   4.890   6.633
 2879SOL    HW2 9537   5.076   5.032   6.559
 2880SOL     OW 9538   1.146   6.079   1.753
 2880SOL    HW1 9539   1.134   5.990   1.708
 2880SOL    HW2 9540   1.072   6.140   1.726
 2881SOL     OW 9541   7.002   0.010   6.967
 2881SOL    HW1 9542   0.012   6.968   6.897
 2881SOL    HW2 9543   6.946   0.079   6.923
 2882SOL     OW 9544   6.835   3.503   3.678
 2882SOL    HW1 9545   6.808   3.598   3.662
 2882SOL    HW2 9546   6.933   3.492   3.660
 2883SOL     OW 9547   4.822   6.632   2.588
 2883SOL    HW1 9548   4.886   6.585   2.527
 2883SOL    HW2 9549   4.745   6.667   2.534
 2884SOL     OW 9550   1.656   6.003   3.263
 2884SOL    HW1 9551   1.616   6.009   3.172
 2884SOL    HW2 9552   1.716   5.923   3.268
 2885SOL     OW 9553   0.302   2.214   3.718
 2885SOL    HW1 9554   0.380   2.152   3.707
 2885SOL    HW2 9555   0.236   2.198   3.645
 2886SOL     OW 9556   2.159   2.740   5.820
 2886SOL    HW1 9557   2.233   2.673   5.815
 2886SOL    HW2 9558   2.128   2.749   5.915
 2887SOL     OW 9559   2.192   1.135   4.917
 2887SOL    HW1 9560   2.163   1.211   4.859
 2887SOL    HW2 9561   2.260   1.168   4.983
 2888SOL     OW 9562   6.714   5.246   6.934
 2888SOL    HW1 9563   6.730   5.281   0.004
 2888SOL    HW2 9564   6.683   5.321   6.875
 2889SOL     OW 9565   0.575   0.002   1.976
 2889SOL    HW1 9566   0.509   7.014   1.901
 2889SOL    HW2 9567   0.536   0.063   2.046
 2890SOL     OW 9568   3.169   6.556   0.726
 2890SOL    HW1 9569   3.090   6.599   0.769
 2890SOL    HW2 9570   3.231   6.626   0.692
 2891SOL     OW 9571   2.837   5.129   4.441
 2891SOL    HW1 9572   2.893   5.048   4.426
 2891SOL    HW2 9573   2.740   5.104   4.432
 2892SOL     OW 9574   4.655   4.493   5.622
 2892SOL    HW1 9575   4.723   4.537   5.681
 2892SOL    HW2 9576   4.696   4.474   5.533
 2893SOL     OW 9577   2.783   0.685   6.238
 2893SOL    HW1 9578   2.825   0.594   6.241
 2893SOL    HW2 9579   2.851   0.752   6.210
 2894SOL     OW 9580   3.239   2.646   0.864
 2894SOL    HW1 9581   3.146   2.618   0.842
 2894SOL    HW2 9582   3.271   2.596   0.944
 2895SOL     OW 9583   2.966   3.351   6.823
 2895SOL    HW1 9584   2.937   3.399   6.740
 2895SOL    HW2 9585   2.999   3.260   6.799
 2896SOL     OW 9586   2.389   5.458   1.079
 2896SOL    HW1 9587   2.314   5.393   1.071
 2896SOL    HW2 9588   2.366   5.542   1.031
 2897SOL     OW 9589   1.510   6.479   3.589
 2897SOL    HW1 9590   1.418   6.442   3.572
 2897SOL    HW2 9591   1.516   6.571   3.550
 2898SOL     OW 9592   2.860   4.899   2.474
 2898SOL    HW1 9593   2.919   4.873   2.398
 2898SOL    HW2 9594   2.768   4.866   2.458
 2899SOL     OW 9595   6.440   0.561   0.378
 2899SOL    HW1 9596   6.508   0.494   0.405
 2899SOL    HW2 9597   6.483   0.634   0.326
 2900SOL     OW 9598   2.679   5.470   6.264
 2900SOL    HW1 9599   2.664   5.452   6.362
 2900SOL    HW2 9600   2.776   5.485   6.248
 2901SOL     OW 9601   3.352   0.273   1.542
 2901SOL    HW1 9602   3.340   0.222   1.628
 2901SOL    HW2 9603   3.389   0.363   1.562
 2902SOL     OW 9604   5.443   5.457   1.721
 2902SOL    HW1 9605   5.537   5.484   1.701
 2902SOL    HW2 9606   5.440   5.358   1.737
 2903SOL     OW 9607   2.592   2.150   2.083
 2903SOL    HW1 9608   2.670   2.210   2.062
 2903SOL    HW2 9609   2.619   2.055   2.072
 2904SOL     OW 9610   1.936   3.614   4.995
 2904SOL    HW1 9611   1.880   3.587   5.073
 2904SOL    HW2 9612   2.027   3.641   5.028
 2905SOL     OW 9613   1.034   2.449   1.499
 2905SOL    HW1 9614   0.938   2.466   1.521
 2905SOL    HW2 9615   1.055   2.486   1.408
 2906SOL     OW 9616   5.390   5.756   2.071
 2906SOL    HW1 9617   5.312   5.774   2.011
 2906SOL    HW2 9618   5.359   5.703   2.150
 2907SOL     OW 9619   6.515   0.661   4.055
 2907SOL    HW1 9620   6.447   0.703   4.116
 2907SOL    HW2 9621   6.528   0.720   3.975
 2908SOL     OW 9622   4.490   6.429   4.489
 2908SOL    HW1 9623   4.403   6.381   4.489
 2908SOL    HW2 9624   4.563   6.366   4.514
 2909SOL     OW 9625   1.545   5.778   5.020
 2909SOL    HW1 9626   1.586   5.714   5.085
 2909SOL    HW2 9627   1.498   5.727   4.948
 2910SOL     OW 9628   5.264   6.406   5.942
 2910SOL    HW1 9629   5.200   6.471   5.985
 2910SOL    HW2 9630   5.213   6.330   5.904
 2911SOL     OW 9631   1.645   3.926   3.611
 2911SOL    HW1 9632   1.653   3.956   3.516
 2911SOL    HW2 9633   1.645   4.006   3.671
 2912SOL     OW 9634   2.871   5.555   0.542
 2912SOL    HW1 9635   2.825   5.504   0.469
 2912SOL    HW2 9636   2.933   5.622   0.502
 2913SOL     OW 9637   0.978   2.708   3.018
 2913SOL    HW1 9638   0.986   2.667   3.108
 2913SOL    HW2 9639   0.887   2.690   2.980
 2914SOL     OW 9640   4.943   5.347   5.362
 2914SOL    HW1 9641   4.994   5.429   5.388
 2914SOL    HW2 9642   4.853   5.373   5.328
 2915SOL     OW 9643   4.526   1.314   4.202
 2915SOL    HW1 9644   4.621   1.338   4.186
 2915SOL    HW2 9645   4.472   1.334   4.119
 2916SOL     OW 9646   5.313   5.482   4.408
 2916SOL    HW1 9647   5.398   5.503   4.457
 2916SOL    HW2 9648   5.244   5.451   4.474
 2917SOL     OW 9649   4.732   1.289   2.996
 2917SOL    HW1 9650   4.761   1.333   2.911
 2917SOL    HW2 9651   4.787   1.207   3.012
 2918SOL     OW 9652   6.723   3.995   3.862
 2918SOL    HW1 9653   6.639   4.042   3.836
 2918SOL    HW2 9654   6.785   4.060   3.907
 2919SOL     OW 9655   6.835   6.011   0.177
 2919SOL    HW1 9656   6.840   5.914   0.151
 2919SOL    HW2 9657   6.906   6.062   0.128
 2920SOL     OW 9658   4.302   2.360   3.034
 2920SOL    HW1 9659   4.216   2.405   3.058
 2920SOL    HW2 9660   4.378   2.414   3.069
 2921SOL     OW 9661   0.561   0.363   1.876
 2921SOL    HW1 9662   0.632   0.397   1.815
 2921SOL    HW2 9663   0.590   0.374   1.971
 2922SOL     OW 9664   4.164   6.780   5.768
 2922SOL    HW1 9665   4.119   6.705   5.720
 2922SOL    HW2 9666   4.100   6.822   5.832
 2923SOL     OW 9667   6.850   4.329   0.956
 2923SOL    HW1 9668   6.758   4.323   0.993
 2923SOL    HW2 9669   6.866   4.253   0.893
 2924SOL     OW 9670   5.842   0.365   5.758
 2924SOL    HW1 9671   5.861   0.463   5.750
 2924SOL    HW2 9672   5.914   0.314   5.711
 2925SOL     OW 9673   5.443   3.867   1.223
 2925SOL    HW1 9674   5.469   3.844   1.317
 2925SOL    HW2 9675   5.389   3.792   1.185
 2926SOL     OW 9676   0.107   1.183   4.406
 2926SOL    HW1 9677   0.073   1.184   4.500
 2926SOL    HW2 9678   0.120   1.277   4.374
 2927SOL     OW 9679   0.438   2.795   2.598
 2927SOL    HW1 9680   0.532   2.816   2.571
 2927SOL    HW2 9681   0.404   2.864   2.662
 2928SOL     OW 9682   5.542   6.603   0.638
 2928SOL    HW1 9683   5.541   6.552   0.724
 2928SOL    HW2 9684   5.453   6.646   0.623
 2929SOL     OW 9685   0.765   6.968   6.023
 2929SOL    HW1 9686   0.779   0.022   5.961
 2929SOL    HW2 9687   0.850   6.948   6.072
 2930SOL     OW 9688   3.729   6.641   4.708
 2930SOL    HW1 9689   3.739   6.740   4.710
 2930SOL    HW2 9690   3.675   6.614   4.628
 2931SOL     OW 9691   3.960   5.519   6.510
 2931SOL    HW1 9692   3.879   5.574   6.490
 2931SOL    HW2 9693   3.933   5.423   6.523
 2932SOL     OW 9694   1.610   4.505   1.905
 2932SOL    HW1 9695   1.526   4.530   1.953
 2932SOL    HW2 9696   1.588   4.470   1.815
 2933SOL     OW 9697   4.849   1.410   3.845
 2933SOL    HW1 9698   4.832   1.508   3.858
 2933SOL    HW2 9699   4.947   1.393   3.854
 2934SOL     OW 9700   2.769   0.736   0.111
 2934SOL    HW1 9701   2.783   0.680   0.193
 2934SOL    HW2 9702   2.762   0.676   0.031
 2935SOL     OW 9703   6.578   1.748   1.167
 2935SOL    HW1 9704   6.623   1.820   1.114
 2935SOL    HW2 9705   6.646   1.691   1.213
 2936SOL     OW 9706   3.751   6.057   0.794
 2936SOL    HW1 9707   3.825   5.990   0.790
 2936SOL    HW2 9708   3.723   6.081   0.701
 2937SOL     OW 9709   2.460   4.156   0.606
 2937SOL    HW1 9710   2.441   4.123   0.514
 2937SOL    HW2 9711   2.415   4.096   0.672
 2938SOL     OW 9712   4.415   5.282   5.449
 2938SOL    HW1 9713   4.326   5.251   5.484
 2938SOL    HW2 9714   4.434   5.373   5.485
 2939SOL     OW 9715   0.453   6.453   5.638
 2939SOL    HW1 9716   0.487   6.370   5.594
 2939SOL    HW2 9717   0.438   6.435   5.736
 2940SOL     OW 9718   4.384   0.490   5.335
 2940SOL    HW1 9719   4.463   0.548   5.358
 2940SOL    HW2 9720   4.341   0.525   5.252
 2941SOL     OW 9721   2.735   1.564   5.744
 2941SOL    HW1 9722   2.763   1.638   5.684
 2941SOL    HW2 9723   2.696   1.601   5.828
 2942SOL     OW 9724   3.847   6.563   4.305
 2942SOL    HW1 9725   3.931   6.600   4.267
 2942SOL    HW2 9726   3.868   6.484   4.362
 2943SOL     OW 9727   5.700   3.915   2.985
 2943SOL    HW1 9728   5.759   3.835   2.991
 2943SOL    HW2 9729   5.754   3.994   2.957
 2944SOL     OW 9730   3.677   6.085   6.384
 2944SOL    HW1 9731   3.706   6.034   6.303
 2944SOL    HW2 9732   3.699   6.033   6.466
 2945SOL     OW 9733   3.047   3.102   3.475
 2945SOL    HW1 9734   2.999   3.066   3.555
 2945SOL    HW2 9735   3.103   3.180   3.502
 2946SOL     OW 9736   6.833   6.269   5.890
 2946SOL    HW1 9737   6.810   6.172   5.885
 2946SOL    HW2 9738   6.879   6.288   5.977
 2947SOL     OW 9739   0.470   5.194   0.015
 2947SOL    HW1 9740   0.480   5.293   0.026
 2947SOL    HW2 9741   0.532   5.161   6.967
 2948SOL     OW 9742   6.211   4.781   5.302
 2948SOL    HW1 9743   6.203   4.852   5.232
 2948SOL    HW2 9744   6.125   4.730   5.307
 2949SOL     OW 9745   1.143   6.224   0.778
 2949SOL    HW1 9746   1.135   6.323   0.787
 2949SOL    HW2 9747   1.090   6.193   0.699
 2950SOL     OW 9748   5.181   3.578   4.759
 2950SOL    HW1 9749   5.136   3.489   4.752
 2950SOL    HW2 9750   5.277   3.565   4.786
 2951SOL     OW 9751   6.277   1.311   1.452
 2951SOL    HW1 9752   6.268   1.232   1.391
 2951SOL    HW2 9753   6.357   1.365   1.425
 2952SOL     OW 9754   1.509   3.542   1.936
 2952SOL    HW1 9755   1.482   3.637   1.955
 2952SOL    HW2 9756   1.607   3.531   1.953
 2953SOL     OW 9757   5.492   0.664   3.073
 2953SOL    HW1 9758   5.565   0.725   3.102
 2953SOL    HW2 9759   5.515   0.625   2.983
 2954SOL     OW 9760   5.750   6.346   1.713
 2954SOL    HW1 9761   5.709   6.318   1.627
 2954SOL    HW2 9762   5.845   6.314   1.717
 2955SOL     OW 9763   6.181   3.108   0.677
 2955SOL    HW1 9764   6.188   3.120   0.776
 2955SOL    HW2 9765   6.273   3.105   0.637
 2956SOL     OW 9766   6.458   5.434   2.562
 2956SOL    HW1 9767   6.541   5.418   2.615
 2956SOL    HW2 9768   6.383   5.459   2.624
 2957SOL     OW 9769   1.087   3.614   1.279
 2957SOL    HW1 9770   1.143   3.696   1.289
 2957SOL    HW2 9771   1.145   3.536   1.254
 2958SOL     OW 9772   3.539   5.100   6.336
 2958SOL    HW1 9773   3.561   5.176   6.398
 2958SOL    HW2 9774   3.622   5.048   6.316
 2959SOL     OW 9775   4.274   5.725   6.927
 2959SOL    HW1 9776   4.212   5.728   7.005
 2959SOL    HW2 9777   4.230   5.676   6.851
 2960SOL     OW 9778   2.592   1.786   6.915
 2960SOL    HW1 9779   2.493   1.784   6.924
 2960SOL    HW2 9780   2.622   1.880   6.899
 2961SOL     OW 9781   5.605   2.709   4.415
 2961SOL    HW1 9782   5.551   2.770   4.473
 2961SOL    HW2 9783   5.570   2.616   4.422
 2962SOL     OW 9784   3.547   1.229   3.777
 2962SOL    HW1 9785   3.594   1.268   3.698
 2962SOL    HW2 9786   3.569   1.132   3.785
 2963SOL     OW 9787   1.932   3.037   5.026
 2963SOL    HW1 9788   1.992   3.006   5.100
 2963SOL    HW2 9789   1.981   3.104   4.970
 2964SOL     OW 9790   2.959   5.968   0.472
 2964SOL    HW1 9791   3.053   5.936   0.486
 2964SOL    HW2 9792   2.914   5.908   0.406
 2965SOL     OW 9793   0.661   2.456   6.013
 2965SOL    HW1 9794   0.724   2.516   5.964
 2965SOL    HW2 9795   0.683   2.360   5.992
 2966SOL     OW 9796   4.372   4.718   3.906
 2966SOL    HW1 9797   4.320   4.747   3.986
 2966SOL    HW2 9798   4.316   4.731   3.824
 2967SOL     OW 9799   6.214   1.836   3.781
 2967SOL    HW1 9800   6.146   1.770   3.812
 2967SOL    HW2 9801   6.169   1.921   3.753
 2968SOL     OW 9802   6.739   4.226   3.600
 2968SOL    HW1 9803   6.682   4.147   3.578
 2968SOL    HW2 9804   6.725   4.297   3.532
 2969SOL     OW 9805   4.865   0.820   4.842
 2969SOL    HW1 9806   4.790   0.754   4.856
 2969SOL    HW2 9807   4.934   0.779   4.783
 2970SOL     OW 9808   1.253   4.724   6.402
 2970SOL    HW1 9809   1.159   4.747   6.374
 2970SOL    HW2 9810   1.269   4.627   6.383
 2971SOL     OW 9811   4.876   3.199   3.322
 2971SOL    HW1 9812   4.962   3.153   3.302
 2971SOL    HW2 9813   4.894   3.292   3.354
 2972SOL     OW 9814   0.599   4.361   6.487
 2972SOL    HW1 9815   0.589   4.430   6.559
 2972SOL    HW2 9816   0.661   4.290   6.518
 2973SOL     OW 9817   5.382   6.125   4.199
 2973SOL    HW1 9818   5.343   6.213   4.224
 2973SOL    HW2 9819   5.454   6.139   4.131
 2974SOL     OW 9820   0.185   3.860   2.241
 2974SOL    HW1 9821   0.109   3.819   2.291
 2974SOL    HW2 9822   0.163   3.863   2.143
 2975SOL     OW 9823   0.180   0.953   4.731
 2975SOL    HW1 9824   0.265   0.956   4.678
 2975SOL    HW2 9825   0.190   0.887   4.806
 2976SOL     OW 9826   3.384   6.770   1.816
 2976SOL    HW1 9827   3.390   6.817   1.904
 2976SOL    HW2 9828   3.474   6.768   1.773
 2977SOL     OW 9829   3.490   6.865   4.109
 2977SOL    HW1 9830   3.460   6.950   4.152
 2977SOL    HW2 9831   3.475   6.871   4.010
 2978SOL     OW 9832   4.272   6.329   0.132
 2978SOL    HW1 9833   4.293   6.307   0.227
 2978SOL    HW2 9834   4.279   6.427   0.117
 2979SOL     OW 9835   2.884   0.748   3.575
 2979SOL    HW1 9836   2.856   0.762   3.670
 2979SOL    HW2 9837   2.858   0.828   3.521
 2980SOL     OW 9838   6.782   6.356   3.964
 2980SOL    HW1 9839   6.694   6.314   3.989
 2980SOL    HW2 9840   6.847   6.285   3.939
 2981SOL     OW 9841   1.881   1.259   5.416
 2981SOL    HW1 9842   1.932   1.311   5.485
 2981SOL    HW2 9843   1.826   1.189   5.462
 2982SOL     OW 9844   4.632   0.200   3.061
 2982SOL    HW1 9845   4.549   0.173   3.109
 2982SOL    HW2 9846   4.704   0.133   3.078
 2983SOL     OW 9847   6.365   0.029   2.901
 2983SOL    HW1 9848   6.330   6.988   2.832
 2983SOL    HW2 9849   6.316   0.116   2.894
 2984SOL     OW 9850   5.407   4.893   1.596
 2984SOL    HW1 9851   5.404   4.818   1.529
 2984SOL    HW2 9852   5.361   4.864   1.680
 2985SOL     OW 9853   6.095   1.918   3.125
 2985SOL    HW1 9854   6.171   1.981   3.141
 2985SOL    HW2 9855   6.070   1.920   3.028
 2986SOL     OW 9856   2.277   3.842   5.315
 2986SOL    HW1 9857   2.366   3.872   5.280
 2986SOL    HW2 9858   2.206   3.904   5.283
 2987SOL     OW 9859   4.398   2.459   4.546
 2987SOL    HW1 9860   4.487   2.417   4.563
 2987SOL    HW2 9861   4.342   2.453   4.628
 2988SOL     OW 9862   0.672   0.618   2.043
 2988SOL    HW1 9863   0.597   0.576   2.095
 2988SOL    HW2 9864   0.757   0.609   2.095
 2989SOL     OW 9865   6.954   4.776   0.926
 2989SOL    HW1 9866   0.000   4.845   0.905
 2989SOL    HW2 9867   6.905   4.802   1.010
 2990SOL     OW 9868   3.336   6.889   0.986
 2990SOL    HW1 9869   3.414   6.918   1.041
 2990SOL    HW2 9870   3.362   6.811   0.929
 2991SOL     OW 9871   6.491   4.786   0.212
 2991SOL    HW1 9872   6.567   4.767   0.275
 2991SOL    HW2 9873   6.436   4.704   0.200
 2992SOL     OW 9874   4.192   4.437   6.711
 2992SOL    HW1 9875   4.184   4.524   6.758
 2992SOL    HW2 9876   4.235   4.452   6.622
 2993SOL     OW 9877   1.984   5.650   0.435
 2993SOL    HW1 9878   2.061   5.632   0.496
 2993SOL    HW2 9879   2.000   5.735   0.385
 2994SOL     OW 9880   4.249   6.638   0.096
 2994SOL    HW1 9881   4.200   6.693   0.164
 2994SOL    HW2 9882   4.345   6.629   0.123
 2995SOL     OW 9883   2.976   1.018   5.912
 2995SOL    HW1 9884   2.897   0.989   5.858
 2995SOL    HW2 9885   3.049   1.048   5.851
 2996SOL     OW 9886   3.832   5.535   6.096
 2996SOL    HW1 9887   3.780   5.575   6.021
 2996SOL    HW2 9888   3.832   5.436   6.087
 2997SOL     OW 9889   5.179   6.520   0.197
 2997SOL    HW1 9890   5.148   6.614   0.185
 2997SOL    HW2 9891   5.226   6.512   0.285
 2998SOL     OW 9892   6.584   5.793   5.130
 2998SOL    HW1 9893   6.556   5.886   5.156
 2998SOL    HW2 9894   6.651   5.758   5.196
 2999SOL     OW 9895   3.298   6.387   2.199
 2999SOL    HW1 9896   3.208   6.372   2.240
 2999SOL    HW2 9897   3.368   6.341   2.253
 3000SOL     OW 9898   1.634   3.051   4.597
 3000SOL    HW1 9899   1.585   3.082   4.516
 3000SOL    HW2 9900   1.728   3.086   4.596
 3001SOL     OW 9901   4.347   6.984   6.104
 3001SOL    HW1 9902   4.327   0.016   6.023
 3001SOL    HW2 9903   4.387   0.020   6.174
 3002SOL     OW 9904   3.818   6.834   5.526
 3002SOL    HW1 9905   3.826   6.924   5.569
 3002SOL    HW2 9906   3.774   6.844   5.436
 3003SOL     OW 9907   2.434   0.180   6.598
 3003SOL    HW1 9908   2.499   0.127   6.543
 3003SOL    HW2 9909   2.343   0.141   6.590
 3004SOL     OW 9910   6.275   3.787   4.990
 3004SOL    HW1 9911   6.292   3.836   5.075
 3004SOL    HW2 9912   6.183   3.746   4.993
 3005SOL     OW 9913   4.572   2.543   2.002
 3005SOL    HW1 9914   4.593   2.633   1.965
 3005SOL    HW2 9915   4.500   2.500   1.947
 3006SOL     OW 9916   5.198   0.751   1.308
 3006SOL    HW1 9917   5.230   0.824   1.246
 3006SOL    HW2 9918   5.254   0.670   1.295
 3007SOL     OW 9919   6.549   6.017   2.032
 3007SOL    HW1 9920   6.526   6.113   2.017
 3007SOL    HW2 9921   6.646   6.010   2.055
 3008SOL     OW 9922   4.277   5.466   6.091
 3008SOL    HW1 9923   4.194   5.478   6.145
 3008SOL    HW2 9924   4.270   5.519   6.007
 3009SOL     OW 9925   1.115   1.461   2.805
 3009SOL    HW1 9926   1.019   1.474   2.829
 3009SOL    HW2 9927   1.132   1.495   2.713
 3010SOL     OW 9928   3.844   6.862   2.268
 3010SOL    HW1 9929   3.856   6.951   2.224
 3010SOL    HW2 9930   3.767   6.815   2.227
 3011SOL     OW 9931   5.565   0.662   6.815
 3011SOL    HW1 9932   5.470   0.685   6.835
 3011SOL    HW2 9933   5.593   0.707   6.731
 3012SOL     OW 9934   0.107   4.684   2.534
 3012SOL    HW1 9935   0.007   4.674   2.533
 3012SOL    HW2 9936   0.143   4.666   2.443
 3013SOL     OW 9937   5.296   4.425   2.063
 3013SOL    HW1 9938   5.283   4.419   1.964
 3013SOL    HW2 9939   5.366   4.360   2.092
 3014SOL     OW 9940   5.044   1.372   4.937
 3014SOL    HW1 9941   5.031   1.341   4.843
 3014SOL    HW2 9942   5.015   1.300   5.000
 3015SOL     OW 9943   3.025   2.226   6.904
 3015SOL    HW1 9944   2.958   2.163   6.864
 3015SOL    HW2 9945   3.049   2.296   6.837
 3016SOL     OW 9946   3.350   5.974   3.271
 3016SOL    HW1 9947   3.354   6.042   3.197
 3016SOL    HW2 9948   3.352   5.882   3.232
 3017SOL     OW 9949   6.766   6.352   1.102
 3017SOL    HW1 9950   6.717   6.433   1.071
 3017SOL    HW2 9951   6.830   6.377   1.175
 3018SOL     OW 9952   3.434   0.062   6.205
 3018SOL    HW1 9953   3.403   0.109   6.122
 3018SOL    HW2 9954   3.472   6.996   6.180
 3019SOL     OW 9955   5.416   6.811   2.288
 3019SOL    HW1 9956   5.441   6.904   2.260
 3019SOL    HW2 9957   5.325   6.812   2.331
 3020SOL     OW 9958   1.582   1.275   0.983
 3020SOL    HW1 9959   1.516   1.336   0.938
 3020SOL    HW2 9960   1.638   1.328   1.046
 3021SOL     OW 9961   3.645   1.015   6.119
 3021SOL    HW1 9962   3.687   1.016   6.028
 3021SOL    HW2 9963   3.716   1.025   6.189
 3022SOL     OW 9964   5.351   6.726   2.942
 3022SOL    HW1 9965   5.440   6.751   2.979
 3022SOL    HW2 9966   5.294   6.808   2.931
 3023SOL     OW 9967   5.766   6.850   2.054
 3023SOL    HW1 9968   5.865   6.863   2.064
 3023SOL    HW2 9969   5.736   6.886   1.966
 3024SOL     OW 9970   3.173   6.281   6.722
 3024SOL    HW1 9971   3.118   6.210   6.679
 3024SOL    HW2 9972   3.167   6.272   6.821
 3025SOL     OW 9973   1.676   2.374   1.605
 3025SOL    HW1 9974   1.770   2.394   1.579
 3025SOL    HW2 9975   1.614   2.406   1.533
 3026SOL     OW 9976   2.121   4.503   1.001
 3026SOL    HW1 9977   2.083   4.426   0.949
 3026SOL    HW2 9978   2.146   4.577   0.939
 3027SOL     OW 9979   1.150   1.688   4.066
 3027SOL    HW1 9980   1.089   1.725   4.137
 3027SOL    HW2 9981   1.236   1.661   4.108
 3028SOL     OW 9982   1.811   0.546   4.864
 3028SOL    HW1 9983   1.777   0.491   4.788
 3028SOL    HW2 9984   1.734   0.590   4.911
 3029SOL     OW 9985   4.915   6.444   5.577
 3029SOL    HW1 9986   4.965   6.527   5.603
 3029SOL    HW2 9987   4.979   6.376   5.542
 3030SOL     OW 9988   1.240   2.054   5.992
 3030SOL    HW1 9989   1.313   1.993   6.025
 3030SOL    HW2 9990   1.270   2.098   5.907
 3031SOL     OW 9991   1.498   4.661   6.788
 3031SOL    HW1 9992   1.581   4.707   6.756
 3031SOL    HW2 9993   1.488   4.674   6.887
 3032SOL     OW 9994   4.696   0.432   5.987
 3032SOL    HW1 9995   4.670   0.513   6.039
 3032SOL    HW2 9996   4.614   0.376   5.969
 3033SOL     OW 9997   5.140   4.823   6.342
 3033SOL    HW1 9998   5.164   4.877   6.423
 3033SOL    HW2 9999   5.154   4.726   6.361
 3034SOL     OW10000   2.196   0.116   4.215
 3034SOL    HW110001   2.257   0.123   4.136
 3034SOL    HW210002   2.208   0.027   4.258
 3035SOL     OW10003   6.368   6.899   6.924
 3035SOL    HW110004   6.376   6.863   7.017
 3035SOL    HW210005   6.450   6.953   6.902
 3036SOL     OW10006   1.401   4.247   6.285
 3036SOL    HW110007   1.454   4.279   6.206
 3036SOL    HW210008   1.319   4.199   6.253
 3037SOL     OW10009   6.594   6.605   5.534
 3037SOL    HW110010   6.556   6.552   5.458
 3037SOL    HW210011   6.652   6.546   5.590
 3038SOL     OW10012   5.660   0.163   5.753
 3038SOL    HW110013   5.727   0.235   5.766
 3038SOL    HW210014   5.579   0.200   5.707
 3039SOL     OW10015   0.807   5.228   0.813
 3039SOL    HW110016   0.828   5.319   0.777
 3039SOL    HW210017   0.735   5.236   0.882
 3040SOL     OW10018   2.373   2.700   6.525
 3040SOL    HW110019   2.354   2.610   6.564
 3040SOL    HW210020   2.472   2.715   6.522
 3041SOL     OW10021   1.886   2.070   5.968
 3041SOL    HW110022   1.800   2.020   5.976
 3041SOL    HW210023   1.931   2.073   6.057
 3042SOL     OW10024   4.762   0.427   1.823
 3042SOL    HW110025   4.666   0.403   1.840
 3042SOL    HW210026   4.801   0.468   1.906
 3043SOL     OW10027   0.180   5.284   0.464
 3043SOL    HW110028   0.143   5.196   0.493
 3043SOL    HW210029   0.130   5.358   0.509
 3044SOL     OW10030   3.330   3.950   6.106
 3044SOL    HW110031   3.393   3.902   6.044
 3044SOL    HW210032   3.249   3.979   6.055
 3045SOL     OW10033   5.478   1.780   3.767
 3045SOL    HW110034   5.456   1.867   3.722
 3045SOL    HW210035   5.576   1.777   3.787
 3046SOL     OW10036   2.497   2.251   5.667
 3046SOL    HW110037   2.597   2.242   5.669
 3046SOL    HW210038   2.472   2.339   5.626
 3047SOL     OW10039   6.710   4.429   2.238
 3047SOL    HW110040   6.808   4.414   2.243
 3047SOL    HW210041   6.668   4.358   2.181
 3048SOL     OW10042   3.177   2.491   1.696
 3048SOL    HW110043   3.265   2.447   1.715
 3048SOL    HW210044   3.103   2.426   1.714
 3049SOL     OW10045   0.975   0.385   2.009
 3049SOL    HW110046   0.985   0.377   1.910
 3049SOL    HW210047   0.942   0.476   2.033
 3050SOL     OW10048   3.369   5.198   3.633
 3050SOL    HW110049   3.410   5.236   3.716
 3050SOL    HW210050   3.275   5.229   3.625
 3051SOL     OW10051   2.706   4.301   5.662
 3051SOL    HW110052   2.720   4.397   5.685
 3051SOL    HW210053   2.715   4.288   5.563
 3052SOL     OW10054   4.308   6.746   2.991
 3052SOL    HW110055   4.230   6.686   3.003
 3052SOL    HW210056   4.335   6.784   3.079
 3053SOL     OW10057   4.896   6.589   0.524
 3053SOL    HW110058   4.849   6.502   0.512
 3053SOL    HW210059   4.940   6.591   0.614
 3054SOL     OW10060   2.161   3.564   6.190
 3054SOL    HW110061   2.168   3.584   6.092
 3054SOL    HW210062   2.080   3.507   6.207
 3055SOL     OW10063   5.789   5.828   2.691
 3055SOL    HW110064   5.869   5.874   2.650
 3055SOL    HW210065   5.775   5.741   2.645
 3056SOL     OW10066   6.505   0.925   1.264
 3056SOL    HW110067   6.412   0.890   1.273
 3056SOL    HW210068   6.510   0.991   1.189
 3057SOL     OW10069   6.265   5.806   2.554
 3057SOL    HW110070   6.187   5.750   2.525
 3057SOL    HW210071   6.312   5.843   2.474
 3058SOL     OW10072   6.289   4.578   1.614
 3058SOL    HW110073   6.350   4.535   1.547
 3058SOL    HW210074   6.325   4.667   1.640
 3059SOL     OW10075   1.977   2.719   4.874
 3059SOL    HW110076   1.951   2.788   4.806
 3059SOL    HW210077   2.016   2.764   4.954
 3060SOL     OW10078   6.534   0.060   0.774
 3060SOL    HW110079   6.599   0.090   0.843
 3060SOL    HW210080   6.560   6.991   0.742
 3061SOL     OW10081   0.093   0.734   6.098
 3061SOL    HW110082   0.006   0.783   6.100
 3061SOL    HW210083   0.129   0.733   6.004
 3062SOL     OW10084   2.811   5.925   6.163
 3062SOL    HW110085   2.719   5.888   6.155
 3062SOL    HW210086   2.808   6.013   6.210
 3063SOL     OW10087   1.892   5.177   0.907
 3063SOL    HW110088   1.805   5.149   0.867
 3063SOL    HW210089   1.967   5.129   0.862
 3064SOL     OW10090   6.707   4.901   3.058
 3064SOL    HW110091   6.739   4.819   3.012
 3064SOL    HW210092   6.669   4.965   2.991
 3065SOL     OW10093   1.947   0.866   1.052
 3065SOL    HW110094   1.913   0.951   1.092
 3065SOL    HW210095   1.959   0.798   1.124
 3066SOL     OW10096   5.638   5.322   1.119
 3066SOL    HW110097   5.641   5.281   1.210
 3066SOL    HW210098   5.614   5.252   1.052
 3067SOL     OW10099   5.002   6.430   3.467
 3067SOL    HW110100   5.037   6.369   3.538
 3067SOL    HW210101   4.936   6.494   3.507
 3068SOL     OW10102   6.200   5.005   0.357
 3068SOL    HW110103   6.189   5.044   0.266
 3068SOL    HW210104   6.195   5.078   0.426
 3069SOL     OW10105   1.160   5.724   3.401
 3069SOL    HW110106   1.110   5.672   3.470
 3069SOL    HW210107   1.112   5.722   3.314
 3070SOL     OW10108   3.968   1.856   4.024
 3070SOL    HW110109   4.051   1.911   4.014
 3070SOL    HW210110   3.977   1.773   3.969
 3071SOL     OW10111   5.993   6.820   3.402
 3071SOL    HW110112   5.942   6.734   3.395
 3071SOL    HW210113   6.089   6.800   3.422
 3072SOL     OW10114   0.613   6.873   2.259
 3072SOL    HW110115   0.538   6.938   2.251
 3072SOL    HW210116   0.686   6.898   2.194
 3073SOL     OW10117   1.400   3.345   4.642
 3073SOL    HW110118   1.404   3.367   4.545
 3073SOL    HW210119   1.396   3.430   4.695
 3074SOL     OW10120   5.027   3.269   5.884
 3074SOL    HW110121   5.079   3.305   5.961
 3074SOL    HW210122   4.950   3.214   5.917
 3075SOL     OW10123   1.266   5.440   1.924
 3075SOL    HW110124   1.249   5.518   1.863
 3075SOL    HW210125   1.243   5.466   2.018
 3076SOL     OW10126   0.362   7.010   4.926
 3076SOL    HW110127   0.461   7.008   4.921
 3076SOL    HW210128   0.324   7.015   4.833
 3077SOL     OW10129   5.058   4.683   4.016
 3077SOL    HW110130   5.079   4.780   4.019
 3077SOL    HW210131   4.998   4.664   3.939
 3078SOL     OW10132   2.305   2.774   0.826
 3078SOL    HW110133   2.223   2.810   0.872
 3078SOL    HW210134   2.331   2.687   0.868
 3079SOL     OW10135   5.746   2.737   6.201
 3079SOL    HW110136   5.808   2.815   6.192
 3079SOL    HW210137   5.747   2.703   6.295
 3080SOL     OW10138   6.356   5.837   0.821
 3080SOL    HW110139   6.308   5.919   0.852
 3080SOL    HW210140   6.367   5.773   0.897
 3081SOL     OW10141   6.567   5.169   5.734
 3081SOL    HW110142   6.564   5.090   5.795
 3081SOL    HW210143   6.605   5.141   5.645
 3082SOL     OW10144   2.454   0.015   2.649
 3082SOL    HW110145   2.508   6.977   2.591
 3082SOL    HW210146   2.479   0.110   2.629
 3083SOL     OW10147   3.838   0.753   2.120
 3083SOL    HW110148   3.891   0.765   2.204
 3083SOL    HW210149   3.756   0.700   2.140
 3084SOL     OW10150   4.877   6.551   4.854
 3084SOL    HW110151   4.855   6.461   4.817
 3084SOL    HW210152   4.917   6.540   4.945
 3085SOL     OW10153   0.630   5.662   1.692
 3085SOL    HW110154   0.680   5.740   1.654
 3085SOL    HW210155   0.583   5.690   1.776
 3086SOL     OW10156   5.732   1.241   4.196
 3086SOL    HW110157   5.812   1.288   4.160
 3086SOL    HW210158   5.650   1.296   4.178
 3087SOL     OW10159   5.721   3.035   2.687
 3087SOL    HW110160   5.656   3.052   2.612
 3087SOL    HW210161   5.702   3.098   2.762
 3088SOL     OW10162   2.961   4.273   5.945
 3088SOL    HW110163   3.056   4.306   5.940
 3088SOL    HW210164   2.933   4.237   5.856
 3089SOL     OW10165   1.614   2.284   0.457
 3089SOL    HW110166   1.576   2.368   0.417
 3089SOL    HW210167   1.539   2.230   0.497
 3090SOL     OW10168   0.787   1.390   1.320
 3090SOL    HW110169   0.848   1.467   1.332
 3090SOL    HW210170   0.833   1.305   1.348
 3091SOL     OW10171   2.483   0.085   0.509
 3091SOL    HW110172   2.538   0.108   0.429
 3091SOL    HW210173   2.536   0.028   0.571
 3092SOL     OW10174   4.572   6.429   0.993
 3092SOL    HW110175   4.671   6.440   0.985
 3092SOL    HW210176   4.547   6.428   1.090
 3093SOL     OW10177   5.066   6.126   3.872
 3093SOL    HW110178   5.115   6.039   3.877
 3093SOL    HW210179   5.087   6.181   3.953
 3094SOL     OW10180   3.159   5.196   5.491
 3094SOL    HW110181   3.189   5.127   5.425
 3094SOL    HW210182   3.136   5.152   5.578
 3095SOL     OW10183   2.820   4.818   4.561
 3095SOL    HW110184   2.853   4.732   4.600
 3095SOL    HW210185   2.890   4.857   4.501
 3096SOL     OW10186   0.791   0.789   5.511
 3096SOL    HW110187   0.740   0.705   5.494
 3096SOL    HW210188   0.745   0.865   5.466
 3097SOL     OW10189   1.136   3.021   0.186
 3097SOL    HW110190   1.155   2.951   0.254
 3097SOL    HW210191   1.069   2.985   0.120
 3098SOL     OW10192   3.947   1.980   0.362
 3098SOL    HW110193   3.863   1.979   0.308
 3098SOL    HW210194   4.022   1.941   0.307
 3099SOL     OW10195   1.227   6.214   4.741
 3099SOL    HW110196   1.266   6.168   4.662
 3099SOL    HW210197   1.226   6.152   4.820
 3100SOL     OW10198   6.593   6.629   0.616
 3100SOL    HW110199   6.495   6.645   0.607
 3100SOL    HW210200   6.608   6.539   0.658
 3101SOL     OW10201   4.592   0.097   1.110
 3101SOL    HW110202   4.591   0.149   1.025
 3101SOL    HW210203   4.497   0.078   1.139
 3102SOL     OW10204   1.464   5.394   0.809
 3102SOL    HW110205   1.436   5.391   0.905
 3102SOL    HW210206   1.532   5.323   0.792
 3103SOL     OW10207   3.813   3.554   2.238
 3103SOL    HW110208   3.715   3.538   2.236
 3103SOL    HW210209   3.856   3.517   2.156
 3104SOL     OW10210   6.745   5.209   3.553
 3104SOL    HW110211   6.676   5.148   3.514
 3104SOL    HW210212   6.703   5.266   3.623
 3105SOL     OW10213   6.521   6.260   3.911
 3105SOL    HW110214   6.558   6.209   3.834
 3105SOL    HW210215   6.456   6.329   3.878
 3106SOL     OW10216   0.032   2.711   4.730
 3106SOL    HW110217   6.975   2.667   4.689
 3106SOL    HW210218   0.107   2.645   4.737
 3107SOL     OW10219   3.117   0.058   4.049
 3107SOL    HW110220   3.144   0.152   4.070
 3107SOL    HW210221   3.105   0.007   4.134
 3108SOL     OW10222   3.257   0.085   3.234
 3108SOL    HW110223   3.221   7.016   3.246
 3108SOL    HW210224   3.205   0.148   3.293
 3109SOL     OW10225   4.888   5.766   2.916
 3109SOL    HW110226   4.821   5.779   2.989
 3109SOL    HW210227   4.980   5.761   2.955
 3110SOL     OW10228   0.682   2.918   2.498
 3110SOL    HW110229   0.666   2.918   2.399
 3110SOL    HW210230   0.756   2.854   2.519
 3111SOL     OW10231   6.285   4.768   3.684
 3111SOL    HW110232   6.291   4.738   3.589
 3111SOL    HW210233   6.377   4.789   3.718
 3112SOL     OW10234   3.383   3.521   6.583
 3112SOL    HW110235   3.346   3.561   6.499
 3112SOL    HW210236   3.308   3.495   6.643
 3113SOL     OW10237   3.473   0.393   3.601
 3113SOL    HW110238   3.386   0.431   3.568
 3113SOL    HW210239   3.547   0.458   3.583
 3114SOL     OW10240   5.552   5.697   0.734
 3114SOL    HW110241   5.543   5.602   0.704
 3114SOL    HW210242   5.648   5.724   0.731
 3115SOL     OW10243   2.591   3.306   1.692
 3115SOL    HW110244   2.544   3.222   1.666
 3115SOL    HW210245   2.674   3.283   1.744
 3116SOL     OW10246   6.737   1.825   7.019
 3116SOL    HW110247   6.669   1.815   0.069
 3116SOL    HW210248   6.744   1.740   6.968
 3117SOL     OW10249   3.932   4.006   5.014
 3117SOL    HW110250   3.951   4.042   4.923
 3117SOL    HW210251   3.983   4.059   5.082
 3118SOL     OW10252   6.171   5.155   0.139
 3118SOL    HW110253   6.087   5.184   0.093
 3118SOL    HW210254   6.250   5.195   0.092
 3119SOL     OW10255   2.197   4.780   5.680
 3119SOL    HW110256   2.291   4.810   5.664
 3119SOL    HW210257   2.180   4.773   5.779
 3120SOL     OW10258   3.086   5.514   5.185
 3120SOL    HW110259   3.040   5.466   5.260
 3120SOL    HW210260   3.182   5.529   5.210
 3121SOL     OW10261   0.707   6.368   2.665
 3121SOL    HW110262   0.688   6.461   2.636
 3121SOL    HW210263   0.691   6.305   2.589
 3122SOL     OW10264   3.036   5.444   0.746
 3122SOL    HW110265   2.967   5.458   0.675
 3122SOL    HW210266   3.002   5.376   0.812
 3123SOL     OW10267   4.061   6.874   4.827
 3123SOL    HW110268   4.110   6.902   4.910
 3123SOL    HW210269   4.127   6.837   4.761
 3124SOL     OW10270   3.610   6.948   5.849
 3124SOL    HW110271   3.703   6.912   5.849
 3124SOL    HW210272   3.612   0.025   5.852
 3125SOL     OW10273   6.720   1.616   5.951
 3125SOL    HW110274   6.801   1.674   5.955
 3125SOL    HW210275   6.694   1.588   6.044
 3126SOL     OW10276   3.960   6.185   0.299
 3126SOL    HW110277   4.039   6.164   0.242
 3126SOL    HW210278   3.985   6.256   0.366
 3127SOL     OW10279   1.086   1.731   3.802
 3127SOL    HW110280   0.992   1.767   3.805
 3127SOL    HW210281   1.130   1.748   3.890
 3128SOL     OW10282   1.323   1.520   0.305
 3128SOL    HW110283   1.306   1.507   0.207
 3128SOL    HW210284   1.307   1.434   0.353
 3129SOL     OW10285   1.416   2.849   4.295
 3129SOL    HW110286   1.400   2.803   4.208
 3129SOL    HW210287   1.334   2.839   4.353
 3130SOL     OW10288   1.856   5.631   2.910
 3130SOL    HW110289   1.924   5.637   2.983
 3130SOL    HW210290   1.898   5.589   2.830
 3131SOL     OW10291   0.036   3.119   3.620
 3131SOL    HW110292   6.962   3.141   3.603
 3131SOL    HW210293   0.059   3.034   3.574
 3132SOL     OW10294   5.014   6.241   5.091
 3132SOL    HW110295   4.964   6.173   5.144
 3132SOL    HW210296   4.964   6.327   5.090
 3133SOL     OW10297   2.871   1.704   2.924
 3133SOL    HW110298   2.951   1.748   2.884
 3133SOL    HW210299   2.813   1.773   2.967
 3134SOL     OW10300   4.838   3.089   2.596
 3134SOL    HW110301   4.793   3.084   2.507
 3134SOL    HW210302   4.932   3.122   2.585
 3135SOL     OW10303   2.936   1.734   3.246
 3135SOL    HW110304   2.965   1.666   3.313
 3135SOL    HW210305   2.883   1.690   3.173
 3136SOL     OW10306   6.118   6.581   5.218
 3136SOL    HW110307   6.079   6.489   5.222
 3136SOL    HW210308   6.072   6.640   5.283
 3137SOL     OW10309   6.822   1.819   4.606
 3137SOL    HW110310   6.908   1.768   4.611
 3137SOL    HW210311   6.841   1.915   4.584
 3138SOL     OW10312   5.033   1.862   5.035
 3138SOL    HW110313   4.990   1.775   5.009
 3138SOL    HW210314   5.118   1.844   5.083
 3139SOL     OW10315   5.042   6.184   5.551
 3139SOL    HW110316   5.124   6.220   5.597
 3139SOL    HW210317   5.016   6.097   5.593
 3140SOL     OW10318   6.513   6.275   6.689
 3140SOL    HW110319   6.577   6.305   6.618
 3140SOL    HW210320   6.532   6.180   6.714
 3141SOL     OW10321   0.768   5.433   0.580
 3141SOL    HW110322   0.833   5.373   0.536
 3141SOL    HW210323   0.809   5.471   0.664
 3142SOL     OW10324   3.572   6.617   6.868
 3142SOL    HW110325   3.610   6.629   6.776
 3142SOL    HW210326   3.499   6.683   6.883
 3143SOL     OW10327   0.224   1.696   0.515
 3143SOL    HW110328   0.152   1.747   0.467
 3143SOL    HW210329   0.280   1.647   0.448
 3144SOL     OW10330   1.881   3.549   6.398
 3144SOL    HW110331   1.962   3.560   6.457
 3144SOL    HW210332   1.901   3.481   6.327
 3145SOL     OW10333   3.874   6.473   3.920
 3145SOL    HW110334   3.889   6.382   3.881
 3145SOL    HW210335   3.820   6.465   4.003
 3146SOL     OW10336   2.031   0.630   3.872
 3146SOL    HW110337   1.999   0.689   3.947
 3146SOL    HW210338   2.079   0.685   3.804
 3147SOL     OW10339   3.847   3.715   0.612
 3147SOL    HW110340   3.855   3.637   0.550
 3147SOL    HW210341   3.866   3.799   0.561
 3148SOL     OW10342   3.771   5.647   5.104
 3148SOL    HW110343   3.676   5.643   5.073
 3148SOL    HW210344   3.789   5.570   5.165
 3149SOL     OW10345   3.547   6.433   5.823
 3149SOL    HW110346   3.467   6.414   5.767
 3149SOL    HW210347   3.542   6.527   5.857
 3150SOL     OW10348   6.385   7.005   4.240
 3150SOL    HW110349   6.354   0.072   4.209
 3150SOL    HW210350   6.357   6.935   4.173
 3151SOL     OW10351   3.584   0.564   7.002
 3151SOL    HW110352   3.639   0.637   0.021
 3151SOL    HW210353   3.642   0.485   6.982
 3152SOL     OW10354   1.564   4.870   0.215
 3152SOL    HW110355   1.657   4.845   0.241
 3152SOL    HW210356   1.515   4.905   0.294
 3153SOL     OW10357   0.266   4.453   2.848
 3153SOL    HW110358   0.224   4.543   2.859
 3153SOL    HW210359   0.249   4.420   2.755
 3154SOL     OW10360   5.753   2.143   6.442
 3154SOL    HW110361   5.718   2.223   6.491
 3154SOL    HW210362   5.678   2.082   6.419
 3155SOL     OW10363   4.921   6.005   0.126
 3155SOL    HW110364   4.877   6.069   0.188
 3155SOL    HW210365   4.979   5.942   0.178
 3156SOL     OW10366   3.268   3.681   3.446
 3156SOL    HW110367   3.169   3.662   3.442
 3156SOL    HW210368   3.286   3.769   3.402
 3157SOL     OW10369   2.412   2.716   4.578
 3157SOL    HW110370   2.398   2.812   4.603
 3157SOL    HW210371   2.449   2.666   4.657
 3158SOL     OW10372   4.207   6.091   1.273
 3158SOL    HW110373   4.282   6.050   1.221
 3158SOL    HW210374   4.150   6.145   1.211
 3159SOL     OW10375   5.972   4.471   0.787
 3159SOL    HW110376   6.000   4.407   0.858
 3159SOL    HW210377   5.882   4.444   0.751
 3160SOL     OW10378   5.666   4.714   0.152
 3160SOL    HW110379   5.750   4.692   0.202
 3160SOL    HW210380   5.607   4.634   0.149
 3161SOL     OW10381   0.653   1.880   2.597
 3161SOL    HW110382   0.684   1.971   2.624
 3161SOL    HW210383   0.634   1.826   2.679
 3162SOL     OW10384   6.232   6.567   6.004
 3162SOL    HW110385   6.304   6.519   6.054
 3162SOL    HW210386   6.273   6.642   5.952
 3163SOL     OW10387   2.705   4.291   5.406
 3163SOL    HW110388   2.793   4.251   5.383
 3163SOL    HW210389   2.696   4.380   5.361
 3164SOL     OW10390   5.699   5.603   6.115
 3164SOL    HW110391   5.668   5.630   6.024
 3164SOL    HW210392   5.661   5.514   6.139
 3165SOL     OW10393   0.173   2.661   1.448
 3165SOL    HW110394   0.270   2.680   1.466
 3165SOL    HW210395   0.167   2.583   1.385
 3166SOL     OW10396   5.741   2.936   6.638
 3166SOL    HW110397   5.705   2.865   6.578
 3166SOL    HW210398   5.709   2.921   6.731
 3167SOL     OW10399   1.087   4.266   2.506
 3167SOL    HW110400   1.009   4.206   2.486
 3167SOL    HW210401   1.057   4.340   2.566
 3168SOL     OW10402   5.148   3.193   0.956
 3168SOL    HW110403   5.049   3.205   0.947
 3168SOL    HW210404   5.179   3.235   1.041
 3169SOL     OW10405   1.774   1.839   4.936
 3169SOL    HW110406   1.684   1.839   4.979
 3169SOL    HW210407   1.836   1.898   4.987
 3170SOL     OW10408   4.622   0.662   6.098
 3170SOL    HW110409   4.600   0.670   6.195
 3170SOL    HW210410   4.538   0.666   6.044
 3171SOL     OW10411   6.224   6.923   3.133
 3171SOL    HW110412   6.162   6.966   3.198
 3171SOL    HW210413   6.267   6.993   3.075
 3172SOL     OW10414   5.879   0.334   6.052
 3172SOL    HW110415   5.864   0.334   5.953
 3172SOL    HW210416   5.835   0.255   6.092
 3173SOL     OW10417   1.735   1.467   1.145
 3173SOL    HW110418   1.806   1.438   1.081
 3173SOL    HW210419   1.770   1.545   1.199
 3174SOL     OW10420   1.971   4.087   6.243
 3174SOL    HW110421   1.910   4.164   6.226
 3174SOL    HW210422   2.025   4.104   6.326
 3175SOL     OW10423   6.802   5.858   0.883
 3175SOL    HW110424   6.792   5.957   0.885
 3175SOL    HW210425   6.842   5.827   0.970
 3176SOL     OW10426   1.720   5.693   6.074
 3176SOL    HW110427   1.622   5.717   6.078
 3176SOL    HW210428   1.749   5.692   5.978
 3177SOL     OW10429   0.398   0.106   4.093
 3177SOL    HW110430   0.303   0.089   4.066
 3177SOL    HW210431   0.431   0.030   4.149
 3178SOL     OW10432   1.575   3.443   0.693
 3178SOL    HW110433   1.674   3.427   0.688
 3178SOL    HW210434   1.527   3.356   0.681
 3179SOL     OW10435   1.203   2.247   3.341
 3179SOL    HW110436   1.285   2.276   3.291
 3179SOL    HW210437   1.179   2.154   3.315
 3180SOL     OW10438   5.439   1.060   6.087
 3180SOL    HW110439   5.464   1.108   6.004
 3180SOL    HW210440   5.343   1.076   6.108
 3181SOL     OW10441   0.291   1.731   3.630
 3181SOL    HW110442   0.198   1.765   3.642
 3181SOL    HW210443   0.288   1.640   3.590
 3182SOL     OW10444   1.643   4.564   5.074
 3182SOL    HW110445   1.623   4.661   5.090
 3182SOL    HW210446   1.741   4.551   5.060
 3183SOL     OW10447   4.417   3.186   1.406
 3183SOL    HW110448   4.483   3.217   1.474
 3183SOL    HW210449   4.431   3.089   1.387
 3184SOL     OW10450   2.356   1.505   2.871
 3184SOL    HW110451   2.452   1.510   2.843
 3184SOL    HW210452   2.298   1.536   2.795
 3185SOL     OW10453   0.572   6.526   6.033
 3185SOL    HW110454   0.628   6.448   6.059
 3185SOL    HW210455   0.629   6.594   5.987
 3186SOL     OW10456   3.521   0.302   1.835
 3186SOL    HW110457   3.550   0.303   1.739
 3186SOL    HW210458   3.460   0.379   1.852
 3187SOL     OW10459   2.680   4.542   7.012
 3187SOL    HW110460   2.694   4.543   6.913
 3187SOL    HW210461   2.769   4.535   0.035
 3188SOL     OW10462   4.908   0.274   3.204
 3188SOL    HW110463   4.940   0.364   3.235
 3188SOL    HW210464   4.959   0.247   3.122
 3189SOL     OW10465   0.137   6.903   1.757
 3189SOL    HW110466   0.232   6.937   1.751
 3189SOL    HW210467   0.084   6.942   1.681
 3190SOL     OW10468   0.700   6.818   1.388
 3190SOL    HW110469   0.746   6.884   1.329
 3190SOL    HW210470   0.757   6.736   1.397
 3191SOL     OW10471   3.302   0.292   1.113
 3191SOL    HW110472   3.245   0.345   1.050
 3191SOL    HW210473   3.386   0.264   1.066
 3192SOL     OW10474   5.833   2.542   3.847
 3192SOL    HW110475   5.879   2.631   3.845
 3192SOL    HW210476   5.895   2.473   3.809
 3193SOL     OW10477   5.036   4.235   0.190
 3193SOL    HW110478   5.106   4.292   0.234
 3193SOL    HW210479   4.966   4.294   0.150
 3194SOL     OW10480   1.489   4.845   5.792
 3194SOL    HW110481   1.519   4.940   5.784
 3194SOL    HW210482   1.484   4.804   5.701
 3195SOL     OW10483   0.713   3.899   2.892
 3195SOL    HW110484   0.756   3.824   2.944
 3195SOL    HW210485   0.776   3.929   2.820
 3196SOL     OW10486   0.506   6.174   5.272
 3196SOL    HW110487   0.414   6.186   5.237
 3196SOL    HW210488   0.534   6.079   5.262
 3197SOL     OW10489   0.988   4.184   4.225
 3197SOL    HW110490   0.995   4.114   4.295
 3197SOL    HW210491   0.892   4.200   4.203
 3198SOL     OW10492   5.546   0.147   0.262
 3198SOL    HW110493   5.468   0.116   0.316
 3198SOL    HW210494   5.617   0.077   0.261
 3199SOL     OW10495   3.605   1.970   2.728
 3199SOL    HW110496   3.604   2.017   2.640
 3199SOL    HW210497   3.682   1.908   2.733
 3200SOL     OW10498   6.905   1.945   0.748
 3200SOL    HW110499   6.977   1.927   0.814
 3200SOL    HW210500   6.861   1.859   0.722
 3201SOL     OW10501   4.651   4.328   3.375
 3201SOL    HW110502   4.569   4.354   3.325
 3201SOL    HW210503   4.679   4.403   3.435
 3202SOL     OW10504   1.678   5.732   2.054
 3202SOL    HW110505   1.615   5.669   2.098
 3202SOL    HW210506   1.701   5.806   2.118
 3203SOL     OW10507   5.397   0.162   1.294
 3203SOL    HW110508   5.439   0.207   1.215
 3203SOL    HW210509   5.299   0.185   1.297
 3204SOL     OW10510   6.309   6.136   1.521
 3204SOL    HW110511   6.235   6.203   1.519
 3204SOL    HW210512   6.395   6.181   1.497
 3205SOL     OW10513   1.380   3.941   3.219
 3205SOL    HW110514   1.296   3.931   3.272
 3205SOL    HW210515   1.458   3.952   3.281
 3206SOL     OW10516   1.566   6.265   0.081
 3206SOL    HW110517   1.517   6.278   0.167
 3206SOL    HW210518   1.523   6.192   0.028
 3207SOL     OW10519   0.808   1.464   2.871
 3207SOL    HW110520   0.798   1.430   2.778
 3207SOL    HW210521   0.764   1.401   2.935
 3208SOL     OW10522   6.203   0.684   5.113
 3208SOL    HW110523   6.241   0.614   5.174
 3208SOL    HW210524   6.200   0.772   5.161
 3209SOL     OW10525   2.746   0.461   2.755
 3209SOL    HW110526   2.757   0.431   2.660
 3209SOL    HW210527   2.698   0.390   2.806
 3210SOL     OW10528   0.627   4.899   2.775
 3210SOL    HW110529   0.725   4.914   2.759
 3210SOL    HW210530   0.575   4.937   2.699
 3211SOL     OW10531   0.844   4.373   2.988
 3211SOL    HW110532   0.882   4.320   3.063
 3211SOL    HW210533   0.787   4.446   3.025
 3212SOL     OW10534   4.861   3.141   5.024
 3212SOL    HW110535   4.825   3.139   5.118
 3212SOL    HW210536   4.898   3.231   5.004
 3213SOL     OW10537   5.084   6.956   1.419
 3213SOL    HW110538   5.056   6.863   1.445
 3213SOL    HW210539   5.014   7.022   1.447
 3214SOL     OW10540   4.184   4.210   6.176
 3214SOL    HW110541   4.239   4.137   6.216
 3214SOL    HW210542   4.136   4.259   6.249
 3215SOL     OW10543   6.004   1.013   0.384
 3215SOL    HW110544   5.988   0.924   0.427
 3215SOL    HW210545   5.973   1.010   0.289
 3216SOL     OW10546   6.355   6.552   4.966
 3216SOL    HW110547   6.319   6.495   4.893
 3216SOL    HW210548   6.295   6.545   5.046
 3217SOL     OW10549   6.877   4.135   0.760
 3217SOL    HW110550   6.957   4.154   0.703
 3217SOL    HW210551   6.836   4.047   0.733
 3218SOL     OW10552   3.814   0.978   1.970
 3218SOL    HW110553   3.840   0.936   1.883
 3218SOL    HW210554   3.803   0.907   2.040
 3219SOL     OW10555   6.865   6.784   4.183
 3219SOL    HW110556   6.790   6.839   4.220
 3219SOL    HW210557   6.898   6.722   4.253
 3220SOL     OW10558   5.945   3.073   6.535
 3220SOL    HW110559   5.871   3.027   6.584
 3220SOL    HW210560   6.031   3.025   6.550
 3221SOL     OW10561   3.793   0.167   2.395
 3221SOL    HW110562   3.881   0.215   2.398
 3221SOL    HW210563   3.755   0.160   2.487
 3222SOL     OW10564   6.220   3.798   2.570
 3222SOL    HW110565   6.208   3.720   2.632
 3222SOL    HW210566   6.257   3.766   2.483
 3223SOL     OW10567   2.535   4.621   3.931
 3223SOL    HW110568   2.465   4.693   3.938
 3223SOL    HW210569   2.535   4.566   4.014
 3224SOL     OW10570   3.503   5.884   1.403
 3224SOL    HW110571   3.485   5.931   1.489
 3224SOL    HW210572   3.505   5.951   1.328
 3225SOL     OW10573   2.165   2.526   1.093
 3225SOL    HW110574   2.246   2.548   1.039
 3225SOL    HW210575   2.137   2.432   1.074
 3226SOL     OW10576   0.333   0.833   4.203
 3226SOL    HW110577   0.418   0.841   4.253
 3226SOL    HW210578   0.332   0.748   4.150
 3227SOL     OW10579   2.476   1.693   5.717
 3227SOL    HW110580   2.561   1.643   5.702
 3227SOL    HW210581   2.471   1.770   5.653
 3228SOL     OW10582   4.930   3.384   4.638
 3228SOL    HW110583   4.911   3.287   4.621
 3228SOL    HW210584   4.897   3.438   4.561
 3229SOL     OW10585   4.219   1.509   5.332
 3229SOL    HW110586   4.319   1.519   5.329
 3229SOL    HW210587   4.177   1.577   5.272
 3230SOL     OW10588   1.565   0.541   3.636
 3230SOL    HW110589   1.518   0.600   3.571
 3230SOL    HW210590   1.533   0.560   3.729
 3231SOL     OW10591   4.956   5.339   0.350
 3231SOL    HW110592   4.984   5.347   0.254
 3231SOL    HW210593   5.013   5.272   0.396
 3232SOL     OW10594   2.185   4.482   3.178
 3232SOL    HW110595   2.108   4.457   3.237
 3232SOL    HW210596   2.223   4.399   3.137
 3233SOL     OW10597   1.535   3.768   0.793
 3233SOL    HW110598   1.544   3.687   0.735
 3233SOL    HW210599   1.442   3.772   0.830
 3234SOL     OW10600   6.413   2.298   4.900
 3234SOL    HW110601   6.381   2.392   4.909
 3234SOL    HW210602   6.335   2.236   4.911
 3235SOL     OW10603   5.339   0.625   2.503
 3235SOL    HW110604   5.300   0.711   2.468
 3235SOL    HW210605   5.268   0.573   2.550
 3236SOL     OW10606   0.153   2.965   1.423
 3236SOL    HW110607   0.250   2.981   1.439
 3236SOL    HW210608   0.140   2.871   1.389
 3237SOL     OW10609   2.878   6.589   4.479
 3237SOL    HW110610   2.848   6.494   4.487
 3237SOL    HW210611   2.923   6.602   4.390
 3238SOL     OW10612   6.330   6.202   6.385
 3238SOL    HW110613   6.425   6.170   6.391
 3238SOL    HW210614   6.328   6.301   6.393
 3239SOL     OW10615   0.681   5.633   5.369
 3239SOL    HW110616   0.661   5.616   5.466
 3239SOL    HW210617   0.694   5.546   5.321
 3240SOL     OW10618   0.115   2.080   5.297
 3240SOL    HW110619   0.063   2.017   5.353
 3240SOL    HW210620   0.054   2.145   5.253
 3241SOL     OW10621   5.041   0.106   5.160
 3241SOL    HW110622   5.073   0.080   5.069
 3241SOL    HW210623   5.039   0.205   5.167
 3242SOL     OW10624   3.437   6.635   0.342
 3242SOL    HW110625   3.418   6.727   0.306
 3242SOL    HW210626   3.530   6.608   0.317
 3243SOL     OW10627   3.459   5.285   1.030
 3243SOL    HW110628   3.383   5.282   1.094
 3243SOL    HW210629   3.470   5.379   0.996
 3244SOL     OW10630   1.578   5.891   5.401
 3244SOL    HW110631   1.499   5.878   5.460
 3244SOL    HW210632   1.554   5.953   5.326
 3245SOL     OW10633   2.803   2.004   5.805
 3245SOL    HW110634   2.794   1.944   5.725
 3245SOL    HW210635   2.783   1.952   5.888
 3246SOL     OW10636   5.670   6.152   3.460
 3246SOL    HW110637   5.711   6.183   3.374
 3246SOL    HW210638   5.624   6.229   3.504
 3247SOL     OW10639   6.661   2.130   5.737
 3247SOL    HW110640   6.598   2.200   5.771
 3247SOL    HW210641   6.613   2.043   5.731
 3248SOL     OW10642   5.230   3.894   2.818
 3248SOL    HW110643   5.195   3.814   2.769
 3248SOL    HW210644   5.164   3.922   2.888
 3249SOL     OW10645   3.206   4.438   5.467
 3249SOL    HW110646   3.191   4.340   5.451
 3249SOL    HW210647   3.119   4.486   5.467
 3250SOL     OW10648   4.746   5.271   1.627
 3250SOL    HW110649   4.810   5.348   1.626
 3250SOL    HW210650   4.726   5.245   1.721
 3251SOL     OW10651   3.445   0.788   3.625
 3251SOL    HW110652   3.444   0.858   3.696
 3251SOL    HW210653   3.351   0.761   3.603
 3252SOL     OW10654   3.109   2.113   3.581
 3252SOL    HW110655   3.042   2.082   3.649
 3252SOL    HW210656   3.065   2.172   3.515
 3253SOL     OW10657   4.465   4.230   0.928
 3253SOL    HW110658   4.379   4.180   0.927
 3253SOL    HW210659   4.454   4.317   0.881
 3254SOL     OW10660   5.455   4.461   2.771
 3254SOL    HW110661   5.471   4.525   2.846
 3254SOL    HW210662   5.358   4.440   2.766
 3255SOL     OW10663   4.348   4.596   0.982
 3255SOL    HW110664   4.270   4.562   1.036
 3255SOL    HW210665   4.430   4.597   1.040
 3256SOL     OW10666   6.155   6.259   5.620
 3256SOL    HW110667   6.249   6.251   5.654
 3256SOL    HW210668   6.097   6.192   5.667
 3257SOL     OW10669   2.365   1.580   1.182
 3257SOL    HW110670   2.383   1.678   1.172
 3257SOL    HW210671   2.357   1.557   1.278
 3258SOL     OW10672   5.313   6.678   1.759
 3258SOL    HW110673   5.221   6.646   1.782
 3258SOL    HW210674   5.353   6.723   1.838
 3259SOL     OW10675   6.022   6.427   2.831
 3259SOL    HW110676   6.026   6.488   2.753
 3259SOL    HW210677   6.045   6.334   2.802
 3260SOL     OW10678   1.543   2.314   0.824
 3260SOL    HW110679   1.453   2.298   0.864
 3260SOL    HW210680   1.557   2.250   0.748
 3261SOL     OW10681   4.519   6.994   3.713
 3261SOL    HW110682   4.446   6.976   3.779
 3261SOL    HW210683   4.480   6.996   3.621
 3262SOL     OW10684   3.896   1.176   3.959
 3262SOL    HW110685   3.900   1.129   4.048
 3262SOL    HW210686   3.989   1.196   3.928
 3263SOL     OW10687   3.817   5.031   2.853
 3263SOL    HW110688   3.870   4.958   2.809
 3263SOL    HW210689   3.794   5.004   2.946
 3264SOL     OW10690   4.783   4.679   6.090
 3264SOL    HW110691   4.714   4.683   6.162
 3264SOL    HW210692   4.746   4.723   6.007
 3265SOL     OW10693   5.228   0.461   6.377
 3265SOL    HW110694   5.327   0.455   6.391
 3265SOL    HW210695   5.209   0.473   6.279
 3266SOL     OW10696   1.034   2.700   0.050
 3266SOL    HW110697   1.094   2.752   7.011
 3266SOL    HW210698   1.060   2.718   0.145
 3267SOL     OW10699   5.079   2.751   1.883
 3267SOL    HW110700   5.030   2.664   1.886
 3267SOL    HW210701   5.018   2.822   1.848
 3268SOL     OW10702   1.792   4.652   0.042
 3268SOL    HW110703   1.849   4.602   6.999
 3268SOL    HW210704   1.702   4.609   0.047
 3269SOL     OW10705   4.396   3.695   0.833
 3269SOL    HW110706   4.378   3.618   0.895
 3269SOL    HW210707   4.378   3.781   0.880
 3270SOL     OW10708   0.460   5.284   4.137
 3270SOL    HW110709   0.483   5.347   4.211
 3270SOL    HW210710   0.427   5.198   4.176
 3271SOL     OW10711   4.810   0.591   2.096
 3271SOL    HW110712   4.739   0.591   2.166
 3271SOL    HW210713   4.893   0.634   2.132
 3272SOL     OW10714   4.891   6.976   6.939
 3272SOL    HW110715   4.959   6.925   6.887
 3272SOL    HW210716   4.935   0.000   7.015
 3273SOL     OW10717   1.047   1.041   3.082
 3273SOL    HW110718   0.993   0.961   3.057
 3273SOL    HW210719   1.032   1.114   3.015
 3274SOL     OW10720   2.781   1.659   0.064
 3274SOL    HW110721   2.722   1.721   0.011
 3274SOL    HW210722   2.870   1.654   0.020
 3275SOL     OW10723   4.208   0.652   0.178
 3275SOL    HW110724   4.247   0.700   0.100
 3275SOL    HW210725   4.278   0.636   0.247
 3276SOL     OW10726   2.372   6.248   0.262
 3276SOL    HW110727   2.276   6.229   0.239
 3276SOL    HW210728   2.420   6.277   0.179
 3277SOL     OW10729   0.254   6.013   5.895
 3277SOL    HW110730   0.212   6.103   5.897
 3277SOL    HW210731   0.329   6.010   5.961
 3278SOL     OW10732   1.153   1.151   0.821
 3278SOL    HW110733   1.062   1.180   0.792
 3278SOL    HW210734   1.174   1.190   0.911
 3279SOL     OW10735   2.155   6.228   1.087
 3279SOL    HW110736   2.201   6.163   1.146
 3279SOL    HW210737   2.070   6.188   1.053
 3280SOL     OW10738   2.934   6.288   4.271
 3280SOL    HW110739   2.868   6.346   4.224
 3280SOL    HW210740   2.887   6.222   4.329
 3281SOL     OW10741   2.655   6.260   0.500
 3281SOL    HW110742   2.599   6.195   0.449
 3281SOL    HW210743   2.702   6.321   0.436
 3282SOL     OW10744   2.074   5.924   2.553
 3282SOL    HW110745   1.989   5.967   2.585
 3282SOL    HW210746   2.151   5.986   2.569
 3283SOL     OW10747   1.974   0.227   4.091
 3283SOL    HW110748   1.992   0.210   3.994
 3283SOL    HW210749   2.040   0.176   4.146
 3284SOL     OW10750   0.926   5.240   6.039
 3284SOL    HW110751   0.919   5.186   6.122
 3284SOL    HW210752   1.018   5.234   6.002
 3285SOL     OW10753   0.209   2.532   4.738
 3285SOL    HW110754   0.304   2.541   4.707
 3285SOL    HW210755   0.201   2.454   4.800
 3286SOL     OW10756   4.609   4.757   6.485
 3286SOL    HW110757   4.596   4.709   6.398
 3286SOL    HW210758   4.520   4.775   6.526
 3287SOL     OW10759   0.703   3.641   1.606
 3287SOL    HW110760   0.801   3.656   1.614
 3287SOL    HW210761   0.662   3.640   1.697
 3288SOL     OW10762   1.138   6.004   6.144
 3288SOL    HW110763   1.199   6.080   6.120
 3288SOL    HW210764   1.063   6.038   6.201
 3289SOL     OW10765   1.426   5.606   4.052
 3289SOL    HW110766   1.375   5.567   4.129
 3289SOL    HW210767   1.499   5.544   4.025
 3290SOL     OW10768   0.479   4.894   3.534
 3290SOL    HW110769   0.509   4.799   3.522
 3290SOL    HW210770   0.391   4.894   3.582
 3291SOL     OW10771   1.339   0.652   1.606
 3291SOL    HW110772   1.410   0.582   1.605
 3291SOL    HW210773   1.379   0.740   1.631
 3292SOL     OW10774   0.234   5.669   4.825
 3292SOL    HW110775   0.271   5.760   4.806
 3292SOL    HW210776   0.293   5.622   4.889
 3293SOL     OW10777   5.681   0.881   2.526
 3293SOL    HW110778   5.750   0.869   2.455
 3293SOL    HW210779   5.631   0.795   2.539
 3294SOL     OW10780   0.683   6.460   0.810
 3294SOL    HW110781   0.718   6.502   0.726
 3294SOL    HW210782   0.747   6.390   0.842
 3295SOL     OW10783   1.778   2.323   6.173
 3295SOL    HW110784   1.709   2.393   6.154
 3295SOL    HW210785   1.867   2.354   6.142
 3296SOL     OW10786   0.952   6.651   2.178
 3296SOL    HW110787   0.986   6.579   2.117
 3296SOL    HW210788   0.909   6.723   2.124
 3297SOL     OW10789   3.056   1.477   6.128
 3297SOL    HW110790   3.153   1.471   6.150
 3297SOL    HW210791   3.011   1.390   6.149
 3298SOL     OW10792   6.916   4.509   2.596
 3298SOL    HW110793   6.947   4.478   2.687
 3298SOL    HW210794   6.922   4.432   2.532
 3299SOL     OW10795   0.634   1.066   4.812
 3299SOL    HW110796   0.578   1.137   4.770
 3299SOL    HW210797   0.729   1.099   4.819
 3300SOL     OW10798   6.986   0.007   4.919
 3300SOL    HW110799   6.904   0.023   4.974
 3300SOL    HW210800   0.036   6.992   4.977
 3301SOL     OW10801   6.939   3.855   2.473
 3301SOL    HW110802   6.896   3.858   2.563
 3301SOL    HW210803   0.007   3.812   2.481
 3302SOL     OW10804   1.332   5.721   5.261
 3302SOL    HW110805   1.401   5.657   5.227
 3302SOL    HW210806   1.329   5.719   5.361
 3303SOL     OW10807   2.968   3.208   3.801
 3303SOL    HW110808   3.034   3.133   3.804
 3303SOL    HW210809   2.951   3.241   3.894
 3304SOL     OW10810   1.593   0.634   3.034
 3304SOL    HW110811   1.522   0.688   2.989
 3304SOL    HW210812   1.669   0.619   2.971
 3305SOL     OW10813   0.387   2.531   0.385
 3305SOL    HW110814   0.457   2.553   0.318
 3305SOL    HW210815   0.344   2.615   0.418
 3306SOL     OW10816   1.103   3.328   2.241
 3306SOL    HW110817   1.190   3.377   2.236
 3306SOL    HW210818   1.111   3.252   2.306
 3307SOL     OW10819   0.749   6.989   0.480
 3307SOL    HW110820   0.727   6.893   0.464
 3307SOL    HW210821   0.672   0.011   0.525
 3308SOL     OW10822   5.246   6.419   0.699
 3308SOL    HW110823   5.233   6.320   0.692
 3308SOL    HW210824   5.314   6.439   0.769
 3309SOL     OW10825   1.732   5.100   2.413
 3309SOL    HW110826   1.802   5.078   2.345
 3309SOL    HW210827   1.771   5.092   2.505
 3310SOL     OW10828   1.509   6.633   1.684
 3310SOL    HW110829   1.529   6.670   1.775
 3310SOL    HW210830   1.592   6.592   1.646
 3311SOL     OW10831   4.073   5.882   1.074
 3311SOL    HW110832   4.120   5.952   1.129
 3311SOL    HW210833   4.048   5.921   0.985
 3312SOL     OW10834   2.174   2.751   6.753
 3312SOL    HW110835   2.088   2.704   6.733
 3312SOL    HW210836   2.224   2.766   6.668
 3313SOL     OW10837   6.457   6.098   4.876
 3313SOL    HW110838   6.407   6.062   4.797
 3313SOL    HW210839   6.393   6.144   4.937
 3314SOL     OW10840   0.774   4.468   6.899
 3314SOL    HW110841   0.685   4.509   6.919
 3314SOL    HW210842   0.831   4.469   6.981
 3315SOL     OW10843   6.468   3.308   3.546
 3315SOL    HW110844   6.376   3.274   3.527
 3315SOL    HW210845   6.486   3.300   3.644
 3316SOL     OW10846   3.930   1.469   0.262
 3316SOL    HW110847   3.881   1.407   0.199
 3316SOL    HW210848   4.021   1.433   0.279
 3317SOL     OW10849   4.341   2.659   1.720
 3317SOL    HW110850   4.405   2.734   1.737
 3317SOL    HW210851   4.262   2.693   1.670
 3318SOL     OW10852   2.679   5.041   5.483
 3318SOL    HW110853   2.759   5.063   5.427
 3318SOL    HW210854   2.596   5.056   5.429
 3319SOL     OW10855   6.775   6.457   6.723
 3319SOL    HW110856   6.715   6.413   6.790
 3319SOL    HW210857   6.861   6.482   6.766
 3320SOL     OW10858   0.605   0.148   0.218
 3320SOL    HW110859   0.615   0.192   0.128
 3320SOL    HW210860   0.603   0.049   0.206
 3321SOL     OW10861   4.010   3.348   4.059
 3321SOL    HW110862   4.038   3.261   4.018
 3321SOL    HW210863   3.982   3.412   3.988
 3322SOL     OW10864   4.243   1.805   1.817
 3322SOL    HW110865   4.248   1.863   1.736
 3322SOL    HW210866   4.255   1.709   1.790
 3323SOL     OW10867   2.329   4.389   0.235
 3323SOL    HW110868   2.370   4.420   0.149
 3323SOL    HW210869   2.244   4.339   0.216
 3324SOL     OW10870   6.298   3.309   1.717
 3324SOL    HW110871   6.228   3.317   1.788
 3324SOL    HW210872   6.256   3.272   1.634
 3325SOL     OW10873   1.236   4.469   6.288
 3325SOL    HW110874   1.298   4.393   6.305
 3325SOL    HW210875   1.165   4.471   6.359
 3326SOL     OW10876   6.064   1.143   1.539
 3326SOL    HW110877   6.155   1.183   1.525
 3326SOL    HW210878   6.008   1.158   1.457
 3327SOL     OW10879   4.289   5.681   2.015
 3327SOL    HW110880   4.309   5.585   2.037
 3327SOL    HW210881   4.229   5.685   1.935
 3328SOL     OW10882   6.082   6.815   4.069
 3328SOL    HW110883   6.087   6.767   4.157
 3328SOL    HW210884   6.171   6.808   4.022
 3329SOL     OW10885   5.205   0.851   6.284
 3329SOL    HW110886   5.296   0.809   6.281
 3329SOL    HW210887   5.207   0.927   6.349
 3330SOL     OW10888   6.671   6.447   3.111
 3330SOL    HW110889   6.695   6.479   3.203
 3330SOL    HW210890   6.717   6.360   3.094
 3331SOL     OW10891   1.579   4.037   3.032
 3331SOL    HW110892   1.487   4.015   3.065
 3331SOL    HW210893   1.626   3.953   3.008
 3332SOL     OW10894   3.132   5.299   0.189
 3332SOL    HW110895   3.145   5.392   0.224
 3332SOL    HW210896   3.186   5.236   0.244
 3333SOL     OW10897   1.897   3.124   1.234
 3333SOL    HW110898   1.952   3.093   1.311
 3333SOL    HW210899   1.873   3.220   1.247
 3334SOL     OW10900   1.243   2.275   2.151
 3334SOL    HW110901   1.198   2.188   2.171
 3334SOL    HW210902   1.203   2.314   2.068
 3335SOL     OW10903   3.415   4.210   5.329
 3335SOL    HW110904   3.450   4.178   5.417
 3335SOL    HW210905   3.317   4.191   5.323
 3336SOL     OW10906   4.346   5.951   5.363
 3336SOL    HW110907   4.329   5.861   5.323
 3336SOL    HW210908   4.286   6.019   5.321
 3337SOL     OW10909   3.785   3.041   3.266
 3337SOL    HW110910   3.828   3.088   3.188
 3337SOL    HW210911   3.707   2.988   3.234
 3338SOL     OW10912   3.153   2.800   1.314
 3338SOL    HW110913   3.214   2.758   1.380
 3338SOL    HW210914   3.097   2.869   1.360
 3339SOL     OW10915   1.041   6.853   6.938
 3339SOL    HW110916   1.132   6.813   6.930
 3339SOL    HW210917   0.975   6.797   6.887
 3340SOL     OW10918   3.853   1.434   5.787
 3340SOL    HW110919   3.828   1.513   5.842
 3340SOL    HW210920   3.877   1.464   5.694
 3341SOL     OW10921   1.122   4.424   1.527
 3341SOL    HW110922   1.139   4.326   1.515
 3341SOL    HW210923   1.132   4.447   1.624
 3342SOL     OW10924   6.202   0.674   2.608
 3342SOL    HW110925   6.249   0.670   2.520
 3342SOL    HW210926   6.131   0.605   2.611
 3343SOL     OW10927   3.782   5.636   0.580
 3343SOL    HW110928   3.864   5.692   0.573
 3343SOL    HW210929   3.805   5.548   0.622
 3344SOL     OW10930   0.966   3.527   1.982
 3344SOL    HW110931   0.907   3.472   2.040
 3344SOL    HW210932   1.051   3.478   1.964
 3345SOL     OW10933   5.809   5.605   1.121
 3345SOL    HW110934   5.777   5.567   1.208
 3345SOL    HW210935   5.772   5.551   1.045
 3346SOL     OW10936   1.270   0.840   0.073
 3346SOL    HW110937   1.248   0.795   0.159
 3346SOL    HW210938   1.353   0.895   0.084
 3347SOL     OW10939   0.698   3.911   5.825
 3347SOL    HW110940   0.696   3.968   5.907
 3347SOL    HW210941   0.622   3.845   5.828
 3348SOL     OW10942   3.690   4.300   6.214
 3348SOL    HW110943   3.676   4.373   6.282
 3348SOL    HW210944   3.742   4.226   6.256
 3349SOL     OW10945   1.875   5.218   1.978
 3349SOL    HW110946   1.873   5.193   1.882
 3349SOL    HW210947   1.833   5.308   1.991
 3350SOL     OW10948   1.849   4.807   4.941
 3350SOL    HW110949   1.784   4.860   4.996
 3350SOL    HW210950   1.874   4.724   4.990
 3351SOL     OW10951   5.426   0.315   2.004
 3351SOL    HW110952   5.450   0.312   1.907
 3351SOL    HW210953   5.414   0.221   2.038
 3352SOL     OW10954   5.518   1.362   6.980
 3352SOL    HW110955   5.424   1.363   6.947
 3352SOL    HW210956   5.524   1.407   0.046
 3353SOL     OW10957   4.187   1.030   6.624
 3353SOL    HW110958   4.191   1.123   6.662
 3353SOL    HW210959   4.093   1.009   6.597
 3354SOL     OW10960   2.052   3.252   0.748
 3354SOL    HW110961   2.026   3.184   0.817
 3354SOL    HW210962   2.125   3.215   0.691
 3355SOL     OW10963   1.169   0.564   4.561
 3355SOL    HW110964   1.130   0.635   4.503
 3355SOL    HW210965   1.145   0.581   4.656
 3356SOL     OW10966   2.349   0.799   6.273
 3356SOL    HW110967   2.397   0.712   6.266
 3356SOL    HW210968   2.398   0.858   6.338
 3357SOL     OW10969   2.990   3.221   2.797
 3357SOL    HW110970   2.984   3.306   2.744
 3357SOL    HW210971   3.016   3.146   2.737
 3358SOL     OW10972   0.364   1.793   1.428
 3358SOL    HW110973   0.397   1.716   1.373
 3358SOL    HW210974   0.331   1.864   1.366
 3359SOL     OW10975   0.888   7.004   4.339
 3359SOL    HW110976   0.811   6.980   4.281
 3359SOL    HW210977   0.923   6.922   4.384
 3360SOL     OW10978   2.218   5.443   4.501
 3360SOL    HW110979   2.288   5.413   4.436
 3360SOL    HW210980   2.171   5.364   4.539
 3361SOL     OW10981   6.840   6.829   4.777
 3361SOL    HW110982   6.771   6.841   4.707
 3361SOL    HW210983   6.880   6.918   4.801
 3362SOL     OW10984   3.842   0.658   4.250
 3362SOL    HW110985   3.923   0.712   4.273
 3362SOL    HW210986   3.862   0.561   4.262
 3363SOL     OW10987   5.366   4.044   0.035
 3363SOL    HW110988   5.414   4.078   6.977
 3363SOL    HW210989   5.267   4.047   0.018
 3364SOL     OW10990   1.249   3.441   1.943
 3364SOL    HW110991   1.329   3.482   1.899
 3364SOL    HW210992   1.270   3.419   2.038
 3365SOL     OW10993   1.112   2.934   3.119
 3365SOL    HW110994   1.060   3.020   3.118
 3365SOL    HW210995   1.059   2.863   3.073
 3366SOL     OW10996   6.384   2.764   4.558
 3366SOL    HW110997   6.408   2.736   4.465
 3366SOL    HW210998   6.323   2.696   4.599
 3367SOL     OW10999   3.418   2.878   3.793
 3367SOL    HW111000   3.470   2.900   3.875
 3367SOL    HW211001   3.423   2.780   3.775
 3368SOL     OW11002   2.586   1.329   3.384
 3368SOL    HW111003   2.664   1.307   3.442
 3368SOL    HW211004   2.512   1.263   3.401
 3369SOL     OW11005   4.990   3.186   1.219
 3369SOL    HW111006   5.036   3.257   1.273
 3369SOL    HW211007   4.896   3.216   1.198
 3370SOL     OW11008   0.843   5.948   3.153
 3370SOL    HW111009   0.783   5.899   3.216
 3370SOL    HW211010   0.836   5.906   3.062
 3371SOL     OW11011   2.162   2.916   1.290
 3371SOL    HW111012   2.223   2.968   1.231
 3371SOL    HW211013   2.097   2.865   1.234
 3372SOL     OW11014   6.063   3.015   3.931
 3372SOL    HW111015   6.029   2.968   4.013
 3372SOL    HW211016   6.000   3.090   3.908
 3373SOL     OW11017   0.021   4.539   0.968
 3373SOL    HW111018   6.966   4.477   0.964
 3373SOL    HW211019   7.017   4.629   0.934
 3374SOL     OW11020   0.726   6.037   4.068
 3374SOL    HW111021   0.627   6.027   4.077
 3374SOL    HW211022   0.749   6.056   3.972
 3375SOL     OW11023   0.563   6.261   5.848
 3375SOL    HW111024   0.497   6.213   5.790
 3375SOL    HW211025   0.517   6.297   5.929
 3376SOL     OW11026   3.156   3.099   5.164
 3376SOL    HW111027   3.117   3.186   5.135
 3376SOL    HW211028   3.223   3.068   5.097
 3377SOL     OW11029   6.708   5.349   4.422
 3377SOL    HW111030   6.628   5.409   4.425
 3377SOL    HW211031   6.700   5.278   4.491
 3378SOL     OW11032   1.087   5.889   0.639
 3378SOL    HW111033   1.066   5.871   0.543
 3378SOL    HW211034   1.163   5.953   0.645
 3379SOL     OW11035   5.979   3.938   4.119
 3379SOL    HW111036   6.049   3.959   4.187
 3379SOL    HW211037   5.894   3.985   4.142
 3380SOL     OW11038   2.506   5.271   1.390
 3380SOL    HW111039   2.474   5.234   1.477
 3380SOL    HW211040   2.439   5.250   1.319
 3381SOL     OW11041   2.830   3.677   6.416
 3381SOL    HW111042   2.864   3.723   6.334
 3381SOL    HW211043   2.841   3.737   6.495
 3382SOL     OW11044   6.758   3.989   6.815
 3382SOL    HW111045   6.822   4.046   6.764
 3382SOL    HW211046   6.785   3.893   6.807
 3383SOL     OW11047   3.463   5.580   0.863
 3383SOL    HW111048   3.500   5.640   0.934
 3383SOL    HW211049   3.525   5.580   0.784
 3384SOL     OW11050   2.585   2.917   6.434
 3384SOL    HW111051   2.595   2.968   6.349
 3384SOL    HW211052   2.670   2.869   6.455
 3385SOL     OW11053   6.160   2.501   4.524
 3385SOL    HW111054   6.248   2.468   4.489
 3385SOL    HW211055   6.117   2.430   4.580
 3386SOL     OW11056   0.515   6.057   4.658
 3386SOL    HW111057   0.613   6.075   4.655
 3386SOL    HW211058   0.489   6.001   4.580
 3387SOL     OW11059   6.034   0.937   2.604
 3387SOL    HW111060   6.096   0.860   2.587
 3387SOL    HW211061   5.983   0.958   2.521
 3388SOL     OW11062   0.170   3.701   0.618
 3388SOL    HW111063   0.136   3.790   0.650
 3388SOL    HW211064   0.137   3.629   0.679
 3389SOL     OW11065   6.160   5.561   6.363
 3389SOL    HW111066   6.134   5.516   6.449
 3389SOL    HW211067   6.216   5.499   6.308
 3390SOL     OW11068   3.204   4.940   0.077
 3390SOL    HW111069   3.224   4.975   7.009
 3390SOL    HW211070   3.251   4.996   0.146
 3391SOL     OW11071   5.094   4.000   5.072
 3391SOL    HW111072   5.041   3.932   5.020
 3391SOL    HW211073   5.081   3.983   5.170
 3392SOL     OW11074   4.910   6.374   6.025
 3392SOL    HW111075   4.980   6.433   6.065
 3392SOL    HW211076   4.943   6.337   5.938
 3393SOL     OW11077   3.703   6.552   0.312
 3393SOL    HW111078   3.724   6.527   0.217
 3393SOL    HW211079   3.691   6.469   0.366
 3394SOL     OW11080   3.145   5.101   0.928
 3394SOL    HW111081   3.189   5.157   0.998
 3394SOL    HW211082   3.056   5.140   0.904
 3395SOL     OW11083   2.126   6.528   3.032
 3395SOL    HW111084   2.054   6.591   3.063
 3395SOL    HW211085   2.216   6.568   3.051
 3396SOL     OW11086   5.059   0.427   4.342
 3396SOL    HW111087   5.063   0.519   4.302
 3396SOL    HW211088   5.028   0.362   4.273
 3397SOL     OW11089   2.386   6.187   0.811
 3397SOL    HW111090   2.384   6.087   0.813
 3397SOL    HW211091   2.479   6.218   0.793
 3398SOL     OW11092   6.467   1.221   6.592
 3398SOL    HW111093   6.412   1.195   6.671
 3398SOL    HW211094   6.427   1.301   6.548
 3399SOL     OW11095   6.722   6.424   2.041
 3399SOL    HW111096   6.724   6.365   1.961
 3399SOL    HW211097   6.814   6.460   2.059
 3400SOL     OW11098   3.345   2.749   5.266
 3400SOL    HW111099   3.443   2.736   5.280
 3400SOL    HW211100   3.323   2.738   5.169
 3401SOL     OW11101   0.048   3.037   4.342
 3401SOL    HW111102   6.973   3.026   4.363
 3401SOL    HW211103   0.060   3.047   4.243
 3402SOL     OW11104   5.525   3.440   0.302
 3402SOL    HW111105   5.501   3.419   0.397
 3402SOL    HW211106   5.442   3.457   0.250
 3403SOL     OW11107   5.666   6.421   5.680
 3403SOL    HW111108   5.738   6.357   5.707
 3403SOL    HW211109   5.625   6.462   5.761
 3404SOL     OW11110   4.984   5.124   3.221
 3404SOL    HW111111   5.019   5.088   3.308
 3404SOL    HW211112   4.971   5.049   3.157
 3405SOL     OW11113   4.223   6.104   0.359
 3405SOL    HW111114   4.260   6.035   0.420
 3405SOL    HW211115   4.171   6.171   0.412
 3406SOL     OW11116   3.728   5.015   1.079
 3406SOL    HW111117   3.629   5.026   1.073
 3406SOL    HW211118   3.770   5.102   1.105
 3407SOL     OW11119   0.863   3.041   0.025
 3407SOL    HW111120   0.827   3.107   0.091
 3407SOL    HW211121   0.955   3.069   7.020
 3408SOL     OW11122   4.354   6.680   4.223
 3408SOL    HW111123   4.336   6.769   4.265
 3408SOL    HW211124   4.451   6.657   4.235
 3409SOL     OW11125   4.081   1.609   0.028
 3409SOL    HW111126   4.061   1.551   0.108
 3409SOL    HW211127   4.023   1.580   6.975
 3410SOL     OW11128   6.460   0.768   2.804
 3410SOL    HW111129   6.411   0.729   2.882
 3410SOL    HW211130   6.411   0.748   2.720
 3411SOL     OW11131   5.797   2.924   5.885
 3411SOL    HW111132   5.702   2.955   5.888
 3411SOL    HW211133   5.802   2.836   5.837
 3412SOL     OW11134   5.810   2.945   3.601
 3412SOL    HW111135   5.801   3.042   3.579
 3412SOL    HW211136   5.906   2.925   3.623
 3413SOL     OW11137   6.790   2.473   0.823
 3413SOL    HW111138   6.847   2.554   0.838
 3413SOL    HW211139   6.704   2.483   0.872
 3414SOL     OW11140   3.870   3.281   1.743
 3414SOL    HW111141   3.873   3.367   1.692
 3414SOL    HW211142   3.925   3.213   1.696
 3415SOL     OW11143   2.226   1.365   6.428
 3415SOL    HW111144   2.309   1.392   6.381
 3415SOL    HW211145   2.173   1.446   6.453
 3416SOL     OW11146   6.045   6.939   6.116
 3416SOL    HW111147   6.009   6.936   6.023
 3416SOL    HW211148   6.024   6.853   6.163
 3417SOL     OW11149   5.934   0.598   2.503
 3417SOL    HW111150   5.879   0.641   2.575
 3417SOL    HW211151   5.945   0.662   2.427
 3418SOL     OW11152   4.357   5.737   0.744
 3418SOL    HW111153   4.320   5.829   0.739
 3418SOL    HW211154   4.432   5.727   0.678
 3419SOL     OW11155   2.766   4.872   5.137
 3419SOL    HW111156   2.693   4.920   5.088
 3419SOL    HW211157   2.777   4.781   5.097
 3420SOL     OW11158   4.307   0.878   2.316
 3420SOL    HW111159   4.319   0.868   2.218
 3420SOL    HW211160   4.278   0.971   2.337
 3421SOL     OW11161   0.277   1.722   5.189
 3421SOL    HW111162   0.326   1.652   5.138
 3421SOL    HW211163   0.189   1.740   5.146
 3422SOL     OW11164   3.678   5.944   2.146
 3422SOL    HW111165   3.704   5.853   2.114
 3422SOL    HW211166   3.634   5.994   2.072
 3423SOL     OW11167   2.445   4.272   5.749
 3423SOL    HW111168   2.438   4.254   5.651
 3423SOL    HW211169   2.542   4.274   5.776
 3424SOL     OW11170   5.746   0.763   2.077
 3424SOL    HW111171   5.767   0.804   1.988
 3424SOL    HW211172   5.779   0.669   2.079
 3425SOL     OW11173   6.085   2.587   6.280
 3425SOL    HW111174   6.064   2.672   6.328
 3425SOL    HW211175   6.037   2.586   6.192
 3426SOL     OW11176   6.746   5.352   0.167
 3426SOL    HW111177   6.838   5.340   0.203
 3426SOL    HW211178   6.680   5.340   0.241
 3427SOL     OW11179   1.835   1.482   6.301
 3427SOL    HW111180   1.792   1.412   6.244
 3427SOL    HW211181   1.865   1.441   6.387
 3428SOL     OW11182   4.981   0.144   4.556
 3428SOL    HW111183   4.961   0.172   4.649
 3428SOL    HW211184   5.080   0.147   4.540
 3429SOL     OW11185   4.272   6.453   0.649
 3429SOL    HW111186   4.199   6.504   0.694
 3429SOL    HW211187   4.360   6.477   0.690
 3430SOL     OW11188   2.612   4.231   6.551
 3430SOL    HW111189   2.675   4.266   6.483
 3430SOL    HW211190   2.519   4.232   6.514
 3431SOL     OW11191   0.881   4.771   2.946
 3431SOL    HW111192   0.973   4.764   2.907
 3431SOL    HW211193   0.852   4.866   2.948
 3432SOL     OW11194   0.619   5.103   6.827
 3432SOL    HW111195   0.572   5.031   6.777
 3432SOL    HW211196   0.714   5.076   6.844
 3433SOL     OW11197   0.919   1.251   0.634
 3433SOL    HW111198   0.893   1.156   0.650
 3433SOL    HW211199   0.955   1.261   0.541
 3434SOL     OW11200   3.952   2.244   1.757
 3434SOL    HW111201   3.962   2.184   1.837
 3434SOL    HW211202   3.895   2.322   1.781
 3435SOL     OW11203   2.040   2.284   1.268
 3435SOL    HW111204   2.088   2.263   1.183
 3435SOL    HW211205   1.942   2.295   1.248
 3436SOL     OW11206   4.197   6.511   5.869
 3436SOL    HW111207   4.109   6.497   5.913
 3436SOL    HW211208   4.228   6.605   5.885
 3437SOL     OW11209   1.385   6.693   0.298
 3437SOL    HW111210   1.349   6.767   0.240
 3437SOL    HW211211   1.464   6.651   0.254
 3438SOL     OW11212   2.200   4.111   0.921
 3438SOL    HW111213   2.225   4.047   0.849
 3438SOL    HW211214   2.188   4.202   0.882
 3439SOL     OW11215   2.966   5.698   0.301
 3439SOL    HW111216   2.886   5.655   0.258
 3439SOL    HW211217   3.044   5.636   0.296
 3440SOL     OW11218   3.779   3.710   5.789
 3440SOL    HW111219   3.734   3.793   5.823
 3440SOL    HW211220   3.714   3.635   5.786
 3441SOL     OW11221   6.726   4.902   4.798
 3441SOL    HW111222   6.673   4.873   4.718
 3441SOL    HW211223   6.817   4.860   4.794
 3442SOL     OW11224   1.156   2.301   0.560
 3442SOL    HW111225   1.070   2.309   0.610
 3442SOL    HW211226   1.155   2.362   0.481
 3443SOL     OW11227   0.837   6.026   2.534
 3443SOL    HW111228   0.896   6.067   2.603
 3443SOL    HW211229   0.766   6.091   2.508
 3444SOL     OW11230   0.231   4.102   6.363
 3444SOL    HW111231   0.146   4.071   6.319
 3444SOL    HW211232   0.257   4.191   6.327
 3445SOL     OW11233   5.933   4.947   4.865
 3445SOL    HW111234   5.917   4.851   4.890
 3445SOL    HW211235   5.943   5.001   4.949
 3446SOL     OW11236   4.724   1.495   0.533
 3446SOL    HW111237   4.745   1.440   0.453
 3446SOL    HW211238   4.715   1.591   0.507
 3447SOL     OW11239   4.739   1.552   6.123
 3447SOL    HW111240   4.754   1.478   6.058
 3447SOL    HW211241   4.770   1.638   6.084
 3448SOL     OW11242   1.023   5.159   5.666
 3448SOL    HW111243   1.103   5.103   5.686
 3448SOL    HW211244   0.941   5.112   5.696
 3449SOL     OW11245   0.909   3.760   5.727
 3449SOL    HW111246   0.907   3.715   5.638
 3449SOL    HW211247   0.832   3.823   5.735
 3450SOL     OW11248   2.754   6.893   2.304
 3450SOL    HW111249   2.778   6.809   2.354
 3450SOL    HW211250   2.837   6.943   2.282
 3451SOL     OW11251   2.098   2.246   0.725
 3451SOL    HW111252   2.105   2.153   0.690
 3451SOL    HW211253   2.009   2.285   0.700
 3452SOL     OW11254   4.437   1.832   6.280
 3452SOL    HW111255   4.383   1.828   6.196
 3452SOL    HW211256   4.514   1.769   6.273
 3453SOL     OW11257   4.694   6.513   5.909
 3453SOL    HW111258   4.623   6.533   5.976
 3453SOL    HW211259   4.783   6.509   5.956
 3454SOL     OW11260   1.138   3.093   2.379
 3454SOL    HW111261   1.233   3.114   2.401
 3454SOL    HW211262   1.118   2.999   2.406
 3455SOL     OW11263   0.811   4.186   6.529
 3455SOL    HW111264   0.863   4.265   6.563
 3455SOL    HW211265   0.872   4.125   6.479
 3456SOL     OW11266   4.099   5.309   3.200
 3456SOL    HW111267   4.052   5.397   3.203
 3456SOL    HW211268   4.055   5.250   3.133
 3457SOL     OW11269   4.252   4.507   0.272
 3457SOL    HW111270   4.174   4.547   0.224
 3457SOL    HW211271   4.325   4.488   0.206
 3458SOL     OW11272   4.876   1.656   1.438
 3458SOL    HW111273   4.815   1.604   1.497
 3458SOL    HW211274   4.838   1.748   1.423
 3459SOL     OW11275   6.471   6.309   2.027
 3459SOL    HW111276   6.559   6.354   2.042
 3459SOL    HW211277   6.422   6.354   1.953
 3460SOL     OW11278   3.687   1.989   5.237
 3460SOL    HW111279   3.616   2.026   5.177
 3460SOL    HW211280   3.753   1.938   5.182
 3461SOL     OW11281   4.665   4.723   4.201
 3461SOL    HW111282   4.748   4.778   4.189
 3461SOL    HW211283   4.586   4.784   4.205
 3462SOL     OW11284   1.296   4.866   6.164
 3462SOL    HW111285   1.332   4.816   6.242
 3462SOL    HW211286   1.211   4.824   6.132
 3463SOL     OW11287   6.101   3.770   0.460
 3463SOL    HW111288   6.049   3.741   0.380
 3463SOL    HW211289   6.135   3.689   0.509
 3464SOL     OW11290   0.172   4.425   4.011
 3464SOL    HW111291   0.177   4.338   4.060
 3464SOL    HW211292   0.263   4.451   3.979
 3465SOL     OW11293   0.774   3.194   2.399
 3465SOL    HW111294   0.776   3.247   2.314
 3465SOL    HW211295   0.742   3.101   2.380
 3466SOL     OW11296   6.552   3.633   3.793
 3466SOL    HW111297   6.640   3.680   3.791
 3466SOL    HW211298   6.491   3.676   3.726
 3467SOL     OW11299   1.694   2.796   5.917
 3467SOL    HW111300   1.612   2.769   5.865
 3467SOL    HW211301   1.688   2.892   5.941
 3468SOL     OW11302   4.789   5.948   2.001
 3468SOL    HW111303   4.720   5.876   2.006
 3468SOL    HW211304   4.744   6.037   1.995
 3469SOL     OW11305   5.860   4.184   0.505
 3469SOL    HW111306   5.826   4.226   0.420
 3469SOL    HW211307   5.944   4.133   0.485
 3470SOL     OW11308   5.890   4.831   1.232
 3470SOL    HW111309   5.971   4.807   1.286
 3470SOL    HW211310   5.913   4.832   1.135
 3471SOL     OW11311   4.503   6.681   4.535
 3471SOL    HW111312   4.496   6.582   4.523
 3471SOL    HW211313   4.561   6.700   4.614
 3472SOL     OW11314   4.495   1.256   4.638
 3472SOL    HW111315   4.410   1.225   4.680
 3472SOL    HW211316   4.543   1.317   4.701
 3473SOL     OW11317   4.526   6.698   3.961
 3473SOL    HW111318   4.436   6.712   4.002
 3473SOL    HW211319   4.588   6.660   4.029
 3474SOL     OW11320   4.775   4.310   0.659
 3474SOL    HW111321   4.692   4.334   0.608
 3474SOL    HW211322   4.800   4.385   0.720
 3475SOL     OW11323   1.510   5.281   5.247
 3475SOL    HW111324   1.595   5.333   5.237
 3475SOL    HW211325   1.518   5.219   5.325
 3476SOL     OW11326   4.323   2.049   3.925
 3476SOL    HW111327   4.259   2.008   3.860
 3476SOL    HW211328   4.317   2.001   4.013
 3477SOL     OW11329   4.468   5.021   1.860
 3477SOL    HW111330   4.463   5.001   1.958
 3477SOL    HW211331   4.398   4.968   1.812
 3478SOL     OW11332   3.616   4.063   0.381
 3478SOL    HW111333   3.531   4.110   0.403
 3478SOL    HW211334   3.687   4.130   0.359
 3479SOL     OW11335   1.703   0.192   0.947
 3479SOL    HW111336   1.714   0.292   0.946
 3479SOL    HW211337   1.637   0.167   1.018
 3480SOL     OW11338   1.356   0.247   3.744
 3480SOL    HW111339   1.454   0.262   3.746
 3480SOL    HW211340   1.320   0.246   3.837
 3481SOL     OW11341   2.153   6.122   0.141
 3481SOL    HW111342   2.112   6.188   0.079
 3481SOL    HW211343   2.122   6.030   0.118
 3482SOL     OW11344   0.518   2.408   1.574
 3482SOL    HW111345   0.495   2.498   1.539
 3482SOL    HW211346   0.435   2.353   1.582
 3483SOL     OW11347   3.586   1.387   0.580
 3483SOL    HW111348   3.534   1.327   0.641
 3483SOL    HW211349   3.679   1.397   0.616
 3484SOL     OW11350   3.720   4.084   3.392
 3484SOL    HW111351   3.681   4.002   3.353
 3484SOL    HW211352   3.652   4.130   3.449
 3485SOL     OW11353   6.183   1.832   5.330
 3485SOL    HW111354   6.096   1.798   5.366
 3485SOL    HW211355   6.194   1.801   5.235
 3486SOL     OW11356   5.782   0.733   3.312
 3486SOL    HW111357   5.729   0.769   3.235
 3486SOL    HW211358   5.878   0.724   3.284
 3487SOL     OW11359   1.010   0.009   0.490
 3487SOL    HW111360   0.918   6.995   0.476
 3487SOL    HW211361   1.009   0.108   0.476
 3488SOL     OW11362   6.186   4.016   4.268
 3488SOL    HW111363   6.218   3.966   4.348
 3488SOL    HW211364   6.228   4.107   4.267
 3489SOL     OW11365   2.454   5.325   6.784
 3489SOL    HW111366   2.482   5.276   6.867
 3489SOL    HW211367   2.500   5.414   6.781
 3490SOL     OW11368   4.607   3.612   0.396
 3490SOL    HW111369   4.525   3.656   0.432
 3490SOL    HW211370   4.680   3.680   0.387
 3491SOL     OW11371   5.858   3.078   5.019
 3491SOL    HW111372   5.881   3.099   5.114
 3491SOL    HW211373   5.882   3.155   4.961
 3492SOL     OW11374   6.368   4.947   6.980
 3492SOL    HW111375   6.375   4.848   6.995
 3492SOL    HW211376   6.432   4.994   0.018
 3493SOL     OW11377   6.663   5.109   1.677
 3493SOL    HW111378   6.582   5.163   1.654
 3493SOL    HW211379   6.634   5.026   1.726
 3494SOL     OW11380   2.931   6.196   1.258
 3494SOL    HW111381   2.949   6.123   1.325
 3494SOL    HW211382   3.017   6.225   1.216
 3495SOL     OW11383   5.724   4.344   6.519
 3495SOL    HW111384   5.624   4.350   6.511
 3495SOL    HW211385   5.751   4.248   6.523
 3496SOL     OW11386   0.950   4.974   0.738
 3496SOL    HW111387   0.916   5.064   0.764
 3496SOL    HW211388   1.046   4.981   0.711
 3497SOL     OW11389   4.508   0.188   4.406
 3497SOL    HW111390   4.536   0.093   4.402
 3497SOL    HW211391   4.410   0.193   4.424
 3498SOL     OW11392   0.918   1.649   0.446
 3498SOL    HW111393   0.950   1.670   0.538
 3498SOL    HW211394   0.956   1.562   0.416
 3499SOL     OW11395   0.133   4.292   4.361
 3499SOL    HW111396   0.172   4.246   4.282
 3499SOL    HW211397   0.034   4.278   4.363
 3500SOL     OW11398   5.519   3.146   0.555
 3500SOL    HW111399   5.438   3.102   0.517
 3500SOL    HW211400   5.516   3.244   0.534
 3501SOL     OW11401   0.509   4.820   3.071
 3501SOL    HW111402   0.578   4.874   3.120
 3501SOL    HW211403   0.496   4.858   2.980
 3502SOL     OW11404   0.526   5.351   1.559
 3502SOL    HW111405   0.595   5.423   1.559
 3502SOL    HW211406   0.453   5.375   1.623
 3503SOL     OW11407   3.493   6.782   3.274
 3503SOL    HW111408   3.534   6.864   3.313
 3503SOL    HW211409   3.396   6.779   3.297
 3504SOL     OW11410   1.857   2.969   2.864
 3504SOL    HW111411   1.780   2.907   2.873
 3504SOL    HW211412   1.878   3.011   2.952
 3505SOL     OW11413   4.712   6.733   4.712
 3505SOL    HW111414   4.741   6.822   4.749
 3505SOL    HW211415   4.747   6.660   4.770
 3506SOL     OW11416   6.014   4.907   2.390
 3506SOL    HW111417   6.085   4.956   2.339
 3506SOL    HW211418   6.002   4.815   2.352
 3507SOL     OW11419   6.941   0.310   5.864
 3507SOL    HW111420   6.907   0.248   5.794
 3507SOL    HW211421   6.873   0.317   5.937
 3508SOL     OW11422   6.206   4.453   0.139
 3508SOL    HW111423   6.261   4.500   0.208
 3508SOL    HW211424   6.260   4.380   0.097
 3509SOL     OW11425   5.735   0.107   6.506
 3509SOL    HW111426   5.820   0.159   6.506
 3509SOL    HW211427   5.755   0.011   6.526
 3510SOL     OW11428   1.428   1.549   1.840
 3510SOL    HW111429   1.331   1.566   1.819
 3510SOL    HW211430   1.484   1.619   1.797
 3511SOL     OW11431   0.767   0.808   4.730
 3511SOL    HW111432   0.694   0.848   4.785
 3511SOL    HW211433   0.775   0.858   4.644
 3512SOL     OW11434   3.808   3.018   1.272
 3512SOL    HW111435   3.902   3.035   1.301
 3512SOL    HW211436   3.781   2.926   1.301
 3513SOL     OW11437   5.723   4.110   1.252
 3513SOL    HW111438   5.731   4.018   1.212
 3513SOL    HW211439   5.630   4.125   1.284
 3514SOL     OW11440   2.233   6.101   2.093
 3514SOL    HW111441   2.310   6.089   2.031
 3514SOL    HW211442   2.266   6.102   2.188
 3515SOL     OW11443   3.959   6.335   3.105
 3515SOL    HW111444   3.930   6.239   3.106
 3515SOL    HW211445   4.045   6.344   3.156
 3516SOL     OW11446   1.896   0.820   0.277
 3516SOL    HW111447   1.898   0.907   0.325
 3516SOL    HW211448   1.988   0.796   0.246
 3517SOL     OW11449   0.755   0.365   6.717
 3517SOL    HW111450   0.827   0.423   6.755
 3517SOL    HW211451   0.708   0.317   6.790
 3518SOL     OW11452   4.131   3.542   6.158
 3518SOL    HW111453   4.070   3.558   6.080
 3518SOL    HW211454   4.181   3.457   6.144
 3519SOL     OW11455   3.345   6.908   0.220
 3519SOL    HW111456   3.272   6.964   0.180
 3519SOL    HW211457   3.374   6.950   0.306
 3520SOL     OW11458   3.548   5.088   1.535
 3520SOL    HW111459   3.517   4.994   1.548
 3520SOL    HW211460   3.590   5.096   1.444
 3521SOL     OW11461   6.462   2.222   6.237
 3521SOL    HW111462   6.398   2.292   6.267
 3521SOL    HW211463   6.552   2.239   6.278
 3522SOL     OW11464   2.683   0.298   0.926
 3522SOL    HW111465   2.615   0.230   0.955
 3522SOL    HW211466   2.771   0.276   0.967
 3523SOL     OW11467   2.688   4.553   5.297
 3523SOL    HW111468   2.683   4.638   5.348
 3523SOL    HW211469   2.764   4.556   5.233
 3524SOL     OW11470   2.448   0.954   2.856
 3524SOL    HW111471   2.430   0.993   2.947
 3524SOL    HW211472   2.461   0.855   2.865
 3525SOL     OW11473   1.362   3.391   3.117
 3525SOL    HW111474   1.280   3.398   3.060
 3525SOL    HW211475   1.374   3.296   3.147
 3526SOL     OW11476   3.472   6.582   3.440
 3526SOL    HW111477   3.389   6.563   3.388
 3526SOL    HW211478   3.521   6.658   3.398
 3527SOL     OW11479   5.522   3.758   6.972
 3527SOL    HW111480   5.472   3.839   7.004
 3527SOL    HW211481   5.474   3.717   6.895
 3528SOL     OW11482   1.837   6.797   4.734
 3528SOL    HW111483   1.770   6.870   4.747
 3528SOL    HW211484   1.872   6.769   4.823
 3529SOL     OW11485   4.127   5.726   0.179
 3529SOL    HW111486   4.071   5.790   0.127
 3529SOL    HW211487   4.088   5.634   0.172
 3530SOL     OW11488   1.947   6.324   2.915
 3530SOL    HW111489   1.963   6.367   2.826
 3530SOL    HW211490   2.027   6.337   2.973
 3531SOL     OW11491   5.364   4.669   6.950
 3531SOL    HW111492   5.278   4.676   7.002
 3531SOL    HW211493   5.412   4.585   6.977
 3532SOL     OW11494   2.030   6.725   0.939
 3532SOL    HW111495   2.000   6.663   1.011
 3532SOL    HW211496   2.130   6.721   0.930
 3533SOL     OW11497   1.399   0.904   3.502
 3533SOL    HW111498   1.397   0.997   3.464
 3533SOL    HW211499   1.447   0.844   3.438
 3534SOL     OW11500   5.497   0.420   5.258
 3534SOL    HW111501   5.596   0.425   5.240
 3534SOL    HW211502   5.467   0.325   5.251
 3535SOL     OW11503   5.009   6.738   0.132
 3535SOL    HW111504   5.088   6.799   0.130
 3535SOL    HW211505   4.969   6.733   0.041
 3536SOL     OW11506   1.089   3.241   2.620
 3536SOL    HW111507   1.121   3.198   2.536
 3536SOL    HW211508   1.016   3.185   2.660
 3537SOL     OW11509   3.131   4.776   1.284
 3537SOL    HW111510   3.132   4.864   1.332
 3537SOL    HW211511   3.165   4.788   1.191
 3538SOL     OW11512   3.911   0.594   3.933
 3538SOL    HW111513   3.837   0.648   3.973
 3538SOL    HW211514   3.881   0.555   3.846
 3539SOL     OW11515   4.890   5.624   5.639
 3539SOL    HW111516   4.830   5.608   5.561
 3539SOL    HW211517   4.955   5.696   5.618
 3540SOL     OW11518   3.865   4.586   6.493
 3540SOL    HW111519   3.868   4.556   6.588
 3540SOL    HW211520   3.775   4.567   6.454
 3541SOL     OW11521   0.915   2.361   2.228
 3541SOL    HW111522   0.926   2.312   2.142
 3541SOL    HW211523   0.903   2.294   2.302
 3542SOL     OW11524   5.939   1.497   0.164
 3542SOL    HW111525   5.892   1.577   0.201
 3542SOL    HW211526   5.873   1.426   0.140
 3543SOL     OW11527   0.895   2.606   3.907
 3543SOL    HW111528   0.872   2.554   3.825
 3543SOL    HW211529   0.905   2.703   3.884
 3544SOL     OW11530   2.734   4.352   0.236
 3544SOL    HW111531   2.807   4.418   0.251
 3544SOL    HW211532   2.695   4.365   0.145
 3545SOL     OW11533   3.917   6.296   0.708
 3545SOL    HW111534   3.858   6.249   0.773
 3545SOL    HW211535   3.961   6.373   0.753
 3546SOL     OW11536   6.489   4.824   1.112
 3546SOL    HW111537   6.524   4.737   1.078
 3546SOL    HW211538   6.566   4.887   1.127
 3547SOL     OW11539   0.927   3.719   4.775
 3547SOL    HW111540   1.013   3.668   4.774
 3547SOL    HW211541   0.855   3.665   4.730
 3548SOL     OW11542   6.269   0.138   5.738
 3548SOL    HW111543   6.275   0.235   5.765
 3548SOL    HW211544   6.258   0.082   5.820
 3549SOL     OW11545   2.289   6.195   6.477
 3549SOL    HW111546   2.302   6.245   6.392
 3549SOL    HW211547   2.307   6.256   6.555
 3550SOL     OW11548   5.738   1.772   5.707
 3550SOL    HW111549   5.784   1.837   5.646
 3550SOL    HW211550   5.766   1.679   5.682
 3551SOL     OW11551   5.907   1.891   4.762
 3551SOL    HW111552   5.892   1.829   4.685
 3551SOL    HW211553   6.005   1.903   4.776
 3552SOL     OW11554   6.837   0.050   2.813
 3552SOL    HW111555   6.887   6.989   2.838
 3552SOL    HW211556   6.757   0.026   2.759
 3553SOL     OW11557   6.218   5.997   6.582
 3553SOL    HW111558   6.205   6.031   6.674
 3553SOL    HW211559   6.226   6.073   6.518
 3554SOL     OW11560   4.689   4.369   6.898
 3554SOL    HW111561   4.590   4.373   6.912
 3554SOL    HW211562   4.709   4.347   6.803
 3555SOL     OW11563   3.093   1.569   5.477
 3555SOL    HW111564   3.057   1.514   5.553
 3555SOL    HW211565   3.190   1.585   5.492
 3556SOL     OW11566   6.335   1.051   0.187
 3556SOL    HW111567   6.298   0.969   0.142
 3556SOL    HW211568   6.341   1.125   0.121
 3557SOL     OW11569   5.066   6.560   1.844
 3557SOL    HW111570   5.036   6.629   1.910
 3557SOL    HW211571   5.026   6.580   1.754
 3558SOL     OW11572   3.573   5.658   2.712
 3558SOL    HW111573   3.573   5.559   2.723
 3558SOL    HW211574   3.549   5.681   2.617
 3559SOL     OW11575   3.655   6.678   6.614
 3559SOL    HW111576   3.578   6.661   6.553
 3559SOL    HW211577   3.696   6.766   6.593
 3560SOL     OW11578   2.387   5.937   4.348
 3560SOL    HW111579   2.382   5.838   4.357
 3560SOL    HW211580   2.304   5.979   4.385
 3561SOL     OW11581   4.279   3.142   5.307
 3561SOL    HW111582   4.188   3.182   5.299
 3561SOL    HW211583   4.294   3.111   5.401
 3562SOL     OW11584   2.697   0.932   0.528
 3562SOL    HW111585   2.654   0.909   0.440
 3562SOL    HW211586   2.705   1.032   0.534
 3563SOL     OW11587   7.016   2.391   6.722
 3563SOL    HW111588   0.036   2.481   6.730
 3563SOL    HW211589   0.065   2.321   6.724
 3564SOL     OW11590   6.576   3.659   2.819
 3564SOL    HW111591   6.659   3.715   2.832
 3564SOL    HW211592   6.496   3.719   2.821
 3565SOL     OW11593   5.042   6.665   5.615
 3565SOL    HW111594   4.962   6.722   5.629
 3565SOL    HW211595   5.105   6.676   5.692
 3566SOL     OW11596   1.402   0.548   5.822
 3566SOL    HW111597   1.448   0.633   5.796
 3566SOL    HW211598   1.393   0.544   5.921
 3567SOL     OW11599   6.838   4.296   7.013
 3567SOL    HW111600   6.764   4.285   6.946
 3567SOL    HW211601   6.798   4.308   0.082
 3568SOL     OW11602   4.094   3.580   5.534
 3568SOL    HW111603   4.191   3.598   5.520
 3568SOL    HW211604   4.041   3.660   5.505
 3569SOL     OW11605   1.855   0.357   3.779
 3569SOL    HW111606   1.855   0.457   3.791
 3569SOL    HW211607   1.948   0.325   3.766
 3570SOL     OW11608   6.058   1.838   4.339
 3570SOL    HW111609   6.025   1.892   4.262
 3570SOL    HW211610   6.090   1.749   4.306
 3571SOL     OW11611   6.262   5.166   4.736
 3571SOL    HW111612   6.230   5.255   4.769
 3571SOL    HW211613   6.323   5.126   4.803
 3572SOL     OW11614   6.460   6.498   5.295
 3572SOL    HW111615   6.416   6.584   5.273
 3572SOL    HW211616   6.542   6.487   5.239
 3573SOL     OW11617   0.210   1.933   1.233
 3573SOL    HW111618   0.238   1.956   1.139
 3573SOL    HW211619   0.139   1.862   1.230
 3574SOL     OW11620   6.377   3.986   0.212
 3574SOL    HW111621   6.416   4.007   0.122
 3574SOL    HW211622   6.391   4.064   0.273
 3575SOL     OW11623   6.245   6.892   1.890
 3575SOL    HW111624   6.323   6.830   1.881
 3575SOL    HW211625   6.200   6.876   1.978
 3576SOL     OW11626   6.655   0.458   0.156
 3576SOL    HW111627   6.592   0.533   0.135
 3576SOL    HW211628   6.648   0.434   0.252
 3577SOL     OW11629   2.315   4.060   0.123
 3577SOL    HW111630   2.232   4.005   0.130
 3577SOL    HW211631   2.321   4.100   0.032
 3578SOL     OW11632   3.550   4.418   1.710
 3578SOL    HW111633   3.528   4.505   1.753
 3578SOL    HW211634   3.480   4.394   1.643
 3579SOL     OW11635   1.751   4.283   5.439
 3579SOL    HW111636   1.752   4.291   5.538
 3579SOL    HW211637   1.842   4.257   5.406
 3580SOL     OW11638   5.967   3.012   0.947
 3580SOL    HW111639   6.061   3.034   0.975
 3580SOL    HW211640   5.905   3.029   1.023
 3581SOL     OW11641   6.335   0.534   3.369
 3581SOL    HW111642   6.275   0.488   3.434
 3581SOL    HW211643   6.409   0.472   3.343
 3582SOL     OW11644   0.097   0.019   5.533
 3582SOL    HW111645   0.182   6.995   5.558
 3582SOL    HW211646   0.032   6.975   5.497
 3583SOL     OW11647   1.102   5.245   1.832
 3583SOL    HW111648   1.154   5.323   1.866
 3583SOL    HW211649   1.010   5.275   1.806
 3584SOL     OW11650   6.223   0.240   5.146
 3584SOL    HW111651   6.185   0.271   5.060
 3584SOL    HW211652   6.257   0.318   5.199
 3585SOL     OW11653   1.989   4.892   3.557
 3585SOL    HW111654   1.947   4.913   3.468
 3585SOL    HW211655   2.002   4.977   3.608
 3586SOL     OW11656   1.098   0.551   6.124
 3586SOL    HW111657   1.026   0.559   6.193
 3586SOL    HW211658   1.182   0.593   6.159
 3587SOL     OW11659   3.417   6.598   6.420
 3587SOL    HW111660   3.359   6.518   6.434
 3587SOL    HW211661   3.438   6.608   6.323
 3588SOL     OW11662   2.129   2.274   5.431
 3588SOL    HW111663   2.165   2.363   5.404
 3588SOL    HW211664   2.152   2.207   5.360
 3589SOL     OW11665   3.684   0.099   4.257
 3589SOL    HW111666   3.733   0.028   4.206
 3589SOL    HW211667   3.681   0.183   4.203
 3590SOL     OW11668   1.285   5.048   6.585
 3590SOL    HW111669   1.225   5.026   6.661
 3590SOL    HW211670   1.357   4.979   6.578
 3591SOL     OW11671   5.402   2.168   5.162
 3591SOL    HW111672   5.467   2.245   5.156
 3591SOL    HW211673   5.450   2.083   5.143
 3592SOL     OW11674   5.298   2.178   1.892
 3592SOL    HW111675   5.228   2.221   1.834
 3592SOL    HW211676   5.257   2.103   1.943
 3593SOL     OW11677   1.280   5.773   4.298
 3593SOL    HW111678   1.210   5.830   4.255
 3593SOL    HW211679   1.258   5.676   4.283
 3594SOL     OW11680   3.951   1.856   4.371
 3594SOL    HW111681   3.938   1.801   4.288
 3594SOL    HW211682   3.886   1.931   4.372
 3595SOL     OW11683   2.453   6.657   5.415
 3595SOL    HW111684   2.525   6.624   5.476
 3595SOL    HW211685   2.493   6.719   5.347
 3596SOL     OW11686   0.505   3.917   3.426
 3596SOL    HW111687   0.409   3.942   3.440
 3596SOL    HW211688   0.541   3.966   3.346
 3597SOL     OW11689   3.801   7.000   3.702
 3597SOL    HW111690   3.886   0.023   3.728
 3597SOL    HW211691   3.723   0.033   3.730
 3598SOL     OW11692   1.835   0.554   7.012
 3598SOL    HW111693   1.830   0.576   0.086
 3598SOL    HW211694   1.929   0.529   6.989
 3599SOL     OW11695   0.088   1.421   4.272
 3599SOL    HW111696   0.028   1.393   4.197
 3599SOL    HW211697   0.134   1.507   4.249
 3600SOL     OW11698   6.707   0.312   1.193
 3600SOL    HW111699   6.657   0.227   1.174
 3600SOL    HW211700   6.651   0.372   1.249
 3601SOL     OW11701   5.961   3.855   6.004
 3601SOL    HW111702   5.928   3.795   5.932
 3601SOL    HW211703   5.967   3.949   5.970
 3602SOL     OW11704   3.032   1.513   1.364
 3602SOL    HW111705   2.954   1.524   1.302
 3602SOL    HW211706   3.004   1.460   1.444
 3603SOL     OW11707   4.156   5.588   4.553
 3603SOL    HW111708   4.085   5.588   4.623
 3603SOL    HW211709   4.161   5.498   4.510
 3604SOL     OW11710   6.361   4.212   3.491
 3604SOL    HW111711   6.392   4.169   3.406
 3604SOL    HW211712   6.261   4.221   3.489
 3605SOL     OW11713   6.121   2.717   6.910
 3605SOL    HW111714   6.101   2.787   6.841
 3605SOL    HW211715   6.053   2.722   6.983
 3606SOL     OW11716   1.570   4.321   3.409
 3606SOL    HW111717   1.643   4.328   3.477
 3606SOL    HW211718   1.569   4.404   3.353
 3607SOL     OW11719   4.361   0.025   7.017
 3607SOL    HW111720   4.273   0.047   0.036
 3607SOL    HW211721   4.435   0.053   0.055
 3608SOL     OW11722   0.723   2.603   3.393
 3608SOL    HW111723   0.754   2.536   3.326
 3608SOL    HW211724   0.796   2.668   3.411
 3609SOL     OW11725   6.676   6.956   4.282
 3609SOL    HW111726   6.576   6.967   4.285
 3609SOL    HW211727   6.716   0.011   4.233
 3610SOL     OW11728   2.090   5.307   5.363
 3610SOL    HW111729   2.138   5.291   5.449
 3610SOL    HW211730   2.151   5.357   5.300
 3611SOL     OW11731   4.529   5.759   5.499
 3611SOL    HW111732   4.491   5.672   5.529
 3611SOL    HW211733   4.454   5.821   5.475
 3612SOL     OW11734   2.219   6.423   1.294
 3612SOL    HW111735   2.316   6.449   1.290
 3612SOL    HW211736   2.197   6.364   1.216
 3613SOL     OW11737   5.183   5.319   6.481
 3613SOL    HW111738   5.272   5.285   6.512
 3613SOL    HW211739   5.131   5.244   6.440
 3614SOL     OW11740   4.025   3.525   4.524
 3614SOL    HW111741   4.062   3.512   4.616
 3614SOL    HW211742   4.071   3.463   4.460
 3615SOL     OW11743   5.849   6.352   5.900
 3615SOL    HW111744   5.843   6.451   5.888
 3615SOL    HW211745   5.872   6.331   5.995
 3616SOL     OW11746   5.924   0.463   4.853
 3616SOL    HW111747   5.879   0.496   4.936
 3616SOL    HW211748   5.996   0.527   4.827
 3617SOL     OW11749   0.102   0.381   0.130
 3617SOL    HW111750   0.131   0.287   0.115
 3617SOL    HW211751   0.132   0.438   0.054
 3618SOL     OW11752   2.991   6.481   6.379
 3618SOL    HW111753   3.078   6.439   6.401
 3618SOL    HW211754   2.999   6.532   6.293
 3619SOL     OW11755   5.112   4.159   4.044
 3619SOL    HW111756   5.149   4.238   4.093
 3619SOL    HW211757   5.186   4.093   4.027
 3620SOL     OW11758   6.345   1.315   4.736
 3620SOL    HW111759   6.286   1.242   4.769
 3620SOL    HW211760   6.440   1.292   4.754
 3621SOL     OW11761   1.514   3.324   5.473
 3621SOL    HW111762   1.519   3.231   5.438
 3621SOL    HW211763   1.512   3.322   5.573
 3622SOL     OW11764   0.540   3.371   1.353
 3622SOL    HW111765   0.607   3.398   1.284
 3622SOL    HW211766   0.588   3.347   1.438
 3623SOL     OW11767   6.869   4.838   4.056
 3623SOL    HW111768   6.924   4.914   4.092
 3623SOL    HW211769   6.796   4.817   4.120
 3624SOL     OW11770   1.697   1.323   2.000
 3624SOL    HW111771   1.606   1.301   2.034
 3624SOL    HW211772   1.706   1.292   1.906
 3625SOL     OW11773   0.508   3.148   4.349
 3625SOL    HW111774   0.489   3.242   4.320
 3625SOL    HW211775   0.591   3.115   4.302
 3626SOL     OW11776   2.872   4.031   5.162
 3626SOL    HW111777   2.772   4.027   5.161
 3626SOL    HW211778   2.907   3.962   5.226
 3627SOL     OW11779   3.360   3.145   4.069
 3627SOL    HW111780   3.260   3.138   4.070
 3627SOL    HW211781   3.387   3.239   4.047
 3628SOL     OW11782   2.859   5.458   3.098
 3628SOL    HW111783   2.889   5.482   3.006
 3628SOL    HW211784   2.910   5.511   3.165
 3629SOL     OW11785   5.349   3.053   5.222
 3629SOL    HW111786   5.271   3.026   5.165
 3629SOL    HW211787   5.430   3.063   5.163
 3630SOL     OW11788   5.690   1.676   4.822
 3630SOL    HW111789   5.598   1.716   4.825
 3630SOL    HW211790   5.742   1.717   4.747
 3631SOL     OW11791   2.071   1.176   3.926
 3631SOL    HW111792   2.152   1.119   3.911
 3631SOL    HW211793   2.064   1.243   3.852
 3632SOL     OW11794   3.834   6.892   6.282
 3632SOL    HW111795   3.819   6.867   6.378
 3632SOL    HW211796   3.932   6.907   6.266
 3633SOL     OW11797   1.250   3.570   5.350
 3633SOL    HW111798   1.256   3.666   5.322
 3633SOL    HW211799   1.276   3.562   5.447
 3634SOL     OW11800   3.284   5.413   6.071
 3634SOL    HW111801   3.358   5.436   6.134
 3634SOL    HW211802   3.240   5.498   6.039
 3635SOL     OW11803   1.779   0.908   5.269
 3635SOL    HW111804   1.874   0.939   5.265
 3635SOL    HW211805   1.778   0.809   5.284
 3636SOL     OW11806   1.536   5.820   6.623
 3636SOL    HW111807   1.562   5.858   6.534
 3636SOL    HW211808   1.619   5.797   6.675
 3637SOL     OW11809   4.849   1.130   1.719
 3637SOL    HW111810   4.815   1.202   1.779
 3637SOL    HW211811   4.949   1.129   1.721
 3638SOL     OW11812   5.945   5.079   3.174
 3638SOL    HW111813   5.999   5.163   3.170
 3638SOL    HW211814   5.961   5.033   3.262
 3639SOL     OW11815   2.538   5.589   6.782
 3639SOL    HW111816   2.604   5.636   6.841
 3639SOL    HW211817   2.445   5.604   6.816
 3640SOL     OW11818   2.435   6.878   1.645
 3640SOL    HW111819   2.444   6.782   1.618
 3640SOL    HW211820   2.453   6.888   1.742
 3641SOL     OW11821   2.336   0.822   4.636
 3641SOL    HW111822   2.392   0.747   4.671
 3641SOL    HW211823   2.270   0.851   4.705
 3642SOL     OW11824   5.829   6.595   2.043
 3642SOL    HW111825   5.794   6.685   2.068
 3642SOL    HW211826   5.929   6.597   2.043
 3643SOL     OW11827   3.689   5.050   5.818
 3643SOL    HW111828   3.720   4.958   5.796
 3643SOL    HW211829   3.608   5.072   5.764
 3644SOL     OW11830   6.992   0.217   0.389
 3644SOL    HW111831   6.960   0.310   0.406
 3644SOL    HW211832   0.062   0.220   0.351
 3645SOL     OW11833   3.532   6.528   2.711
 3645SOL    HW111834   3.607   6.468   2.738
 3645SOL    HW211835   3.569   6.614   2.676
 3646SOL     OW11836   6.558   5.548   4.366
 3646SOL    HW111837   6.576   5.533   4.269
 3646SOL    HW211838   6.547   5.646   4.383
 3647SOL     OW11839   2.480   2.408   1.482
 3647SOL    HW111840   2.571   2.379   1.451
 3647SOL    HW211841   2.412   2.339   1.455
 3648SOL     OW11842   3.081   6.063   3.563
 3648SOL    HW111843   3.103   5.988   3.625
 3648SOL    HW211844   3.128   6.147   3.593
 3649SOL     OW11845   3.564   3.159   2.099
 3649SOL    HW111846   3.588   3.064   2.120
 3649SOL    HW211847   3.583   3.178   2.003
 3650SOL     OW11848   5.368   6.629   1.494
 3650SOL    HW111849   5.465   6.644   1.471
 3650SOL    HW211850   5.354   6.647   1.591
 3651SOL     OW11851   1.211   6.291   2.635
 3651SOL    HW111852   1.199   6.292   2.535
 3651SOL    HW211853   1.231   6.198   2.665
 3652SOL     OW11854   4.738   4.862   3.162
 3652SOL    HW111855   4.828   4.877   3.119
 3652SOL    HW211856   4.681   4.808   3.100
 3653SOL     OW11857   6.758   3.109   5.039
 3653SOL    HW111858   6.781   3.206   5.027
 3653SOL    HW211859   6.705   3.098   5.123
 3654SOL     OW11860   1.143   5.819   1.612
 3654SOL    HW111861   1.229   5.813   1.561
 3654SOL    HW211862   1.152   5.769   1.699
 3655SOL     OW11863   0.194   1.154   3.656
 3655SOL    HW111864   0.275   1.157   3.714
 3655SOL    HW211865   0.130   1.086   3.691
 3656SOL     OW11866   2.605   1.262   2.803
 3656SOL    HW111867   2.523   1.247   2.747
 3656SOL    HW211868   2.682   1.213   2.763
 3657SOL     OW11869   4.556   4.941   2.144
 3657SOL    HW111870   4.567   5.026   2.196
 3657SOL    HW211871   4.472   4.895   2.174
 3658SOL     OW11872   2.428   5.446   5.566
 3658SOL    HW111873   2.406   5.485   5.655
 3658SOL    HW211874   2.422   5.517   5.496
 3659SOL     OW11875   0.936   3.967   0.331
 3659SOL    HW111876   0.846   3.975   0.374
 3659SOL    HW211877   0.937   3.887   0.271
 3660SOL     OW11878   4.091   5.145   0.861
 3660SOL    HW111879   4.005   5.122   0.815
 3660SOL    HW211880   4.167   5.098   0.817
 3661SOL     OW11881   5.094   1.525   1.366
 3661SOL    HW111882   5.136   1.513   1.456
 3661SOL    HW211883   5.002   1.562   1.377
 3662SOL     OW11884   2.881   6.168   4.926
 3662SOL    HW111885   2.812   6.202   4.990
 3662SOL    HW211886   2.919   6.243   4.873
 3663SOL     OW11887   1.442   3.620   5.851
 3663SOL    HW111888   1.472   3.525   5.843
 3663SOL    HW211889   1.522   3.678   5.869
 3664SOL     OW11890   4.108   6.881   1.594
 3664SOL    HW111891   4.068   6.794   1.624
 3664SOL    HW211892   4.161   6.921   1.669
 3665SOL     OW11893   1.487   6.797   5.211
 3665SOL    HW111894   1.466   6.704   5.181
 3665SOL    HW211895   1.405   6.839   5.250
 3666SOL     OW11896   0.833   4.853   4.308
 3666SOL    HW111897   0.753   4.911   4.290
 3666SOL    HW211898   0.806   4.775   4.363
 3667SOL     OW11899   0.141   1.300   6.529
 3667SOL    HW111900   0.120   1.397   6.537
 3667SOL    HW211901   0.182   1.267   6.615
 3668SOL     OW11902   1.718   5.931   1.858
 3668SOL    HW111903   1.706   5.867   1.934
 3668SOL    HW211904   1.632   5.939   1.807
 3669SOL     OW11905   5.763   1.798   3.740
 3669SOL    HW111906   5.844   1.740   3.746
 3669SOL    HW211907   5.762   1.847   3.653
 3670SOL     OW11908   2.361   5.537   6.249
 3670SOL    HW111909   2.357   5.463   6.316
 3670SOL    HW211910   2.338   5.501   6.158
 3671SOL     OW11911   1.431   0.873   2.898
 3671SOL    HW111912   1.464   0.928   2.975
 3671SOL    HW211913   1.469   0.910   2.813
 3672SOL     OW11914   6.715   6.877   0.669
 3672SOL    HW111915   6.788   6.900   0.604
 3672SOL    HW211916   6.693   6.780   0.661
 3673SOL     OW11917   4.186   0.505   6.591
 3673SOL    HW111918   4.186   0.469   6.498
 3673SOL    HW211919   4.092   0.508   6.626
 3674SOL     OW11920   1.363   6.421   0.986
 3674SOL    HW111921   1.346   6.323   0.977
 3674SOL    HW211922   1.436   6.448   0.922
 3675SOL     OW11923   1.668   1.723   4.688
 3675SOL    HW111924   1.739   1.666   4.647
 3675SOL    HW211925   1.705   1.770   4.769
 3676SOL     OW11926   1.500   4.986   3.299
 3676SOL    HW111927   1.590   5.025   3.316
 3676SOL    HW211928   1.477   4.995   3.202
 3677SOL     OW11929   6.572   6.938   3.766
 3677SOL    HW111930   6.637   6.984   3.827
 3677SOL    HW211931   6.548   6.849   3.803
 3678SOL     OW11932   1.469   1.172   3.419
 3678SOL    HW111933   1.406   1.211   3.352
 3678SOL    HW211934   1.482   1.238   3.494
 3679SOL     OW11935   0.337   0.690   1.182
 3679SOL    HW111936   0.377   0.655   1.098
 3679SOL    HW211937   0.381   0.777   1.206
 3680SOL     OW11938   6.222   4.390   4.538
 3680SOL    HW111939   6.253   4.319   4.601
 3680SOL    HW211940   6.171   4.459   4.588
 3681SOL     OW11941   5.461   6.464   5.092
 3681SOL    HW111942   5.491   6.384   5.040
 3681SOL    HW211943   5.365   6.452   5.118
 3682SOL     OW11944   0.629   2.452   6.318
 3682SOL    HW111945   0.654   2.466   6.222
 3682SOL    HW211946   0.701   2.490   6.377
 3683SOL     OW11947   5.381   6.111   3.697
 3683SOL    HW111948   5.435   6.191   3.723
 3683SOL    HW211949   5.437   6.029   3.709
 3684SOL     OW11950   1.588   2.945   0.580
 3684SOL    HW111951   1.568   2.991   0.494
 3684SOL    HW211952   1.617   3.012   0.648
 3685SOL     OW11953   6.558   6.744   6.333
 3685SOL    HW111954   6.591   6.715   6.423
 3685SOL    HW211955   6.594   6.835   6.313
 3686SOL     OW11956   5.973   4.435   1.331
 3686SOL    HW111957   5.927   4.385   1.258
 3686SOL    HW211958   6.030   4.507   1.292
 3687SOL     OW11959   3.291   1.144   6.952
 3687SOL    HW111960   3.266   1.048   6.961
 3687SOL    HW211961   3.274   1.174   6.858
 3688SOL     OW11962   6.801   3.160   6.971
 3688SOL    HW111963   6.754   3.160   6.883
 3688SOL    HW211964   6.774   3.079   7.023
 3689SOL     OW11965   3.037   0.042   3.796
 3689SOL    HW111966   3.088   0.042   3.882
 3689SOL    HW211967   2.975   6.987   3.793
 3690SOL     OW11968   4.289   6.200   5.097
 3690SOL    HW111969   4.289   6.296   5.070
 3690SOL    HW211970   4.196   6.164   5.090
 3691SOL     OW11971   3.294   2.617   6.795
 3691SOL    HW111972   3.358   2.687   6.827
 3691SOL    HW211973   3.220   2.608   6.862
 3692SOL     OW11974   0.862   0.061   6.275
 3692SOL    HW111975   0.953   0.102   6.280
 3692SOL    HW211976   0.800   0.123   6.226
 3693SOL     OW11977   2.359   1.777   3.450
 3693SOL    HW111978   2.428   1.815   3.388
 3693SOL    HW211979   2.396   1.695   3.494
 3694SOL     OW11980   2.296   5.746   2.549
 3694SOL    HW111981   2.210   5.798   2.557
 3694SOL    HW211982   2.299   5.676   2.621
 3695SOL     OW11983   1.728   2.627   1.162
 3695SOL    HW111984   1.695   2.658   1.251
 3695SOL    HW211985   1.711   2.529   1.153
 3696SOL     OW11986   3.173   5.631   5.942
 3696SOL    HW111987   3.213   5.658   5.854
 3696SOL    HW211988   3.152   5.713   5.995
 3697SOL     OW11989   5.264   0.235   4.115
 3697SOL    HW111990   5.256   0.209   4.019
 3697SOL    HW211991   5.320   0.167   4.163
 3698SOL     OW11992   3.032   0.240   6.187
 3698SOL    HW111993   3.043   0.223   6.089
 3698SOL    HW211994   2.986   0.328   6.201
 3699SOL     OW11995   1.434   4.209   2.329
 3699SOL    HW111996   1.405   4.286   2.387
 3699SOL    HW211997   1.485   4.143   2.385
 3700SOL     OW11998   0.360   0.485   3.641
 3700SOL    HW111999   0.362   0.579   3.677
 3700SOL    HW212000   0.429   0.476   3.569
 3701SOL     OW12001   5.599   0.295   3.363
 3701SOL    HW112002   5.647   0.360   3.304
 3701SOL    HW212003   5.662   0.223   3.392
 3702SOL     OW12004   4.533   0.983   6.480
 3702SOL    HW112005   4.525   0.928   6.564
 3702SOL    HW212006   4.623   1.027   6.479
 3703SOL     OW12007   4.395   4.386   0.060
 3703SOL    HW112008   4.364   4.338   7.001
 3703SOL    HW212009   4.414   4.319   0.132
 3704SOL     OW12010   2.433   0.235   2.259
 3704SOL    HW112011   2.370   0.270   2.190
 3704SOL    HW212012   2.526   0.266   2.238
 3705SOL     OW12013   5.801   1.417   4.466
 3705SOL    HW112014   5.775   1.335   4.414
 3705SOL    HW212015   5.804   1.394   4.564
 3706SOL     OW12016   2.501   2.232   3.370
 3706SOL    HW112017   2.423   2.262   3.425
 3706SOL    HW212018   2.531   2.142   3.401
 3707SOL     OW12019   4.460   2.187   5.147
 3707SOL    HW112020   4.545   2.212   5.100
 3707SOL    HW212021   4.397   2.144   5.082
 3708SOL     OW12022   6.284   0.015   6.002
 3708SOL    HW112023   6.351   0.051   6.067
 3708SOL    HW212024   6.208   6.996   6.051
 3709SOL     OW12025   4.698   0.246   0.377
 3709SOL    HW112026   4.638   0.321   0.350
 3709SOL    HW212027   4.729   0.261   0.471
 3710SOL     OW12028   0.014   5.145   0.196
 3710SOL    HW112029   0.107   5.116   0.172
 3710SOL    HW212030   6.974   5.068   0.185
 3711SOL     OW12031   6.697   5.313   2.724
 3711SOL    HW112032   6.743   5.289   2.638
 3711SOL    HW212033   6.659   5.231   2.766
 3712SOL     OW12034   1.791   0.195   0.293
 3712SOL    HW112035   1.850   0.184   0.372
 3712SOL    HW212036   1.715   0.130   0.298
 3713SOL     OW12037   3.861   5.808   6.249
 3713SOL    HW112038   3.782   5.807   6.188
 3713SOL    HW212039   3.936   5.757   6.207
 3714SOL     OW12040   4.253   1.258   5.227
 3714SOL    HW112041   4.237   1.335   5.289
 3714SOL    HW212042   4.352   1.250   5.209
 3715SOL     OW12043   5.592   3.968   3.956
 3715SOL    HW112044   5.674   4.015   3.990
 3715SOL    HW212045   5.620   3.893   3.897
 3716SOL     OW12046   0.775   1.785   4.650
 3716SOL    HW112047   0.682   1.749   4.649
 3716SOL    HW212048   0.774   1.880   4.618
 3717SOL     OW12049   6.240   0.557   6.991
 3717SOL    HW112050   6.298   0.495   6.938
 3717SOL    HW212051   6.177   0.503   0.025
 3718SOL     OW12052   0.844   5.579   0.369
 3718SOL    HW112053   0.820   5.529   0.452
 3718SOL    HW212054   0.850   5.515   0.292
 3719SOL     OW12055   3.884   5.222   6.560
 3719SOL    HW112056   3.959   5.206   6.496
 3719SOL    HW212057   3.919   5.221   6.653
 3720SOL     OW12058   0.129   1.682   6.092
 3720SOL    HW112059   0.173   1.700   6.180
 3720SOL    HW212060   0.085   1.592   6.095
 3721SOL     OW12061   4.583   3.280   0.879
 3721SOL    HW112062   4.603   3.186   0.906
 3721SOL    HW212063   4.511   3.280   0.809
 3722SOL     OW12064   5.909   5.897   1.408
 3722SOL    HW112065   5.832   5.887   1.345
 3722SOL    HW212066   5.916   5.993   1.438
 3723SOL     OW12067   4.313   1.231   0.477
 3723SOL    HW112068   4.387   1.167   0.499
 3723SOL    HW212069   4.231   1.205   0.528
 3724SOL     OW12070   0.092   4.717   5.607
 3724SOL    HW112071   0.192   4.711   5.605
 3724SOL    HW212072   0.055   4.640   5.658
 3725SOL     OW12073   6.836   0.271   0.649
 3725SOL    HW112074   6.935   0.266   0.638
 3725SOL    HW212075   6.804   0.196   0.707
 3726SOL     OW12076   5.853   3.586   1.776
 3726SOL    HW112077   5.792   3.577   1.697
 3726SOL    HW212078   5.853   3.681   1.807
 3727SOL     OW12079   2.509   2.772   5.293
 3727SOL    HW112080   2.499   2.725   5.205
 3727SOL    HW212081   2.489   2.869   5.281
 3728SOL     OW12082   0.478   3.503   6.628
 3728SOL    HW112083   0.498   3.597   6.599
 3728SOL    HW212084   0.466   3.501   6.727
 3729SOL     OW12085   0.313   2.650   3.153
 3729SOL    HW112086   0.377   2.704   3.209
 3729SOL    HW212087   0.361   2.573   3.113
 3730SOL     OW12088   2.473   0.534   0.914
 3730SOL    HW112089   2.496   0.441   0.886
 3730SOL    HW212090   2.555   0.579   0.949
 3731SOL     OW12091   3.058   6.237   6.170
 3731SOL    HW112092   2.965   6.268   6.150
 3731SOL    HW212093   3.096   6.191   6.089
 3732SOL     OW12094   2.151   3.891   4.615
 3732SOL    HW112095   2.226   3.827   4.597
 3732SOL    HW212096   2.118   3.877   4.709
 3733SOL     OW12097   3.014   3.221   0.993
 3733SOL    HW112098   3.023   3.130   1.033
 3733SOL    HW212099   3.080   3.231   0.919
 3734SOL     OW12100   5.237   6.744   3.444
 3734SOL    HW112101   5.168   6.761   3.514
 3734SOL    HW212102   5.301   6.674   3.476
 3735SOL     OW12103   3.523   1.794   1.932
 3735SOL    HW112104   3.500   1.827   1.840
 3735SOL    HW212105   3.491   1.859   2.000
 3736SOL     OW12106   4.486   1.150   5.951
 3736SOL    HW112107   4.429   1.221   5.909
 3736SOL    HW212108   4.435   1.106   6.025
 3737SOL     OW12109   3.805   6.581   3.466
 3737SOL    HW112110   3.838   6.650   3.401
 3737SOL    HW212111   3.707   6.592   3.479
 3738SOL     OW12112   0.144   0.040   4.057
 3738SOL    HW112113   0.098   0.110   4.002
 3738SOL    HW212114   0.117   6.972   4.024
 3739SOL     OW12115   0.866   3.735   1.828
 3739SOL    HW112116   0.936   3.747   1.757
 3739SOL    HW212117   0.876   3.644   1.869
 3740SOL     OW12118   5.424   0.804   0.044
 3740SOL    HW112119   5.445   0.894   0.084
 3740SOL    HW212120   5.340   0.810   7.014
 3741SOL     OW12121   3.531   2.156   6.803
 3741SOL    HW112122   3.468   2.221   6.846
 3741SOL    HW212123   3.584   2.202   6.733
 3742SOL     OW12124   3.203   3.495   5.550
 3742SOL    HW112125   3.263   3.498   5.470
 3742SOL    HW212126   3.125   3.556   5.536
 3743SOL     OW12127   0.812   5.792   6.176
 3743SOL    HW112128   0.824   5.868   6.112
 3743SOL    HW212129   0.887   5.793   6.243
 3744SOL     OW12130   0.051   5.520   3.139
 3744SOL    HW112131   0.052   5.460   3.220
 3744SOL    HW212132   7.008   5.594   3.153
 3745SOL     OW12133   5.374   5.728   1.642
 3745SOL    HW112134   5.320   5.766   1.717
 3745SOL    HW212135   5.393   5.632   1.659
 3746SOL     OW12136   4.348   1.554   2.257
 3746SOL    HW112137   4.346   1.636   2.314
 3746SOL    HW212138   4.327   1.474   2.314
 3747SOL     OW12139   2.442   7.008   0.842
 3747SOL    HW112140   2.410   6.918   0.815
 3747SOL    HW212141   2.498   0.024   0.769
 3748SOL     OW12142   5.557   0.835   2.255
 3748SOL    HW112143   5.602   0.848   2.343
 3748SOL    HW212144   5.624   0.809   2.186
 3749SOL     OW12145   1.881   0.680   4.585
 3749SOL    HW112146   1.823   0.743   4.534
 3749SOL    HW212147   1.857   0.684   4.682
 3750SOL     OW12148   0.243   4.772   6.730
 3750SOL    HW112149   0.268   4.676   6.715
 3750SOL    HW212150   0.248   4.793   6.827
 3751SOL     OW12151   1.472   3.835   1.452
 3751SOL    HW112152   1.541   3.792   1.394
 3751SOL    HW212153   1.420   3.764   1.500
 3752SOL     OW12154   5.509   6.268   0.191
 3752SOL    HW112155   5.545   6.334   0.257
 3752SOL    HW212156   5.565   6.185   0.193
 3753SOL     OW12157   6.817   6.914   3.219
 3753SOL    HW112158   6.763   6.874   3.145
 3753SOL    HW212159   6.866   6.994   3.186
 3754SOL     OW12160   1.961   1.277   1.503
 3754SOL    HW112161   1.997   1.358   1.550
 3754SOL    HW212162   1.975   1.287   1.405
 3755SOL     OW12163   3.219   5.281   4.017
 3755SOL    HW112164   3.200   5.363   3.964
 3755SOL    HW212165   3.169   5.285   4.104
 3756SOL     OW12166   1.597   6.755   0.522
 3756SOL    HW112167   1.599   6.740   0.621
 3756SOL    HW212168   1.536   6.688   0.480
 3757SOL     OW12169   0.571   4.516   1.384
 3757SOL    HW112170   0.650   4.492   1.327
 3757SOL    HW212171   0.590   4.599   1.435
 3758SOL     OW12172   2.098   0.209   3.790
 3758SOL    HW112173   2.176   0.214   3.728
 3758SOL    HW212174   2.080   0.113   3.813
 3759SOL     OW12175   5.279   0.533   4.095
 3759SOL    HW112176   5.281   0.434   4.105
 3759SOL    HW212177   5.369   0.566   4.067
 3760SOL     OW12178   0.988   1.196   2.867
 3760SOL    HW112179   1.004   1.294   2.863
 3760SOL    HW212180   0.935   1.167   2.787
 3761SOL     OW12181   4.552   2.014   5.340
 3761SOL    HW112182   4.534   2.084   5.271
 3761SOL    HW212183   4.603   1.939   5.299
 3762SOL     OW12184   0.149   3.053   4.076
 3762SOL    HW112185   0.160   3.132   4.016
 3762SOL    HW212186   0.106   2.978   4.026
 3763SOL     OW12187   0.931   4.768   6.729
 3763SOL    HW112188   0.938   4.753   6.631
 3763SOL    HW212189   1.005   4.721   6.776
 3764SOL     OW12190   2.843   0.833   2.832
 3764SOL    HW112191   2.793   0.874   2.756
 3764SOL    HW212192   2.879   0.905   2.892
 3765SOL     OW12193   5.382   2.734   2.963
 3765SOL    HW112194   5.441   2.714   3.041
 3765SOL    HW212195   5.351   2.648   2.922
 3766SOL     OW12196   1.505   3.170   2.042
 3766SOL    HW112197   1.434   3.100   2.045
 3766SOL    HW212198   1.512   3.206   1.949
 3767SOL     OW12199   1.998   5.935   5.914
 3767SOL    HW112200   1.956   5.973   5.996
 3767SOL    HW212201   1.991   6.001   5.839
 3768SOL     OW12202   1.508   6.962   2.766
 3768SOL    HW112203   1.463   0.029   2.765
 3768SOL    HW212204   1.490   6.915   2.680
 3769SOL     OW12205   5.586   5.251   4.345
 3769SOL    HW112206   5.590   5.346   4.375
 3769SOL    HW212207   5.596   5.247   4.245
 3770SOL     OW12208   2.642   0.843   1.781
 3770SOL    HW112209   2.715   0.825   1.715
 3770SOL    HW212210   2.579   0.911   1.743
 3771SOL     OW12211   6.549   5.445   5.578
 3771SOL    HW112212   6.608   5.408   5.650
 3771SOL    HW212213   6.527   5.372   5.513
 3772SOL     OW12214   0.927   5.524   1.841
 3772SOL    HW112215   0.886   5.515   1.750
 3772SOL    HW212216   0.979   5.610   1.846
 3773SOL     OW12217   5.147   5.241   6.862
 3773SOL    HW112218   5.056   5.234   6.822
 3773SOL    HW212219   5.192   5.152   6.858
 3774SOL     OW12220   6.449   5.027   2.159
 3774SOL    HW112221   6.471   5.091   2.086
 3774SOL    HW212222   6.526   5.022   2.223
 3775SOL     OW12223   4.771   5.121   5.405
 3775SOL    HW112224   4.744   5.106   5.310
 3775SOL    HW212225   4.788   5.218   5.420
 3776SOL     OW12226   4.475   2.716   6.591
 3776SOL    HW112227   4.416   2.747   6.665
 3776SOL    HW212228   4.520   2.796   6.549
 3777SOL     OW12229   3.026   4.918   4.418
 3777SOL    HW112230   3.031   4.910   4.318
 3777SOL    HW212231   3.119   4.914   4.456
 3778SOL     OW12232   3.631   5.282   6.566
 3778SOL    HW112233   3.727   5.255   6.578
 3778SOL    HW212234   3.574   5.228   6.628
 3779SOL     OW12235   6.749   4.744   6.928
 3779SOL    HW112236   6.758   4.676   6.854
 3779SOL    HW212237   6.755   4.836   6.890
 3780SOL     OW12238   6.062   3.871   2.030
 3780SOL    HW112239   6.151   3.840   1.997
 3780SOL    HW212240   6.019   3.800   2.085
 3781SOL     OW12241   1.506   6.023   5.188
 3781SOL    HW112242   1.422   6.068   5.157
 3781SOL    HW212243   1.531   5.950   5.124
 3782SOL     OW12244   4.285   4.827   0.859
 3782SOL    HW112245   4.216   4.880   0.909
 3782SOL    HW212246   4.307   4.744   0.910
 3783SOL     OW12247   4.695   5.361   4.597
 3783SOL    HW112248   4.642   5.409   4.527
 3783SOL    HW212249   4.739   5.427   4.658
 3784SOL     OW12250   5.344   2.822   5.412
 3784SOL    HW112251   5.332   2.750   5.343
 3784SOL    HW212252   5.353   2.911   5.366
 3785SOL     OW12253   1.141   2.542   2.876
 3785SOL    HW112254   1.220   2.601   2.861
 3785SOL    HW212255   1.068   2.594   2.920
 3786SOL     OW12256   2.053   3.414   4.574
 3786SOL    HW112257   2.124   3.357   4.532
 3786SOL    HW212258   2.077   3.511   4.563
 3787SOL     OW12259   5.082   6.323   4.068
 3787SOL    HW112260   5.063   6.303   4.165
 3787SOL    HW212261   5.011   6.383   4.032
 3788SOL     OW12262   4.945   3.034   6.150
 3788SOL    HW112263   4.898   2.946   6.149
 3788SOL    HW212264   5.033   3.025   6.104
 3789SOL     OW12265   2.491   2.912   1.118
 3789SOL    HW112266   2.545   2.918   1.034
 3789SOL    HW212267   2.504   2.995   1.172
 3790SOL     OW12268   0.897   6.510   1.737
 3790SOL    HW112269   0.899   6.605   1.706
 3790SOL    HW212270   0.907   6.507   1.837
 3791SOL     OW12271   5.029   0.627   5.317
 3791SOL    HW112272   4.973   0.593   5.393
 3791SOL    HW212273   5.126   0.616   5.340
 3792SOL     OW12274   6.877   0.122   4.199
 3792SOL    HW112275   6.976   0.129   4.189
 3792SOL    HW212276   6.844   0.193   4.261
 3793SOL     OW12277   3.934   4.566   0.691
 3793SOL    HW112278   3.976   4.486   0.734
 3793SOL    HW212279   3.872   4.609   0.756
 3794SOL     OW12280   1.500   5.050   6.158
 3794SOL    HW112281   1.493   5.118   6.231
 3794SOL    HW212282   1.418   4.993   6.157
 3795SOL     OW12283   2.829   5.949   0.921
 3795SOL    HW112284   2.929   5.960   0.916
 3795SOL    HW212285   2.791   6.013   0.987
 3796SOL     OW12286   4.886   0.600   0.187
 3796SOL    HW112287   4.824   0.673   0.157
 3796SOL    HW212288   4.980   0.626   0.168
 3797SOL     OW12289   0.296   3.316   1.471
 3797SOL    HW112290   0.379   3.359   1.437
 3797SOL    HW212291   0.309   3.217   1.478
 3798SOL     OW12292   1.380   5.314   3.917
 3798SOL    HW112293   1.287   5.277   3.914
 3798SOL    HW212294   1.415   5.305   4.010
 3799SOL     OW12295   6.925   1.274   3.439
 3799SOL    HW112296   6.829   1.304   3.443
 3799SOL    HW212297   6.931   1.193   3.380
 3800SOL     OW12298   5.592   2.416   3.142
 3800SOL    HW112299   5.495   2.401   3.162
 3800SOL    HW212300   5.611   2.514   3.142
 3801SOL     OW12301   5.739   0.881   0.810
 3801SOL    HW112302   5.770   0.853   0.901
 3801SOL    HW212303   5.641   0.865   0.802
 3802SOL     OW12304   6.361   3.593   1.544
 3802SOL    HW112305   6.295   3.594   1.619
 3802SOL    HW212306   6.437   3.532   1.567
 3803SOL     OW12307   3.890   4.042   4.719
 3803SOL    HW112308   3.868   3.945   4.712
 3803SOL    HW212309   3.807   4.097   4.707
 3804SOL     OW12310   3.610   6.327   3.396
 3804SOL    HW112311   3.535   6.374   3.443
 3804SOL    HW212312   3.610   6.231   3.422
 3805SOL     OW12313   2.562   2.320   6.954
 3805SOL    HW112314   2.474   2.361   6.976
 3805SOL    HW212315   2.631   2.392   6.945
 3806SOL     OW12316   2.401   5.273   1.656
 3806SOL    HW112317   2.347   5.348   1.696
 3806SOL    HW212318   2.368   5.186   1.693
 3807SOL     OW12319   1.331   4.155   3.815
 3807SOL    HW112320   1.308   4.063   3.846
 3807SOL    HW212321   1.248   4.208   3.802
 3808SOL     OW12322   3.280   6.736   5.325
 3808SOL    HW112323   3.186   6.773   5.327
 3808SOL    HW212324   3.345   6.812   5.327
 3809SOL     OW12325   5.667   1.634   1.813
 3809SOL    HW112326   5.695   1.624   1.717
 3809SOL    HW212327   5.748   1.628   1.872
 3810SOL     OW12328   4.352   2.094   3.276
 3810SOL    HW112329   4.288   2.126   3.346
 3810SOL    HW212330   4.426   2.160   3.265
 3811SOL     OW12331   7.003   5.730   5.294
 3811SOL    HW112332   0.059   5.696   5.346
 3811SOL    HW212333   7.020   5.823   5.264
 3812SOL     OW12334   4.452   5.526   0.345
 3812SOL    HW112335   4.412   5.487   0.262
 3812SOL    HW212336   4.543   5.488   0.359
 3813SOL     OW12337   5.947   4.374   0.106
 3813SOL    HW112338   5.898   4.408   0.026
 3813SOL    HW212339   6.035   4.422   0.115
 3814SOL     OW12340   7.006   0.184   4.690
 3814SOL    HW112341   0.005   0.106   4.749
 3814SOL    HW212342   6.906   0.193   4.683
 3815SOL     OW12343   6.095   3.536   6.405
 3815SOL    HW112344   6.130   3.620   6.364
 3815SOL    HW212345   6.153   3.509   6.482
 3816SOL     OW12346   6.637   6.571   1.343
 3816SOL    HW112347   6.656   6.531   1.433
 3816SOL    HW212348   6.708   6.638   1.321
 3817SOL     OW12349   4.355   3.606   1.659
 3817SOL    HW112350   4.334   3.704   1.661
 3817SOL    HW212351   4.304   3.559   1.731
 3818SOL     OW12352   5.616   5.926   2.354
 3818SOL    HW112353   5.554   5.909   2.430
 3818SOL    HW212354   5.637   6.023   2.348
 3819SOL     OW12355   6.079   3.556   3.674
 3819SOL    HW112356   6.112   3.464   3.696
 3819SOL    HW212357   6.138   3.597   3.605
 3820SOL     OW12358   3.489   6.214   5.391
 3820SOL    HW112359   3.576   6.216   5.343
 3820SOL    HW212360   3.459   6.308   5.411
 3821SOL     OW12361   1.666   0.309   0.615
 3821SOL    HW112362   1.706   0.224   0.648
 3821SOL    HW212363   1.574   0.291   0.580
 3822SOL     OW12364   5.079   0.081   2.182
 3822SOL    HW112365   5.178   0.070   2.186
 3822SOL    HW212366   5.039   0.010   2.123
 3823SOL     OW12367   5.841   6.138   5.726
 3823SOL    HW112368   5.917   6.078   5.752
 3823SOL    HW212369   5.836   6.214   5.791
 3824SOL     OW12370   2.536   2.862   0.711
 3824SOL    HW112371   2.518   2.850   0.613
 3824SOL    HW212372   2.460   2.824   0.764
 3825SOL     OW12373   0.815   5.011   5.725
 3825SOL    HW112374   0.792   4.916   5.746
 3825SOL    HW212375   0.744   5.071   5.761
 3826SOL     OW12376   5.472   4.042   3.626
 3826SOL    HW112377   5.447   3.947   3.605
 3826SOL    HW212378   5.389   4.095   3.644
 3827SOL     OW12379   6.747   2.024   0.366
 3827SOL    HW112380   6.724   1.980   0.279
 3827SOL    HW212381   6.675   2.089   0.390
 3828SOL     OW12382   3.987   3.228   3.479
 3828SOL    HW112383   4.009   3.144   3.429
 3828SOL    HW212384   3.915   3.209   3.545
 3829SOL     OW12385   0.490   3.766   2.123
 3829SOL    HW112386   0.433   3.848   2.118
 3829SOL    HW212387   0.549   3.772   2.204
 3830SOL     OW12388   6.035   0.506   3.766
 3830SOL    HW112389   5.979   0.589   3.757
 3830SOL    HW212390   5.977   0.427   3.778
 3831SOL     OW12391   4.395   2.400   3.703
 3831SOL    HW112392   4.478   2.455   3.705
 3831SOL    HW212393   4.342   2.417   3.786
 3832SOL     OW12394   6.889   0.828   3.326
 3832SOL    HW112395   6.825   0.844   3.401
 3832SOL    HW212396   6.857   0.751   3.271
 3833SOL     OW12397   1.235   2.757   5.383
 3833SOL    HW112398   1.212   2.778   5.288
 3833SOL    HW212399   1.180   2.814   5.444
 3834SOL     OW12400   5.015   4.173   0.588
 3834SOL    HW112401   4.920   4.203   0.595
 3834SOL    HW212402   5.021   4.098   0.522
 3835SOL     OW12403   4.410   5.966   4.998
 3835SOL    HW112404   4.354   6.038   5.039
 3835SOL    HW212405   4.440   5.995   4.907
 3836SOL     OW12406   6.818   6.098   5.277
 3836SOL    HW112407   6.824   6.179   5.335
 3836SOL    HW212408   6.903   6.045   5.285
 3837SOL     OW12409   4.402   4.533   5.786
 3837SOL    HW112410   4.479   4.504   5.728
 3837SOL    HW212411   4.321   4.480   5.761
 3838SOL     OW12412   0.109   0.435   4.169
 3838SOL    HW112413   0.021   0.456   4.211
 3838SOL    HW212414   0.169   0.393   4.237
 3839SOL     OW12415   5.016   0.641   3.991
 3839SOL    HW112416   5.036   0.726   3.943
 3839SOL    HW212417   5.101   0.593   4.010
 3840SOL     OW12418   2.999   0.944   6.474
 3840SOL    HW112419   2.965   1.037   6.464
 3840SOL    HW212420   2.923   0.879   6.463
 3841SOL     OW12421   5.995   4.408   4.181
 3841SOL    HW112422   5.943   4.423   4.097
 3841SOL    HW212423   5.932   4.402   4.259
 3842SOL     OW12424   1.889   4.016   5.578
 3842SOL    HW112425   1.912   3.940   5.639
 3842SOL    HW212426   1.814   4.068   5.617
 3843SOL     OW12427   4.847   1.953   6.742
 3843SOL    HW112428   4.768   1.982   6.689
 3843SOL    HW212429   4.879   2.030   6.798
 3844SOL     OW12430   0.372   0.063   1.430
 3844SOL    HW112431   0.380   7.018   1.356
 3844SOL    HW212432   0.275   0.079   1.449
 3845SOL     OW12433   2.024   5.051   0.465
 3845SOL    HW112434   2.079   5.030   0.384
 3845SOL    HW212435   1.942   5.101   0.437
 3846SOL     OW12436   0.498   3.111   3.084
 3846SOL    HW112437   0.433   3.112   3.008
 3846SOL    HW212438   0.579   3.057   3.058
 3847SOL     OW12439   6.913   2.042   7.017
 3847SOL    HW112440   6.874   2.131   6.992
 3847SOL    HW212441   6.840   1.973   7.016
 3848SOL     OW12442   5.506   4.243   2.152
 3848SOL    HW112443   5.510   4.170   2.221
 3848SOL    HW212444   5.597   4.257   2.114
 3849SOL     OW12445   6.577   5.168   6.278
 3849SOL    HW112446   6.567   5.205   6.185
 3849SOL    HW212447   6.670   5.186   6.311
 3850SOL     OW12448   2.931   2.356   1.352
 3850SOL    HW112449   2.968   2.396   1.267
 3850SOL    HW212450   3.004   2.309   1.401
 3851SOL     OW12451   0.384   6.370   2.505
 3851SOL    HW112452   0.453   6.298   2.503
 3851SOL    HW212453   0.376   6.408   2.597
 3852SOL     OW12454   1.732   6.911   5.233
 3852SOL    HW112455   1.641   6.879   5.210
 3852SOL    HW212456   1.726   6.981   5.304
 3853SOL     OW12457   2.984   0.084   3.033
 3853SOL    HW112458   2.977   0.111   3.129
 3853SOL    HW212459   3.063   0.023   3.022
 3854SOL     OW12460   0.529   2.586   2.007
 3854SOL    HW112461   0.617   2.584   2.055
 3854SOL    HW212462   0.508   2.494   1.972
 3855SOL     OW12463   3.841   6.645   0.583
 3855SOL    HW112464   3.794   6.580   0.523
 3855SOL    HW212465   3.788   6.656   0.667
 3856SOL     OW12466   0.293   2.649   6.610
 3856SOL    HW112467   0.260   2.715   6.543
 3856SOL    HW212468   0.304   2.559   6.566
 3857SOL     OW12469   2.437   0.310   6.302
 3857SOL    HW112470   2.419   0.327   6.399
 3857SOL    HW212471   2.351   0.317   6.251
 3858SOL     OW12472   4.841   0.252   4.219
 3858SOL    HW112473   4.901   0.176   4.193
 3858SOL    HW212474   4.791   0.228   4.302
 3859SOL     OW12475   6.224   0.112   1.777
 3859SOL    HW112476   6.239   0.042   1.847
 3859SOL    HW212477   6.311   0.157   1.756
 3860SOL     OW12478   1.352   6.965   4.131
 3860SOL    HW112479   1.282   6.895   4.117
 3860SOL    HW212480   1.441   6.929   4.101
 3861SOL     OW12481   2.939   5.508   1.541
 3861SOL    HW112482   2.886   5.499   1.625
 3861SOL    HW212483   3.036   5.494   1.560
 3862SOL     OW12484   1.655   0.656   4.045
 3862SOL    HW112485   1.732   0.595   4.065
 3862SOL    HW212486   1.609   0.625   3.962
 3863SOL     OW12487   3.479   6.963   0.491
 3863SOL    HW112488   3.434   7.015   0.563
 3863SOL    HW212489   3.563   6.922   0.527
 3864SOL     OW12490   1.990   0.371   4.987
 3864SOL    HW112491   1.923   0.440   4.958
 3864SOL    HW212492   2.081   0.413   4.991
 3865SOL     OW12493   3.892   1.236   0.657
 3865SOL    HW112494   3.889   1.284   0.570
 3865SOL    HW212495   3.879   1.300   0.732
 3866SOL     OW12496   2.451   1.928   6.641
 3866SOL    HW112497   2.538   1.954   6.599
 3866SOL    HW212498   2.426   1.836   6.611
 3867SOL     OW12499   1.104   2.586   2.225
 3867SOL    HW112500   1.040   2.511   2.213
 3867SOL    HW212501   1.061   2.672   2.198
 3868SOL     OW12502   4.745   0.802   0.063
 3868SOL    HW112503   4.670   0.822   7.022
 3868SOL    HW212504   4.832   0.805   0.015
 3869SOL     OW12505   5.099   1.916   3.994
 3869SOL    HW112506   5.040   1.994   3.980
 3869SOL    HW212507   5.179   1.944   4.048
 3870SOL     OW12508   0.204   0.755   4.923
 3870SOL    HW112509   0.299   0.771   4.949
 3870SOL    HW212510   0.160   0.698   4.992
 3871SOL     OW12511   2.830   5.661   4.638
 3871SOL    HW112512   2.752   5.669   4.700
 3871SOL    HW212513   2.797   5.653   4.544
 3872SOL     OW12514   2.915   3.515   5.733
 3872SOL    HW112515   2.889   3.430   5.778
 3872SOL    HW212516   2.843   3.543   5.670
 3873SOL     OW12517   4.310   1.744   0.610
 3873SOL    HW112518   4.290   1.725   0.514
 3873SOL    HW212519   4.407   1.768   0.619
 3874SOL     OW12520   2.692   1.186   0.192
 3874SOL    HW112521   2.637   1.105   0.215
 3874SOL    HW212522   2.785   1.157   0.168
 3875SOL     OW12523   1.111   2.149   6.214
 3875SOL    HW112524   1.144   2.101   6.296
 3875SOL    HW212525   1.179   2.142   6.141
 3876SOL     OW12526   3.622   5.230   2.233
 3876SOL    HW112527   3.666   5.144   2.207
 3876SOL    HW212528   3.523   5.216   2.237
 3877SOL     OW12529   6.807   1.311   6.801
 3877SOL    HW112530   6.747   1.244   6.844
 3877SOL    HW212531   6.902   1.282   6.810
 3878SOL     OW12532   5.249   0.556   4.606
 3878SOL    HW112533   5.324   0.544   4.671
 3878SOL    HW212534   5.216   0.467   4.576
 3879SOL     OW12535   6.089   6.010   0.513
 3879SOL    HW112536   6.016   6.045   0.454
 3879SOL    HW212537   6.129   6.085   0.565
 3880SOL     OW12538   4.467   4.913   4.176
 3880SOL    HW112539   4.396   4.907   4.106
 3880SOL    HW212540   4.499   5.007   4.185
 3881SOL     OW12541   0.551   3.409   0.173
 3881SOL    HW112542   0.615   3.365   0.110
 3881SOL    HW212543   0.577   3.387   0.267
 3882SOL     OW12544   0.656   1.848   6.672
 3882SOL    HW112545   0.562   1.851   6.638
 3882SOL    HW212546   0.665   1.910   6.751
 3883SOL     OW12547   4.834   5.643   3.420
 3883SOL    HW112548   4.762   5.605   3.478
 3883SOL    HW212549   4.873   5.571   3.363
 3884SOL     OW12550   0.478   4.550   1.821
 3884SOL    HW112551   0.571   4.514   1.812
 3884SOL    HW212552   0.460   4.571   1.917
 3885SOL     OW12553   5.021   5.349   2.788
 3885SOL    HW112554   5.019   5.419   2.716
 3885SOL    HW212555   4.977   5.384   2.870
 3886SOL     OW12556   3.400   6.464   5.568
 3886SOL    HW112557   3.348   6.487   5.486
 3886SOL    HW212558   3.482   6.521   5.573
 3887SOL     OW12559   1.160   6.580   2.355
 3887SOL    HW112560   1.172   6.484   2.378
 3887SOL    HW212561   1.071   6.595   2.313
 3888SOL     OW12562   6.207   5.135   4.224
 3888SOL    HW112563   6.143   5.170   4.155
 3888SOL    HW212564   6.202   5.191   4.306
 3889SOL     OW12565   4.793   3.797   0.306
 3889SOL    HW112566   4.863   3.869   0.304
 3889SOL    HW212567   4.774   3.766   0.214
 3890SOL     OW12568   5.402   2.974   4.291
 3890SOL    HW112569   5.446   2.963   4.380
 3890SOL    HW212570   5.302   2.966   4.302
 3891SOL     OW12571   5.882   5.766   2.977
 3891SOL    HW112572   5.842   5.681   3.012
 3891SOL    HW212573   5.850   5.782   2.884
 3892SOL     OW12574   7.002   1.526   1.307
 3892SOL    HW112575   0.076   1.531   1.329
 3892SOL    HW212576   6.971   1.614   1.271
 3893SOL     OW12577   3.923   3.674   2.683
 3893SOL    HW112578   3.935   3.613   2.604
 3893SOL    HW212579   3.969   3.634   2.762
 3894SOL     OW12580   4.527   0.547   5.700
 3894SOL    HW112581   4.488   0.598   5.624
 3894SOL    HW212582   4.621   0.580   5.717
 3895SOL     OW12583   1.445   0.606   3.883
 3895SOL    HW112584   1.392   0.534   3.928
 3895SOL    HW212585   1.414   0.695   3.914
 3896SOL     OW12586   0.819   0.850   6.630
 3896SOL    HW112587   0.821   0.818   6.724
 3896SOL    HW212588   0.725   0.851   6.596
 3897SOL     OW12589   4.280   6.388   1.690
 3897SOL    HW112590   4.319   6.478   1.666
 3897SOL    HW212591   4.306   6.365   1.784
 3898SOL     OW12592   4.221   2.875   0.458
 3898SOL    HW112593   4.124   2.849   0.458
 3898SOL    HW212594   4.278   2.793   0.465
 3899SOL     OW12595   3.239   6.840   6.073
 3899SOL    HW112596   3.268   6.901   6.147
 3899SOL    HW212597   3.242   6.890   5.987
 3900SOL     OW12598   5.010   3.795   3.239
 3900SOL    HW112599   5.085   3.754   3.187
 3900SOL    HW212600   5.029   3.892   3.256
 3901SOL     OW12601   2.664   0.366   7.017
 3901SOL    HW112602   2.645   0.303   6.942
 3901SOL    HW212603   2.589   0.363   0.060
 3902SOL     OW12604   6.139   3.155   2.982
 3902SOL    HW112605   6.222   3.197   2.944
 3902SOL    HW212606   6.108   3.082   2.921
 3903SOL     OW12607   3.132   4.613   6.678
 3903SOL    HW112608   3.068   4.585   6.607
 3903SOL    HW212609   3.084   4.668   6.746
 3904SOL     OW12610   1.262   0.426   0.344
 3904SOL    HW112611   1.334   0.489   0.318
 3904SOL    HW212612   1.294   0.367   0.419
 3905SOL     OW12613   6.823   5.750   4.914
 3905SOL    HW112614   6.850   5.662   4.875
 3905SOL    HW212615   6.904   5.799   4.945
 3906SOL     OW12616   6.765   6.398   5.236
 3906SOL    HW112617   6.852   6.447   5.240
 3906SOL    HW212618   6.718   6.419   5.151
 3907SOL     OW12619   6.819   1.647   4.233
 3907SOL    HW112620   6.755   1.723   4.224
 3907SOL    HW212621   6.789   1.587   4.307
 3908SOL     OW12622   2.271   2.968   5.972
 3908SOL    HW112623   2.322   3.017   6.043
 3908SOL    HW212624   2.193   2.920   6.012
 3909SOL     OW12625   6.077   5.281   4.021
 3909SOL    HW112626   6.135   5.360   3.998
 3909SOL    HW212627   6.068   5.222   3.941
 3910SOL     OW12628   4.053   3.634   2.954
 3910SOL    HW112629   4.062   3.701   3.028
 3910SOL    HW212630   4.098   3.549   2.980
 3911SOL     OW12631   6.332   2.110   5.993
 3911SOL    HW112632   6.239   2.136   6.020
 3911SOL    HW212633   6.329   2.061   5.906
 3912SOL     OW12634   5.362   2.916   6.726
 3912SOL    HW112635   5.430   2.854   6.766
 3912SOL    HW212636   5.274   2.904   6.772
 3913SOL     OW12637   0.922   6.505   0.980
 3913SOL    HW112638   0.887   6.449   1.055
 3913SOL    HW212639   0.968   6.586   1.018
 3914SOL     OW12640   2.901   5.585   5.855
 3914SOL    HW112641   2.997   5.611   5.871
 3914SOL    HW212642   2.891   5.486   5.868
 3915SOL     OW12643   6.400   6.042   1.265
 3915SOL    HW112644   6.392   6.116   1.199
 3915SOL    HW212645   6.347   6.065   1.347
 3916SOL     OW12646   0.894   0.441   2.950
 3916SOL    HW112647   0.974   0.424   2.893
 3916SOL    HW212648   0.825   0.490   2.897
 3917SOL     OW12649   1.970   0.243   6.792
 3917SOL    HW112650   1.948   0.330   6.748
 3917SOL    HW212651   1.987   0.259   6.890
 3918SOL     OW12652   5.858   3.627   0.801
 3918SOL    HW112653   5.838   3.591   0.710
 3918SOL    HW212654   5.930   3.696   0.794
 3919SOL     OW12655   3.363   6.342   0.241
 3919SOL    HW112656   3.286   6.354   0.304
 3919SOL    HW212657   3.447   6.331   0.294
 3920SOL     OW12658   1.908   1.556   6.707
 3920SOL    HW112659   1.923   1.655   6.712
 3920SOL    HW212660   1.908   1.517   6.799
 3921SOL     OW12661   1.392   3.799   1.984
 3921SOL    HW112662   1.359   3.812   2.077
 3921SOL    HW212663   1.329   3.842   1.919
 3922SOL     OW12664   1.191   4.434   1.095
 3922SOL    HW112665   1.288   4.412   1.084
 3922SOL    HW212666   1.181   4.525   1.136
 3923SOL     OW12667   6.806   0.179   0.196
 3923SOL    HW112668   6.797   0.273   0.162
 3923SOL    HW212669   6.885   0.174   0.258
 3924SOL     OW12670   6.919   4.700   4.721
 3924SOL    HW112671   6.986   4.654   4.663
 3924SOL    HW212672   6.869   4.631   4.774
 3925SOL     OW12673   1.662   5.320   2.221
 3925SOL    HW112674   1.632   5.247   2.283
 3925SOL    HW212675   1.623   5.303   2.130
 3926SOL     OW12676   4.225   4.656   2.004
 3926SOL    HW112677   4.242   4.713   1.923
 3926SOL    HW212678   4.141   4.687   2.049
 3927SOL     OW12679   0.653   3.529   6.183
 3927SOL    HW112680   0.693   3.457   6.128
 3927SOL    HW212681   0.675   3.618   6.143
 3928SOL     OW12682   5.439   5.736   6.277
 3928SOL    HW112683   5.411   5.661   6.218
 3928SOL    HW212684   5.404   5.720   6.370
 3929SOL     OW12685   1.171   1.977   4.862
 3929SOL    HW112686   1.252   1.961   4.805
 3929SOL    HW212687   1.182   1.930   4.949
 3930SOL     OW12688   2.185   1.639   3.869
 3930SOL    HW112689   2.222   1.559   3.915
 3930SOL    HW212690   2.086   1.629   3.858
 3931SOL     OW12691   5.605   1.255   1.733
 3931SOL    HW112692   5.672   1.291   1.668
 3931SOL    HW212693   5.515   1.249   1.689
 3932SOL     OW12694   1.847   2.131   4.042
 3932SOL    HW112695   1.810   2.041   4.066
 3932SOL    HW212696   1.773   2.198   4.041
 3933SOL     OW12697   0.938   6.741   5.397
 3933SOL    HW112698   0.898   6.741   5.305
 3933SOL    HW212699   0.875   6.697   5.460
 3934SOL     OW12700   5.508   0.262   6.601
 3934SOL    HW112701   5.567   0.191   6.563
 3934SOL    HW212702   5.504   0.339   6.538
 3935SOL     OW12703   4.989   0.786   0.857
 3935SOL    HW112704   4.926   0.791   0.935
 3935SOL    HW212705   4.980   0.697   0.812
 3936SOL     OW12706   0.322   5.198   3.277
 3936SOL    HW112707   0.410   5.178   3.321
 3936SOL    HW212708   0.260   5.121   3.292
 3937SOL     OW12709   0.446   1.281   2.559
 3937SOL    HW112710   0.475   1.374   2.582
 3937SOL    HW212711   0.526   1.221   2.558
 3938SOL     OW12712   0.058   2.283   1.940
 3938SOL    HW112713   7.000   2.224   1.940
 3938SOL    HW212714   0.050   2.351   2.013
 3939SOL     OW12715   2.822   1.555   1.649
 3939SOL    HW112716   2.816   1.647   1.610
 3939SOL    HW212717   2.730   1.517   1.658
 3940SOL     OW12718   4.151   3.142   1.455
 3940SOL    HW112719   4.233   3.199   1.445
 3940SOL    HW212720   4.176   3.046   1.451
 3941SOL     OW12721   4.288   3.987   6.383
 3941SOL    HW112722   4.379   4.022   6.405
 3941SOL    HW212723   4.228   4.000   6.462
 3942SOL     OW12724   6.633   6.354   6.323
 3942SOL    HW112725   6.597   6.397   6.240
 3942SOL    HW212726   6.603   6.258   6.326
 3943SOL     OW12727   0.235   3.557   4.138
 3943SOL    HW112728   0.273   3.543   4.046
 3943SOL    HW212729   0.145   3.513   4.144
 3944SOL     OW12730   5.118   2.469   4.850
 3944SOL    HW112731   5.115   2.480   4.750
 3944SOL    HW212732   5.047   2.525   4.892
 3945SOL     OW12733   6.945   0.479   0.461
 3945SOL    HW112734   6.939   0.502   0.559
 3945SOL    HW212735   0.005   0.520   0.423
 3946SOL     OW12736   4.414   4.756   3.266
 3946SOL    HW112737   4.393   4.854   3.264
 3946SOL    HW212738   4.375   4.715   3.348
 3947SOL     OW12739   5.945   5.468   6.923
 3947SOL    HW112740   5.967   5.379   6.884
 3947SOL    HW212741   5.981   5.474   7.016
 3948SOL     OW12742   6.330   4.347   0.941
 3948SOL    HW112743   6.334   4.417   0.870
 3948SOL    HW212744   6.235   4.322   0.959
 3949SOL     OW12745   5.207   6.417   3.280
 3949SOL    HW112746   5.142   6.447   3.350
 3949SOL    HW212747   5.161   6.359   3.214
 3950SOL     OW12748   1.342   6.083   0.303
 3950SOL    HW112749   1.350   6.059   0.399
 3950SOL    HW212750   1.391   6.016   0.247
 3951SOL     OW12751   5.619   7.008   2.243
 3951SOL    HW112752   5.677   0.038   2.304
 3951SOL    HW212753   5.674   6.942   2.192
 3952SOL     OW12754   6.219   2.201   0.203
 3952SOL    HW112755   6.292   2.147   0.162
 3952SOL    HW212756   6.173   2.146   0.273
 3953SOL     OW12757   3.527   4.126   2.997
 3953SOL    HW112758   3.428   4.118   3.006
 3953SOL    HW212759   3.562   4.190   3.065
 3954SOL     OW12760   3.868   4.824   5.654
 3954SOL    HW112761   3.874   4.771   5.739
 3954SOL    HW212762   3.912   4.913   5.667
 3955SOL     OW12763   4.305   1.130   4.788
 3955SOL    HW112764   4.218   1.105   4.832
 3955SOL    HW212765   4.379   1.123   4.855
 3956SOL     OW12766   1.739   1.121   1.459
 3956SOL    HW112767   1.691   1.070   1.530
 3956SOL    HW212768   1.816   1.170   1.499
 3957SOL     OW12769   3.289   1.028   4.599
 3957SOL    HW112770   3.229   0.954   4.629
 3957SOL    HW212771   3.350   1.054   4.673
 3958SOL     OW12772   5.539   0.878   5.292
 3958SOL    HW112773   5.564   0.944   5.362
 3958SOL    HW212774   5.619   0.825   5.266
 3959SOL     OW12775   4.439   5.378   0.740
 3959SOL    HW112776   4.394   5.289   0.746
 3959SOL    HW212777   4.452   5.416   0.831
 3960SOL     OW12778   5.227   2.310   4.336
 3960SOL    HW112779   5.217   2.410   4.330
 3960SOL    HW212780   5.324   2.287   4.336
 3961SOL     OW12781   5.831   6.067   3.682
 3961SOL    HW112782   5.846   5.970   3.696
 3961SOL    HW212783   5.750   6.081   3.625
 3962SOL     OW12784   0.201   5.599   5.404
 3962SOL    HW112785   0.150   5.513   5.409
 3962SOL    HW212786   0.271   5.592   5.334
 3963SOL     OW12787   4.482   6.764   2.192
 3963SOL    HW112788   4.457   6.801   2.102
 3963SOL    HW212789   4.417   6.692   2.218
 3964SOL     OW12790   5.505   3.331   3.318
 3964SOL    HW112791   5.479   3.238   3.343
 3964SOL    HW212792   5.455   3.396   3.375
 3965SOL     OW12793   4.884   3.943   4.531
 3965SOL    HW112794   4.937   3.890   4.598
 3965SOL    HW212795   4.835   4.016   4.579
 3966SOL     OW12796   2.532   6.037   6.296
 3966SOL    HW112797   2.477   6.027   6.379
 3966SOL    HW212798   2.629   6.046   6.320
 3967SOL     OW12799   2.044   4.892   2.930
 3967SOL    HW112800   2.126   4.924   2.884
 3967SOL    HW212801   1.963   4.920   2.879
 3968SOL     OW12802   4.075   6.757   0.720
 3968SOL    HW112803   4.025   6.704   0.652
 3968SOL    HW212804   4.016   6.828   0.758
 3969SOL     OW12805   0.888   4.975   2.729
 3969SOL    HW112806   0.952   5.049   2.749
 3969SOL    HW212807   0.939   4.889   2.718
 3970SOL     OW12808   5.340   6.048   2.532
 3970SOL    HW112809   5.304   6.094   2.451
 3970SOL    HW212810   5.378   6.116   2.595
 3971SOL     OW12811   2.484   5.636   3.934
 3971SOL    HW112812   2.497   5.724   3.980
 3971SOL    HW212813   2.407   5.643   3.870
 3972SOL     OW12814   1.936   3.681   0.104
 3972SOL    HW112815   1.990   3.605   0.067
 3972SOL    HW212816   1.863   3.645   0.161
 3973SOL     OW12817   1.306   5.462   0.362
 3973SOL    HW112818   1.294   5.504   0.452
 3973SOL    HW212819   1.291   5.531   0.291
 3974SOL     OW12820   2.087   0.948   5.160
 3974SOL    HW112821   2.058   0.993   5.245
 3974SOL    HW212822   2.125   1.017   5.098
 3975SOL     OW12823   5.545   2.476   6.223
 3975SOL    HW112824   5.636   2.439   6.240
 3975SOL    HW212825   5.547   2.534   6.141
 3976SOL     OW12826   2.158   5.590   2.330
 3976SOL    HW112827   2.237   5.623   2.380
 3976SOL    HW212828   2.184   5.512   2.273
 3977SOL     OW12829   0.735   3.608   6.439
 3977SOL    HW112830   0.686   3.562   6.366
 3977SOL    HW212831   0.699   3.701   6.451
 3978SOL     OW12832   6.405   4.680   3.391
 3978SOL    HW112833   6.376   4.601   3.447
 3978SOL    HW212834   6.470   4.735   3.443
 3979SOL     OW12835   3.965   0.144   6.262
 3979SOL    HW112836   3.902   0.106   6.329
 3979SOL    HW212837   3.914   0.187   6.187
 3980SOL     OW12838   5.991   6.419   5.478
 3980SOL    HW112839   6.044   6.348   5.524
 3980SOL    HW212840   6.022   6.509   5.509
 3981SOL     OW12841   4.658   6.914   0.490
 3981SOL    HW112842   4.589   6.976   0.453
 3981SOL    HW212843   4.693   6.855   0.417
 3982SOL     OW12844   3.186   5.811   2.645
 3982SOL    HW112845   3.104   5.849   2.688
 3982SOL    HW212846   3.268   5.852   2.686
 3983SOL     OW12847   3.679   5.751   3.722
 3983SOL    HW112848   3.626   5.835   3.711
 3983SOL    HW212849   3.700   5.737   3.819
 3984SOL     OW12850   6.745   2.912   2.895
 3984SOL    HW112851   6.682   2.951   2.962
 3984SOL    HW212852   6.693   2.870   2.820
 3985SOL     OW12853   4.189   5.423   6.922
 3985SOL    HW112854   4.109   5.387   6.874
 3985SOL    HW212855   4.261   5.444   6.855
 3986SOL     OW12856   4.975   0.834   1.911
 3986SOL    HW112857   5.056   0.797   1.866
 3986SOL    HW212858   4.895   0.822   1.852
 3987SOL     OW12859   3.254   5.201   4.977
 3987SOL    HW112860   3.181   5.206   5.046
 3987SOL    HW212861   3.269   5.106   4.952
 3988SOL     OW12862   4.010   5.335   0.415
 3988SOL    HW112863   3.999   5.358   0.319
 3988SOL    HW212864   4.081   5.393   0.456
 3989SOL     OW12865   5.895   2.002   0.216
 3989SOL    HW112866   5.966   2.000   0.287
 3989SOL    HW212867   5.887   1.912   0.174
 3990SOL     OW12868   6.268   2.199   2.301
 3990SOL    HW112869   6.215   2.149   2.233
 3990SOL    HW212870   6.266   2.297   2.279
 3991SOL     OW12871   6.772   0.618   3.178
 3991SOL    HW112872   6.844   0.549   3.166
 3991SOL    HW212873   6.709   0.614   3.101
 3992SOL     OW12874   3.089   1.699   1.053
 3992SOL    HW112875   3.116   1.749   1.135
 3992SOL    HW212876   3.022   1.753   1.001
 3993SOL     OW12877   1.408   3.016   1.401
 3993SOL    HW112878   1.495   2.968   1.411
 3993SOL    HW212879   1.398   3.083   1.474
 3994SOL     OW12880   2.582   6.289   4.661
 3994SOL    HW112881   2.508   6.327   4.604
 3994SOL    HW212882   2.616   6.205   4.619
 3995SOL     OW12883   1.697   2.879   4.993
 3995SOL    HW112884   1.763   2.953   5.007
 3995SOL    HW212885   1.734   2.794   5.031
 3996SOL     OW12886   0.119   6.127   4.762
 3996SOL    HW112887   0.028   6.166   4.751
 3996SOL    HW212888   0.175   6.187   4.820
 3997SOL     OW12889   5.286   0.250   4.466
 3997SOL    HW112890   5.220   0.300   4.411
 3997SOL    HW212891   5.311   0.165   4.420
 3998SOL     OW12892   3.942   2.166   3.704
 3998SOL    HW112893   3.981   2.184   3.613
 3998SOL    HW212894   3.856   2.117   3.694
 3999SOL     OW12895   5.361   2.204   4.759
 3999SOL    HW112896   5.294   2.261   4.712
 3999SOL    HW212897   5.323   2.174   4.846
 4000SOL     OW12898   4.034   0.110   3.775
 4000SOL    HW112899   4.082   0.165   3.707
 4000SOL    HW212900   4.037   0.157   3.863
 4001SOL     OW12901   1.251   2.453   3.504
 4001SOL    HW112902   1.340   2.432   3.544
 4001SOL    HW212903   1.211   2.370   3.466
 4002SOL     OW12904   2.050   3.661   2.058
 4002SOL    HW112905   2.011   3.690   1.970
 4002SOL    HW212906   2.090   3.569   2.048
 4003SOL     OW12907   3.698   1.527   4.814
 4003SOL    HW112908   3.626   1.590   4.843
 4003SOL    HW212909   3.660   1.462   4.748
 4004SOL     OW12910   0.003   1.900   5.478
 4004SOL    HW112911   0.048   1.835   5.539
 4004SOL    HW212912   6.930   1.911   5.506
 4005SOL     OW12913   5.804   5.434   5.696
 4005SOL    HW112914   5.790   5.384   5.781
 4005SOL    HW212915   5.716   5.473   5.666
 4006SOL     OW12916   3.437   6.515   2.427
 4006SOL    HW112917   3.472   6.530   2.519
 4006SOL    HW212918   3.451   6.419   2.402
 4007SOL     OW12919   6.779   1.919   6.674
 4007SOL    HW112920   6.876   1.943   6.680
 4007SOL    HW212921   6.743   1.950   6.586
 4008SOL     OW12922   2.842   2.379   5.208
 4008SOL    HW112923   2.752   2.377   5.253
 4008SOL    HW212924   2.896   2.454   5.245
 4009SOL     OW12925   3.710   2.883   2.846
 4009SOL    HW112926   3.632   2.874   2.784
 4009SOL    HW212927   3.765   2.799   2.843
 4010SOL     OW12928   2.315   2.992   6.280
 4010SOL    HW112929   2.259   3.067   6.312
 4010SOL    HW212930   2.261   2.908   6.278
 4011SOL     OW12931   0.746   2.506   1.080
 4011SOL    HW112932   0.759   2.605   1.077
 4011SOL    HW212933   0.833   2.460   1.061
 4012SOL     OW12934   6.451   3.008   3.682
 4012SOL    HW112935   6.508   2.930   3.657
 4012SOL    HW212936   6.507   3.076   3.730
 4013SOL     OW12937   4.279   2.196   3.522
 4013SOL    HW112938   4.290   2.271   3.587
 4013SOL    HW212939   4.181   2.178   3.509
 4014SOL     OW12940   5.606   5.907   2.082
 4014SOL    HW112941   5.631   5.899   2.179
 4014SOL    HW212942   5.537   5.839   2.060
 4015SOL     OW12943   4.486   3.101   6.942
 4015SOL    HW112944   4.553   3.069   6.875
 4015SOL    HW212945   4.467   3.198   6.927
 4016SOL     OW12946   3.245   6.369   4.849
 4016SOL    HW112947   3.292   6.304   4.908
 4016SOL    HW212948   3.312   6.429   4.805
 4017SOL     OW12949   6.663   6.404   6.972
 4017SOL    HW112950   6.621   6.495   6.971
 4017SOL    HW212951   6.622   6.349   0.022
 4018SOL     OW12952   2.727   6.434   0.317
 4018SOL    HW112953   2.736   6.393   0.226
 4018SOL    HW212954   2.647   6.495   0.318
 4019SOL     OW12955   4.909   5.383   3.294
 4019SOL    HW112956   4.974   5.389   3.370
 4019SOL    HW212957   4.911   5.291   3.256
 4020SOL     OW12958   5.251   2.459   5.097
 4020SOL    HW112959   5.229   2.452   4.999
 4020SOL    HW212960   5.208   2.384   5.146
 4021SOL     OW12961   4.108   4.895   0.012
 4021SOL    HW112962   4.158   4.980   7.017
 4021SOL    HW212963   4.074   4.896   0.106
 4022SOL     OW12964   5.248   0.713   0.931
 4022SOL    HW112965   5.165   0.739   0.881
 4022SOL    HW212966   5.230   0.631   0.984
 4023SOL     OW12967   6.808   0.486   5.694
 4023SOL    HW112968   6.870   0.446   5.762
 4023SOL    HW212969   6.819   0.438   5.607
 4024SOL     OW12970   3.985   4.820   4.546
 4024SOL    HW112971   3.956   4.727   4.568
 4024SOL    HW212972   3.995   4.872   4.631
 4025SOL     OW12973   1.578   4.357   2.758
 4025SOL    HW112974   1.614   4.379   2.848
 4025SOL    HW212975   1.650   4.317   2.702
 4026SOL     OW12976   4.855   0.187   4.818
 4026SOL    HW112977   4.807   0.101   4.838
 4026SOL    HW212978   4.818   0.260   4.876
 4027SOL     OW12979   4.222   5.080   1.705
 4027SOL    HW112980   4.249   5.007   1.642
 4027SOL    HW212981   4.283   5.159   1.692
 4028SOL     OW12982   2.545   6.619   3.618
 4028SOL    HW112983   2.554   6.685   3.543
 4028SOL    HW212984   2.469   6.647   3.678
 4029SOL     OW12985   1.888   3.772   3.927
 4029SOL    HW112986   1.836   3.857   3.921
 4029SOL    HW212987   1.890   3.740   4.022
 4030SOL     OW12988   1.370   1.589   6.250
 4030SOL    HW112989   1.277   1.600   6.218
 4030SOL    HW212990   1.377   1.621   6.344
 4031SOL     OW12991   5.414   5.791   3.994
 4031SOL    HW112992   5.340   5.858   3.988
 4031SOL    HW212993   5.391   5.711   3.938
 4032SOL     OW12994   4.493   7.006   4.647
 4032SOL    HW112995   4.466   6.909   4.651
 4032SOL    HW212996   4.411   0.040   4.647
 4033SOL     OW12997   3.220   3.731   5.686
 4033SOL    HW112998   3.255   3.649   5.641
 4033SOL    HW212999   3.183   3.707   5.776
 4034SOL     OW13000   5.851   2.837   4.465
 4034SOL    HW113001   5.760   2.796   4.461
 4034SOL    HW213002   5.921   2.766   4.459
 4035SOL     OW13003   0.570   5.524   0.897
 4035SOL    HW113004   0.545   5.620   0.885
 4035SOL    HW213005   0.529   5.470   0.824
 4036SOL     OW13006   6.446   6.072   2.491
 4036SOL    HW113007   6.371   6.126   2.530
 4036SOL    HW213008   6.416   6.029   2.406
 4037SOL     OW13009   6.425   4.404   6.372
 4037SOL    HW113010   6.327   4.405   6.357
 4037SOL    HW213011   6.471   4.455   6.299
 4038SOL     OW13012   6.479   5.227   3.257
 4038SOL    HW113013   6.456   5.320   3.284
 4038SOL    HW213014   6.492   5.170   3.339
 4039SOL     OW13015   4.289   6.008   0.757
 4039SOL    HW113016   4.344   6.002   0.841
 4039SOL    HW213017   4.341   6.053   0.686
 4040SOL     OW13018   3.622   6.220   0.347
 4040SOL    HW113019   3.635   6.187   0.254
 4040SOL    HW213020   3.662   6.155   0.411
 4041SOL     OW13021   1.244   6.980   3.658
 4041SOL    HW113022   1.322   0.017   3.639
 4041SOL    HW213023   1.162   0.012   3.670
 4042SOL     OW13024   6.014   5.423   1.643
 4042SOL    HW113025   5.988   5.511   1.604
 4042SOL    HW213026   5.991   5.350   1.579
 4043SOL     OW13027   6.429   4.079   1.895
 4043SOL    HW113028   6.386   4.151   1.841
 4043SOL    HW213029   6.371   4.056   1.973
 4044SOL     OW13030   6.802   5.455   2.953
 4044SOL    HW113031   6.794   5.387   2.880
 4044SOL    HW213032   6.719   5.510   2.957
 4045SOL     OW13033   2.370   4.518   5.917
 4045SOL    HW113034   2.351   4.443   5.854
 4045SOL    HW213035   2.432   4.583   5.874
 4046SOL     OW13036   0.335   2.920   0.819
 4046SOL    HW113037   0.434   2.931   0.830
 4046SOL    HW213038   0.312   2.922   0.722
 4047SOL     OW13039   3.043   3.947   1.898
 4047SOL    HW113040   3.011   3.897   1.979
 4047SOL    HW213041   3.140   3.969   1.909
 4048SOL     OW13042   4.764   2.307   1.353
 4048SOL    HW113043   4.673   2.306   1.310
 4048SOL    HW213044   4.830   2.266   1.291
 4049SOL     OW13045   0.034   0.744   5.615
 4049SOL    HW113046   0.021   0.835   5.578
 4049SOL    HW213047   7.005   0.736   5.701
 4050SOL     OW13048   2.335   0.525   1.613
 4050SOL    HW113049   2.314   0.428   1.602
 4050SOL    HW213050   2.277   0.565   1.683
 4051SOL     OW13051   1.419   4.129   0.892
 4051SOL    HW113052   1.453   4.168   0.806
 4051SOL    HW213053   1.426   4.198   0.964
 4052SOL     OW13054   1.539   6.335   1.511
 4052SOL    HW113055   1.596   6.342   1.592
 4052SOL    HW213056   1.552   6.415   1.453
 4053SOL     OW13057   3.054   4.867   3.430
 4053SOL    HW113058   3.003   4.953   3.429
 4053SOL    HW213059   3.150   4.885   3.449
 4054SOL     OW13060   5.156   1.523   6.960
 4054SOL    HW113061   5.153   1.547   6.862
 4054SOL    HW213062   5.135   1.426   6.971
 4055SOL     OW13063   4.297   2.541   1.021
 4055SOL    HW113064   4.366   2.554   1.091
 4055SOL    HW213065   4.340   2.510   0.936
 4056SOL     OW13066   3.555   2.687   0.988
 4056SOL    HW113067   3.597   2.598   1.007
 4056SOL    HW213068   3.479   2.702   1.051
 4057SOL     OW13069   6.435   2.055   0.607
 4057SOL    HW113070   6.448   2.130   0.672
 4057SOL    HW213071   6.464   2.084   0.516
 4058SOL     OW13072   1.210   1.440   4.939
 4058SOL    HW113073   1.135   1.498   4.971
 4058SOL    HW213074   1.206   1.431   4.839
 4059SOL     OW13075   6.240   2.316   5.357
 4059SOL    HW113076   6.279   2.234   5.315
 4059SOL    HW213077   6.268   2.320   5.453
 4060SOL     OW13078   3.666   6.031   4.970
 4060SOL    HW113079   3.662   6.131   4.977
 4060SOL    HW213080   3.576   5.996   4.941
 4061SOL     OW13081   2.697   3.127   1.458
 4061SOL    HW113082   2.611   3.144   1.410
 4061SOL    HW213083   2.679   3.082   1.545
 4062SOL     OW13084   3.768   6.353   2.734
 4062SOL    HW113085   3.851   6.405   2.753
 4062SOL    HW213086   3.770   6.267   2.786
 4063SOL     OW13087   2.404   4.852   6.290
 4063SOL    HW113088   2.490   4.873   6.244
 4063SOL    HW213089   2.367   4.766   6.255
 4064SOL     OW13090   5.832   6.778   3.950
 4064SOL    HW113091   5.846   6.704   3.884
 4064SOL    HW213092   5.921   6.804   3.989
 4065SOL     OW13093   0.178   4.801   7.000
 4065SOL    HW113094   0.110   4.761   0.039
 4065SOL    HW213095   0.199   4.894   0.008
 4066SOL     OW13096   6.038   5.476   1.250
 4066SOL    HW113097   5.971   5.529   1.198
 4066SOL    HW213098   5.991   5.425   1.322
 4067SOL     OW13099   5.751   1.320   1.499
 4067SOL    HW113100   5.704   1.370   1.426
 4067SOL    HW213101   5.748   1.222   1.480
 4068SOL     OW13102   5.997   1.647   4.888
 4068SOL    HW113103   6.030   1.603   4.805
 4068SOL    HW213104   5.921   1.708   4.866
 4069SOL     OW13105   0.094   6.264   0.590
 4069SOL    HW113106   0.139   6.313   0.665
 4069SOL    HW213107   0.117   6.308   0.504
 4070SOL     OW13108   0.109   3.744   3.346
 4070SOL    HW113109   0.114   3.778   3.252
 4070SOL    HW213110   0.048   3.665   3.349
 4071SOL     OW13111   2.357   0.675   3.847
 4071SOL    HW113112   2.302   0.712   3.771
 4071SOL    HW213113   2.302   0.609   3.898
 4072SOL     OW13114   0.975   0.176   3.984
 4072SOL    HW113115   1.014   0.183   4.076
 4072SOL    HW213116   0.877   0.192   3.989
 4073SOL     OW13117   2.638   4.925   1.556
 4073SOL    HW113118   2.724   4.976   1.559
 4073SOL    HW213119   2.624   4.878   1.643
 4074SOL     OW13120   0.691   2.864   0.594
 4074SOL    HW113121   0.666   2.867   0.690
 4074SOL    HW213122   0.688   2.769   0.562
 4075SOL     OW13123   5.100   0.151   3.655
 4075SOL    HW113124   5.152   0.167   3.739
 4075SOL    HW213125   5.004   0.134   3.678
 4076SOL     OW13126   2.027   2.167   3.245
 4076SOL    HW113127   1.948   2.113   3.215
 4076SOL    HW213128   1.997   2.244   3.300
 4077SOL     OW13129   3.394   0.935   0.618
 4077SOL    HW113130   3.311   0.966   0.571
 4077SOL    HW213131   3.370   0.860   0.681
 4078SOL     OW13132   4.837   3.868   3.023
 4078SOL    HW113133   4.872   3.842   3.113
 4078SOL    HW213134   4.905   3.926   2.977
 4079SOL     OW13135   6.241   0.342   4.369
 4079SOL    HW113136   6.160   0.357   4.427
 4079SOL    HW213137   6.213   0.342   4.273
 4080SOL     OW13138   3.588   2.938   3.078
 4080SOL    HW113139   3.496   2.919   3.043
 4080SOL    HW213140   3.655   2.923   3.006
 4081SOL     OW13141   2.782   2.465   6.654
 4081SOL    HW113142   2.761   2.368   6.640
 4081SOL    HW213143   2.704   2.510   6.699
 4082SOL     OW13144   1.205   2.144   5.720
 4082SOL    HW113145   1.154   2.079   5.664
 4082SOL    HW213146   1.289   2.171   5.673
 4083SOL     OW13147   6.072   5.398   2.525
 4083SOL    HW113148   6.111   5.412   2.434
 4083SOL    HW213149   6.004   5.325   2.521
 4084SOL     OW13150   4.799   0.444   2.451
 4084SOL    HW113151   4.887   0.464   2.410
 4084SOL    HW213152   4.813   0.385   2.531
 4085SOL     OW13153   2.577   4.598   2.604
 4085SOL    HW113154   2.643   4.622   2.675
 4085SOL    HW213155   2.498   4.553   2.646
 4086SOL     OW13156   5.870   4.809   5.119
 4086SOL    HW113157   5.782   4.852   5.140
 4086SOL    HW213158   5.908   4.768   5.202
 4087SOL     OW13159   2.090   0.709   1.687
 4087SOL    HW113160   2.141   0.720   1.773
 4087SOL    HW213161   1.996   0.743   1.700
 4088SOL     OW13162   0.247   1.972   5.744
 4088SOL    HW113163   0.345   1.955   5.749
 4088SOL    HW213164   0.201   1.893   5.704
 4089SOL     OW13165   1.220   1.178   2.336
 4089SOL    HW113166   1.314   1.210   2.344
 4089SOL    HW213167   1.187   1.149   2.425
 4090SOL     OW13168   2.663   2.677   5.729
 4090SOL    HW113169   2.663   2.593   5.784
 4090SOL    HW213170   2.669   2.653   5.632
 4091SOL     OW13171   3.258   5.927   1.931
 4091SOL    HW113172   3.338   5.884   1.888
 4091SOL    HW213173   3.261   6.026   1.916
 4092SOL     OW13174   5.423   1.954   6.236
 4092SOL    HW113175   5.497   1.995   6.182
 4092SOL    HW213176   5.389   1.873   6.188
 4093SOL     OW13177   5.357   4.060   3.327
 4093SOL    HW113178   5.456   4.045   3.331
 4093SOL    HW213179   5.312   3.973   3.305
 4094SOL     OW13180   6.781   6.692   0.331
 4094SOL    HW113181   6.686   6.687   0.299
 4094SOL    HW213182   6.829   6.763   0.280
 4095SOL     OW13183   1.764   4.999   0.698
 4095SOL    HW113184   1.756   4.970   0.603
 4095SOL    HW213185   1.826   4.938   0.746
 4096SOL     OW13186   0.779   0.451   6.457
 4096SOL    HW113187   0.774   0.411   6.549
 4096SOL    HW213188   0.774   0.378   6.389
 4097SOL     OW13189   0.379   3.720   5.057
 4097SOL    HW113190   0.429   3.653   5.001
 4097SOL    HW213191   0.290   3.681   5.084
 4098SOL     OW13192   1.158   5.769   1.897
 4098SOL    HW113193   1.233   5.806   1.952
 4098SOL    HW213194   1.071   5.811   1.926
 4099SOL     OW13195   6.218   3.308   5.670
 4099SOL    HW113196   6.271   3.376   5.620
 4099SOL    HW213197   6.238   3.217   5.635
 4100SOL     OW13198   2.267   1.270   2.969
 4100SOL    HW113199   2.345   1.219   3.007
 4100SOL    HW213200   2.300   1.352   2.923
 4101SOL     OW13201   6.646   6.020   6.693
 4101SOL    HW113202   6.697   6.076   6.627
 4101SOL    HW213203   6.630   5.930   6.654
 4102SOL     OW13204   1.259   5.694   0.232
 4102SOL    HW113205   1.355   5.714   0.249
 4102SOL    HW213206   1.250   5.649   0.143
 4103SOL     OW13207   2.296   5.832   2.854
 4103SOL    HW113208   2.366   5.816   2.924
 4103SOL    HW213209   2.258   5.745   2.823
 4104SOL     OW13210   1.796   5.984   5.269
 4104SOL    HW113211   1.737   5.953   5.343
 4104SOL    HW213212   1.750   6.056   5.217
 4105SOL     OW13213   4.329   7.017   2.245
 4105SOL    HW113214   4.317   6.981   2.153
 4105SOL    HW213215   4.420   6.994   2.279
 4106SOL     OW13216   1.523   6.760   1.905
 4106SOL    HW113217   1.451   6.735   1.969
 4106SOL    HW213218   1.610   6.767   1.953
 4107SOL     OW13219   1.652   0.749   0.884
 4107SOL    HW113220   1.726   0.703   0.934
 4107SOL    HW213221   1.671   0.847   0.879
 4108SOL     OW13222   6.366   6.132   5.719
 4108SOL    HW113223   6.324   6.050   5.756
 4108SOL    HW213224   6.427   6.107   5.644
 4109SOL     OW13225   5.214   6.196   4.587
 4109SOL    HW113226   5.296   6.140   4.588
 4109SOL    HW213227   5.163   6.183   4.672
 4110SOL     OW13228   4.701   2.792   0.330
 4110SOL    HW113229   4.798   2.800   0.354
 4110SOL    HW213230   4.655   2.879   0.349
 4111SOL     OW13231   5.973   5.008   4.109
 4111SOL    HW113232   5.947   4.919   4.072
 4111SOL    HW213233   5.981   5.074   4.034
 4112SOL     OW13234   4.491   5.832   4.234
 4112SOL    HW113235   4.455   5.878   4.152
 4112SOL    HW213236   4.422   5.768   4.268
 4113SOL     OW13237   4.444   5.310   4.712
 4113SOL    HW113238   4.418   5.333   4.805
 4113SOL    HW213239   4.539   5.338   4.695
 4114SOL     OW13240   0.152   1.172   1.568
 4114SOL    HW113241   0.080   1.241   1.563
 4114SOL    HW213242   0.225   1.204   1.628
 4115SOL     OW13243   4.232   5.627   3.440
 4115SOL    HW113244   4.168   5.671   3.376
 4115SOL    HW213245   4.270   5.695   3.502
 4116SOL     OW13246   5.765   3.217   3.619
 4116SOL    HW113247   5.665   3.214   3.619
 4116SOL    HW213248   5.799   3.213   3.712
 4117SOL     OW13249   0.595   1.106   3.343
 4117SOL    HW113250   0.650   1.104   3.426
 4117SOL    HW213251   0.544   1.192   3.339
 4118SOL     OW13252   1.137   0.053   1.135
 4118SOL    HW113253   1.102   0.141   1.104
 4118SOL    HW213254   1.061   7.012   1.148
 4119SOL     OW13255   6.642   0.617   4.336
 4119SOL    HW113256   6.624   0.622   4.238
 4119SOL    HW213257   6.576   0.556   4.379
 4120SOL     OW13258   2.481   0.606   5.987
 4120SOL    HW113259   2.504   0.595   6.084
 4120SOL    HW213260   2.385   0.636   5.980
 4121SOL     OW13261   6.724   1.081   2.259
 4121SOL    HW113262   6.703   0.989   2.226
 4121SOL    HW213263   6.656   1.146   2.226
 4122SOL     OW13264   0.886   5.353   3.372
 4122SOL    HW113265   0.904   5.436   3.424
 4122SOL    HW213266   0.968   5.327   3.321
 4123SOL     OW13267   5.444   4.123   1.315
 4123SOL    HW113268   5.373   4.187   1.283
 4123SOL    HW213269   5.415   4.029   1.295
 4124SOL     OW13270   6.438   6.794   0.156
 4124SOL    HW113271   6.499   6.813   0.233
 4124SOL    HW213272   6.347   6.771   0.190
 4125SOL     OW13273   6.869   2.777   0.173
 4125SOL    HW113274   6.820   2.715   0.234
 4125SOL    HW213275   6.822   2.866   0.171
 4126SOL     OW13276   1.241   3.852   4.180
 4126SOL    HW113277   1.338   3.874   4.194
 4126SOL    HW213278   1.229   3.753   4.185
 4127SOL     OW13279   5.458   2.513   4.044
 4127SOL    HW113280   5.406   2.436   4.006
 4127SOL    HW213281   5.395   2.583   4.077
 4128SOL     OW13282   6.725   2.663   6.572
 4128SOL    HW113283   6.632   2.678   6.605
 4128SOL    HW213284   6.786   2.647   6.650
 4129SOL     OW13285   2.925   1.327   1.069
 4129SOL    HW113286   2.864   1.280   1.005
 4129SOL    HW213287   3.020   1.307   1.044
 4130SOL     OW13288   5.792   2.507   0.328
 4130SOL    HW113289   5.739   2.539   0.407
 4130SOL    HW213290   5.818   2.411   0.342
 4131SOL     OW13291   4.414   6.492   3.311
 4131SOL    HW113292   4.394   6.438   3.393
 4131SOL    HW213293   4.509   6.479   3.284
 4132SOL     OW13294   6.664   4.754   3.288
 4132SOL    HW113295   6.626   4.665   3.262
 4132SOL    HW213296   6.681   4.808   3.206
 4133SOL     OW13297   5.454   6.217   2.707
 4133SOL    HW113298   5.460   6.308   2.749
 4133SOL    HW213299   5.539   6.167   2.724
 4134SOL     OW13300   1.857   3.399   1.260
 4134SOL    HW113301   1.831   3.401   1.164
 4134SOL    HW213302   1.830   3.484   1.304
 4135SOL     OW13303   5.843   1.155   1.003
 4135SOL    HW113304   5.760   1.100   0.994
 4135SOL    HW213305   5.820   1.252   0.995
 4136SOL     OW13306   0.505   4.603   0.879
 4136SOL    HW113307   0.426   4.616   0.938
 4136SOL    HW213308   0.504   4.670   0.805
 4137SOL     OW13309   0.177   3.070   6.265
 4137SOL    HW113310   0.277   3.076   6.262
 4137SOL    HW213311   0.148   3.043   6.357
 4138SOL     OW13312   4.570   6.959   6.406
 4138SOL    HW113313   4.625   6.937   6.486
 4138SOL    HW213314   4.630   6.984   6.330
 4139SOL     OW13315   1.931   4.215   2.665
 4139SOL    HW113316   1.978   4.234   2.579
 4139SOL    HW213317   1.935   4.296   2.723
 4140SOL     OW13318   2.168   0.106   6.608
 4140SOL    HW113319   2.102   0.179   6.627
 4140SOL    HW213320   2.124   0.037   6.549
 4141SOL     OW13321   5.052   1.500   6.003
 4141SOL    HW113322   4.953   1.515   6.007
 4141SOL    HW213323   5.086   1.476   6.095
 4142SOL     OW13324   6.405   5.353   1.254
 4142SOL    HW113325   6.329   5.367   1.190
 4142SOL    HW213326   6.491   5.355   1.204
 4143SOL     OW13327   6.067   3.881   6.678
 4143SOL    HW113328   6.019   3.802   6.716
 4143SOL    HW213329   6.142   3.907   6.740
 4144SOL     OW13330   4.283   1.059   1.477
 4144SOL    HW113331   4.375   1.059   1.517
 4144SOL    HW213332   4.220   1.107   1.538
 4145SOL     OW13333   5.737   0.147   1.584
 4145SOL    HW113334   5.699   0.093   1.510
 4145SOL    HW213335   5.833   0.168   1.565
 4146SOL     OW13336   4.458   0.030   1.484
 4146SOL    HW113337   4.397   7.001   1.425
 4146SOL    HW213338   4.456   0.127   1.458
 4147SOL     OW13339   4.980   5.099   0.092
 4147SOL    HW113340   4.888   5.080   0.057
 4147SOL    HW213341   4.989   5.196   0.112
 4148SOL     OW13342   2.967   1.584   5.917
 4148SOL    HW113343   2.874   1.577   5.881
 4148SOL    HW213344   2.974   1.532   6.003
 4149SOL     OW13345   1.428   3.650   6.494
 4149SOL    HW113346   1.484   3.725   6.529
 4149SOL    HW213347   1.382   3.680   6.410
 4150SOL     OW13348   5.352   1.362   0.358
 4150SOL    HW113349   5.289   1.395   0.288
 4150SOL    HW213350   5.321   1.392   0.448
 4151SOL     OW13351   2.503   6.053   4.770
 4151SOL    HW113352   2.554   6.009   4.844
 4151SOL    HW213353   2.528   6.149   4.764
 4152SOL     OW13354   2.641   4.040   1.320
 4152SOL    HW113355   2.660   4.136   1.341
 4152SOL    HW213356   2.662   4.022   1.223
 4153SOL     OW13357   6.848   5.890   2.056
 4153SOL    HW113358   6.882   5.984   2.050
 4153SOL    HW213359   6.819   5.870   2.149
 4154SOL     OW13360   0.388   6.689   3.805
 4154SOL    HW113361   0.420   6.774   3.847
 4154SOL    HW213362   0.467   6.637   3.773
 4155SOL     OW13363   6.627   0.619   2.033
 4155SOL    HW113364   6.569   0.577   1.963
 4155SOL    HW213365   6.714   0.570   2.038
 4156SOL     OW13366   0.208   5.133   5.210
 4156SOL    HW113367   0.192   5.053   5.152
 4156SOL    HW213368   0.146   5.130   5.289
 4157SOL     OW13369   5.507   6.221   0.763
 4157SOL    HW113370   5.487   6.216   0.665
 4157SOL    HW213371   5.445   6.160   0.813
 4158SOL     OW13372   0.625   2.935   0.889
 4158SOL    HW113373   0.588   2.981   0.970
 4158SOL    HW213374   0.685   2.860   0.918
 4159SOL     OW13375   3.109   0.806   4.347
 4159SOL    HW113376   3.160   0.827   4.429
 4159SOL    HW213377   3.012   0.826   4.362
 4160SOL     OW13378   1.325   6.196   6.037
 4160SOL    HW113379   1.265   6.267   5.999
 4160SOL    HW213380   1.385   6.161   5.965
 4161SOL     OW13381   3.177   3.375   3.162
 4161SOL    HW113382   3.087   3.353   3.124
 4161SOL    HW213383   3.168   3.451   3.226
 4162SOL     OW13384   5.410   5.585   1.335
 4162SOL    HW113385   5.440   5.619   1.246
 4162SOL    HW213386   5.324   5.628   1.360
 4163SOL     OW13387   3.823   5.729   1.661
 4163SOL    HW113388   3.767   5.746   1.580
 4163SOL    HW213389   3.870   5.813   1.687
 4164SOL     OW13390   5.403   1.557   6.584
 4164SOL    HW113391   5.474   1.488   6.602
 4164SOL    HW213392   5.444   1.648   6.593
 4165SOL     OW13393   3.634   1.450   4.335
 4165SOL    HW113394   3.642   1.351   4.343
 4165SOL    HW213395   3.553   1.473   4.280
 4166SOL     OW13396   6.654   1.942   1.485
 4166SOL    HW113397   6.629   1.849   1.456
 4166SOL    HW213398   6.641   2.005   1.409
 4167SOL     OW13399   3.911   5.088   4.429
 4167SOL    HW113400   3.876   5.028   4.501
 4167SOL    HW213401   3.971   5.157   4.468
 4168SOL     OW13402   5.565   4.100   0.229
 4168SOL    HW113403   5.532   4.065   0.142
 4168SOL    HW213404   5.488   4.118   0.290
 4169SOL     OW13405   5.237   3.228   6.753
 4169SOL    HW113406   5.324   3.228   6.702
 4169SOL    HW213407   5.163   3.203   6.691
 4170SOL     OW13408   1.032   2.654   5.671
 4170SOL    HW113409   0.978   2.664   5.755
 4170SOL    HW213410   1.072   2.742   5.647
 4171SOL     OW13411   0.280   1.719   6.304
 4171SOL    HW113412   0.334   1.785   6.357
 4171SOL    HW213413   0.324   1.630   6.307
 4172SOL     OW13414   2.586   2.571   6.799
 4172SOL    HW113415   2.509   2.541   6.743
 4172SOL    HW213416   2.560   2.652   6.852
 4173SOL     OW13417   4.462   1.610   5.779
 4173SOL    HW113418   4.486   1.707   5.790
 4173SOL    HW213419   4.426   1.575   5.866
 4174SOL     OW13420   4.238   6.283   3.869
 4174SOL    HW113421   4.169   6.281   3.796
 4174SOL    HW213422   4.318   6.333   3.837
 4175SOL     OW13423   1.618   4.792   6.187
 4175SOL    HW113424   1.567   4.721   6.138
 4175SOL    HW213425   1.583   4.882   6.161
 4176SOL     OW13426   5.200   6.720   5.854
 4176SOL    HW113427   5.289   6.740   5.813
 4176SOL    HW213428   5.161   6.804   5.892
 4177SOL     OW13429   4.298   4.840   2.914
 4177SOL    HW113430   4.373   4.784   2.948
 4177SOL    HW213431   4.247   4.878   2.992
 4178SOL     OW13432   3.987   6.452   1.397
 4178SOL    HW113433   3.919   6.379   1.396
 4178SOL    HW213434   4.079   6.412   1.397
 4179SOL     OW13435   4.171   2.397   6.943
 4179SOL    HW113436   4.261   2.389   6.900
 4179SOL    HW213437   4.122   2.475   6.904
 4180SOL     OW13438   4.127   3.894   0.157
 4180SOL    HW113439   4.165   3.834   0.087
 4180SOL    HW213440   4.106   3.842   0.239
 4181SOL     OW13441   5.811   6.640   5.933
 4181SOL    HW113442   5.719   6.647   5.973
 4181SOL    HW213443   5.879   6.662   6.003
 4182SOL     OW13444   1.182   5.790   5.057
 4182SOL    HW113445   1.250   5.774   5.128
 4182SOL    HW213446   1.106   5.727   5.069
 4183SOL     OW13447   4.592   1.791   0.673
 4183SOL    HW113448   4.604   1.830   0.765
 4183SOL    HW213449   4.602   1.691   0.678
 4184SOL     OW13450   3.618   5.688   3.290
 4184SOL    HW113451   3.675   5.770   3.285
 4184SOL    HW213452   3.614   5.656   3.385
 4185SOL     OW13453   4.744   4.083   3.361
 4185SOL    HW113454   4.704   4.174   3.362
 4185SOL    HW213455   4.707   4.031   3.283
 4186SOL     OW13456   1.971   5.887   0.274
 4186SOL    HW113457   1.911   5.963   0.249
 4186SOL    HW213458   2.050   5.885   0.213
 4187SOL     OW13459   2.389   3.695   5.815
 4187SOL    HW113460   2.469   3.635   5.808
 4187SOL    HW213461   2.371   3.737   5.727
 4188SOL     OW13462   4.373   6.972   6.699
 4188SOL    HW113463   4.303   0.015   6.726
 4188SOL    HW213464   4.343   6.924   6.616
 4189SOL     OW13465   4.530   4.735   3.604
 4189SOL    HW113466   4.580   4.794   3.540
 4189SOL    HW213467   4.556   4.759   3.698
 4190SOL     OW13468   5.965   6.588   1.615
 4190SOL    HW113469   5.950   6.653   1.540
 4190SOL    HW213470   6.003   6.637   1.694
 4191SOL     OW13471   4.244   3.270   6.766
 4191SOL    HW113472   4.157   3.224   6.783
 4191SOL    HW213473   4.237   3.367   6.788
 4192SOL     OW13474   1.615   3.743   6.752
 4192SOL    HW113475   1.611   3.824   6.694
 4192SOL    HW213476   1.659   3.668   6.701
 4193SOL     OW13477   0.233   0.112   0.012
 4193SOL    HW113478   0.145   0.065   0.017
 4193SOL    HW213479   0.295   0.060   6.976
 4194SOL     OW13480   4.889   1.755   5.682
 4194SOL    HW113481   4.943   1.679   5.646
 4194SOL    HW213482   4.825   1.787   5.612
 4195SOL     OW13483   3.131   6.873   1.174
 4195SOL    HW113484   3.205   6.860   1.107
 4195SOL    HW213485   3.104   6.970   1.175
 4196SOL     OW13486   6.456   2.921   2.597
 4196SOL    HW113487   6.380   2.944   2.537
 4196SOL    HW213488   6.432   2.840   2.652
 4197SOL     OW13489   3.101   0.914   6.894
 4197SOL    HW113490   3.062   0.944   6.981
 4197SOL    HW213491   3.029   0.873   6.838
 4198SOL     OW13492   5.866   2.564   1.800
 4198SOL    HW113493   5.950   2.536   1.846
 4198SOL    HW213494   5.799   2.491   1.807
 4199SOL     OW13495   0.015   3.647   6.571
 4199SOL    HW113496   0.072   3.565   6.577
 4199SOL    HW213497   0.001   3.672   6.475
 4200SOL     OW13498   4.728   2.064   4.004
 4200SOL    HW113499   4.681   2.003   4.068
 4200SOL    HW213500   4.668   2.084   3.927
 4201SOL     OW13501   5.963   6.907   4.464
 4201SOL    HW113502   5.927   6.876   4.552
 4201SOL    HW213503   6.026   6.838   4.428
 4202SOL     OW13504   4.682   3.936   1.724
 4202SOL    HW113505   4.658   4.031   1.743
 4202SOL    HW213506   4.606   3.891   1.678
 4203SOL     OW13507   6.063   4.518   5.570
 4203SOL    HW113508   6.003   4.514   5.650
 4203SOL    HW213509   6.144   4.574   5.592
 4204SOL     OW13510   1.787   4.172   6.651
 4204SOL    HW113511   1.751   4.264   6.668
 4204SOL    HW213512   1.739   4.131   6.574
 4205SOL     OW13513   4.416   6.610   6.502
 4205SOL    HW113514   4.510   6.606   6.534
 4205SOL    HW213515   4.399   6.534   6.438
 4206SOL     OW13516   2.101   2.034   3.957
 4206SOL    HW113517   2.012   2.070   3.982
 4206SOL    HW213518   2.131   1.968   4.026
 4207SOL     OW13519   0.717   2.596   2.973
 4207SOL    HW113520   0.617   2.598   2.977
 4207SOL    HW213521   0.752   2.532   3.041
 4208SOL     OW13522   2.030   2.149   3.714
 4208SOL    HW113523   2.056   2.098   3.796
 4208SOL    HW213524   2.059   2.244   3.723
 4209SOL     OW13525   6.935   6.154   2.081
 4209SOL    HW113526   7.018   6.198   2.116
 4209SOL    HW213527   6.899   6.206   2.004
 4210SOL     OW13528   2.938   4.263   5.274
 4210SOL    HW113529   2.951   4.353   5.232
 4210SOL    HW213530   2.928   4.194   5.203
 4211SOL     OW13531   3.616   2.756   5.315
 4211SOL    HW113532   3.665   2.842   5.302
 4211SOL    HW213533   3.681   2.679   5.307
 4212SOL     OW13534   0.031   2.119   2.955
 4212SOL    HW113535   7.013   2.094   2.867
 4212SOL    HW213536   0.043   2.218   2.959
 4213SOL     OW13537   3.579   0.153   3.636
 4213SOL    HW113538   3.614   0.113   3.551
 4213SOL    HW213539   3.527   0.236   3.615
 4214SOL     OW13540   6.905   5.728   3.205
 4214SOL    HW113541   6.850   5.680   3.273
 4214SOL    HW213542   6.850   5.799   3.161
 4215SOL     OW13543   5.832   6.779   5.682
 4215SOL    HW113544   5.811   6.725   5.601
 4215SOL    HW213545   5.814   6.725   5.764
 4216SOL     OW13546   2.866   5.425   2.009
 4216SOL    HW113547   2.886   5.328   1.999
 4216SOL    HW213548   2.829   5.460   1.923
 4217SOL     OW13549   1.020   0.135   3.207
 4217SOL    HW113550   1.073   0.079   3.271
 4217SOL    HW213551   1.082   0.174   3.139
 4218SOL     OW13552   2.276   0.819   1.499
 4218SOL    HW113553   2.224   0.750   1.549
 4218SOL    HW213554   2.346   0.775   1.443
 4219SOL     OW13555   3.747   5.278   3.222
 4219SOL    HW113556   3.742   5.360   3.166
 4219SOL    HW213557   3.721   5.301   3.316
 4220SOL     OW13558   5.653   1.690   1.149
 4220SOL    HW113559   5.651   1.777   1.198
 4220SOL    HW213560   5.729   1.634   1.183
 4221SOL     OW13561   0.832   6.204   0.910
 4221SOL    HW113562   0.911   6.263   0.897
 4221SOL    HW213563   0.846   6.146   0.990
 4222SOL     OW13564   4.902   3.321   4.234
 4222SOL    HW113565   4.853   3.330   4.320
 4222SOL    HW213566   5.000   3.328   4.250
 4223SOL     OW13567   3.581   3.644   2.717
 4223SOL    HW113568   3.623   3.642   2.808
 4223SOL    HW213569   3.653   3.647   2.648
 4224SOL     OW13570   4.764   4.891   4.492
 4224SOL    HW113571   4.857   4.853   4.493
 4224SOL    HW213572   4.746   4.932   4.403
 4225SOL     OW13573   1.139   1.762   5.916
 4225SOL    HW113574   1.128   1.751   5.817
 4225SOL    HW213575   1.233   1.742   5.942
 4226SOL     OW13576   0.629   5.366   4.974
 4226SOL    HW113577   0.720   5.338   4.944
 4226SOL    HW213578   0.636   5.421   5.057
 4227SOL     OW13579   5.090   5.323   2.030
 4227SOL    HW113580   5.096   5.312   2.129
 4227SOL    HW213581   5.077   5.233   1.987
 4228SOL     OW13582   1.703   4.657   4.216
 4228SOL    HW113583   1.699   4.756   4.203
 4228SOL    HW213584   1.721   4.612   4.129
 4229SOL     OW13585   5.712   5.528   5.362
 4229SOL    HW113586   5.696   5.501   5.457
 4229SOL    HW213587   5.775   5.462   5.319
 4230SOL     OW13588   6.874   1.060   1.838
 4230SOL    HW113589   6.958   1.085   1.886
 4230SOL    HW213590   6.887   0.971   1.793
 4231SOL     OW13591   0.201   1.404   6.254
 4231SOL    HW113592   0.161   1.359   6.334
 4231SOL    HW213593   0.299   1.416   6.267
 4232SOL     OW13594   1.571   4.925   3.990
 4232SOL    HW113595   1.525   4.836   3.980
 4232SOL    HW213596   1.632   4.939   3.913
 4233SOL     OW13597   4.813   5.531   2.084
 4233SOL    HW113598   4.758   5.492   2.157
 4233SOL    HW213599   4.892   5.472   2.066
 4234SOL     OW13600   3.473   5.084   5.402
 4234SOL    HW113601   3.526   5.168   5.390
 4234SOL    HW213602   3.523   5.006   5.364
 4235SOL     OW13603   0.009   5.945   6.031
 4235SOL    HW113604   0.074   5.987   5.968
 4235SOL    HW213605   0.030   5.973   6.125
 4236SOL     OW13606   0.784   5.580   3.094
 4236SOL    HW113607   0.739   5.493   3.072
 4236SOL    HW213608   0.749   5.615   3.181
 4237SOL     OW13609   0.297   4.506   4.346
 4237SOL    HW113610   0.260   4.576   4.285
 4237SOL    HW213611   0.229   4.434   4.360
 4238SOL     OW13612   3.540   6.490   2.102
 4238SOL    HW113613   3.612   6.424   2.082
 4238SOL    HW213614   3.462   6.442   2.144
 4239SOL     OW13615   4.175   1.457   3.862
 4239SOL    HW113616   4.173   1.363   3.897
 4239SOL    HW213617   4.269   1.482   3.839
 4240SOL     OW13618   5.692   6.622   1.798
 4240SOL    HW113619   5.689   6.532   1.754
 4240SOL    HW213620   5.745   6.617   1.882
 4241SOL     OW13621   6.509   4.114   0.533
 4241SOL    HW113622   6.470   4.087   0.621
 4241SOL    HW213623   6.437   4.155   0.476
 4242SOL     OW13624   3.253   2.105   3.237
 4242SOL    HW113625   3.340   2.108   3.284
 4242SOL    HW213626   3.182   2.149   3.293
 4243SOL     OW13627   4.602   1.390   3.243
 4243SOL    HW113628   4.570   1.477   3.204
 4243SOL    HW213629   4.613   1.323   3.169
 4244SOL     OW13630   3.272   2.948   4.754
 4244SOL    HW113631   3.365   2.931   4.722
 4244SOL    HW213632   3.219   2.991   4.681
 4245SOL     OW13633   5.771   0.338   0.034
 4245SOL    HW113634   5.689   0.357   7.003
 4245SOL    HW213635   5.753   0.354   0.130
 4246SOL     OW13636   7.020   3.726   6.998
 4246SOL    HW113637   6.981   3.684   6.916
 4246SOL    HW213638   0.089   3.690   7.014
 4247SOL     OW13639   0.712   5.702   4.956
 4247SOL    HW113640   0.614   5.710   4.935
 4247SOL    HW213641   0.756   5.791   4.946
 4248SOL     OW13642   2.169   4.224   5.845
 4248SOL    HW113643   2.153   4.259   5.937
 4248SOL    HW213644   2.268   4.221   5.827
 4249SOL     OW13645   5.251   4.404   5.633
 4249SOL    HW113646   5.349   4.399   5.653
 4249SOL    HW213647   5.200   4.413   5.718
 4250SOL     OW13648   1.352   4.727   2.916
 4250SOL    HW113649   1.364   4.720   3.015
 4250SOL    HW213650   1.282   4.663   2.886
 4251SOL     OW13651   5.389   4.153   0.456
 4251SOL    HW113652   5.453   4.229   0.466
 4251SOL    HW213653   5.372   4.112   0.546
 4252SOL     OW13654   0.419   5.594   5.236
 4252SOL    HW113655   0.419   5.495   5.226
 4252SOL    HW213656   0.512   5.625   5.257
 4253SOL     OW13657   4.106   6.581   2.957
 4253SOL    HW113658   4.022   6.554   3.004
 4253SOL    HW213659   4.114   6.530   2.871
 4254SOL     OW13660   2.927   4.214   1.463
 4254SOL    HW113661   2.928   4.119   1.492
 4254SOL    HW213662   2.832   4.246   1.455
 4255SOL     OW13663   0.742   2.360   4.564
 4255SOL    HW113664   0.829   2.324   4.529
 4255SOL    HW213665   0.760   2.418   4.644
 4256SOL     OW13666   1.950   1.072   1.750
 4256SOL    HW113667   1.974   1.119   1.835
 4256SOL    HW213668   2.006   1.107   1.675
 4257SOL     OW13669   4.159   2.226   4.498
 4257SOL    HW113670   4.213   2.300   4.537
 4257SOL    HW213671   4.136   2.248   4.403
 4258SOL     OW13672   5.280   6.472   2.408
 4258SOL    HW113673   5.361   6.521   2.373
 4258SOL    HW213674   5.297   6.442   2.502
 4259SOL     OW13675   1.522   2.746   0.731
 4259SOL    HW113676   1.521   2.804   0.650
 4259SOL    HW213677   1.581   2.787   0.801
 4260SOL     OW13678   4.022   5.844   3.517
 4260SOL    HW113679   3.971   5.759   3.525
 4260SOL    HW213680   3.978   5.915   3.571
 4261SOL     OW13681   1.722   1.563   3.114
 4261SOL    HW113682   1.758   1.633   3.175
 4261SOL    HW213683   1.626   1.545   3.136
 4262SOL     OW13684   0.324   6.244   6.274
 4262SOL    HW113685   0.253   6.174   6.265
 4262SOL    HW213686   0.408   6.213   6.231
 4263SOL     OW13687   4.047   5.216   6.309
 4263SOL    HW113688   4.035   5.314   6.296
 4263SOL    HW213689   4.088   5.176   6.226
 4264SOL     OW13690   0.116   0.286   0.667
 4264SOL    HW113691   0.170   0.317   0.588
 4264SOL    HW213692   0.106   0.187   0.664
 4265SOL     OW13693   0.600   2.607   0.184
 4265SOL    HW113694   0.683   2.553   0.166
 4265SOL    HW213695   0.625   2.703   0.194
 4266SOL     OW13696   3.242   4.324   1.252
 4266SOL    HW113697   3.164   4.383   1.271
 4266SOL    HW213698   3.321   4.380   1.227
 4267SOL     OW13699   2.137   4.329   6.094
 4267SOL    HW113700   2.057   4.369   6.050
 4267SOL    HW213701   2.152   4.374   6.182
 4268SOL     OW13702   1.585   0.903   0.447
 4268SOL    HW113703   1.600   0.967   0.521
 4268SOL    HW213704   1.656   0.833   0.449
 4269SOL     OW13705   2.735   3.784   0.576
 4269SOL    HW113706   2.739   3.873   0.621
 4269SOL    HW213707   2.721   3.712   0.645
 4270SOL     OW13708   4.024   2.589   5.818
 4270SOL    HW113709   4.096   2.633   5.765
 4270SOL    HW213710   3.951   2.654   5.837
 4271SOL     OW13711   1.388   0.196   0.185
 4271SOL    HW113712   1.378   0.182   0.087
 4271SOL    HW213713   1.310   0.248   0.220
 4272SOL     OW13714   6.946   4.418   3.461
 4272SOL    HW113715   7.002   4.490   3.502
 4272SOL    HW213716   6.851   4.431   3.487
 4273SOL     OW13717   5.464   6.042   4.540
 4273SOL    HW113718   5.483   6.036   4.638
 4273SOL    HW213719   5.480   5.954   4.497
 4274SOL     OW13720   1.847   0.485   4.113
 4274SOL    HW113721   1.888   0.394   4.113
 4274SOL    HW213722   1.888   0.541   4.185
 4275SOL     OW13723   1.576   6.739   6.292
 4275SOL    HW113724   1.572   6.641   6.273
 4275SOL    HW213725   1.540   6.757   6.384
 4276SOL     OW13726   1.899   4.668   2.618
 4276SOL    HW113727   1.906   4.589   2.679
 4276SOL    HW213728   1.988   4.713   2.611
 4277SOL     OW13729   0.772   5.387   4.572
 4277SOL    HW113730   0.842   5.440   4.524
 4277SOL    HW213731   0.733   5.318   4.510
 4278SOL     OW13732   0.798   6.451   5.453
 4278SOL    HW113733   0.803   6.362   5.499
 4278SOL    HW213734   0.831   6.442   5.360
 4279SOL     OW13735   3.209   5.673   4.212
 4279SOL    HW113736   3.145   5.640   4.281
 4279SOL    HW213737   3.295   5.621   4.219
 4280SOL     OW13738   4.889   3.557   3.668
 4280SOL    HW113739   4.893   3.465   3.629
 4280SOL    HW213740   4.891   3.624   3.594
 4281SOL     OW13741   2.652   3.749   5.296
 4281SOL    HW113742   2.715   3.809   5.346
 4281SOL    HW213743   2.575   3.802   5.261
 4282SOL     OW13744   0.737   3.247   1.118
 4282SOL    HW113745   0.825   3.206   1.141
 4282SOL    HW213746   0.741   3.345   1.134
 4283SOL     OW13747   2.134   0.540   4.300
 4283SOL    HW113748   2.196   0.525   4.223
 4283SOL    HW213749   2.125   0.638   4.318
 4284SOL     OW13750   6.242   1.675   3.174
 4284SOL    HW113751   6.189   1.593   3.152
 4284SOL    HW213752   6.188   1.756   3.151
 4285SOL     OW13753   1.002   6.512   4.943
 4285SOL    HW113754   1.101   6.502   4.934
 4285SOL    HW213755   0.957   6.478   4.861
 4286SOL     OW13756   5.587   5.624   6.950
 4286SOL    HW113757   5.649   5.644   6.874
 4286SOL    HW213758   5.584   5.526   6.967
 4287SOL     OW13759   3.937   6.308   5.065
 4287SOL    HW113760   3.981   6.374   5.127
 4287SOL    HW213761   3.906   6.356   4.983
 4288SOL     OW13762   1.609   6.557   2.844
 4288SOL    HW113763   1.659   6.643   2.855
 4288SOL    HW213764   1.640   6.491   2.913
 4289SOL     OW13765   6.209   3.557   0.592
 4289SOL    HW113766   6.236   3.465   0.566
 4289SOL    HW213767   6.171   3.555   0.685
 4290SOL     OW13768   2.324   1.289   2.660
 4290SOL    HW113769   2.366   1.198   2.658
 4290SOL    HW213770   2.372   1.350   2.597
 4291SOL     OW13771   6.185   4.606   1.233
 4291SOL    HW113772   6.259   4.551   1.272
 4291SOL    HW213773   6.211   4.638   1.142
 4292SOL     OW13774   6.056   5.993   5.836
 4292SOL    HW113775   6.021   5.975   5.928
 4292SOL    HW213776   6.139   5.940   5.820
 4293SOL     OW13777   0.366   2.435   6.480
 4293SOL    HW113778   0.390   2.363   6.545
 4293SOL    HW213779   0.446   2.459   6.425
 4294SOL     OW13780   5.153   2.467   6.282
 4294SOL    HW113781   5.128   2.528   6.207
 4294SOL    HW213782   5.192   2.383   6.245
 4295SOL     OW13783   3.886   6.460   4.862
 4295SOL    HW113784   3.951   6.410   4.805
 4295SOL    HW213785   3.860   6.545   4.816
 4296SOL     OW13786   2.417   1.041   1.772
 4296SOL    HW113787   2.347   1.076   1.836
 4296SOL    HW213788   2.501   1.093   1.785
 4297SOL     OW13789   5.696   0.738   6.599
 4297SOL    HW113790   5.702   0.639   6.606
 4297SOL    HW213791   5.787   0.778   6.611
 4298SOL     OW13792   2.958   5.132   1.183
 4298SOL    HW113793   2.907   5.192   1.245
 4298SOL    HW213794   3.017   5.072   1.237
 4299SOL     OW13795   0.971   4.025   6.387
 4299SOL    HW113796   1.028   3.966   6.443
 4299SOL    HW213797   1.023   4.059   6.309
 4300SOL     OW13798   5.754   0.080   6.111
 4300SOL    HW113799   5.684   0.030   6.163
 4300SOL    HW213800   5.821   0.016   6.075
 4301SOL     OW13801   2.641   1.473   0.499
 4301SOL    HW113802   2.585   1.554   0.519
 4301SOL    HW213803   2.705   1.494   0.426
 4302SOL     OW13804   0.965   6.465   6.775
 4302SOL    HW113805   1.044   6.441   6.832
 4302SOL    HW213806   0.904   6.524   6.827
 4303SOL     OW13807   6.770   4.283   1.935
 4303SOL    HW113808   6.825   4.366   1.947
 4303SOL    HW213809   6.779   4.251   1.841
 4304SOL     OW13810   3.312   2.891   5.016
 4304SOL    HW113811   3.404   2.924   5.036
 4304SOL    HW213812   3.293   2.902   4.918
 4305SOL     OW13813   6.233   1.077   4.927
 4305SOL    HW113814   6.323   1.037   4.944
 4305SOL    HW213815   6.194   1.108   5.014
 4306SOL     OW13816   6.257   6.162   6.804
 4306SOL    HW113817   6.328   6.227   6.774
 4306SOL    HW213818   6.298   6.095   6.865
 4307SOL     OW13819   5.093   3.471   6.844
 4307SOL    HW113820   5.039   3.408   6.900
 4307SOL    HW213821   5.150   3.418   6.781
 4308SOL     OW13822   4.172   6.946   5.068
 4308SOL    HW113823   4.132   6.973   5.156
 4308SOL    HW213824   4.238   6.872   5.082
 4309SOL     OW13825   1.346   0.974   0.725
 4309SOL    HW113826   1.264   1.032   0.732
 4309SOL    HW213827   1.353   0.916   0.806
 4310SOL     OW13828   1.534   1.027   2.679
 4310SOL    HW113829   1.477   0.977   2.614
 4310SOL    HW213830   1.479   1.098   2.723
 4311SOL     OW13831   1.534   5.901   4.289
 4311SOL    HW113832   1.602   5.842   4.245
 4311SOL    HW213833   1.444   5.858   4.284
 4312SOL     OW13834   1.410   5.115   1.525
 4312SOL    HW113835   1.320   5.095   1.486
 4312SOL    HW213836   1.406   5.104   1.625
 4313SOL     OW13837   4.987   0.296   1.706
 4313SOL    HW113838   5.041   0.334   1.781
 4313SOL    HW213839   4.891   0.323   1.718
 4314SOL     OW13840   5.372   3.438   3.049
 4314SOL    HW113841   5.282   3.473   3.023
 4314SOL    HW213842   5.368   3.404   3.143
 4315SOL     OW13843   2.285   1.665   1.876
 4315SOL    HW113844   2.232   1.651   1.960
 4315SOL    HW213845   2.241   1.735   1.820
 4316SOL     OW13846   0.518   0.477   2.252
 4316SOL    HW113847   0.516   0.419   2.334
 4316SOL    HW213848   0.425   0.504   2.228
 4317SOL     OW13849   4.206   0.314   3.525
 4317SOL    HW113850   4.252   0.348   3.608
 4317SOL    HW213851   4.227   0.217   3.512
 4318SOL     OW13852   7.002   3.392   4.151
 4318SOL    HW113853   6.945   3.400   4.069
 4318SOL    HW213854   6.971   3.314   4.205
 4319SOL     OW13855   2.558   3.471   5.752
 4319SOL    HW113856   2.597   3.379   5.745
 4319SOL    HW213857   2.586   3.525   5.673
 4320SOL     OW13858   0.622   6.266   2.906
 4320SOL    HW113859   0.709   6.266   2.954
 4320SOL    HW213860   0.633   6.310   2.817
 4321SOL     OW13861   0.754   0.722   5.172
 4321SOL    HW113862   0.697   0.715   5.090
 4321SOL    HW213863   0.713   0.670   5.247
 4322SOL     OW13864   5.672   1.149   0.620
 4322SOL    HW113865   5.696   1.055   0.645
 4322SOL    HW213866   5.623   1.191   0.697
 4323SOL     OW13867   6.847   1.980   3.836
 4323SOL    HW113868   6.891   2.038   3.767
 4323SOL    HW213869   6.772   1.929   3.793
 4324SOL     OW13870   6.320   3.259   6.011
 4324SOL    HW113871   6.339   3.255   6.109
 4324SOL    HW213872   6.231   3.303   5.996
 4325SOL     OW13873   1.874   1.699   5.528
 4325SOL    HW113874   1.818   1.690   5.445
 4325SOL    HW213875   1.898   1.608   5.562
 4326SOL     OW13876   5.998   2.082   5.884
 4326SOL    HW113877   5.993   2.158   5.819
 4326SOL    HW213878   6.035   2.116   5.971
 4327SOL     OW13879   5.429   0.322   3.576
 4327SOL    HW113880   5.355   0.389   3.567
 4327SOL    HW213881   5.486   0.323   3.494
 4328SOL     OW13882   5.542   5.431   0.667
 4328SOL    HW113883   5.642   5.425   0.657
 4328SOL    HW213884   5.503   5.339   0.668
 4329SOL     OW13885   4.066   1.529   6.100
 4329SOL    HW113886   4.086   1.613   6.050
 4329SOL    HW213887   4.008   1.550   6.179
 4330SOL     OW13888   1.113   0.178   6.237
 4330SOL    HW113889   1.083   0.236   6.161
 4330SOL    HW213890   1.172   0.230   6.298
 4331SOL     OW13891   5.580   2.675   0.794
 4331SOL    HW113892   5.542   2.767   0.785
 4331SOL    HW213893   5.545   2.632   0.877
 4332SOL     OW13894   5.091   3.438   1.321
 4332SOL    HW113895   5.188   3.413   1.315
 4332SOL    HW213896   5.070   3.466   1.415
 4333SOL     OW13897   5.200   1.882   5.262
 4333SOL    HW113898   5.129   1.861   5.329
 4333SOL    HW213899   5.281   1.826   5.281
 4334SOL     OW13900   4.582   0.163   1.820
 4334SOL    HW113901   4.656   0.187   1.882
 4334SOL    HW213902   4.596   0.070   1.785
 4335SOL     OW13903   3.504   4.092   5.560
 4335SOL    HW113904   3.501   4.170   5.623
 4335SOL    HW213905   3.594   4.049   5.564
 4336SOL     OW13906   1.668   6.743   4.298
 4336SOL    HW113907   1.637   6.819   4.355
 4336SOL    HW213908   1.641   6.656   4.340
 4337SOL     OW13909   0.661   5.117   0.423
 4337SOL    HW113910   0.581   5.159   0.381
 4337SOL    HW213911   0.639   5.089   0.517
 4338SOL     OW13912   6.624   5.878   3.673
 4338SOL    HW113913   6.600   5.795   3.623
 4338SOL    HW213914   6.661   5.946   3.610
 4339SOL     OW13915   6.121   1.125   6.310
 4339SOL    HW113916   6.207   1.172   6.327
 4339SOL    HW213917   6.045   1.182   6.343
 4340SOL     OW13918   4.987   3.019   2.183
 4340SOL    HW113919   4.905   2.997   2.130
 4340SOL    HW213920   5.041   2.935   2.196
 4341SOL     OW13921   0.672   3.979   0.385
 4341SOL    HW113922   0.612   3.958   0.462
 4341SOL    HW213923   0.650   3.919   0.308
 4342SOL     OW13924   6.995   2.841   2.965
 4342SOL    HW113925   7.003   2.742   2.978
 4342SOL    HW213926   6.902   2.863   2.936
 4343SOL     OW13927   2.349   1.578   1.466
 4343SOL    HW113928   2.392   1.665   1.488
 4343SOL    HW213929   2.419   1.506   1.462
 4344SOL     OW13930   2.316   4.268   3.045
 4344SOL    HW113931   2.390   4.206   3.069
 4344SOL    HW213932   2.229   4.218   3.044
 4345SOL     OW13933   2.224   1.480   6.068
 4345SOL    HW113934   2.177   1.557   6.111
 4345SOL    HW213935   2.157   1.409   6.046
 4346SOL     OW13936   0.448   2.675   1.528
 4346SOL    HW113937   0.473   2.742   1.458
 4346SOL    HW213938   0.465   2.713   1.619
 4347SOL     OW13939   6.045   5.997   2.614
 4347SOL    HW113940   6.085   6.081   2.653
 4347SOL    HW213941   6.119   5.934   2.589
 4348SOL     OW13942   1.118   3.747   6.748
 4348SOL    HW113943   1.033   3.757   6.800
 4348SOL    HW213944   1.178   3.683   6.796
 4349SOL     OW13945   0.254   0.350   3.000
 4349SOL    HW113946   0.295   0.393   3.081
 4349SOL    HW213947   0.218   0.260   3.025
 4350SOL     OW13948   5.122   1.346   3.854
 4350SOL    HW113949   5.177   1.289   3.914
 4350SOL    HW213950   5.167   1.434   3.840
 4351SOL     OW13951   2.907   6.229   0.622
 4351SOL    HW113952   2.957   6.148   0.594
 4351SOL    HW213953   2.824   6.239   0.566
 4352SOL     OW13954   6.019   1.506   2.205
 4352SOL    HW113955   6.052   1.600   2.199
 4352SOL    HW213956   5.938   1.503   2.264
 4353SOL     OW13957   3.209   5.657   0.790
 4353SOL    HW113958   3.293   5.622   0.830
 4353SOL    HW213959   3.143   5.583   0.780
 4354SOL     OW13960   1.659   0.474   1.097
 4354SOL    HW113961   1.728   0.522   1.042
 4354SOL    HW213962   1.704   0.420   1.168
 4355SOL     OW13963   4.637   1.069   0.991
 4355SOL    HW113964   4.628   1.148   1.051
 4355SOL    HW213965   4.629   0.985   1.044
 4356SOL     OW13966   3.831   4.235   0.318
 4356SOL    HW113967   3.778   4.294   0.256
 4356SOL    HW213968   3.924   4.224   0.282
 4357SOL     OW13969   6.297   0.785   6.718
 4357SOL    HW113970   6.229   0.722   6.756
 4357SOL    HW213971   6.251   0.855   6.664
 4358SOL     OW13972   6.840   0.606   1.794
 4358SOL    HW113973   6.797   0.654   1.870
 4358SOL    HW213974   6.866   0.514   1.822
 4359SOL     OW13975   6.429   2.705   4.283
 4359SOL    HW113976   6.366   2.776   4.250
 4359SOL    HW213977   6.472   2.659   4.205
 4360SOL     OW13978   2.331   3.384   1.165
 4360SOL    HW113979   2.256   3.396   1.230
 4360SOL    HW213980   2.339   3.465   1.107
 4361SOL     OW13981   5.340   1.761   2.330
 4361SOL    HW113982   5.429   1.803   2.349
 4361SOL    HW213983   5.337   1.670   2.371
 4362SOL     OW13984   5.534   4.444   3.739
 4362SOL    HW113985   5.514   4.353   3.775
 4362SOL    HW213986   5.572   4.436   3.647
 4363SOL     OW13987   4.775   1.360   5.958
 4363SOL    HW113988   4.733   1.404   5.879
 4363SOL    HW213989   4.765   1.261   5.950
 4364SOL     OW13990   3.354   3.555   5.327
 4364SOL    HW113991   3.328   3.475   5.272
 4364SOL    HW213992   3.453   3.557   5.338
 4365SOL     OW13993   3.097   1.045   1.577
 4365SOL    HW113994   3.016   1.096   1.548
 4365SOL    HW213995   3.126   1.076   1.667
 4366SOL     OW13996   5.085   5.120   1.158
 4366SOL    HW113997   5.154   5.127   1.230
 4366SOL    HW213998   5.054   5.211   1.133
 4367SOL     OW13999   0.503   6.318   0.383
 4367SOL    HW114000   0.593   6.363   0.382
 4367SOL    HW214001   0.481   6.290   0.476
 4368SOL     OW14002   5.131   3.567   2.080
 4368SOL    HW114003   5.198   3.572   2.006
 4368SOL    HW214004   5.123   3.472   2.111
 4369SOL     OW14005   3.409   5.709   1.710
 4369SOL    HW114006   3.327   5.668   1.671
 4369SOL    HW214007   3.490   5.656   1.683
 4370SOL     OW14008   5.522   4.883   2.899
 4370SOL    HW114009   5.462   4.815   2.942
 4370SOL    HW214010   5.541   4.854   2.805
 4371SOL     OW14011   0.146   2.000   2.246
 4371SOL    HW114012   0.149   1.958   2.336
 4371SOL    HW214013   0.065   2.058   2.239
 4372SOL     OW14014   4.516   0.100   3.376
 4372SOL    HW114015   4.587   0.034   3.398
 4372SOL    HW214016   4.549   0.193   3.396
 4373SOL     OW14017   6.773   1.693   6.446
 4373SOL    HW114018   6.682   1.720   6.414
 4373SOL    HW214019   6.764   1.615   6.509
 4374SOL     OW14020   3.363   2.069   1.295
 4374SOL    HW114021   3.293   2.126   1.250
 4374SOL    HW214022   3.322   2.024   1.374
 4375SOL     OW14023   3.657   6.754   3.847
 4375SOL    HW114024   3.719   6.765   3.769
 4375SOL    HW214025   3.710   6.733   3.929
 4376SOL     OW14026   6.272   2.024   4.038
 4376SOL    HW114027   6.285   1.927   4.060
 4376SOL    HW214028   6.267   2.077   4.123
 4377SOL     OW14029   6.112   5.437   6.608
 4377SOL    HW114030   6.130   5.391   6.696
 4377SOL    HW214031   6.016   5.422   6.583
 4378SOL     OW14032   2.095   1.294   3.683
 4378SOL    HW114033   2.074   1.316   3.588
 4378SOL    HW214034   2.194   1.290   3.695
 4379SOL     OW14035   2.828   1.827   5.617
 4379SOL    HW114036   2.837   1.780   5.529
 4379SOL    HW214037   2.913   1.819   5.669
 4380SOL     OW14038   0.449   1.533   2.397
 4380SOL    HW114039   0.472   1.547   2.494
 4380SOL    HW214040   0.505   1.594   2.341
 4381SOL     OW14041   1.807   6.124   6.538
 4381SOL    HW114042   1.828   6.026   6.538
 4381SOL    HW214043   1.765   6.149   6.451
 4382SOL     OW14044   0.485   4.367   4.958
 4382SOL    HW114045   0.439   4.312   4.888
 4382SOL    HW214046   0.419   4.427   5.003
 4383SOL     OW14047   6.546   3.740   6.937
 4383SOL    HW114048   6.615   3.772   7.002
 4383SOL    HW214049   6.576   3.654   6.897
 4384SOL     OW14050   5.623   6.704   3.697
 4384SOL    HW114051   5.626   6.804   3.695
 4384SOL    HW214052   5.707   6.668   3.656
 4385SOL     OW14053   4.478   1.552   5.507
 4385SOL    HW114054   4.457   1.587   5.598
 4385SOL    HW214055   4.493   1.453   5.512
 4386SOL     OW14056   1.926   3.813   5.354
 4386SOL    HW114057   1.992   3.871   5.307
 4386SOL    HW214058   1.872   3.869   5.417
 4387SOL     OW14059   6.216   1.952   0.776
 4387SOL    HW114060   6.209   1.853   0.792
 4387SOL    HW214061   6.274   1.969   0.697
 4388SOL     OW14062   5.066   3.756   6.817
 4388SOL    HW114063   4.970   3.738   6.795
 4388SOL    HW214064   5.113   3.669   6.835
 4389SOL     OW14065   0.904   3.197   0.596
 4389SOL    HW114066   0.896   3.116   0.538
 4389SOL    HW214067   0.837   3.192   0.670
 4390SOL     OW14068   0.183   1.190   0.601
 4390SOL    HW114069   0.130   1.117   0.559
 4390SOL    HW214070   0.197   1.264   0.534
 4391SOL     OW14071   1.465   5.785   0.746
 4391SOL    HW114072   1.506   5.708   0.697
 4391SOL    HW214073   1.367   5.768   0.756
 4392SOL     OW14074   1.230   3.186   5.310
 4392SOL    HW114075   1.272   3.127   5.379
 4392SOL    HW214076   1.292   3.262   5.289
 4393SOL     OW14077   5.195   0.738   1.771
 4393SOL    HW114078   5.282   0.763   1.814
 4393SOL    HW214079   5.171   0.644   1.797
 4394SOL     OW14080   1.364   0.275   2.350
 4394SOL    HW114081   1.295   0.266   2.422
 4394SOL    HW214082   1.345   0.211   2.276
 4395SOL     OW14083   2.354   4.832   1.567
 4395SOL    HW114084   2.440   4.876   1.543
 4395SOL    HW214085   2.370   4.736   1.589
 4396SOL     OW14086   3.043   1.213   2.823
 4396SOL    HW114087   3.093   1.294   2.793
 4396SOL    HW214088   3.108   1.137   2.834
 4397SOL     OW14089   3.206   1.716   4.519
 4397SOL    HW114090   3.214   1.723   4.618
 4397SOL    HW214091   3.159   1.631   4.495
 4398SOL     OW14092   1.816   3.098   5.386
 4398SOL    HW114093   1.723   3.073   5.358
 4398SOL    HW214094   1.851   3.169   5.324
 4399SOL     OW14095   2.608   6.298   1.891
 4399SOL    HW114096   2.662   6.219   1.918
 4399SOL    HW214097   2.511   6.280   1.906
 4400SOL     OW14098   2.097   5.682   4.424
 4400SOL    HW114099   2.052   5.640   4.346
 4400SOL    HW214100   2.166   5.619   4.461
 4401SOL     OW14101   3.441   6.313   6.659
 4401SOL    HW114102   3.347   6.310   6.626
 4401SOL    HW214103   3.441   6.321   6.759
 4402SOL     OW14104   1.471   0.345   3.110
 4402SOL    HW114105   1.456   0.379   3.203
 4402SOL    HW214106   1.501   0.420   3.051
 4403SOL     OW14107   0.787   5.034   2.014
 4403SOL    HW114108   0.887   5.043   2.015
 4403SOL    HW214109   0.748   5.102   1.952
 4404SOL     OW14110   0.090   6.429   6.505
 4404SOL    HW114111   7.015   6.444   6.493
 4404SOL    HW214112   0.135   6.427   6.415
 4405SOL     OW14113   2.088   5.858   2.278
 4405SOL    HW114114   2.060   5.842   2.372
 4405SOL    HW214115   2.102   5.771   2.232
 4406SOL     OW14116   5.644   3.956   1.870
 4406SOL    HW114117   5.568   3.924   1.926
 4406SOL    HW214118   5.716   3.993   1.930
 4407SOL     OW14119   5.854   6.738   1.306
 4407SOL    HW114120   5.835   6.817   1.247
 4407SOL    HW214121   5.951   6.716   1.303
 4408SOL     OW14122   4.117   0.936   6.957
 4408SOL    HW114123   4.138   0.981   0.021
 4408SOL    HW214124   4.021   0.952   6.933
 4409SOL     OW14125   2.799   0.477   3.550
 4409SOL    HW114126   2.832   0.571   3.553
 4409SOL    HW214127   2.737   0.461   3.626
 4410SOL     OW14128   0.298   6.826   0.988
 4410SOL    HW114129   0.318   6.860   1.080
 4410SOL    HW214130   0.382   6.789   0.948
 4411SOL     OW14131   4.004   4.540   5.278
 4411SOL    HW114132   3.919   4.490   5.294
 4411SOL    HW214133   4.075   4.478   5.245
 4412SOL     OW14134   4.338   6.376   1.955
 4412SOL    HW114135   4.384   6.295   1.991
 4412SOL    HW214136   4.269   6.407   2.019
 4413SOL     OW14137   4.781   5.847   3.800
 4413SOL    HW114138   4.721   5.824   3.723
 4413SOL    HW214139   4.869   5.802   3.788
 4414SOL     OW14140   5.124   3.941   1.567
 4414SOL    HW114141   5.112   4.026   1.619
 4414SOL    HW214142   5.194   3.885   1.611
 4415SOL     OW14143   2.023   3.100   1.841
 4415SOL    HW114144   2.044   3.184   1.792
 4415SOL    HW214145   2.066   3.023   1.794
 4416SOL     OW14146   5.041   2.629   3.187
 4416SOL    HW114147   4.949   2.660   3.210
 4416SOL    HW214148   5.035   2.552   3.123
 4417SOL     OW14149   6.703   3.932   2.284
 4417SOL    HW114150   6.781   3.914   2.345
 4417SOL    HW214151   6.632   3.981   2.334
 4418SOL     OW14152   6.456   6.789   5.654
 4418SOL    HW114153   6.518   6.729   5.602
 4418SOL    HW214154   6.376   6.811   5.599
 4419SOL     OW14155   6.436   5.604   6.755
 4419SOL    HW114156   6.395   5.643   6.672
 4419SOL    HW214157   6.393   5.644   6.835
 4420SOL     OW14158   3.735   2.074   1.038
 4420SOL    HW114159   3.694   2.050   1.126
 4420SOL    HW214160   3.680   2.144   0.994
 4421SOL     OW14161   1.843   2.667   0.123
 4421SOL    HW114162   1.897   2.641   0.043
 4421SOL    HW214163   1.903   2.698   0.196
 4422SOL     OW14164   6.622   3.426   6.211
 4422SOL    HW114165   6.668   3.511   6.236
 4422SOL    HW214166   6.604   3.425   6.113
 4423SOL     OW14167   6.646   4.340   5.398
 4423SOL    HW114168   6.550   4.316   5.417
 4423SOL    HW214169   6.690   4.369   5.483
 4424SOL     OW14170   5.000   5.879   2.394
 4424SOL    HW114171   5.014   5.802   2.456
 4424SOL    HW214172   4.963   5.957   2.445
 4425SOL     OW14173   1.096   5.308   1.399
 4425SOL    HW114174   1.087   5.232   1.464
 4425SOL    HW214175   1.193   5.330   1.388
 4426SOL     OW14176   0.158   0.605   4.461
 4426SOL    HW114177   0.088   0.621   4.390
 4426SOL    HW214178   0.113   0.591   4.549
 4427SOL     OW14179   2.362   5.615   2.010
 4427SOL    HW114180   2.298   5.691   2.008
 4427SOL    HW214181   2.390   5.597   2.104
 4428SOL     OW14182   5.794   5.777   3.648
 4428SOL    HW114183   5.699   5.807   3.658
 4428SOL    HW214184   5.797   5.696   3.589
 4429SOL     OW14185   2.869   5.858   3.429
 4429SOL    HW114186   2.794   5.872   3.494
 4429SOL    HW214187   2.858   5.768   3.385
 4430SOL     OW14188   5.899   4.160   5.424
 4430SOL    HW114189   5.894   4.080   5.484
 4430SOL    HW214190   5.811   4.208   5.425
 4431SOL     OW14191   3.941   6.863   4.416
 4431SOL    HW114192   3.913   6.782   4.364
 4431SOL    HW214193   4.041   6.867   4.420
 4432SOL     OW14194   0.733   3.869   6.343
 4432SOL    HW114195   0.681   3.938   6.291
 4432SOL    HW214196   0.819   3.908   6.374
 4433SOL     OW14197   0.870   0.962   5.165
 4433SOL    HW114198   0.801   1.033   5.177
 4433SOL    HW214199   0.830   0.873   5.187
 4434SOL     OW14200   0.056   0.416   2.517
 4434SOL    HW114201   0.025   0.337   2.569
 4434SOL    HW214202   0.131   0.461   2.565
 4435SOL     OW14203   2.220   3.883   0.427
 4435SOL    HW114204   2.239   3.833   0.511
 4435SOL    HW214205   2.251   3.830   0.349
 4436SOL     OW14206   4.369   2.385   1.874
 4436SOL    HW114207   4.378   2.467   1.817
 4436SOL    HW214208   4.324   2.312   1.821
 4437SOL     OW14209   6.483   4.310   0.073
 4437SOL    HW114210   6.520   4.276   0.159
 4437SOL    HW214211   6.515   4.404   0.059
 4438SOL     OW14212   3.909   1.086   5.258
 4438SOL    HW114213   3.984   1.064   5.320
 4438SOL    HW214214   3.895   1.185   5.257
 4439SOL     OW14215   2.736   5.993   2.904
 4439SOL    HW114216   2.793   6.061   2.951
 4439SOL    HW214217   2.676   5.948   2.970
 4440SOL     OW14218   1.497   4.391   6.560
 4440SOL    HW114219   1.446   4.361   6.641
 4440SOL    HW214220   1.476   4.330   6.484
 4441SOL     OW14221   0.048   2.374   1.122
 4441SOL    HW114222   0.038   2.319   1.205
 4441SOL    HW214223   0.146   2.388   1.103
 4442SOL     OW14224   1.933   5.347   0.099
 4442SOL    HW114225   2.027   5.319   0.076
 4442SOL    HW214226   1.879   5.266   0.120
 4443SOL     OW14227   0.526   5.498   5.809
 4443SOL    HW114228   0.586   5.530   5.883
 4443SOL    HW214229   0.505   5.574   5.748
 4444SOL     OW14230   6.183   5.328   0.339
 4444SOL    HW114231   6.278   5.321   0.368
 4444SOL    HW214232   6.175   5.300   0.244
 4445SOL     OW14233   0.982   4.450   0.453
 4445SOL    HW114234   0.889   4.477   0.478
 4445SOL    HW214235   1.036   4.435   0.535
 4446SOL     OW14236   4.586   1.828   1.205
 4446SOL    HW114237   4.674   1.786   1.180
 4446SOL    HW214238   4.514   1.759   1.200
 4447SOL     OW14239   4.199   5.690   5.930
 4447SOL    HW114240   4.103   5.690   5.904
 4447SOL    HW214241   4.226   5.781   5.960
 4448SOL     OW14242   3.697   6.668   1.431
 4448SOL    HW114243   3.720   6.629   1.343
 4448SOL    HW214244   3.698   6.597   1.501
 4449SOL     OW14245   3.752   1.638   5.962
 4449SOL    HW114246   3.662   1.615   6.000
 4449SOL    HW214247   3.748   1.729   5.919
 4450SOL     OW14248   2.631   6.574   6.986
 4450SOL    HW114249   2.719   6.616   7.006
 4450SOL    HW214250   2.558   6.629   0.002
 4451SOL     OW14251   4.319   5.151   3.484
 4451SOL    HW114252   4.237   5.199   3.514
 4451SOL    HW214253   4.380   5.136   3.563
 4452SOL     OW14254   4.769   5.777   4.228
 4452SOL    HW114255   4.838   5.846   4.205
 4452SOL    HW214256   4.678   5.817   4.218
 4453SOL     OW14257   6.829   4.871   0.160
 4453SOL    HW114258   6.781   4.836   0.079
 4453SOL    HW214259   6.902   4.807   0.184
 4454SOL     OW14260   1.163   2.851   0.588
 4454SOL    HW114261   1.202   2.932   0.545
 4454SOL    HW214262   1.230   2.777   0.588
 4455SOL     OW14263   1.397   0.314   4.826
 4455SOL    HW114264   1.323   0.316   4.894
 4455SOL    HW214265   1.376   0.246   4.756
 4456SOL     OW14266   2.417   6.956   3.813
 4456SOL    HW114267   2.461   6.994   3.732
 4456SOL    HW214268   2.366   6.874   3.787
 4457SOL     OW14269   1.423   1.610   4.642
 4457SOL    HW114270   1.425   1.514   4.669
 4457SOL    HW214271   1.515   1.649   4.649
 4458SOL     OW14272   1.180   3.366   6.530
 4458SOL    HW114273   1.167   3.448   6.586
 4458SOL    HW214274   1.094   3.342   6.485
 4459SOL     OW14275   0.580   3.292   3.286
 4459SOL    HW114276   0.551   3.250   3.200
 4459SOL    HW214277   0.499   3.327   3.334
 4460SOL     OW14278   0.065   2.213   4.799
 4460SOL    HW114279   0.123   2.235   4.721
 4460SOL    HW214280   0.111   2.240   4.883
 4461SOL     OW14281   1.873   0.552   0.951
 4461SOL    HW114282   1.910   0.556   0.858
 4461SOL    HW214283   1.931   0.604   1.013
 4462SOL     OW14284   6.390   4.211   2.820
 4462SOL    HW114285   6.431   4.204   2.730
 4462SOL    HW214286   6.295   4.242   2.812
 4463SOL     OW14287   5.788   1.682   0.354
 4463SOL    HW114288   5.709   1.677   0.415
 4463SOL    HW214289   5.853   1.749   0.390
 4464SOL     OW14290   0.068   4.271   1.598
 4464SOL    HW114291   0.141   4.274   1.666
 4464SOL    HW214292   0.062   4.179   1.559
 4465SOL     OW14293   3.623   5.211   1.780
 4465SOL    HW114294   3.596   5.186   1.687
 4465SOL    HW214295   3.577   5.151   1.845
 4466SOL     OW14296   0.715   2.545   2.237
 4466SOL    HW114297   0.669   2.501   2.314
 4466SOL    HW214298   0.789   2.487   2.204
 4467SOL     OW14299   5.273   4.898   2.589
 4467SOL    HW114300   5.284   4.993   2.617
 4467SOL    HW214301   5.336   4.840   2.641
 4468SOL     OW14302   1.744   3.366   1.719
 4468SOL    HW114303   1.733   3.361   1.818
 4468SOL    HW214304   1.656   3.390   1.677
 4469SOL     OW14305   2.100   5.570   1.614
 4469SOL    HW114306   2.058   5.652   1.654
 4469SOL    HW214307   2.135   5.593   1.523
 4470SOL     OW14308   0.978   0.072   2.722
 4470SOL    HW114309   0.883   0.041   2.722
 4470SOL    HW214310   1.030   0.019   2.790
 4471SOL     OW14311   1.128   6.707   6.408
 4471SOL    HW114312   1.032   6.727   6.430
 4471SOL    HW214313   1.184   6.788   6.427
 4472SOL     OW14314   1.764   2.601   0.669
 4472SOL    HW114315   1.680   2.652   0.686
 4472SOL    HW214316   1.785   2.544   0.749
 4473SOL     OW14317   0.249   3.784   4.741
 4473SOL    HW114318   0.293   3.704   4.699
 4473SOL    HW214319   0.153   3.762   4.760
 4474SOL     OW14320   3.112   5.910   0.906
 4474SOL    HW114321   3.126   5.820   0.865
 4474SOL    HW214322   3.114   5.902   1.005
 4475SOL     OW14323   0.851   3.888   0.941
 4475SOL    HW114324   0.843   3.988   0.936
 4475SOL    HW214325   0.872   3.860   1.034
 4476SOL     OW14326   5.648   0.994   4.259
 4476SOL    HW114327   5.669   1.092   4.253
 4476SOL    HW214328   5.701   0.953   4.333
 4477SOL     OW14329   0.519   0.974   5.055
 4477SOL    HW114330   0.545   0.878   5.047
 4477SOL    HW214331   0.560   1.026   4.980
 4478SOL     OW14332   1.564   0.113   1.433
 4478SOL    HW114333   1.488   0.104   1.368
 4478SOL    HW214334   1.528   0.132   1.524
 4479SOL     OW14335   1.846   2.063   0.057
 4479SOL    HW114336   1.834   2.059   0.157
 4479SOL    HW214337   1.794   1.989   0.015
 4480SOL     OW14338   0.617   6.790   3.345
 4480SOL    HW114339   0.660   6.733   3.416
 4480SOL    HW214340   0.686   6.851   3.306
 4481SOL     OW14341   2.046   3.962   5.862
 4481SOL    HW114342   2.108   4.032   5.828
 4481SOL    HW214343   2.098   3.887   5.901
 4482SOL     OW14344   1.935   7.009   1.603
 4482SOL    HW114345   2.016   6.956   1.579
 4482SOL    HW214346   1.863   6.993   1.535
 4483SOL     OW14347   1.392   3.563   0.981
 4483SOL    HW114348   1.348   3.478   0.953
 4483SOL    HW214349   1.342   3.602   1.059
 4484SOL     OW14350   2.488   1.218   6.812
 4484SOL    HW114351   2.580   1.211   6.851
 4484SOL    HW214352   2.477   1.308   6.769
 4485SOL     OW14353   6.631   2.506   5.621
 4485SOL    HW114354   6.631   2.519   5.522
 4485SOL    HW214355   6.595   2.588   5.666
 4486SOL     OW14356   5.003   4.780   4.377
 4486SOL    HW114357   5.057   4.777   4.461
 4486SOL    HW214358   4.992   4.687   4.341
 4487SOL     OW14359   0.601   2.721   6.599
 4487SOL    HW114360   0.612   2.664   6.681
 4487SOL    HW214361   0.505   2.726   6.575
 4488SOL     OW14362   7.019   4.064   3.669
 4488SOL    HW114363   6.931   4.105   3.692
 4488SOL    HW214364   0.063   4.087   3.741
 4489SOL     OW14365   3.903   6.197   6.188
 4489SOL    HW114366   3.865   6.288   6.200
 4489SOL    HW214367   3.986   6.187   6.243
 4490SOL     OW14368   5.192   1.359   1.841
 4490SOL    HW114369   5.142   1.432   1.794
 4490SOL    HW214370   5.279   1.394   1.875
 4491SOL     OW14371   1.051   3.212   3.180
 4491SOL    HW114372   1.035   3.284   3.113
 4491SOL    HW214373   0.975   3.208   3.244
 4492SOL     OW14374   6.991   1.165   2.232
 4492SOL    HW114375   0.005   1.216   2.310
 4492SOL    HW214376   6.896   1.139   2.250
 4493SOL     OW14377   5.137   1.368   5.798
 4493SOL    HW114378   5.104   1.426   5.873
 4493SOL    HW214379   5.122   1.272   5.821
 4494SOL     OW14380   1.312   0.482   1.875
 4494SOL    HW114381   1.266   0.565   1.907
 4494SOL    HW214382   1.336   0.492   1.778
 4495SOL     OW14383   4.237   6.506   1.046
 4495SOL    HW114384   4.286   6.463   1.122
 4495SOL    HW214385   4.289   6.585   1.014
 4496SOL     OW14386   2.770   6.171   5.451
 4496SOL    HW114387   2.738   6.093   5.504
 4496SOL    HW214388   2.731   6.255   5.489
 4497SOL     OW14389   4.018   0.955   6.137
 4497SOL    HW114390   4.038   0.912   6.049
 4497SOL    HW214391   3.981   1.046   6.122
 4498SOL     OW14392   0.430   4.721   4.456
 4498SOL    HW114393   0.464   4.716   4.550
 4498SOL    HW214394   0.387   4.634   4.432
 4499SOL     OW14395   5.836   1.402   2.549
 4499SOL    HW114396   5.798   1.489   2.582
 4499SOL    HW214397   5.773   1.361   2.484
 4500SOL     OW14398   3.998   5.896   0.758
 4500SOL    HW114399   4.007   5.839   0.677
 4500SOL    HW214400   4.082   5.947   0.773
 4501SOL     OW14401   5.904   0.861   2.344
 4501SOL    HW114402   5.895   0.951   2.301
 4501SOL    HW214403   5.889   0.790   2.275
 4502SOL     OW14404   0.274   4.189   6.641
 4502SOL    HW114405   0.249   4.110   6.697
 4502SOL    HW214406   0.271   4.164   6.544
 4503SOL     OW14407   3.392   1.682   2.564
 4503SOL    HW114408   3.444   1.611   2.611
 4503SOL    HW214409   3.448   1.722   2.491
 4504SOL     OW14410   0.832   2.426   3.183
 4504SOL    HW114411   0.930   2.444   3.171
 4504SOL    HW214412   0.819   2.333   3.216
 4505SOL     OW14413   5.898   3.259   3.852
 4505SOL    HW114414   5.985   3.284   3.809
 4505SOL    HW214415   5.859   3.338   3.897
 4506SOL     OW14416   4.826   3.780   6.648
 4506SOL    HW114417   4.750   3.729   6.686
 4506SOL    HW214418   4.816   3.786   6.548
 4507SOL     OW14419   6.197   2.225   3.440
 4507SOL    HW114420   6.140   2.163   3.493
 4507SOL    HW214421   6.281   2.178   3.412
 4508SOL     OW14422   0.239   4.949   0.550
 4508SOL    HW114423   0.267   4.926   0.457
 4508SOL    HW214424   0.318   4.981   0.602
 4509SOL     OW14425   5.052   2.287   2.286
 4509SOL    HW114426   5.054   2.205   2.343
 4509SOL    HW214427   5.145   2.315   2.264
 4510SOL     OW14428   4.339   1.610   4.265
 4510SOL    HW114429   4.360   1.541   4.335
 4510SOL    HW214430   4.240   1.612   4.250
 4511SOL     OW14431   6.799   5.212   6.431
 4511SOL    HW114432   6.817   5.176   6.523
 4511SOL    HW214433   6.845   5.300   6.419
 4512SOL     OW14434   3.395   3.084   5.608
 4512SOL    HW114435   3.381   3.080   5.707
 4512SOL    HW214436   3.343   3.010   5.565
 4513SOL     OW14437   0.132   6.966   0.318
 4513SOL    HW114438   0.190   6.954   0.399
 4513SOL    HW214439   0.188   6.998   0.242
 4514SOL     OW14440   4.753   4.936   6.785
 4514SOL    HW114441   4.777   4.886   6.701
 4514SOL    HW214442   4.696   5.015   6.761
 4515SOL     OW14443   4.071   0.790   6.341
 4515SOL    HW114444   4.034   0.862   6.282
 4515SOL    HW214445   4.067   0.821   6.436
 4516SOL     OW14446   3.079   2.684   5.881
 4516SOL    HW114447   3.003   2.748   5.872
 4516SOL    HW214448   3.141   2.695   5.803
 4517SOL     OW14449   4.455   0.895   4.657
 4517SOL    HW114450   4.375   0.949   4.633
 4517SOL    HW214451   4.516   0.889   4.577
 4518SOL     OW14452   0.140   6.561   1.051
 4518SOL    HW114453   0.053   6.590   1.012
 4518SOL    HW214454   0.205   6.638   1.048
 4519SOL     OW14455   4.735   6.785   6.813
 4519SOL    HW114456   4.803   6.846   6.855
 4519SOL    HW214457   4.745   6.693   6.850
 4520SOL     OW14458   4.676   5.382   5.305
 4520SOL    HW114459   4.584   5.422   5.297
 4520SOL    HW214460   4.691   5.319   5.228
 4521SOL     OW14461   4.262   2.317   3.997
 4521SOL    HW114462   4.288   2.238   3.942
 4521SOL    HW214463   4.171   2.303   4.036
 4522SOL     OW14464   5.659   3.807   3.745
 4522SOL    HW114465   5.654   3.814   3.645
 4522SOL    HW214466   5.748   3.768   3.771
 4523SOL     OW14467   6.159   2.861   6.029
 4523SOL    HW114468   6.083   2.856   6.093
 4523SOL    HW214469   6.241   2.891   6.078
 4524SOL     OW14470   2.016   3.788   2.510
 4524SOL    HW114471   2.070   3.719   2.558
 4524SOL    HW214472   2.072   3.869   2.495
 4525SOL     OW14473   3.785   2.540   5.368
 4525SOL    HW114474   3.806   2.448   5.336
 4525SOL    HW214475   3.758   2.536   5.465
 4526SOL     OW14476   1.373   0.080   5.152
 4526SOL    HW114477   1.329   0.139   5.220
 4526SOL    HW214478   1.439   0.133   5.100
 4527SOL     OW14479   0.464   1.687   2.992
 4527SOL    HW114480   0.526   1.710   2.917
 4527SOL    HW214481   0.482   1.747   3.070
 4528SOL     OW14482   5.107   0.416   4.865
 4528SOL    HW114483   5.046   0.437   4.789
 4528SOL    HW214484   5.187   0.367   4.830
 4529SOL     OW14485   1.994   1.833   3.707
 4529SOL    HW114486   1.898   1.815   3.728
 4529SOL    HW214487   2.033   1.891   3.778
 4530SOL     OW14488   4.090   5.926   6.355
 4530SOL    HW114489   3.996   5.892   6.352
 4530SOL    HW214490   4.135   5.908   6.268
 4531SOL     OW14491   1.484   6.445   4.998
 4531SOL    HW114492   1.393   6.487   5.000
 4531SOL    HW214493   1.540   6.481   5.073
 4532SOL     OW14494   6.745   1.598   2.470
 4532SOL    HW114495   6.720   1.657   2.394
 4532SOL    HW214496   6.675   1.528   2.482
 4533SOL     OW14497   2.829   0.149   1.548
 4533SOL    HW114498   2.895   0.089   1.594
 4533SOL    HW214499   2.739   0.105   1.550
 4534SOL     OW14500   5.522   1.428   4.165
 4534SOL    HW114501   5.573   1.506   4.199
 4534SOL    HW214502   5.464   1.457   4.088
 4535SOL     OW14503   2.002   0.291   0.013
 4535SOL    HW114504   2.091   0.260   0.048
 4535SOL    HW214505   1.949   0.332   0.086
 4536SOL     OW14506   3.504   0.850   5.733
 4536SOL    HW114507   3.568   0.922   5.707
 4536SOL    HW214508   3.454   0.877   5.816
 4537SOL     OW14509   2.923   3.293   3.055
 4537SOL    HW114510   2.929   3.280   2.956
 4537SOL    HW214511   2.940   3.206   3.101
 4538SOL     OW14512   0.716   2.330   0.454
 4538SOL    HW114513   0.704   2.241   0.410
 4538SOL    HW214514   0.634   2.353   0.506
 4539SOL     OW14515   1.697   5.493   4.911
 4539SOL    HW114516   1.776   5.554   4.900
 4539SOL    HW214517   1.617   5.534   4.868
 4540SOL     OW14518   1.086   1.821   0.151
 4540SOL    HW114519   1.134   1.909   0.150
 4540SOL    HW214520   1.075   1.789   0.245
 4541SOL     OW14521   4.012   3.150   6.831
 4541SOL    HW114522   3.924   3.115   6.800
 4541SOL    HW214523   4.040   3.101   6.914
 4542SOL     OW14524   0.493   1.480   6.281
 4542SOL    HW114525   0.505   1.384   6.255
 4542SOL    HW214526   0.514   1.538   6.202
 4543SOL     OW14527   3.928   1.932   0.902
 4543SOL    HW114528   3.867   2.001   0.942
 4543SOL    HW214529   3.882   1.843   0.901
 4544SOL     OW14530   4.668   6.762   1.140
 4544SOL    HW114531   4.735   6.765   1.065
 4544SOL    HW214532   4.575   6.767   1.101
 4545SOL     OW14533   2.568   3.185   5.670
 4545SOL    HW114534   2.526   3.106   5.715
 4545SOL    HW214535   2.556   3.178   5.571
 4546SOL     OW14536   3.697   0.212   5.855
 4546SOL    HW114537   3.664   0.289   5.798
 4546SOL    HW214538   3.768   0.245   5.917
 4547SOL     OW14539   0.400   0.318   6.886
 4547SOL    HW114540   0.313   0.268   6.890
 4547SOL    HW214541   0.476   0.254   6.897
 4548SOL     OW14542   3.283   1.273   2.129
 4548SOL    HW114543   3.231   1.358   2.121
 4548SOL    HW214544   3.380   1.294   2.144
 4549SOL     OW14545   0.106   3.531   3.594
 4549SOL    HW114546   0.174   3.461   3.572
 4549SOL    HW214547   0.119   3.563   3.688
 4550SOL     OW14548   1.924   5.659   4.896
 4550SOL    HW114549   1.982   5.697   4.968
 4550SOL    HW214550   1.856   5.727   4.869
 4551SOL     OW14551   2.998   2.412   5.758
 4551SOL    HW114552   3.000   2.457   5.669
 4551SOL    HW214553   3.008   2.481   5.830
 4552SOL     OW14554   4.454   0.741   0.321
 4552SOL    HW114555   4.470   0.785   0.233
 4552SOL    HW214556   4.494   0.796   0.394
 4553SOL     OW14557   0.378   6.254   0.130
 4553SOL    HW114558   0.433   6.266   0.213
 4553SOL    HW214559   0.374   6.158   0.106
 4554SOL     OW14560   5.890   0.164   2.860
 4554SOL    HW114561   5.836   0.144   2.942
 4554SOL    HW214562   5.896   0.081   2.804
 4555SOL     OW14563   0.757   0.948   1.439
 4555SOL    HW114564   0.779   0.894   1.358
 4555SOL    HW214565   0.727   0.887   1.512
 4556SOL     OW14566   5.576   4.689   4.248
 4556SOL    HW114567   5.499   4.685   4.185
 4556SOL    HW214568   5.593   4.598   4.287
 4557SOL     OW14569   0.131   4.931   4.292
 4557SOL    HW114570   0.080   4.933   4.378
 4557SOL    HW214571   0.151   4.836   4.268
 4558SOL     OW14572   1.488   4.010   4.783
 4558SOL    HW114573   1.430   3.981   4.706
 4558SOL    HW214574   1.497   3.934   4.848
 4559SOL     OW14575   6.868   3.183   3.937
 4559SOL    HW114576   6.871   3.282   3.923
 4559SOL    HW214577   6.961   3.146   3.930
 4560SOL     OW14578   5.841   4.419   3.079
 4560SOL    HW114579   5.844   4.362   2.997
 4560SOL    HW214580   5.845   4.515   3.052
 4561SOL     OW14581   4.800   2.384   4.151
 4561SOL    HW114582   4.762   2.437   4.075
 4561SOL    HW214583   4.739   2.308   4.173
 4562SOL     OW14584   3.489   1.267   0.340
 4562SOL    HW114585   3.523   1.328   0.413
 4562SOL    HW214586   3.508   1.308   0.251
 4563SOL     OW14587   0.776   4.442   1.835
 4563SOL    HW114588   0.808   4.467   1.744
 4563SOL    HW214589   0.738   4.349   1.832
 4564SOL     OW14590   2.203   4.087   2.790
 4564SOL    HW114591   2.186   4.109   2.886
 4564SOL    HW214592   2.274   4.147   2.754
 4565SOL     OW14593   1.715   6.735   5.755
 4565SOL    HW114594   1.685   6.762   5.846
 4565SOL    HW214595   1.658   6.659   5.722
 4566SOL     OW14596   6.548   4.516   3.239
 4566SOL    HW114597   6.469   4.570   3.269
 4566SOL    HW214598   6.516   4.431   3.199
 4567SOL     OW14599   0.033   6.858   6.774
 4567SOL    HW114600   0.018   6.903   6.686
 4567SOL    HW214601   0.103   6.788   6.765
 4568SOL     OW14602   1.137   5.222   3.949
 4568SOL    HW114603   1.088   5.306   3.976
 4568SOL    HW214604   1.070   5.150   3.930
 4569SOL     OW14605   2.027   1.544   3.037
 4569SOL    HW114606   2.038   1.567   2.940
 4569SOL    HW214607   1.977   1.617   3.083
 4570SOL     OW14608   4.921   5.091   1.430
 4570SOL    HW114609   4.865   5.122   1.506
 4570SOL    HW214610   4.931   5.165   1.363
 4571SOL     OW14611   2.576   3.838   5.944
 4571SOL    HW114612   2.487   3.794   5.930
 4571SOL    HW214613   2.563   3.937   5.948
 4572SOL     OW14614   3.638   2.879   2.163
 4572SOL    HW114615   3.704   2.820   2.118
 4572SOL    HW214616   3.546   2.856   2.132
 4573SOL     OW14617   2.735   5.013   0.089
 4573SOL    HW114618   2.828   5.038   0.117
 4573SOL    HW214619   2.707   4.930   0.137
 4574SOL     OW14620   4.931   0.749   2.336
 4574SOL    HW114621   4.920   0.810   2.415
 4574SOL    HW214622   4.982   0.668   2.363
 4575SOL     OW14623   0.416   0.656   5.537
 4575SOL    HW114624   0.341   0.599   5.571
 4575SOL    HW214625   0.379   0.726   5.476
 4576SOL     OW14626   3.575   3.650   6.705
 4576SOL    HW114627   3.512   3.696   6.767
 4576SOL    HW214628   3.523   3.596   6.638
 4577SOL     OW14629   0.610   1.764   2.290
 4577SOL    HW114630   0.533   1.781   2.229
 4577SOL    HW214631   0.677   1.838   2.279
 4578SOL     OW14632   1.900   1.342   2.422
 4578SOL    HW114633   1.983   1.348   2.477
 4578SOL    HW214634   1.878   1.246   2.404
 4579SOL     OW14635   4.723   0.844   3.576
 4579SOL    HW114636   4.699   0.781   3.650
 4579SOL    HW214637   4.762   0.928   3.616
 4580SOL     OW14638   0.542   1.200   0.423
 4580SOL    HW114639   0.469   1.149   0.377
 4580SOL    HW214640   0.519   1.210   0.520
 4581SOL     OW14641   2.633   0.536   1.243
 4581SOL    HW114642   2.665   0.441   1.251
 4581SOL    HW214643   2.675   0.578   1.162
 4582SOL     OW14644   0.102   0.715   3.536
 4582SOL    HW114645   0.123   0.622   3.508
 4582SOL    HW214646   0.105   0.776   3.457
 4583SOL     OW14647   1.795   0.051   0.044
 4583SOL    HW114648   1.892   0.028   0.034
 4583SOL    HW214649   1.785   0.121   0.115
 4584SOL     OW14650   0.217   1.958   4.546
 4584SOL    HW114651   0.298   1.901   4.533
 4584SOL    HW214652   0.144   1.926   4.485
 4585SOL     OW14653   1.705   2.955   3.404
 4585SOL    HW114654   1.695   3.002   3.492
 4585SOL    HW214655   1.778   2.887   3.411
 4586SOL     OW14656   6.160   5.059   6.587
 4586SOL    HW114657   6.159   5.096   6.680
 4586SOL    HW214658   6.235   5.100   6.535
 4587SOL     OW14659   4.154   3.950   5.305
 4587SOL    HW114660   4.096   3.971   5.384
 4587SOL    HW214661   4.125   4.005   5.227
 4588SOL     OW14662   3.327   4.011   6.353
 4588SOL    HW114663   3.333   3.967   6.264
 4588SOL    HW214664   3.248   3.976   6.402
 4589SOL     OW14665   5.701   6.184   2.302
 4589SOL    HW114666   5.798   6.184   2.325
 4589SOL    HW214667   5.689   6.183   2.203
 4590SOL     OW14668   3.315   5.755   1.121
 4590SOL    HW114669   3.382   5.816   1.079
 4590SOL    HW214670   3.236   5.808   1.153
 4591SOL     OW14671   2.466   1.145   5.182
 4591SOL    HW114672   2.529   1.173   5.110
 4591SOL    HW214673   2.387   1.205   5.183
 4592SOL     OW14674   2.463   1.521   3.533
 4592SOL    HW114675   2.416   1.453   3.589
 4592SOL    HW214676   2.517   1.475   3.463
 4593SOL     OW14677   1.337   6.134   4.431
 4593SOL    HW114678   1.360   6.135   4.333
 4593SOL    HW214679   1.372   6.050   4.473
 4594SOL     OW14680   2.073   6.470   3.660
 4594SOL    HW114681   2.052   6.376   3.684
 4594SOL    HW214682   2.064   6.528   3.742
 4595SOL     OW14683   5.568   1.797   6.626
 4595SOL    HW114684   5.535   1.882   6.584
 4595SOL    HW214685   5.668   1.802   6.636
 4596SOL     OW14686   1.142   1.051   2.124
 4596SOL    HW114687   1.134   1.098   2.213
 4596SOL    HW214688   1.089   1.101   2.056
 4597SOL     OW14689   2.570   5.818   0.484
 4597SOL    HW114690   2.637   5.832   0.558
 4597SOL    HW214691   2.514   5.900   0.475
 4598SOL     OW14692   0.922   4.035   0.620
 4598SOL    HW114693   0.946   3.938   0.618
 4598SOL    HW214694   0.901   4.066   0.528
 4599SOL     OW14695   3.693   6.781   1.821
 4599SOL    HW114696   3.657   6.805   1.731
 4599SOL    HW214697   3.759   6.707   1.812
 4600SOL     OW14698   0.331   6.903   6.571
 4600SOL    HW114699   0.283   6.818   6.592
 4600SOL    HW214700   0.273   6.960   6.512
 4601SOL     OW14701   2.046   0.321   5.505
 4601SOL    HW114702   1.946   0.326   5.507
 4601SOL    HW214703   2.076   0.237   5.549
 4602SOL     OW14704   3.118   1.795   6.078
 4602SOL    HW114705   3.108   1.794   6.178
 4602SOL    HW214706   3.062   1.722   6.038
 4603SOL     OW14707   3.890   6.754   1.020
 4603SOL    HW114708   3.899   6.852   1.002
 4603SOL    HW214709   3.959   6.726   1.087
 4604SOL     OW14710   6.636   6.768   3.999
 4604SOL    HW114711   6.684   6.855   3.993
 4604SOL    HW214712   6.688   6.705   4.058
 4605SOL     OW14713   4.013   0.608   1.595
 4605SOL    HW114714   4.002   0.510   1.612
 4605SOL    HW214715   4.032   0.622   1.498
 4606SOL     OW14716   6.835   6.713   5.058
 4606SOL    HW114717   6.908   6.659   5.099
 4606SOL    HW214718   6.869   6.759   4.976
 4607SOL     OW14719   1.884   1.859   0.872
 4607SOL    HW114720   1.808   1.803   0.904
 4607SOL    HW214721   1.849   1.936   0.818
 4608SOL     OW14722   6.952   2.984   4.655
 4608SOL    HW114723   6.976   2.971   4.559
 4608SOL    HW214724   7.006   2.921   4.711
 4609SOL     OW14725   4.934   5.586   6.926
 4609SOL    HW114726   4.947   5.556   6.831
 4609SOL    HW214727   4.840   5.569   6.953
 4610SOL     OW14728   5.140   4.902   0.398
 4610SOL    HW114729   5.218   4.854   0.439
 4610SOL    HW214730   5.158   4.916   0.301
 4611SOL     OW14731   0.056   1.043   6.421
 4611SOL    HW114732   0.092   1.112   6.484
 4611SOL    HW214733   0.082   1.066   6.328
 4612SOL     OW14734   2.244   1.387   2.252
 4612SOL    HW114735   2.228   1.454   2.180
 4612SOL    HW214736   2.178   1.312   2.242
 4613SOL     OW14737   1.405   4.794   1.638
 4613SOL    HW114738   1.418   4.758   1.546
 4613SOL    HW214739   1.324   4.753   1.679
 4614SOL     OW14740   6.547   4.645   3.695
 4614SOL    HW114741   6.636   4.682   3.724
 4614SOL    HW214742   6.514   4.580   3.762
 4615SOL     OW14743   1.659   4.155   6.401
 4615SOL    HW114744   1.573   4.153   6.349
 4615SOL    HW214745   1.716   4.230   6.368
 4616SOL     OW14746   0.990   3.518   6.051
 4616SOL    HW114747   0.921   3.584   6.081
 4616SOL    HW214748   0.989   3.513   5.951
 4617SOL     OW14749   0.138   2.709   3.789
 4617SOL    HW114750   0.157   2.612   3.775
 4617SOL    HW214751   0.220   2.755   3.823
 4618SOL     OW14752   1.767   3.630   5.686
 4618SOL    HW114753   1.771   3.663   5.781
 4618SOL    HW214754   1.804   3.537   5.681
 4619SOL     OW14755   4.812   6.155   6.134
 4619SOL    HW114756   4.815   6.084   6.063
 4619SOL    HW214757   4.830   6.244   6.093
 4620SOL     OW14758   0.439   4.890   1.727
 4620SOL    HW114759   0.350   4.907   1.684
 4620SOL    HW214760   0.446   4.793   1.752
 4621SOL     OW14761   3.218   0.306   2.924
 4621SOL    HW114762   3.145   0.276   2.862
 4621SOL    HW214763   3.266   0.226   2.959
 4622SOL     OW14764   5.328   0.025   0.379
 4622SOL    HW114765   5.354   7.005   0.465
 4622SOL    HW214766   5.241   0.072   0.390
 4623SOL     OW14767   3.189   4.995   2.207
 4623SOL    HW114768   3.157   4.943   2.129
 4623SOL    HW214769   3.190   4.937   2.288
 4624SOL     OW14770   4.714   1.532   1.617
 4624SOL    HW114771   4.687   1.609   1.674
 4624SOL    HW214772   4.759   1.463   1.673
 4625SOL     OW14773   1.391   5.818   1.508
 4625SOL    HW114774   1.429   5.741   1.456
 4625SOL    HW214775   1.413   5.904   1.460
 4626SOL     OW14776   3.920   2.979   1.962
 4626SOL    HW114777   3.932   3.006   1.866
 4626SOL    HW214778   3.845   2.913   1.969
 4627SOL     OW14779   5.521   6.792   4.790
 4627SOL    HW114780   5.540   6.816   4.695
 4627SOL    HW214781   5.430   6.826   4.816
 4628SOL     OW14782   5.589   4.488   3.435
 4628SOL    HW114783   5.665   4.428   3.458
 4628SOL    HW214784   5.610   4.539   3.351
 4629SOL     OW14785   1.766   5.533   7.009
 4629SOL    HW114786   1.844   5.476   0.013
 4629SOL    HW214787   1.715   5.561   0.067
 4630SOL     OW14788   1.931   3.543   1.569
 4630SOL    HW114789   1.919   3.513   1.474
 4630SOL    HW214790   1.894   3.474   1.631
 4631SOL     OW14791   6.741   0.835   2.705
 4631SOL    HW114792   6.790   0.765   2.653
 4631SOL    HW214793   6.647   0.804   2.722
 4632SOL     OW14794   2.915   4.932   2.924
 4632SOL    HW114795   2.940   4.886   3.009
 4632SOL    HW214796   2.820   4.963   2.931
 4633SOL     OW14797   4.967   2.612   4.641
 4633SOL    HW114798   4.903   2.566   4.579
 4633SOL    HW214799   4.918   2.644   4.722
 4634SOL     OW14800   4.110   3.239   4.614
 4634SOL    HW114801   4.015   3.222   4.641
 4634SOL    HW214802   4.164   3.156   4.628
 4635SOL     OW14803   4.557   5.701   2.304
 4635SOL    HW114804   4.576   5.703   2.402
 4635SOL    HW214805   4.494   5.774   2.281
 4636SOL     OW14806   1.590   5.275   6.732
 4636SOL    HW114807   1.576   5.363   6.688
 4636SOL    HW214808   1.679   5.238   6.704
 4637SOL     OW14809   2.677   1.921   3.439
 4637SOL    HW114810   2.700   1.883   3.528
 4637SOL    HW214811   2.647   1.847   3.378
 4638SOL     OW14812   4.367   4.754   0.383
 4638SOL    HW114813   4.414   4.751   0.471
 4638SOL    HW214814   4.356   4.660   0.349
 4639SOL     OW14815   3.764   1.940   1.922
 4639SOL    HW114816   3.688   1.900   1.973
 4639SOL    HW214817   3.771   2.037   1.942
 4640SOL     OW14818   6.220   3.414   0.178
 4640SOL    HW114819   6.177   3.382   0.263
 4640SOL    HW214820   6.316   3.435   0.196
 4641SOL     OW14821   1.811   5.417   4.445
 4641SOL    HW114822   1.861   5.448   4.525
 4641SOL    HW214823   1.762   5.333   4.467
 4642SOL     OW14824   6.408   1.311   5.109
 4642SOL    HW114825   6.463   1.362   5.043
 4642SOL    HW214826   6.361   1.375   5.169
 4643SOL     OW14827   0.653   1.603   0.006
 4643SOL    HW114828   0.613   1.530   0.061
 4643SOL    HW214829   0.611   1.690   0.031
 4644SOL     OW14830   1.607   0.427   0.237
 4644SOL    HW114831   1.640   0.469   0.321
 4644SOL    HW214832   1.635   0.331   0.234
 4645SOL     OW14833   6.492   1.723   5.037
 4645SOL    HW114834   6.462   1.721   5.132
 4645SOL    HW214835   6.522   1.815   5.013
 4646SOL     OW14836   1.966   4.232   3.600
 4646SOL    HW114837   1.987   4.148   3.650
 4646SOL    HW214838   2.021   4.307   3.637
 4647SOL     OW14839   1.744   6.472   1.684
 4647SOL    HW114840   1.800   6.418   1.747
 4647SOL    HW214841   1.803   6.509   1.612
 4648SOL     OW14842   3.024   1.112   4.787
 4648SOL    HW114843   3.092   1.113   4.860
 4648SOL    HW214844   2.937   1.079   4.823
 4649SOL     OW14845   6.183   1.675   0.644
 4649SOL    HW114846   6.099   1.634   0.609
 4649SOL    HW214847   6.261   1.640   0.593
 4650SOL     OW14848   4.684   5.875   1.154
 4650SOL    HW114849   4.752   5.891   1.226
 4650SOL    HW214850   4.731   5.849   1.069
 4651SOL     OW14851   0.090   4.081   6.128
 4651SOL    HW114852   0.159   4.038   6.070
 4651SOL    HW214853   0.112   4.177   6.142
 4652SOL     OW14854   6.962   6.813   5.480
 4652SOL    HW114855   0.016   6.753   5.455
 4652SOL    HW214856   6.889   6.802   5.412
 4653SOL     OW14857   6.937   5.826   1.134
 4653SOL    HW114858   6.935   5.785   1.225
 4653SOL    HW214859   6.953   5.924   1.142
 4654SOL     OW14860   0.691   0.408   5.977
 4654SOL    HW114861   0.641   0.459   5.908
 4654SOL    HW214862   0.631   0.388   6.054
 4655SOL     OW14863   5.393   3.705   2.280
 4655SOL    HW114864   5.307   3.662   2.252
 4655SOL    HW214865   5.393   3.717   2.379
 4656SOL     OW14866   6.742   1.408   2.100
 4656SOL    HW114867   6.811   1.446   2.162
 4656SOL    HW214868   6.668   1.367   2.153
 4657SOL     OW14869   3.486   1.488   2.813
 4657SOL    HW114870   3.564   1.482   2.751
 4657SOL    HW214871   3.501   1.562   2.879
 4658SOL     OW14872   1.203   2.066   6.505
 4658SOL    HW114873   1.281   2.014   6.541
 4658SOL    HW214874   1.178   2.138   6.571
 4659SOL     OW14875   2.198   4.326   0.788
 4659SOL    HW114876   2.294   4.347   0.771
 4659SOL    HW214877   2.141   4.383   0.729
 4660SOL     OW14878   1.068   5.486   3.947
 4660SOL    HW114879   0.978   5.509   3.912
 4660SOL    HW214880   1.120   5.569   3.964
 4661SOL     OW14881   0.730   1.551   5.619
 4661SOL    HW114882   0.661   1.480   5.631
 4661SOL    HW214883   0.722   1.590   5.527
 4662SOL     OW14884   2.267   6.948   5.854
 4662SOL    HW114885   2.348   7.006   5.869
 4662SOL    HW214886   2.279   6.896   5.770
 4663SOL     OW14887   1.366   0.267   0.525
 4663SOL    HW114888   1.374   0.177   0.482
 4663SOL    HW214889   1.290   0.266   0.591
 4664SOL     OW14890   5.868   6.987   5.895
 4664SOL    HW114891   5.817   0.046   5.866
 4664SOL    HW214892   5.847   6.911   5.833
 4665SOL     OW14893   0.568   0.515   3.355
 4665SOL    HW114894   0.625   0.595   3.339
 4665SOL    HW214895   0.611   0.457   3.424
 4666SOL     OW14896   2.014   2.295   5.871
 4666SOL    HW114897   1.943   2.283   5.801
 4666SOL    HW214898   1.997   2.232   5.947
 4667SOL     OW14899   6.981   3.291   0.699
 4667SOL    HW114900   6.970   3.222   0.628
 4667SOL    HW214901   6.898   3.296   0.755
 4668SOL     OW14902   5.125   2.298   4.620
 4668SOL    HW114903   5.133   2.310   4.521
 4668SOL    HW214904   5.029   2.285   4.645
 4669SOL     OW14905   5.140   7.022   6.368
 4669SOL    HW114906   5.214   7.021   6.302
 4669SOL    HW214907   5.163   0.061   6.443
 4670SOL     OW14908   0.232   3.447   6.519
 4670SOL    HW114909   0.324   3.470   6.551
 4670SOL    HW214910   0.232   3.443   6.419
 4671SOL     OW14911   7.003   2.978   2.008
 4671SOL    HW114912   7.007   2.880   1.988
 4671SOL    HW214913   6.999   2.991   2.107
 4672SOL     OW14914   3.092   4.029   0.115
 4672SOL    HW114915   3.077   3.939   0.156
 4672SOL    HW214916   3.012   4.056   0.061
 4673SOL     OW14917   5.981   0.841   0.632
 4673SOL    HW114918   5.921   0.891   0.695
 4673SOL    HW214919   6.063   0.811   0.681
 4674SOL     OW14920   0.942   2.862   0.785
 4674SOL    HW114921   0.965   2.932   0.718
 4674SOL    HW214922   0.933   2.773   0.739
 4675SOL     OW14923   2.087   5.372   6.831
 4675SOL    HW114924   2.027   5.302   6.869
 4675SOL    HW214925   2.175   5.371   6.879
 4676SOL     OW14926   0.629   6.278   4.248
 4676SOL    HW114927   0.532   6.258   4.235
 4676SOL    HW214928   0.660   6.243   4.336
 4677SOL     OW14929   3.920   6.931   6.929
 4677SOL    HW114930   3.823   6.954   6.938
 4677SOL    HW214931   3.939   6.845   6.977
 4678SOL     OW14932   2.070   4.292   0.151
 4678SOL    HW114933   1.981   4.266   0.188
 4678SOL    HW214934   2.063   4.303   0.052
 4679SOL     OW14935   2.592   6.639   5.698
 4679SOL    HW114936   2.593   6.736   5.674
 4679SOL    HW214937   2.560   6.628   5.792
 4680SOL     OW14938   1.468   4.678   0.055
 4680SOL    HW114939   1.402   4.625   0.108
 4680SOL    HW214940   1.506   4.751   0.111
 4681SOL     OW14941   6.785   5.785   4.312
 4681SOL    HW114942   6.812   5.689   4.326
 4681SOL    HW214943   6.797   5.808   4.215
 4682SOL     OW14944   3.229   6.186   0.577
 4682SOL    HW114945   3.232   6.100   0.527
 4682SOL    HW214946   3.242   6.262   0.513
 4683SOL     OW14947   7.009   4.708   3.323
 4683SOL    HW114948   0.000   4.672   3.416
 4683SOL    HW214949   6.933   4.773   3.324
 4684SOL     OW14950   1.803   1.470   5.243
 4684SOL    HW114951   1.798   1.391   5.304
 4684SOL    HW214952   1.752   1.450   5.159
 4685SOL     OW14953   5.027   4.611   5.334
 4685SOL    HW114954   5.007   4.698   5.291
 4685SOL    HW214955   5.123   4.586   5.318
 4686SOL     OW14956   5.187   6.209   0.269
 4686SOL    HW114957   5.211   6.305   0.257
 4686SOL    HW214958   5.207   6.159   0.185
 4687SOL     OW14959   5.311   6.423   4.196
 4687SOL    HW114960   5.277   6.381   4.112
 4687SOL    HW214961   5.250   6.498   4.223
 4688SOL     OW14962   0.870   1.931   0.400
 4688SOL    HW114963   0.959   1.961   0.434
 4688SOL    HW214964   0.865   1.831   0.404
 4689SOL     OW14965   1.905   5.011   4.472
 4689SOL    HW114966   1.976   5.077   4.497
 4689SOL    HW214967   1.922   4.925   4.520
 4690SOL     OW14968   1.759   1.396   0.810
 4690SOL    HW114969   1.709   1.342   0.878
 4690SOL    HW214970   1.855   1.369   0.809
 4691SOL     OW14971   3.783   4.735   0.208
 4691SOL    HW114972   3.811   4.724   0.304
 4691SOL    HW214973   3.691   4.772   0.204
 4692SOL     OW14974   0.475   5.774   3.084
 4692SOL    HW114975   0.480   5.782   3.184
 4692SOL    HW214976   0.544   5.832   3.042
 4693SOL     OW14977   0.797   0.798   3.810
 4693SOL    HW114978   0.867   0.727   3.802
 4693SOL    HW214979   0.749   0.807   3.722
 4694SOL     OW14980   1.053   1.239   5.920
 4694SOL    HW114981   1.031   1.310   5.853
 4694SOL    HW214982   1.002   1.255   6.004
 4695SOL     OW14983   2.958   2.973   1.821
 4695SOL    HW114984   3.020   3.012   1.889
 4695SOL    HW214985   3.003   2.895   1.777
 4696SOL     OW14986   5.921   3.666   0.286
 4696SOL    HW114987   5.827   3.700   0.285
 4696SOL    HW214988   5.919   3.566   0.284
 4697SOL     OW14989   1.223   5.493   6.406
 4697SOL    HW114990   1.287   5.437   6.459
 4697SOL    HW214991   1.255   5.498   6.311
 4698SOL     OW14992   5.998   3.702   2.240
 4698SOL    HW114993   5.959   3.720   2.331
 4698SOL    HW214994   6.049   3.616   2.242
 4699SOL     OW14995   6.635   6.864   2.995
 4699SOL    HW114996   6.551   6.818   3.025
 4699SOL    HW214997   6.616   6.962   2.981
 4700SOL     OW14998   5.353   6.954   6.928
 4700SOL    HW114999   5.343   6.915   7.019
 4700SOL    HW215000   5.388   0.025   6.936
 4701SOL     OW15001   0.923   0.870   0.323
 4701SOL    HW115002   0.887   0.792   0.273
 4701SOL    HW215003   0.922   0.951   0.264
 4702SOL     OW15004   2.546   3.450   0.039
 4702SOL    HW115005   2.505   3.469   0.129
 4702SOL    HW215006   2.640   3.418   0.052
 4703SOL     OW15007   1.516   0.871   1.618
 4703SOL    HW115008   1.443   0.935   1.592
 4703SOL    HW215009   1.562   0.838   1.537
 4704SOL     OW15010   4.615   6.878   0.079
 4704SOL    HW115011   4.584   6.953   0.138
 4704SOL    HW215012   4.701   6.841   0.115
 4705SOL     OW15013   3.256   4.117   4.168
 4705SOL    HW115014   3.348   4.088   4.140
 4705SOL    HW215015   3.258   4.145   4.264
 4706SOL     OW15016   4.837   4.890   0.874
 4706SOL    HW115017   4.891   4.862   0.954
 4706SOL    HW215018   4.740   4.892   0.898
 4707SOL     OW15019   3.287   6.209   1.335
 4707SOL    HW115020   3.223   6.247   1.268
 4707SOL    HW215021   3.237   6.180   1.416
 4708SOL     OW15022   1.614   2.847   2.888
 4708SOL    HW115023   1.600   2.891   2.799
 4708SOL    HW215024   1.533   2.861   2.945
 4709SOL     OW15025   2.680   3.871   0.264
 4709SOL    HW115026   2.743   3.797   0.286
 4709SOL    HW215027   2.705   3.953   0.316
 4710SOL     OW15028   5.136   2.710   1.243
 4710SOL    HW115029   5.071   2.786   1.248
 4710SOL    HW215030   5.086   2.625   1.222
 4711SOL     OW15031   2.739   6.745   3.030
 4711SOL    HW115032   2.811   6.710   3.090
 4711SOL    HW215033   2.777   6.819   2.973
 4712SOL     OW15034   1.635   4.357   6.991
 4712SOL    HW115035   1.585   4.270   6.999
 4712SOL    HW215036   1.664   4.386   0.059
 4713SOL     OW15037   2.155   5.640   1.360
 4713SOL    HW115038   2.100   5.567   1.319
 4713SOL    HW215039   2.226   5.669   1.297
 4714SOL     OW15040   2.932   1.995   0.745
 4714SOL    HW115041   2.920   2.054   0.825
 4714SOL    HW215042   2.921   2.049   0.661
 4715SOL     OW15043   5.241   4.360   4.809
 4715SOL    HW115044   5.148   4.388   4.835
 4715SOL    HW215045   5.272   4.287   4.870
 4716SOL     OW15046   2.719   5.096   0.498
 4716SOL    HW115047   2.665   5.118   0.579
 4716SOL    HW215048   2.720   5.175   0.437
 4717SOL     OW15049   1.621   5.610   4.448
 4717SOL    HW115050   1.703   5.554   4.446
 4717SOL    HW215051   1.643   5.701   4.482
 4718SOL     OW15052   5.486   0.927   6.526
 4718SOL    HW115053   5.493   0.980   6.441
 4718SOL    HW215054   5.561   0.862   6.531
 4719SOL     OW15055   4.561   3.205   1.647
 4719SOL    HW115056   4.616   3.148   1.709
 4719SOL    HW215057   4.571   3.301   1.672
 4720SOL     OW15058   2.758   0.905   4.119
 4720SOL    HW115059   2.831   0.959   4.161
 4720SOL    HW215060   2.669   0.940   4.148
 4721SOL     OW15061   1.270   1.853   0.812
 4721SOL    HW115062   1.201   1.909   0.857
 4721SOL    HW215063   1.358   1.900   0.814
 4722SOL     OW15064   3.392   0.607   2.569
 4722SOL    HW115065   3.418   0.564   2.655
 4722SOL    HW215066   3.327   0.548   2.521
 4723SOL     OW15067   2.843   0.047   6.111
 4723SOL    HW115068   2.843   6.988   6.168
 4723SOL    HW215069   2.767   0.107   6.138
 4724SOL     OW15070   3.933   5.020   1.436
 4724SOL    HW115071   4.027   4.994   1.458
 4724SOL    HW215072   3.919   5.117   1.456
 4725SOL     OW15073   5.646   5.014   3.166
 4725SOL    HW115074   5.592   4.940   3.126
 4725SOL    HW215075   5.679   5.075   3.093
 4726SOL     OW15076   0.591   5.911   5.270
 4726SOL    HW115077   0.515   5.872   5.322
 4726SOL    HW215078   0.678   5.877   5.307
 4727SOL     OW15079   6.166   6.348   1.220
 4727SOL    HW115080   6.124   6.337   1.310
 4727SOL    HW215081   6.256   6.304   1.220
 4728SOL     OW15082   0.473   0.565   7.012
 4728SOL    HW115083   0.450   0.481   6.962
 4728SOL    HW215084   0.448   0.644   6.956
 4729SOL     OW15085   2.891   0.313   0.575
 4729SOL    HW115086   2.802   0.350   0.600
 4729SOL    HW215087   2.962   0.379   0.596
 4730SOL     OW15088   2.081   0.658   5.210
 4730SOL    HW115089   2.115   0.747   5.181
 4730SOL    HW215090   2.154   0.590   5.199
 4731SOL     OW15091   5.807   1.834   0.019
 4731SOL    HW115092   5.762   1.903   6.984
 4731SOL    HW215093   5.742   1.763   0.044
 4732SOL     OW15094   0.409   1.577   0.355
 4732SOL    HW115095   0.439   1.537   0.268
 4732SOL    HW215096   0.489   1.600   0.410
 4733SOL     OW15097   6.665   3.296   4.190
 4733SOL    HW115098   6.702   3.377   4.146
 4733SOL    HW215099   6.694   3.214   4.141
 4734SOL     OW15100   4.780   4.368   6.107
 4734SOL    HW115101   4.795   4.331   6.015
 4734SOL    HW215102   4.856   4.429   6.130
 4735SOL     OW15103   0.077   4.616   3.578
 4735SOL    HW115104   0.064   4.576   3.669
 4735SOL    HW215105   0.165   4.664   3.574
 4736SOL     OW15106   2.297   6.998   1.443
 4736SOL    HW115107   2.317   6.935   1.367
 4736SOL    HW215108   2.341   6.965   1.526
 4737SOL     OW15109   3.325   5.265   1.498
 4737SOL    HW115110   3.287   5.252   1.590
 4737SOL    HW215111   3.415   5.222   1.493
 4738SOL     OW15112   6.789   6.190   3.158
 4738SOL    HW115113   6.848   6.155   3.085
 4738SOL    HW215114   6.839   6.187   3.244
 4739SOL     OW15115   4.259   0.037   1.162
 4739SOL    HW115116   4.227   6.989   1.225
 4739SOL    HW215117   4.280   0.120   1.214
 4740SOL     OW15118   0.620   2.252   3.843
 4740SOL    HW115119   0.614   2.160   3.882
 4740SOL    HW215120   0.547   2.309   3.882
 4741SOL     OW15121   3.629   3.525   1.060
 4741SOL    HW115122   3.679   3.555   0.979
 4741SOL    HW215123   3.684   3.458   1.110
 4742SOL     OW15124   4.127   1.118   0.619
 4742SOL    HW115125   4.157   1.054   0.690
 4742SOL    HW215126   4.037   1.155   0.643
 4743SOL     OW15127   1.794   5.949   0.648
 4743SOL    HW115128   1.812   5.903   0.561
 4743SOL    HW215129   1.876   5.998   0.678
 4744SOL     OW15130   1.745   5.507   1.357
 4744SOL    HW115131   1.834   5.491   1.316
 4744SOL    HW215132   1.694   5.420   1.362
 4745SOL     OW15133   1.685   3.276   0.058
 4745SOL    HW115134   1.750   3.212   0.017
 4745SOL    HW215135   1.673   3.355   7.021
 4746SOL     OW15136   5.044   5.638   3.956
 4746SOL    HW115137   5.026   5.640   3.858
 4746SOL    HW215138   4.976   5.581   4.002
 4747SOL     OW15139   2.518   0.893   6.454
 4747SOL    HW115140   2.562   0.824   6.512
 4747SOL    HW215141   2.544   0.984   6.486
 4748SOL     OW15142   2.118   6.809   1.592
 4748SOL    HW115143   2.177   6.761   1.527
 4748SOL    HW215144   2.135   6.774   1.684
 4749SOL     OW15145   2.423   1.687   0.864
 4749SOL    HW115146   2.427   1.744   0.782
 4749SOL    HW215147   2.327   1.668   0.886
 4750SOL     OW15148   4.738   3.098   5.698
 4750SOL    HW115149   4.683   3.014   5.697
 4750SOL    HW215150   4.750   3.128   5.792
 4751SOL     OW15151   4.972   1.464   3.478
 4751SOL    HW115152   4.955   1.366   3.466
 4751SOL    HW215153   4.906   1.501   3.544
 4752SOL     OW15154   5.567   1.339   6.620
 4752SOL    HW115155   5.506   1.298   6.689
 4752SOL    HW215156   5.657   1.355   6.660
 4753SOL     OW15157   3.182   6.738   4.668
 4753SOL    HW115158   3.084   6.732   4.653
 4753SOL    HW215159   3.202   6.811   4.734
 4754SOL     OW15160   4.827   4.913   6.514
 4754SOL    HW115161   4.888   4.842   6.479
 4754SOL    HW215162   4.732   4.885   6.501
 4755SOL     OW15163   0.514   1.056   1.313
 4755SOL    HW115164   0.455   1.029   1.237
 4755SOL    HW215165   0.609   1.036   1.290
 4756SOL     OW15166   6.785   3.832   5.569
 4756SOL    HW115167   6.746   3.909   5.518
 4756SOL    HW215168   6.853   3.866   5.635
 4757SOL     OW15169   2.115   3.545   6.956
 4757SOL    HW115170   2.134   3.643   6.968
 4757SOL    HW215171   2.168   3.511   6.878
 4758SOL     OW15172   2.426   5.706   3.492
 4758SOL    HW115173   2.342   5.652   3.491
 4758SOL    HW215174   2.500   5.652   3.452
 4759SOL     OW15175   0.616   6.761   1.845
 4759SOL    HW115176   0.597   6.802   1.934
 4759SOL    HW215177   0.713   6.772   1.823
 4760SOL     OW15178   1.967   5.525   0.824
 4760SOL    HW115179   1.919   5.612   0.831
 4760SOL    HW215180   1.932   5.474   0.744
 4761SOL     OW15181   5.192   6.983   1.815
 4761SOL    HW115182   5.280   6.996   1.862
 4761SOL    HW215183   5.197   7.023   1.724
 4762SOL     OW15184   1.654   0.146   2.433
 4762SOL    HW115185   1.595   0.226   2.431
 4762SOL    HW215186   1.724   0.155   2.362
 4763SOL     OW15187   5.768   5.673   2.341
 4763SOL    HW115188   5.729   5.765   2.344
 4763SOL    HW215189   5.821   5.662   2.256
 4764SOL     OW15190   4.834   3.113   0.540
 4764SOL    HW115191   4.753   3.058   0.520
 4764SOL    HW215192   4.807   3.195   0.590
 4765SOL     OW15193   4.306   1.799   6.034
 4765SOL    HW115194   4.253   1.740   5.974
 4765SOL    HW215195   4.396   1.816   5.995
 4766SOL     OW15196   1.409   1.063   4.577
 4766SOL    HW115197   1.310   1.052   4.582
 4766SOL    HW215198   1.453   0.973   4.585
 4767SOL     OW15199   2.050   4.613   3.458
 4767SOL    HW115200   2.129   4.675   3.465
 4767SOL    HW215201   1.974   4.650   3.510
 4768SOL     OW15202   4.925   2.401   6.406
 4768SOL    HW115203   5.018   2.431   6.387
 4768SOL    HW215204   4.867   2.481   6.422
 4769SOL     OW15205   1.283   3.037   0.454
 4769SOL    HW115206   1.299   3.126   0.496
 4769SOL    HW215207   1.338   3.029   0.370
 4770SOL     OW15208   0.122   1.415   3.614
 4770SOL    HW115209   0.126   1.315   3.619
 4770SOL    HW215210   0.080   1.443   3.528
 4771SOL     OW15211   1.751   0.213   4.315
 4771SOL    HW115212   1.742   0.304   4.355
 4771SOL    HW215213   1.822   0.214   4.245
 4772SOL     OW15214   2.743   5.367   2.722
 4772SOL    HW115215   2.810   5.293   2.732
 4772SOL    HW215216   2.791   5.455   2.724
 4773SOL     OW15217   2.847   5.166   4.851
 4773SOL    HW115218   2.832   5.217   4.766
 4773SOL    HW215219   2.916   5.214   4.906
 4774SOL     OW15220   0.953   4.312   1.120
 4774SOL    HW115221   1.050   4.295   1.135
 4774SOL    HW215222   0.924   4.268   1.034
 4775SOL     OW15223   6.225   5.413   4.842
 4775SOL    HW115224   6.142   5.409   4.898
 4775SOL    HW215225   6.304   5.431   4.902
 4776SOL     OW15226   0.282   1.628   5.455
 4776SOL    HW115227   0.268   1.680   5.371
 4776SOL    HW215228   0.305   1.533   5.433
 4777SOL     OW15229   1.529   6.739   3.513
 4777SOL    HW115230   1.481   6.744   3.425
 4777SOL    HW215231   1.502   6.816   3.570
 4778SOL     OW15232   1.641   0.803   0.134
 4778SOL    HW115233   1.656   0.802   0.035
 4778SOL    HW215234   1.728   0.817   0.180
 4779SOL     OW15235   5.149   0.681   5.024
 4779SOL    HW115236   5.140   0.765   4.969
 4779SOL    HW215237   5.092   0.609   4.983
 4780SOL     OW15238   4.717   2.832   4.406
 4780SOL    HW115239   4.710   2.843   4.506
 4780SOL    HW215240   4.762   2.912   4.368
 4781SOL     OW15241   1.180   5.125   2.068
 4781SOL    HW115242   1.144   5.151   1.978
 4781SOL    HW215243   1.266   5.173   2.085
 4782SOL     OW15244   6.912   6.415   4.206
 4782SOL    HW115245   7.002   6.371   4.203
 4782SOL    HW215246   6.874   6.419   4.113
 4783SOL     OW15247   6.928   3.603   6.143
 4783SOL    HW115248   6.978   3.689   6.134
 4783SOL    HW215249   6.888   3.578   6.055
 4784SOL     OW15250   5.303   3.482   0.157
 4784SOL    HW115251   5.322   3.425   0.077
 4784SOL    HW215252   5.213   3.524   0.147
 4785SOL     OW15253   0.700   0.440   3.862
 4785SOL    HW115254   0.774   0.477   3.805
 4785SOL    HW215255   0.620   0.500   3.856
 4786SOL     OW15256   0.622   5.775   0.103
 4786SOL    HW115257   0.617   5.794   0.202
 4786SOL    HW215258   0.558   5.702   0.080
 4787SOL     OW15259   5.010   1.266   4.700
 4787SOL    HW115260   4.948   1.336   4.665
 4787SOL    HW215261   5.076   1.241   4.629
 4788SOL     OW15262   0.198   6.380   0.803
 4788SOL    HW115263   0.291   6.347   0.818
 4788SOL    HW215264   0.162   6.419   0.887
 4789SOL     OW15265   6.348   1.078   2.822
 4789SOL    HW115266   6.356   1.034   2.733
 4789SOL    HW215267   6.439   1.090   2.862
 4790SOL     OW15268   6.928   2.070   4.560
 4790SOL    HW115269   6.990   2.131   4.609
 4790SOL    HW215270   6.895   2.115   4.477
 4791SOL     OW15271   0.652   0.251   6.939
 4791SOL    HW115272   0.687   0.325   6.996
 4791SOL    HW215273   0.717   0.175   6.940
 4792SOL     OW15274   1.779   3.694   2.195
 4792SOL    HW115275   1.754   3.597   2.203
 4792SOL    HW215276   1.870   3.702   2.154
 4793SOL     OW15277   1.168   4.230   5.598
 4793SOL    HW115278   1.146   4.236   5.696
 4793SOL    HW215279   1.267   4.239   5.586
 4794SOL     OW15280   4.767   1.969   5.027
 4794SOL    HW115281   4.864   1.946   5.021
 4794SOL    HW215282   4.727   1.966   4.935
 4795SOL     OW15283   6.658   1.547   6.196
 4795SOL    HW115284   6.713   1.490   6.257
 4795SOL    HW215285   6.600   1.608   6.251
 4796SOL     OW15286   4.682   1.370   4.831
 4796SOL    HW115287   4.661   1.433   4.905
 4796SOL    HW215288   4.750   1.303   4.863
 4797SOL     OW15289   2.095   4.889   6.255
 4797SOL    HW115290   1.998   4.904   6.272
 4797SOL    HW215291   2.146   4.905   6.340
 4798SOL     OW15292   3.661   5.740   0.178
 4798SOL    HW115293   3.669   5.755   0.080
 4798SOL    HW215294   3.730   5.793   0.227
 4799SOL     OW15295   4.327   2.639   0.440
 4799SOL    HW115296   4.294   2.604   0.352
 4799SOL    HW215297   4.400   2.580   0.473
 4800SOL     OW15298   0.886   4.454   0.116
 4800SOL    HW115299   0.820   4.480   0.186
 4800SOL    HW215300   0.940   4.376   0.147
 4801SOL     OW15301   5.510   2.138   2.888
 4801SOL    HW115302   5.527   2.236   2.876
 4801SOL    HW215303   5.598   2.090   2.893
 4802SOL     OW15304   6.748   0.267   4.388
 4802SOL    HW115305   6.673   0.332   4.375
 4802SOL    HW215306   6.753   0.241   4.484
 4803SOL     OW15307   4.931   4.265   5.556
 4803SOL    HW115308   5.012   4.212   5.528
 4803SOL    HW215309   4.957   4.329   5.628
 4804SOL     OW15310   4.932   2.085   0.699
 4804SOL    HW115311   4.926   1.985   0.699
 4804SOL    HW215312   4.880   2.121   0.622
 4805SOL     OW15313   5.764   1.301   0.125
 4805SOL    HW115314   5.731   1.257   0.209
 4805SOL    HW215315   5.686   1.322   0.066
 4806SOL     OW15316   1.265   1.293   3.087
 4806SOL    HW115317   1.223   1.208   3.120
 4806SOL    HW215318   1.200   1.368   3.096
 4807SOL     OW15319   6.508   4.138   6.410
 4807SOL    HW115320   6.491   4.237   6.408
 4807SOL    HW215321   6.501   4.105   6.504
 4808SOL     OW15322   3.512   5.721   2.441
 4808SOL    HW115323   3.533   5.635   2.396
 4808SOL    HW215324   3.427   5.758   2.405
 4809SOL     OW15325   3.301   3.764   1.356
 4809SOL    HW115326   3.322   3.778   1.453
 4809SOL    HW215327   3.202   3.758   1.344
 4810SOL     OW15328   1.907   5.248   4.210
 4810SOL    HW115329   1.897   5.347   4.222
 4810SOL    HW215330   1.846   5.200   4.273
 4811SOL     OW15331   3.402   3.456   4.542
 4811SOL    HW115332   3.416   3.368   4.588
 4811SOL    HW215333   3.365   3.440   4.451
 4812SOL     OW15334   1.685   6.361   3.014
 4812SOL    HW115335   1.700   6.373   3.112
 4812SOL    HW215336   1.772   6.336   2.970
 4813SOL     OW15337   0.729   2.440   5.171
 4813SOL    HW115338   0.805   2.382   5.140
 4813SOL    HW215339   0.652   2.382   5.197
 4814SOL     OW15340   6.748   3.300   0.841
 4814SOL    HW115341   6.724   3.309   0.744
 4814SOL    HW215342   6.735   3.205   0.870
 4815SOL     OW15343   6.147   4.656   2.011
 4815SOL    HW115344   6.098   4.640   1.925
 4815SOL    HW215345   6.194   4.745   2.006
 4816SOL     OW15346   3.091   0.597   2.845
 4816SOL    HW115347   3.154   0.659   2.891
 4816SOL    HW215348   3.135   0.509   2.831
 4817SOL     OW15349   4.513   2.232   1.136
 4817SOL    HW115350   4.463   2.195   1.058
 4817SOL    HW215351   4.499   2.173   1.216
 4818SOL     OW15352   4.215   0.165   4.257
 4818SOL    HW115353   4.224   0.252   4.305
 4818SOL    HW215354   4.124   0.159   4.216
 4819SOL     OW15355   2.610   0.728   0.685
 4819SOL    HW115356   2.656   0.802   0.636
 4819SOL    HW215357   2.568   0.764   0.768
 4820SOL     OW15358   6.338   4.250   1.695
 4820SOL    HW115359   6.254   4.274   1.744
 4820SOL    HW215360   6.314   4.204   1.609
 4821SOL     OW15361   0.178   5.973   1.907
 4821SOL    HW115362   0.083   5.975   1.938
 4821SOL    HW215363   0.185   5.917   1.825
 4822SOL     OW15364   0.744   4.168   1.820
 4822SOL    HW115365   0.755   4.142   1.724
 4822SOL    HW215366   0.738   4.086   1.877
 4823SOL     OW15367   0.766   1.304   3.456
 4823SOL    HW115368   0.801   1.391   3.488
 4823SOL    HW215369   0.729   1.315   3.363
 4824SOL     OW15370   5.863   2.841   1.893
 4824SOL    HW115371   5.816   2.914   1.843
 4824SOL    HW215372   5.838   2.752   1.853
 4825SOL     OW15373   0.403   2.910   4.103
 4825SOL    HW115374   0.348   2.991   4.080
 4825SOL    HW215375   0.371   2.873   4.190
 4826SOL     OW15376   7.007   6.488   0.207
 4826SOL    HW115377   6.988   6.546   0.129
 4826SOL    HW215378   6.936   6.499   0.276
 4827SOL     OW15379   5.029   1.548   0.231
 4827SOL    HW115380   5.087   1.473   0.202
 4827SOL    HW215381   5.063   1.634   0.193
 4828SOL     OW15382   5.164   3.841   6.540
 4828SOL    HW115383   5.152   3.812   6.635
 4828SOL    HW215384   5.080   3.825   6.489
 4829SOL     OW15385   4.058   0.332   5.073
 4829SOL    HW115386   4.019   0.274   5.144
 4829SOL    HW215387   4.022   0.425   5.082
 4830SOL     OW15388   4.763   5.652   5.395
 4830SOL    HW115389   4.729   5.568   5.353
 4830SOL    HW215390   4.686   5.710   5.421
 4831SOL     OW15391   6.007   3.370   6.703
 4831SOL    HW115392   5.950   3.360   6.622
 4831SOL    HW215393   6.095   3.411   6.678
 4832SOL     OW15394   1.723   2.600   6.141
 4832SOL    HW115395   1.661   2.610   6.063
 4832SOL    HW215396   1.817   2.591   6.108
 4833SOL     OW15397   6.170   1.786   3.419
 4833SOL    HW115398   6.192   1.835   3.335
 4833SOL    HW215399   6.245   1.723   3.442
 4834SOL     OW15400   5.725   0.441   3.181
 4834SOL    HW115401   5.822   0.423   3.196
 4834SOL    HW215402   5.713   0.534   3.148
 4835SOL     OW15403   1.346   1.003   6.055
 4835SOL    HW115404   1.254   0.988   6.019
 4835SOL    HW215405   1.343   1.076   6.124
 4836SOL     OW15406   5.894   2.963   2.153
 4836SOL    HW115407   5.853   3.054   2.159
 4836SOL    HW215408   5.865   2.918   2.069
 4837SOL     OW15409   0.493   3.943   1.117
 4837SOL    HW115410   0.579   3.986   1.090
 4837SOL    HW215411   0.462   3.981   1.204
 4838SOL     OW15412   2.840   5.115   2.027
 4838SOL    HW115413   2.770   5.048   2.051
 4838SOL    HW215414   2.897   5.134   2.107
 4839SOL     OW15415   0.792   6.890   6.606
 4839SOL    HW115416   0.793   6.857   6.512
 4839SOL    HW215417   0.714   6.951   6.619
 4840SOL     OW15418   6.344   6.560   6.380
 4840SOL    HW115419   6.347   6.506   6.295
 4840SOL    HW215420   6.411   6.634   6.374
 4841SOL     OW15421   2.242   5.452   1.804
 4841SOL    HW115422   2.260   5.514   1.880
 4841SOL    HW215423   2.187   5.499   1.735
 4842SOL     OW15424   3.492   6.349   1.451
 4842SOL    HW115425   3.434   6.431   1.446
 4842SOL    HW215426   3.438   6.268   1.430
 4843SOL     OW15427   1.266   2.807   6.678
 4843SOL    HW115428   1.195   2.807   6.607
 4843SOL    HW215429   1.350   2.766   6.641
 4844SOL     OW15430   0.520   1.765   5.538
 4844SOL    HW115431   0.438   1.727   5.495
 4844SOL    HW215432   0.588   1.783   5.467
 4845SOL     OW15433   5.575   5.465   3.723
 4845SOL    HW115434   5.644   5.510   3.780
 4845SOL    HW215435   5.575   5.367   3.741
 4846SOL     OW15436   0.257   5.283   6.817
 4846SOL    HW115437   0.323   5.214   6.848
 4846SOL    HW215438   0.171   5.271   6.868
 4847SOL     OW15439   5.201   2.775   4.717
 4847SOL    HW115440   5.245   2.742   4.801
 4847SOL    HW215441   5.116   2.726   4.702
 4848SOL     OW15442   2.563   2.066   1.628
 4848SOL    HW115443   2.506   2.120   1.689
 4848SOL    HW215444   2.622   2.126   1.574
 4849SOL     OW15445   1.475   6.179   5.787
 4849SOL    HW115446   1.555   6.216   5.740
 4849SOL    HW215447   1.404   6.157   5.720
 4850SOL     OW15448   3.959   0.137   3.309
 4850SOL    HW115449   4.058   0.123   3.308
 4850SOL    HW215450   3.917   0.087   3.233
 4851SOL     OW15451   4.988   1.181   5.126
 4851SOL    HW115452   4.943   1.141   5.046
 4851SOL    HW215453   4.953   1.137   5.209
 4852SOL     OW15454   1.151   1.691   1.907
 4852SOL    HW115455   1.104   1.630   1.843
 4852SOL    HW215456   1.140   1.786   1.876
 4853SOL     OW15457   3.500   1.901   1.690
 4853SOL    HW115458   3.473   1.997   1.685
 4853SOL    HW215459   3.578   1.885   1.629
 4854SOL     OW15460   3.433   0.075   6.889
 4854SOL    HW115461   3.502   0.148   6.892
 4854SOL    HW215462   3.467   7.018   6.940
 4855SOL     OW15463   6.505   3.422   2.620
 4855SOL    HW115464   6.527   3.480   2.541
 4855SOL    HW215465   6.577   3.432   2.689
 4856SOL     OW15466   1.893   4.309   3.083
 4856SOL    HW115467   1.794   4.302   3.090
 4856SOL    HW215468   1.930   4.342   3.170
 4857SOL     OW15469   0.350   1.270   5.927
 4857SOL    HW115470   0.423   1.248   5.992
 4857SOL    HW215471   0.346   1.369   5.914
 4858SOL     OW15472   1.286   0.603   3.497
 4858SOL    HW115473   1.272   0.684   3.554
 4858SOL    HW215474   1.218   0.603   3.423
 4859SOL     OW15475   3.570   5.809   6.148
 4859SOL    HW115476   3.545   5.814   6.052
 4859SOL    HW215477   3.491   5.829   6.205
 4860SOL     OW15478   4.078   3.768   0.806
 4860SOL    HW115479   4.055   3.692   0.868
 4860SOL    HW215480   4.050   3.743   0.713
 4861SOL     OW15481   4.907   3.848   6.397
 4861SOL    HW115482   4.955   3.933   6.372
 4861SOL    HW215483   4.905   3.787   6.317
 4862SOL     OW15484   0.793   6.364   1.159
 4862SOL    HW115485   0.712   6.420   1.176
 4862SOL    HW215486   0.768   6.288   1.099
 4863SOL     OW15487   5.070   4.553   6.447
 4863SOL    HW115488   5.009   4.570   6.524
 4863SOL    HW215489   5.162   4.534   6.480
 4864SOL     OW15490   3.135   1.180   3.976
 4864SOL    HW115491   3.233   1.188   3.996
 4864SOL    HW215492   3.094   1.271   3.976
 4865SOL     OW15493   1.710   6.661   5.411
 4865SOL    HW115494   1.637   6.621   5.466
 4865SOL    HW215495   1.704   6.761   5.414
 4866SOL     OW15496   6.539   4.002   6.638
 4866SOL    HW115497   6.597   4.003   6.720
 4866SOL    HW215498   6.475   3.926   6.644
 4867SOL     OW15499   4.690   0.808   3.051
 4867SOL    HW115500   4.727   0.777   3.138
 4867SOL    HW215501   4.591   0.795   3.050
 4868SOL     OW15502   6.705   4.534   0.749
 4868SOL    HW115503   6.749   4.447   0.726
 4868SOL    HW215504   6.610   4.533   0.717
 4869SOL     OW15505   0.613   1.291   0.882
 4869SOL    HW115506   0.537   1.262   0.824
 4869SOL    HW215507   0.661   1.211   0.917
 4870SOL     OW15508   0.517   6.793   1.586
 4870SOL    HW115509   0.555   6.818   1.675
 4870SOL    HW215510   0.591   6.772   1.523
 4871SOL     OW15511   1.269   1.330   3.654
 4871SOL    HW115512   1.335   1.268   3.697
 4871SOL    HW215513   1.316   1.413   3.626
 4872SOL     OW15514   6.100   6.489   2.580
 4872SOL    HW115515   6.165   6.557   2.544
 4872SOL    HW215516   6.033   6.467   2.508
 4873SOL     OW15517   6.605   5.379   5.006
 4873SOL    HW115518   6.660   5.415   5.081
 4873SOL    HW215519   6.652   5.396   4.919
 4874SOL     OW15520   4.759   2.713   3.213
 4874SOL    HW115521   4.754   2.800   3.263
 4874SOL    HW215522   4.685   2.653   3.243
 4875SOL     OW15523   6.041   6.286   5.011
 4875SOL    HW115524   6.007   6.196   4.988
 4875SOL    HW215525   5.980   6.330   5.078
 4876SOL     OW15526   0.708   1.071   2.051
 4876SOL    HW115527   0.670   0.983   2.024
 4876SOL    HW215528   0.645   1.144   2.027
 4877SOL     OW15529   6.079   1.544   6.238
 4877SOL    HW115530   6.090   1.640   6.265
 4877SOL    HW215531   6.116   1.530   6.147
 4878SOL     OW15532   6.853   3.714   2.137
 4878SOL    HW115533   6.863   3.802   2.090
 4878SOL    HW215534   6.802   3.727   2.222
 4879SOL     OW15535   5.485   1.016   2.751
 4879SOL    HW115536   5.555   1.067   2.801
 4879SOL    HW215537   5.530   0.954   2.686
 4880SOL     OW15538   6.613   3.160   6.782
 4880SOL    HW115539   6.551   3.087   6.812
 4880SOL    HW215540   6.639   3.145   6.687
 4881SOL     OW15541   1.705   2.696   1.663
 4881SOL    HW115542   1.747   2.706   1.753
 4881SOL    HW215543   1.773   2.716   1.593
 4882SOL     OW15544   5.110   2.485   4.081
 4882SOL    HW115545   5.124   2.563   4.143
 4882SOL    HW215546   5.023   2.441   4.103
 4883SOL     OW15547   6.021   4.738   0.679
 4883SOL    HW115548   5.972   4.668   0.730
 4883SOL    HW215549   5.976   4.826   0.690
 4884SOL     OW15550   1.844   0.840   1.662
 4884SOL    HW115551   1.850   0.849   1.562
 4884SOL    HW215552   1.894   0.916   1.705
 4885SOL     OW15553   1.216   4.179   0.017
 4885SOL    HW115554   1.185   4.240   6.967
 4885SOL    HW215555   1.160   4.193   0.099
 4886SOL     OW15556   2.946   0.765   2.065
 4886SOL    HW115557   2.848   0.783   2.053
 4886SOL    HW215558   2.964   0.668   2.048
 4887SOL     OW15559   5.398   6.494   0.022
 4887SOL    HW115560   5.324   6.478   0.088
 4887SOL    HW215561   5.455   6.413   0.015
 4888SOL     OW15562   4.489   0.164   2.663
 4888SOL    HW115563   4.414   0.143   2.726
 4888SOL    HW215564   4.520   0.257   2.677
 4889SOL     OW15565   6.429   3.559   4.569
 4889SOL    HW115566   6.341   3.534   4.528
 4889SOL    HW215567   6.502   3.551   4.501
 4890SOL     OW15568   6.685   1.591   4.625
 4890SOL    HW115569   6.727   1.681   4.625
 4890SOL    HW215570   6.631   1.578   4.542
 4891SOL     OW15571   3.029   5.062   6.812
 4891SOL    HW115572   3.010   5.147   6.763
 4891SOL    HW215573   3.117   5.026   6.784
 4892SOL     OW15574   4.952   5.151   2.390
 4892SOL    HW115575   4.963   5.064   2.342
 4892SOL    HW215576   4.864   5.152   2.438
 4893SOL     OW15577   0.992   3.141   1.129
 4893SOL    HW115578   1.045   3.138   1.044
 4893SOL    HW215579   1.055   3.149   1.207
 4894SOL     OW15580   4.915   6.460   1.464
 4894SOL    HW115581   5.010   6.443   1.437
 4894SOL    HW215582   4.897   6.415   1.551
 4895SOL     OW15583   0.313   4.487   5.592
 4895SOL    HW115584   0.289   4.538   5.509
 4895SOL    HW215585   0.410   4.464   5.590
 4896SOL     OW15586   2.601   4.997   4.917
 4896SOL    HW115587   2.546   5.073   4.953
 4896SOL    HW215588   2.683   5.033   4.873
 4897SOL     OW15589   1.858   0.845   4.843
 4897SOL    HW115590   1.812   0.759   4.863
 4897SOL    HW215591   1.814   0.919   4.894
 4898SOL     OW15592   4.881   1.650   3.665
 4898SOL    HW115593   4.811   1.720   3.678
 4898SOL    HW215594   4.964   1.676   3.714
 4899SOL     OW15595   6.372   6.527   1.559
 4899SOL    HW115596   6.354   6.608   1.502
 4899SOL    HW215597   6.409   6.454   1.501
 4900SOL     OW15598   4.172   6.179   5.921
 4900SOL    HW115599   4.189   6.102   5.859
 4900SOL    HW215600   4.129   6.254   5.871
 4901SOL     OW15601   1.255   0.534   6.668
 4901SOL    HW115602   1.350   0.504   6.668
 4901SOL    HW215603   1.194   0.456   6.684
 4902SOL     OW15604   2.852   6.891   5.600
 4902SOL    HW115605   2.946   6.913   5.573
 4902SOL    HW215606   2.852   6.810   5.658
 4903SOL     OW15607   5.131   3.543   2.879
 4903SOL    HW115608   5.098   3.459   2.923
 4903SOL    HW215609   5.137   3.528   2.780
 4904SOL     OW15610   1.344   0.154   1.292
 4904SOL    HW115611   1.274   0.109   1.236
 4904SOL    HW215612   1.311   0.243   1.322
 4905SOL     OW15613   2.630   0.056   3.144
 4905SOL    HW115614   2.593   7.005   3.088
 4905SOL    HW215615   2.663   0.018   3.231
 4906SOL     OW15616   4.962   3.778   4.951
 4906SOL    HW115617   4.994   3.796   4.858
 4906SOL    HW215618   4.896   3.703   4.950
 4907SOL     OW15619   4.292   2.177   0.037
 4907SOL    HW115620   4.333   2.121   6.988
 4907SOL    HW215621   4.224   2.238   7.019
 4908SOL     OW15622   3.658   0.166   0.026
 4908SOL    HW115623   3.684   0.070   0.012
 4908SOL    HW215624   3.649   0.184   0.124
 4909SOL     OW15625   5.162   4.920   4.633
 4909SOL    HW115626   5.095   4.983   4.595
 4909SOL    HW215627   5.246   4.923   4.577
 4910SOL     OW15628   4.213   2.448   6.481
 4910SOL    HW115629   4.189   2.366   6.533
 4910SOL    HW215630   4.312   2.455   6.473
 4911SOL     OW15631   6.620   3.984   2.581
 4911SOL    HW115632   6.680   4.062   2.599
 4911SOL    HW215633   6.549   4.012   2.515
 4912SOL     OW15634   5.659   2.712   4.122
 4912SOL    HW115635   5.616   2.759   4.199
 4912SOL    HW215636   5.600   2.638   4.090
 4913SOL     OW15637   0.783   4.060   5.013
 4913SOL    HW115638   0.743   4.120   4.943
 4913SOL    HW215639   0.871   4.099   5.043
 4914SOL     OW15640   4.258   0.466   3.884
 4914SOL    HW115641   4.261   0.566   3.886
 4914SOL    HW215642   4.348   0.429   3.908
 4915SOL     OW15643   3.780   5.319   5.623
 4915SOL    HW115644   3.719   5.282   5.553
 4915SOL    HW215645   3.786   5.255   5.699
 4916SOL     OW15646   5.863   2.150   3.527
 4916SOL    HW115647   5.808   2.200   3.461
 4916SOL    HW215648   5.837   2.177   3.620
 4917SOL     OW15649   3.660   6.903   0.027
 4917SOL    HW115650   3.692   6.846   0.103
 4917SOL    HW215651   3.592   6.853   6.997
 4918SOL     OW15652   5.558   4.977   3.564
 4918SOL    HW115653   5.473   5.024   3.587
 4918SOL    HW215654   5.546   4.879   3.572
 4919SOL     OW15655   3.198   3.472   1.849
 4919SOL    HW115656   3.265   3.452   1.778
 4919SOL    HW215657   3.122   3.523   1.811
 4920SOL     OW15658   5.588   1.665   5.963
 4920SOL    HW115659   5.621   1.572   5.975
 4920SOL    HW215660   5.665   1.729   5.968
 4921SOL     OW15661   0.040   0.004   1.957
 4921SOL    HW115662   0.080   6.963   1.890
 4921SOL    HW215663   0.079   0.095   1.943
 4922SOL     OW15664   3.311   1.445   6.224
 4922SOL    HW115665   3.390   1.459   6.165
 4922SOL    HW215666   3.301   1.347   6.242
 4923SOL     OW15667   3.740   1.448   1.774
 4923SOL    HW115668   3.654   1.420   1.816
 4923SOL    HW215669   3.767   1.537   1.810
 4924SOL     OW15670   2.407   0.877   5.142
 4924SOL    HW115671   2.427   0.972   5.166
 4924SOL    HW215672   2.400   0.822   5.225
 4925SOL     OW15673   5.398   5.738   3.475
 4925SOL    HW115674   5.419   5.648   3.435
 4925SOL    HW215675   5.434   5.810   3.416
 4926SOL     OW15676   5.265   2.905   1.369
 4926SOL    HW115677   5.218   2.830   1.322
 4926SOL    HW215678   5.280   2.980   1.304
 4927SOL     OW15679   2.907   1.386   0.124
 4927SOL    HW115680   3.006   1.379   0.109
 4927SOL    HW215681   2.890   1.420   0.216
 4928SOL     OW15682   6.950   2.231   0.704
 4928SOL    HW115683   6.878   2.291   0.739
 4928SOL    HW215684   6.932   2.137   0.734
 4929SOL     OW15685   0.256   6.497   5.136
 4929SOL    HW115686   0.335   6.482   5.196
 4929SOL    HW215687   0.255   6.426   5.065
 4930SOL     OW15688   4.947   5.752   2.639
 4930SOL    HW115689   4.917   5.760   2.734
 4930SOL    HW215690   4.940   5.656   2.611
 4931SOL     OW15691   0.021   0.015   0.674
 4931SOL    HW115692   6.968   0.032   0.611
 4931SOL    HW215693   0.006   6.951   0.722
 4932SOL     OW15694   3.497   3.019   2.395
 4932SOL    HW115695   3.580   3.000   2.341
 4932SOL    HW215696   3.431   3.067   2.338
 4933SOL     OW15697   1.292   0.272   5.928
 4933SOL    HW115698   1.288   0.315   5.837
 4933SOL    HW215699   1.212   0.298   5.981
 4934SOL     OW15700   3.876   6.577   1.866
 4934SOL    HW115701   3.918   6.487   1.859
 4934SOL    HW215702   3.838   6.590   1.958
 4935SOL     OW15703   0.564   0.931   5.371
 4935SOL    HW115704   0.608   0.978   5.295
 4935SOL    HW215705   0.506   0.857   5.336
 4936SOL     OW15706   4.444   2.438   0.816
 4936SOL    HW115707   4.435   2.365   0.749
 4936SOL    HW215708   4.469   2.523   0.769
 4937SOL     OW15709   4.614   2.749   5.072
 4937SOL    HW115710   4.569   2.660   5.058
 4937SOL    HW215711   4.566   2.800   5.143
 4938SOL     OW15712   3.663   4.734   6.659
 4938SOL    HW115713   3.713   4.655   6.694
 4938SOL    HW215714   3.592   4.703   6.596
 4939SOL     OW15715   4.890   3.444   6.123
 4939SOL    HW115716   4.957   3.422   6.052
 4939SOL    HW215717   4.882   3.543   6.132
 4940SOL     OW15718   2.303   6.691   3.752
 4940SOL    HW115719   2.236   6.631   3.796
 4940SOL    HW215720   2.262   6.735   3.672
 4941SOL     OW15721   5.584   0.541   0.683
 4941SOL    HW115722   5.618   0.500   0.768
 4941SOL    HW215723   5.529   0.622   0.705
 4942SOL     OW15724   5.003   3.249   6.615
 4942SOL    HW115725   4.946   3.182   6.662
 4942SOL    HW215726   4.982   3.250   6.517
 4943SOL     OW15727   5.361   2.729   1.082
 4943SOL    HW115728   5.360   2.812   1.026
 4943SOL    HW215729   5.275   2.721   1.132
 4944SOL     OW15730   2.182   4.173   2.127
 4944SOL    HW115731   2.142   4.082   2.119
 4944SOL    HW215732   2.111   4.243   2.116
 4945SOL     OW15733   6.871   6.208   4.428
 4945SOL    HW115734   6.847   6.291   4.377
 4945SOL    HW215735   6.818   6.131   4.392
 4946SOL     OW15736   0.079   4.268   2.141
 4946SOL    HW115737   0.045   4.344   2.087
 4946SOL    HW215738   0.142   4.213   2.086
 4947SOL     OW15739   6.765   0.538   1.021
 4947SOL    HW115740   6.786   0.447   1.055
 4947SOL    HW215741   6.745   0.599   1.097
 4948SOL     OW15742   2.455   1.208   2.190
 4948SOL    HW115743   2.516   1.258   2.127
 4948SOL    HW215744   2.376   1.265   2.211
 4949SOL     OW15745   5.298   2.621   4.455
 4949SOL    HW115746   5.373   2.563   4.488
 4949SOL    HW215747   5.225   2.622   4.523
 4950SOL     OW15748   3.456   4.964   4.935
 4950SOL    HW115749   3.407   4.948   5.021
 4950SOL    HW215750   3.538   5.018   4.953
 4951SOL     OW15751   4.571   2.125   3.803
 4951SOL    HW115752   4.549   2.115   3.706
 4951SOL    HW215753   4.489   2.110   3.858
 4952SOL     OW15754   0.063   4.747   5.258
 4952SOL    HW115755   0.006   4.786   5.330
 4952SOL    HW215756   0.106   4.820   5.205
 4953SOL     OW15757   1.877   5.026   2.161
 4953SOL    HW115758   1.872   5.097   2.091
 4953SOL    HW215759   1.830   4.944   2.130
 4954SOL     OW15760   6.255   6.551   0.094
 4954SOL    HW115761   6.212   6.633   0.058
 4954SOL    HW215762   6.251   6.551   0.194
 4955SOL     OW15763   1.379   0.796   0.947
 4955SOL    HW115764   1.470   0.759   0.927
 4955SOL    HW215765   1.309   0.731   0.915
 4956SOL     OW15766   6.197   6.477   4.154
 4956SOL    HW115767   6.103   6.498   4.182
 4956SOL    HW215768   6.205   6.483   4.055
 4957SOL     OW15769   2.155   6.071   3.737
 4957SOL    HW115770   2.206   6.078   3.823
 4957SOL    HW215771   2.057   6.065   3.757
 4958SOL     OW15772   0.207   6.668   6.654
 4958SOL    HW115773   0.297   6.633   6.678
 4958SOL    HW215774   0.151   6.594   6.616
 4959SOL     OW15775   0.454   1.097   6.683
 4959SOL    HW115776   0.475   1.025   6.749
 4959SOL    HW215777   0.536   1.120   6.631
 4960SOL     OW15778   4.094   6.971   5.348
 4960SOL    HW115779   4.039   7.010   5.421
 4960SOL    HW215780   4.132   6.883   5.379
 4961SOL     OW15781   4.732   0.890   5.368
 4961SOL    HW115782   4.794   0.897   5.290
 4961SOL    HW215783   4.715   0.793   5.388
 4962SOL     OW15784   6.394   2.119   1.944
 4962SOL    HW115785   6.384   2.212   1.977
 4962SOL    HW215786   6.386   2.118   1.844
 4963SOL     OW15787   6.654   4.832   0.796
 4963SOL    HW115788   6.570   4.847   0.744
 4963SOL    HW215789   6.666   4.734   0.813
 4964SOL     OW15790   3.597   6.608   3.071
 4964SOL    HW115791   3.696   6.592   3.071
 4964SOL    HW215792   3.574   6.673   3.143
 4965SOL     OW15793   6.894   6.269   4.686
 4965SOL    HW115794   6.804   6.280   4.728
 4965SOL    HW215795   6.883   6.241   4.590
 4966SOL     OW15796   4.275   5.849   4.564
 4966SOL    HW115797   4.226   5.765   4.542
 4966SOL    HW215798   4.373   5.829   4.576
 4967SOL     OW15799   5.493   2.027   6.502
 4967SOL    HW115800   5.452   2.002   6.415
 4967SOL    HW215801   5.448   2.109   6.537
 4968SOL     OW15802   5.564   4.442   6.970
 4968SOL    HW115803   5.546   4.434   0.045
 4968SOL    HW215804   5.661   4.461   6.956
 4969SOL     OW15805   0.906   1.911   1.159
 4969SOL    HW115806   0.843   1.951   1.092
 4969SOL    HW215807   0.918   1.975   1.235
 4970SOL     OW15808   1.938   3.081   5.932
 4970SOL    HW115809   1.902   3.165   5.972
 4970SOL    HW215810   1.904   3.070   5.839
 4971SOL     OW15811   0.073   5.228   3.876
 4971SOL    HW115812   0.075   5.129   3.864
 4971SOL    HW215813   0.083   5.272   3.786
 4972SOL     OW15814   1.858   2.338   5.398
 4972SOL    HW115815   1.950   2.306   5.419
 4972SOL    HW215816   1.791   2.273   5.435
 4973SOL     OW15817   5.471   5.716   3.105
 4973SOL    HW115818   5.389   5.664   3.131
 4973SOL    HW215819   5.449   5.777   3.029
 4974SOL     OW15820   4.446   6.346   0.395
 4974SOL    HW115821   4.363   6.361   0.448
 4974SOL    HW215822   4.525   6.376   0.447
 4975SOL     OW15823   4.543   6.108   0.345
 4975SOL    HW115824   4.508   6.080   0.256
 4975SOL    HW215825   4.493   6.189   0.377
 4976SOL     OW15826   2.485   0.779   4.054
 4976SOL    HW115827   2.577   0.740   4.047
 4976SOL    HW215828   2.432   0.755   3.974
 4977SOL     OW15829   2.969   2.746   0.135
 4977SOL    HW115830   2.881   2.706   0.162
 4977SOL    HW215831   3.037   2.730   0.207
 4978SOL     OW15832   6.220   4.064   6.862
 4978SOL    HW115833   6.317   4.066   6.889
 4978SOL    HW215834   6.195   4.152   6.822
 4979SOL     OW15835   2.063   2.305   4.154
 4979SOL    HW115836   1.993   2.240   4.122
 4979SOL    HW215837   2.063   2.307   4.254
 4980SOL     OW15838   2.250   4.752   3.187
 4980SOL    HW115839   2.218   4.658   3.199
 4980SOL    HW215840   2.334   4.752   3.134
 4981SOL     OW15841   4.722   6.516   5.374
 4981SOL    HW115842   4.676   6.440   5.328
 4981SOL    HW215843   4.783   6.481   5.444
 4982SOL     OW15844   2.791   2.231   0.249
 4982SOL    HW115845   2.703   2.272   0.225
 4982SOL    HW215846   2.798   2.140   0.207
 4983SOL     OW15847   6.368   2.973   4.919
 4983SOL    HW115848   6.316   2.917   4.854
 4983SOL    HW215849   6.451   2.924   4.946
 4984SOL     OW15850   4.841   4.342   3.171
 4984SOL    HW115851   4.808   4.343   3.265
 4984SOL    HW215852   4.789   4.274   3.119
 4985SOL     OW15853   5.226   4.377   1.809
 4985SOL    HW115854   5.250   4.473   1.794
 4985SOL    HW215855   5.140   4.357   1.763
 4986SOL     OW15856   4.464   4.478   3.247
 4986SOL    HW115857   4.468   4.578   3.235
 4986SOL    HW215858   4.423   4.437   3.165
 4987SOL     OW15859   0.527   3.386   0.743
 4987SOL    HW115860   0.590   3.309   0.752
 4987SOL    HW215861   0.579   3.471   0.738
 4988SOL     OW15862   1.528   2.088   5.216
 4988SOL    HW115863   1.452   2.131   5.264
 4988SOL    HW215864   1.554   2.145   5.138
 4989SOL     OW15865   0.036   0.943   0.530
 4989SOL    HW115866   6.988   0.999   0.573
 4989SOL    HW215867   0.103   0.916   0.599
 4990SOL     OW15868   0.945   2.334   6.127
 4990SOL    HW115869   0.944   2.427   6.163
 4990SOL    HW215870   1.003   2.276   6.185
 4991SOL     OW15871   2.506   1.864   5.153
 4991SOL    HW115872   2.576   1.918   5.199
 4991SOL    HW215873   2.549   1.796   5.093
 4992SOL     OW15874   4.291   0.633   4.424
 4992SOL    HW115875   4.387   0.608   4.439
 4992SOL    HW215876   4.287   0.724   4.382
 4993SOL     OW15877   1.786   6.196   4.050
 4993SOL    HW115878   1.700   6.184   4.001
 4993SOL    HW215879   1.772   6.179   4.147
 4994SOL     OW15880   0.425   6.822   2.723
 4994SOL    HW115881   0.458   6.858   2.635
 4994SOL    HW215882   0.400   6.898   2.783
 4995SOL     OW15883   6.057   2.947   5.782
 4995SOL    HW115884   6.108   2.910   5.859
 4995SOL    HW215885   5.959   2.933   5.797
 4996SOL     OW15886   0.193   1.747   3.923
 4996SOL    HW115887   0.222   1.729   3.829
 4996SOL    HW215888   0.096   1.724   3.932
 4997SOL     OW15889   0.397   2.185   4.271
 4997SOL    HW115890   0.479   2.129   4.278
 4997SOL    HW215891   0.356   2.173   4.181
 4998SOL     OW15892   0.949   5.355   5.210
 4998SOL    HW115893   1.006   5.353   5.293
 4998SOL    HW215894   0.949   5.264   5.168
 4999SOL     OW15895   6.629   5.068   0.954
 4999SOL    HW115896   6.606   4.982   0.909
 4999SOL    HW215897   6.659   5.049   1.048
 5000SOL     OW15898   0.144   5.322   4.153
 5000SOL    HW115899   0.111   5.327   4.059
 5000SOL    HW215900   0.234   5.277   4.154
 5001SOL     OW15901   4.562   4.768   5.356
 5001SOL    HW115902   4.520   4.850   5.318
 5001SOL    HW215903   4.619   4.792   5.435
 5002SOL     OW15904   2.076   2.410   1.758
 5002SOL    HW115905   2.010   2.377   1.826
 5002SOL    HW215906   2.030   2.420   1.669
 5003SOL     OW15907   6.640   5.049   3.974
 5003SOL    HW115908   6.599   5.057   4.065
 5003SOL    HW215909   6.721   5.106   3.969
 5004SOL     OW15910   3.130   4.276   6.262
 5004SOL    HW115911   3.175   4.190   6.239
 5004SOL    HW215912   3.184   4.326   6.330
 5005SOL     OW15913   4.479   1.718   0.164
 5005SOL    HW115914   4.508   1.625   0.144
 5005SOL    HW215915   4.429   1.756   0.086
 5006SOL     OW15916   5.609   4.486   2.537
 5006SOL    HW115917   5.543   4.490   2.462
 5006SOL    HW215918   5.561   4.470   2.623
 5007SOL     OW15919   3.735   1.562   5.274
 5007SOL    HW115920   3.641   1.596   5.262
 5007SOL    HW215921   3.776   1.546   5.184
 5008SOL     OW15922   6.455   0.669   3.585
 5008SOL    HW115923   6.361   0.671   3.620
 5008SOL    HW215924   6.456   0.618   3.499
 5009SOL     OW15925   2.007   5.774   1.768
 5009SOL    HW115926   1.928   5.713   1.773
 5009SOL    HW215927   1.976   5.869   1.772
 5010SOL     OW15928   3.676   3.072   5.676
 5010SOL    HW115929   3.587   3.064   5.630
 5010SOL    HW215930   3.727   2.987   5.666
 5011SOL     OW15931   1.419   2.520   3.793
 5011SOL    HW115932   1.401   2.599   3.734
 5011SOL    HW215933   1.436   2.440   3.736
 5012SOL     OW15934   5.575   2.993   6.959
 5012SOL    HW115935   5.650   3.058   6.973
 5012SOL    HW215936   5.493   3.027   7.007
 5013SOL     OW15937   4.859   2.298   5.794
 5013SOL    HW115938   4.913   2.276   5.713
 5013SOL    HW215939   4.869   2.226   5.862
 5014SOL     OW15940   6.590   5.829   6.458
 5014SOL    HW115941   6.507   5.787   6.496
 5014SOL    HW215942   6.666   5.764   6.465
 5015SOL     OW15943   5.534   2.069   3.940
 5015SOL    HW115944   5.505   2.054   3.846
 5015SOL    HW215945   5.576   2.159   3.948
 5016SOL     OW15946   2.253   6.393   2.388
 5016SOL    HW115947   2.348   6.385   2.359
 5016SOL    HW215948   2.247   6.382   2.487
 5017SOL     OW15949   1.088   2.043   2.168
 5017SOL    HW115950   1.138   1.956   2.163
 5017SOL    HW215951   1.078   2.069   2.264
 5018SOL     OW15952   0.002   4.963   3.836
 5018SOL    HW115953   6.983   4.972   3.746
 5018SOL    HW215954   6.961   4.918   3.898
 5019SOL     OW15955   2.741   5.409   5.538
 5019SOL    HW115956   2.673   5.366   5.479
 5019SOL    HW215957   2.709   5.500   5.565
 5020SOL     OW15958   4.217   5.077   6.777
 5020SOL    HW115959   4.286   5.014   6.813
 5020SOL    HW215960   4.228   5.086   6.678
 5021SOL     OW15961   2.332   4.161   5.487
 5021SOL    HW115962   2.377   4.193   5.404
 5021SOL    HW215963   2.307   4.064   5.477
 5022SOL     OW15964   2.290   3.851   1.181
 5022SOL    HW115965   2.252   3.801   1.258
 5022SOL    HW215966   2.232   3.838   1.100
 5023SOL     OW15967   6.796   3.008   4.360
 5023SOL    HW115968   6.782   2.956   4.276
 5023SOL    HW215969   6.715   2.999   4.419
 5024SOL     OW15970   5.143   3.604   5.561
 5024SOL    HW115971   5.217   3.633   5.621
 5024SOL    HW215972   5.142   3.505   5.554
 5025SOL     OW15973   6.627   1.052   3.715
 5025SOL    HW115974   6.552   1.109   3.681
 5025SOL    HW215975   6.702   1.111   3.745
 5026SOL     OW15976   0.841   6.205   3.039
 5026SOL    HW115977   0.831   6.140   3.115
 5026SOL    HW215978   0.925   6.257   3.050
 5027SOL     OW15979   0.652   6.118   3.794
 5027SOL    HW115980   0.632   6.086   3.702
 5027SOL    HW215981   0.687   6.211   3.790
 5028SOL     OW15982   0.709   6.957   2.766
 5028SOL    HW115983   0.688   6.874   2.818
 5028SOL    HW215984   0.728   6.932   2.671
 5029SOL     OW15985   6.673   1.596   3.383
 5029SOL    HW115986   6.760   1.643   3.399
 5029SOL    HW215987   6.691   1.504   3.349
 5030SOL     OW15988   2.187   5.837   0.096
 5030SOL    HW115989   2.230   5.764   0.149
 5030SOL    HW215990   2.129   5.798   0.026
 5031SOL     OW15991   5.237   1.066   6.442
 5031SOL    HW115992   5.234   1.055   6.542
 5031SOL    HW215993   5.324   1.108   6.416
 5032SOL     OW15994   1.435   6.033   2.344
 5032SOL    HW115995   1.502   5.960   2.329
 5032SOL    HW215996   1.480   6.122   2.342
 5033SOL     OW15997   0.586   3.714   5.287
 5033SOL    HW115998   0.518   3.765   5.340
 5033SOL    HW215999   0.559   3.712   5.191
 5034SOL     OW16000   6.612   3.998   6.199
 5034SOL    HW116001   6.642   4.073   6.140
 5034SOL    HW216002   6.562   4.035   6.277
 5035SOL     OW16003   6.437   4.481   1.293
 5035SOL    HW116004   6.491   4.527   1.222
 5035SOL    HW216005   6.495   4.418   1.343
 5036SOL     OW16006   1.510   0.737   2.306
 5036SOL    HW116007   1.460   0.795   2.241
 5036SOL    HW216008   1.604   0.769   2.314
 5037SOL     OW16009   4.739   2.716   2.950
 5037SOL    HW116010   4.754   2.724   3.048
 5037SOL    HW216011   4.761   2.803   2.905
 5038SOL     OW16012   3.021   5.730   5.033
 5038SOL    HW116013   3.072   5.697   4.954
 5038SOL    HW216014   3.022   5.661   5.105
 5039SOL     OW16015   1.368   2.107   3.019
 5039SOL    HW116016   1.381   2.008   3.026
 5039SOL    HW216017   1.457   2.153   3.012
 5040SOL     OW16018   3.127   3.562   5.907
 5040SOL    HW116019   3.069   3.581   5.986
 5040SOL    HW216020   3.070   3.544   5.827
 5041SOL     OW16021   0.479   5.760   0.816
 5041SOL    HW116022   0.394   5.812   0.816
 5041SOL    HW216023   0.556   5.821   0.831
 5042SOL     OW16024   5.768   1.534   5.580
 5042SOL    HW116025   5.673   1.506   5.563
 5042SOL    HW216026   5.809   1.565   5.495
 5043SOL     OW16027   5.032   6.756   3.942
 5043SOL    HW116028   4.991   6.846   3.928
 5043SOL    HW216029   5.120   6.751   3.895
 5044SOL     OW16030   5.675   4.919   1.670
 5044SOL    HW116031   5.667   4.886   1.765
 5044SOL    HW216032   5.584   4.925   1.629
 5045SOL     OW16033   5.363   3.820   4.859
 5045SOL    HW116034   5.446   3.766   4.849
 5045SOL    HW216035   5.298   3.796   4.787
 5046SOL     OW16036   3.855   3.438   5.629
 5046SOL    HW116037   3.874   3.405   5.722
 5046SOL    HW216038   3.941   3.471   5.589
 5047SOL     OW16039   0.392   1.983   2.554
 5047SOL    HW116040   0.459   1.910   2.554
 5047SOL    HW216041   0.306   1.950   2.515
 5048SOL     OW16042   5.795   3.492   1.275
 5048SOL    HW116043   5.754   3.524   1.189
 5048SOL    HW216044   5.728   3.437   1.325
 5049SOL     OW16045   0.805   2.012   1.595
 5049SOL    HW116046   0.879   2.066   1.556
 5049SOL    HW216047   0.809   1.919   1.557
 5050SOL     OW16048   1.414   3.892   0.447
 5050SOL    HW116049   1.462   3.848   0.523
 5050SOL    HW216050   1.336   3.943   0.483
 5051SOL     OW16051   2.540   3.647   6.638
 5051SOL    HW116052   2.508   3.628   6.546
 5051SOL    HW216053   2.556   3.745   6.648
 5052SOL     OW16054   5.783   3.238   0.473
 5052SOL    HW116055   5.826   3.236   0.564
 5052SOL    HW216056   5.697   3.188   0.476
 5053SOL     OW16057   1.724   4.269   1.117
 5053SOL    HW116058   1.728   4.169   1.117
 5053SOL    HW216059   1.806   4.306   1.160
 5054SOL     OW16060   4.037   6.080   5.188
 5054SOL    HW116061   4.007   6.167   5.151
 5054SOL    HW216062   3.958   6.020   5.202
 5055SOL     OW16063   1.429   2.006   3.765
 5055SOL    HW116064   1.350   2.066   3.756
 5055SOL    HW216065   1.498   2.032   3.698
 5056SOL     OW16066   3.138   2.188   5.481
 5056SOL    HW116067   3.161   2.127   5.556
 5056SOL    HW216068   3.173   2.152   5.395
 5057SOL     OW16069   0.387   4.289   3.036
 5057SOL    HW116070   0.481   4.274   3.005
 5057SOL    HW216071   0.337   4.343   2.968
 5058SOL     OW16072   3.680   2.005   0.685
 5058SOL    HW116073   3.720   1.977   0.772
 5058SOL    HW216074   3.581   1.990   0.687
 5059SOL     OW16075   4.586   2.052   3.078
 5059SOL    HW116076   4.624   2.144   3.077
 5059SOL    HW216077   4.500   2.050   3.027
 5060SOL     OW16078   7.015   3.337   5.810
 5060SOL    HW116079   6.964   3.422   5.827
 5060SOL    HW216080   0.024   3.299   5.897
 5061SOL     OW16081   4.225   2.545   5.999
 5061SOL    HW116082   4.155   2.542   5.928
 5061SOL    HW216083   4.181   2.540   6.089
 5062SOL     OW16084   5.439   1.120   3.381
 5062SOL    HW116085   5.343   1.113   3.355
 5062SOL    HW216086   5.455   1.205   3.431
 5063SOL     OW16087   1.134   1.086   1.399
 5063SOL    HW116088   1.042   1.105   1.433
 5063SOL    HW216089   1.136   1.098   1.299
 5064SOL     OW16090   5.676   5.185   0.814
 5064SOL    HW116091   5.581   5.176   0.786
 5064SOL    HW216092   5.728   5.106   0.783
 5065SOL     OW16093   2.508   1.423   2.492
 5065SOL    HW116094   2.522   1.372   2.407
 5065SOL    HW216095   2.448   1.501   2.476
 5066SOL     OW16096   1.697   5.382   2.634
 5066SOL    HW116097   1.701   5.392   2.535
 5066SOL    HW216098   1.713   5.286   2.658
 5067SOL     OW16099   5.805   3.105   1.461
 5067SOL    HW116100   5.767   3.013   1.454
 5067SOL    HW216101   5.890   3.102   1.515
 5068SOL     OW16102   1.632   6.156   0.785
 5068SOL    HW116103   1.686   6.235   0.757
 5068SOL    HW216104   1.664   6.075   0.736
 5069SOL     OW16105   4.422   5.525   5.562
 5069SOL    HW116106   4.349   5.584   5.526
 5069SOL    HW216107   4.435   5.545   5.659
 5070SOL     OW16108   5.840   3.398   5.666
 5070SOL    HW116109   5.745   3.366   5.674
 5070SOL    HW216110   5.900   3.341   5.722
 5071SOL     OW16111   2.598   6.449   3.423
 5071SOL    HW116112   2.551   6.492   3.500
 5071SOL    HW216113   2.571   6.353   3.418
 5072SOL     OW16114   0.891   1.192   1.496
 5072SOL    HW116115   0.874   1.234   1.586
 5072SOL    HW216116   0.826   1.117   1.482
 5073SOL     OW16117   1.922   1.098   3.636
 5073SOL    HW116118   1.988   1.148   3.692
 5073SOL    HW216119   1.897   1.013   3.683
 5074SOL     OW16120   3.091   2.231   1.542
 5074SOL    HW116121   3.157   2.163   1.510
 5074SOL    HW216122   3.055   2.202   1.631
 5075SOL     OW16123   6.451   3.072   0.614
 5075SOL    HW116124   6.511   3.014   0.668
 5075SOL    HW216125   6.504   3.146   0.573
 5076SOL     OW16126   0.004   1.012   5.576
 5076SOL    HW116127   0.051   1.030   5.662
 5076SOL    HW216128   6.972   1.092   5.551
 5077SOL     OW16129   0.780   4.376   3.645
 5077SOL    HW116130   0.764   4.295   3.590
 5077SOL    HW216131   0.832   4.352   3.727
 5078SOL     OW16132   6.314   2.338   3.692
 5078SOL    HW116133   6.274   2.353   3.601
 5078SOL    HW216134   6.330   2.240   3.705
 5079SOL     OW16135   1.462   3.578   4.751
 5079SOL    HW116136   1.409   3.659   4.726
 5079SOL    HW216137   1.483   3.580   4.849
 5080SOL     OW16138   5.940   5.885   6.662
 5080SOL    HW116139   6.029   5.855   6.627
 5080SOL    HW216140   5.953   5.951   6.736
 5081SOL     OW16141   2.407   4.520   5.313
 5081SOL    HW116142   2.373   4.487   5.225
 5081SOL    HW216143   2.500   4.486   5.327
 5082SOL     OW16144   5.723   5.857   1.197
 5082SOL    HW116145   5.664   5.886   1.122
 5082SOL    HW216146   5.771   5.774   1.171
 5083SOL     OW16147   2.219   0.455   3.969
 5083SOL    HW116148   2.136   0.501   3.937
 5083SOL    HW216149   2.200   0.358   3.983
 5084SOL     OW16150   3.616   4.541   5.590
 5084SOL    HW116151   3.595   4.511   5.497
 5084SOL    HW216152   3.532   4.567   5.636
 5085SOL     OW16153   0.636   4.681   5.459
 5085SOL    HW116154   0.648   4.601   5.400
 5085SOL    HW216155   0.596   4.756   5.405
 5086SOL     OW16156   1.555   4.819   2.276
 5086SOL    HW116157   1.583   4.788   2.367
 5086SOL    HW216158   1.509   4.908   2.284
 5087SOL     OW16159   0.061   4.888   2.093
 5087SOL    HW116160   6.986   4.880   2.114
 5087SOL    HW216161   0.109   4.806   2.125
 5088SOL     OW16162   4.723   5.402   2.307
 5088SOL    HW116163   4.667   5.321   2.295
 5088SOL    HW216164   4.679   5.464   2.373
 5089SOL     OW16165   5.123   5.864   6.129
 5089SOL    HW116166   5.199   5.922   6.157
 5089SOL    HW216167   5.055   5.858   6.202
 5090SOL     OW16168   2.742   6.455   4.865
 5090SOL    HW116169   2.680   6.414   4.797
 5090SOL    HW216170   2.831   6.471   4.823
 5091SOL     OW16171   6.925   6.294   6.142
 5091SOL    HW116172   6.973   6.371   6.184
 5091SOL    HW216173   6.892   6.233   6.215
 5092SOL     OW16174   3.684   3.523   4.203
 5092SOL    HW116175   3.738   3.494   4.124
 5092SOL    HW216176   3.649   3.442   4.251
 5093SOL     OW16177   2.813   2.298   2.843
 5093SOL    HW116178   2.898   2.283   2.894
 5093SOL    HW216179   2.825   2.267   2.749
 5094SOL     OW16180   1.653   5.990   4.585
 5094SOL    HW116181   1.558   5.960   4.573
 5094SOL    HW216182   1.707   5.962   4.505
 5095SOL     OW16183   6.948   1.275   3.122
 5095SOL    HW116184   6.932   1.258   3.025
 5095SOL    HW216185   6.962   1.188   3.170
 5096SOL     OW16186   6.381   3.055   5.577
 5096SOL    HW116187   6.416   2.971   5.619
 5096SOL    HW216188   6.422   3.065   5.486
 5097SOL     OW16189   0.629   0.578   5.744
 5097SOL    HW116190   0.708   0.546   5.693
 5097SOL    HW216191   0.547   0.528   5.714
 5098SOL     OW16192   3.422   2.733   0.228
 5098SOL    HW116193   3.344   2.781   0.269
 5098SOL    HW216194   3.438   2.647   0.277
 5099SOL     OW16195   1.739   6.231   2.190
 5099SOL    HW116196   1.762   6.220   2.094
 5099SOL    HW216197   1.814   6.195   2.246
 5100SOL     OW16198   5.244   3.181   2.246
 5100SOL    HW116199   5.295   3.117   2.188
 5100SOL    HW216200   5.172   3.225   2.193
 5101SOL     OW16201   3.218   0.526   4.930
 5101SOL    HW116202   3.170   0.607   4.965
 5101SOL    HW216203   3.164   0.445   4.951
 5102SOL     OW16204   5.375   5.063   4.813
 5102SOL    HW116205   5.316   5.010   4.752
 5102SOL    HW216206   5.325   5.143   4.846
 5103SOL     OW16207   0.966   0.350   6.011
 5103SOL    HW116208   1.001   0.440   6.039
 5103SOL    HW216209   0.867   0.356   5.997
 5104SOL     OW16210   4.111   3.367   2.952
 5104SOL    HW116211   4.090   3.342   3.046
 5104SOL    HW216212   4.026   3.386   2.902
 5105SOL     OW16213   4.119   3.140   0.164
 5105SOL    HW116214   4.040   3.150   0.223
 5105SOL    HW216215   4.098   3.074   0.091
 5106SOL     OW16216   3.629   1.567   1.460
 5106SOL    HW116217   3.666   1.640   1.517
 5106SOL    HW216218   3.631   1.595   1.364
 5107SOL     OW16219   6.124   5.101   0.825
 5107SOL    HW116220   6.046   5.075   0.768
 5107SOL    HW216221   6.159   5.190   0.796
 5108SOL     OW16222   3.442   4.810   1.275
 5108SOL    HW116223   3.374   4.883   1.269
 5108SOL    HW216224   3.533   4.848   1.257
 5109SOL     OW16225   1.333   2.716   2.823
 5109SOL    HW116226   1.396   2.754   2.756
 5109SOL    HW216227   1.334   2.772   2.905
 5110SOL     OW16228   4.973   6.885   5.220
 5110SOL    HW116229   5.025   6.814   5.173
 5110SOL    HW216230   5.013   6.975   5.199
 5111SOL     OW16231   1.356   5.460   5.471
 5111SOL    HW116232   1.383   5.380   5.523
 5111SOL    HW216233   1.433   5.492   5.416
 5112SOL     OW16234   1.318   6.195   3.523
 5112SOL    HW116235   1.364   6.135   3.588
 5112SOL    HW216236   1.383   6.227   3.455
 5113SOL     OW16237   2.006   4.340   0.547
 5113SOL    HW116238   1.969   4.416   0.494
 5113SOL    HW216239   2.038   4.269   0.485
 5114SOL     OW16240   4.385   4.753   1.371
 5114SOL    HW116241   4.378   4.788   1.464
 5114SOL    HW216242   4.456   4.804   1.321
 5115SOL     OW16243   1.654   3.946   0.600
 5115SOL    HW116244   1.624   3.898   0.683
 5115SOL    HW216245   1.730   4.006   0.622
 5116SOL     OW16246   0.772   6.873   5.040
 5116SOL    HW116247   0.731   6.788   5.073
 5116SOL    HW216248   0.830   6.852   4.960
 5117SOL     OW16249   0.197   2.467   3.666
 5117SOL    HW116250   0.253   2.390   3.696
 5117SOL    HW216251   0.211   2.483   3.568
 5118SOL     OW16252   4.369   5.774   0.269
 5118SOL    HW116253   4.425   5.692   0.280
 5118SOL    HW216254   4.274   5.748   0.254
 5119SOL     OW16255   5.612   1.804   0.549
 5119SOL    HW116256   5.514   1.783   0.546
 5119SOL    HW216257   5.643   1.804   0.644
 5120SOL     OW16258   5.095   6.823   6.852
 5120SOL    HW116259   5.080   6.755   6.780
 5120SOL    HW216260   5.192   6.848   6.855
 5121SOL     OW16261   1.496   3.358   6.242
 5121SOL    HW116262   1.411   3.397   6.205
 5121SOL    HW216263   1.495   3.364   6.342
 5122SOL     OW16264   4.850   4.731   3.808
 5122SOL    HW116265   4.844   4.668   3.730
 5122SOL    HW216266   4.773   4.715   3.869
 5123SOL     OW16267   4.759   2.941   2.317
 5123SOL    HW116268   4.844   2.971   2.360
 5123SOL    HW216269   4.755   2.977   2.224
 5124SOL     OW16270   1.233   6.045   4.965
 5124SOL    HW116271   1.258   6.110   5.037
 5124SOL    HW216272   1.217   5.955   5.007
 5125SOL     OW16273   6.433   1.661   3.763
 5125SOL    HW116274   6.346   1.711   3.755
 5125SOL    HW216275   6.509   1.723   3.746
 5126SOL     OW16276   1.901   0.871   1.999
 5126SOL    HW116277   1.836   0.812   2.047
 5126SOL    HW216278   1.987   0.875   2.050
 5127SOL     OW16279   2.713   6.141   6.959
 5127SOL    HW116280   2.791   6.079   6.962
 5127SOL    HW216281   2.651   6.114   6.884
 5128SOL     OW16282   5.425   7.019   1.925
 5128SOL    HW116283   5.516   0.037   1.916
 5128SOL    HW216284   5.434   6.924   1.954
 5129SOL     OW16285   6.322   6.747   0.589
 5129SOL    HW116286   6.333   6.837   0.547
 5129SOL    HW216287   6.225   6.727   0.599
 5130SOL     OW16288   6.217   5.063   2.286
 5130SOL    HW116289   6.178   5.145   2.244
 5130SOL    HW216290   6.286   5.024   2.224
 5131SOL     OW16291   2.011   2.438   2.518
 5131SOL    HW116292   2.068   2.401   2.591
 5131SOL    HW216293   1.944   2.369   2.490
 5132SOL     OW16294   2.628   5.942   5.000
 5132SOL    HW116295   2.630   6.015   5.068
 5132SOL    HW216296   2.654   5.856   5.043
 5133SOL     OW16297   3.578   6.016   5.550
 5133SOL    HW116298   3.555   6.031   5.646
 5133SOL    HW216299   3.546   6.093   5.495
 5134SOL     OW16300   6.350   3.628   6.172
 5134SOL    HW116301   6.253   3.632   6.149
 5134SOL    HW216302   6.385   3.721   6.184
 5135SOL     OW16303   6.207   1.393   4.511
 5135SOL    HW116304   6.267   1.341   4.451
 5135SOL    HW216305   6.252   1.407   4.600
 5136SOL     OW16306   3.928   2.047   5.815
 5136SOL    HW116307   3.940   2.144   5.834
 5136SOL    HW216308   4.017   2.003   5.802
 5137SOL     OW16309   3.366   3.280   6.950
 5137SOL    HW116310   3.373   3.275   6.850
 5137SOL    HW216311   3.438   3.340   6.985
 5138SOL     OW16312   2.415   3.454   6.227
 5138SOL    HW116313   2.328   3.505   6.220
 5138SOL    HW216314   2.478   3.503   6.287
 5139SOL     OW16315   0.648   0.101   3.470
 5139SOL    HW116316   0.549   0.088   3.468
 5139SOL    HW216317   0.680   0.122   3.377
 5140SOL     OW16318   3.094   2.756   1.699
 5140SOL    HW116319   3.014   2.754   1.638
 5140SOL    HW216320   3.113   2.663   1.730
 5141SOL     OW16321   0.767   4.448   6.245
 5141SOL    HW116322   0.699   4.422   6.313
 5141SOL    HW216323   0.781   4.372   6.181
 5142SOL     OW16324   6.077   2.909   2.859
 5142SOL    HW116325   6.046   2.946   2.771
 5142SOL    HW216326   6.016   2.834   2.887
 5143SOL     OW16327   6.776   5.175   5.269
 5143SOL    HW116328   6.731   5.264   5.267
 5143SOL    HW216329   6.724   5.110   5.214
 5144SOL     OW16330   2.028   1.483   5.086
 5144SOL    HW116331   2.027   1.556   5.019
 5144SOL    HW216332   1.956   1.499   5.154
 5145SOL     OW16333   3.539   5.462   5.824
 5145SOL    HW116334   3.594   5.543   5.845
 5145SOL    HW216335   3.494   5.430   5.908
 5146SOL     OW16336   2.524   5.163   0.009
 5146SOL    HW116337   2.586   5.091   0.042
 5146SOL    HW216338   2.465   5.192   0.084
 5147SOL     OW16339   6.649   5.470   6.461
 5147SOL    HW116340   6.712   5.545   6.447
 5147SOL    HW216341   6.608   5.443   6.374
 5148SOL     OW16342   0.585   0.463   0.654
 5148SOL    HW116343   0.543   0.402   0.721
 5148SOL    HW216344   0.681   0.477   0.678
 5149SOL     OW16345   0.224   0.763   5.860
 5149SOL    HW116346   0.320   0.788   5.843
 5149SOL    HW216347   0.190   0.708   5.785
 5150SOL     OW16348   2.421   5.670   4.292
 5150SOL    HW116349   2.407   5.579   4.253
 5150SOL    HW216350   2.517   5.681   4.319
 5151SOL     OW16351   4.255   0.979   5.726
 5151SOL    HW116352   4.206   0.968   5.639
 5151SOL    HW216353   4.331   0.914   5.730
 5152SOL     OW16354   0.768   4.843   0.370
 5152SOL    HW116355   0.742   4.939   0.378
 5152SOL    HW216356   0.802   4.810   0.458
 5153SOL     OW16357   1.871   2.056   1.075
 5153SOL    HW116358   1.874   2.028   1.172
 5153SOL    HW216359   1.892   1.977   1.018
 5154SOL     OW16360   1.546   4.369   5.679
 5154SOL    HW116361   1.534   4.418   5.592
 5154SOL    HW216362   1.470   4.390   5.740
 5155SOL     OW16363   3.630   0.734   2.834
 5155SOL    HW116364   3.680   0.672   2.895
 5155SOL    HW216365   3.665   0.723   2.741
 5156SOL     OW16366   5.338   2.782   6.097
 5156SOL    HW116367   5.343   2.788   6.197
 5156SOL    HW216368   5.397   2.708   6.065
 5157SOL     OW16369   6.116   2.475   4.088
 5157SOL    HW116370   6.036   2.531   4.105
 5157SOL    HW216371   6.140   2.424   4.171
 5158SOL     OW16372   3.847   0.632   0.953
 5158SOL    HW116373   3.838   0.630   1.053
 5158SOL    HW216374   3.767   0.678   0.913
 5159SOL     OW16375   2.183   3.676   5.110
 5159SOL    HW116376   2.205   3.579   5.117
 5159SOL    HW216377   2.200   3.720   5.198
 5160SOL     OW16378   1.837   2.689   4.254
 5160SOL    HW116379   1.883   2.626   4.192
 5160SOL    HW216380   1.740   2.666   4.259
 5161SOL     OW16381   2.097   3.106   6.383
 5161SOL    HW116382   2.000   3.129   6.393
 5161SOL    HW216383   2.129   3.060   6.466
 5162SOL     OW16384   6.674   5.160   4.597
 5162SOL    HW116385   6.585   5.142   4.555
 5162SOL    HW216386   6.698   5.084   4.658
 5163SOL     OW16387   5.673   4.105   0.852
 5163SOL    HW116388   5.645   4.055   0.935
 5163SOL    HW216389   5.692   4.039   0.779
 5164SOL     OW16390   5.787   5.816   5.552
 5164SOL    HW116391   5.834   5.776   5.630
 5164SOL    HW216392   5.710   5.758   5.525
 5165SOL     OW16393   6.280   3.906   4.726
 5165SOL    HW116394   6.252   4.002   4.733
 5165SOL    HW216395   6.287   3.867   4.818
 5166SOL     OW16396   1.665   6.908   1.711
 5166SOL    HW116397   1.610   6.855   1.776
 5166SOL    HW216398   1.639   6.883   1.617
 5167SOL     OW16399   1.766   0.402   5.475
 5167SOL    HW116400   1.707   0.424   5.397
 5167SOL    HW216401   1.717   0.418   5.560
 5168SOL     OW16402   4.127   1.895   2.867
 5168SOL    HW116403   4.156   1.989   2.886
 5168SOL    HW216404   4.171   1.863   2.784
 5169SOL     OW16405   4.026   4.287   6.403
 5169SOL    HW116406   3.993   4.364   6.458
 5169SOL    HW216407   3.950   4.226   6.382
 5170SOL     OW16408   4.330   5.317   4.441
 5170SOL    HW116409   4.392   5.288   4.368
 5170SOL    HW216410   4.380   5.324   4.527
 5171SOL     OW16411   2.393   4.805   4.930
 5171SOL    HW116412   2.443   4.891   4.927
 5171SOL    HW216413   2.457   4.728   4.932
 5172SOL     OW16414   1.933   4.517   0.355
 5172SOL    HW116415   1.890   4.475   0.275
 5172SOL    HW216416   2.016   4.565   0.326
 5173SOL     OW16417   6.674   2.619   5.965
 5173SOL    HW116418   6.755   2.597   6.019
 5173SOL    HW216419   6.598   2.643   6.026
 5174SOL     OW16420   1.961   4.759   5.869
 5174SOL    HW116421   2.031   4.816   5.912
 5174SOL    HW216422   1.891   4.818   5.828
 5175SOL     OW16423   0.382   5.332   5.959
 5175SOL    HW116424   0.325   5.286   5.890
 5175SOL    HW216425   0.426   5.412   5.918
 5176SOL     OW16426   4.844   4.231   5.877
 5176SOL    HW116427   4.752   4.199   5.854
 5176SOL    HW216428   4.903   4.223   5.797
 5177SOL     OW16429   5.385   5.596   5.885
 5177SOL    HW116430   5.312   5.603   5.817
 5177SOL    HW216431   5.455   5.664   5.865
 5178SOL     OW16432   2.422   2.395   1.198
 5178SOL    HW116433   2.360   2.344   1.257
 5178SOL    HW216434   2.403   2.493   1.206
 5179SOL     OW16435   3.246   6.107   5.516
 5179SOL    HW116436   3.331   6.144   5.480
 5179SOL    HW216437   3.168   6.147   5.467
 5180SOL     OW16438   3.285   1.587   0.213
 5180SOL    HW116439   3.236   1.518   0.160
 5180SOL    HW216440   3.333   1.542   0.288
 5181SOL     OW16441   2.816   5.958   2.488
 5181SOL    HW116442   2.768   6.038   2.452
 5181SOL    HW216443   2.814   5.884   2.420
 5182SOL     OW16444   4.628   3.982   1.387
 5182SOL    HW116445   4.572   3.991   1.469
 5182SOL    HW216446   4.588   4.035   1.312
 5183SOL     OW16447   3.944   1.192   3.530
 5183SOL    HW116448   3.912   1.132   3.457
 5183SOL    HW216449   3.971   1.138   3.609
 5184SOL     OW16450   1.109   2.125   3.025
 5184SOL    HW116451   1.120   2.073   3.109
 5184SOL    HW216452   1.197   2.168   3.000
 5185SOL     OW16453   3.564   0.075   1.994
 5185SOL    HW116454   3.563   0.163   1.945
 5185SOL    HW216455   3.471   0.039   2.000
 5186SOL     OW16456   5.487   4.957   0.043
 5186SOL    HW116457   5.484   5.044   0.092
 5186SOL    HW216458   5.465   4.883   0.106
 5187SOL     OW16459   5.348   1.502   4.468
 5187SOL    HW116460   5.301   1.497   4.557
 5187SOL    HW216461   5.300   1.568   4.410
 5188SOL     OW16462   1.140   2.656   3.721
 5188SOL    HW116463   1.181   2.607   3.645
 5188SOL    HW216464   1.154   2.605   3.806
 5189SOL     OW16465   4.325   6.003   6.901
 5189SOL    HW116466   4.329   5.904   6.897
 5189SOL    HW216467   4.349   6.034   6.993
 5190SOL     OW16468   2.065   2.973   2.697
 5190SOL    HW116469   1.988   2.950   2.757
 5190SOL    HW216470   2.142   2.914   2.718
 5191SOL     OW16471   5.255   0.467   2.179
 5191SOL    HW116472   5.330   0.437   2.119
 5191SOL    HW216473   5.239   0.565   2.166
 5192SOL     OW16474   6.112   4.307   1.839
 5192SOL    HW116475   6.031   4.248   1.847
 5192SOL    HW216476   6.082   4.403   1.835
 5193SOL     OW16477   4.726   4.184   2.201
 5193SOL    HW116478   4.767   4.097   2.175
 5193SOL    HW216479   4.640   4.197   2.151
 5194SOL     OW16480   5.025   1.150   0.395
 5194SOL    HW116481   5.061   1.059   0.374
 5194SOL    HW216482   5.006   1.156   0.494
 5195SOL     OW16483   6.296   6.244   5.030
 5195SOL    HW116484   6.202   6.271   5.011
 5195SOL    HW216485   6.308   6.230   5.128
 5196SOL     OW16486   0.125   3.591   2.410
 5196SOL    HW116487   0.159   3.578   2.503
 5196SOL    HW216488   0.201   3.579   2.345
 5197SOL     OW16489   3.334   5.578   5.266
 5197SOL    HW116490   3.351   5.490   5.310
 5197SOL    HW216491   3.356   5.652   5.329
 5198SOL     OW16492   4.116   1.169   4.982
 5198SOL    HW116493   4.156   1.224   5.055
 5198SOL    HW216494   4.033   1.214   4.948
 5199SOL     OW16495   0.287   5.811   1.723
 5199SOL    HW116496   0.353   5.797   1.797
 5199SOL    HW216497   0.287   5.732   1.663
 5200SOL     OW16498   6.759   6.992   5.149
 5200SOL    HW116499   6.696   7.000   5.227
 5200SOL    HW216500   6.800   6.902   5.150
 5201SOL     OW16501   5.795   4.969   5.389
 5201SOL    HW116502   5.730   4.953   5.464
 5201SOL    HW216503   5.879   4.919   5.407
 5202SOL     OW16504   3.942   2.937   5.556
 5202SOL    HW116505   3.872   2.868   5.570
 5202SOL    HW216506   3.981   2.928   5.465
 5203SOL     OW16507   1.517   0.213   6.090
 5203SOL    HW116508   1.432   0.247   6.048
 5203SOL    HW216509   1.566   0.157   6.023
 5204SOL     OW16510   1.989   0.675   1.206
 5204SOL    HW116511   2.064   0.635   1.153
 5204SOL    HW216512   1.994   0.642   1.300
 5205SOL     OW16513   6.819   0.298   1.521
 5205SOL    HW116514   6.898   0.359   1.527
 5205SOL    HW216515   6.829   0.237   1.442
 5206SOL     OW16516   1.257   4.204   4.148
 5206SOL    HW116517   1.234   4.285   4.094
 5206SOL    HW216518   1.176   4.174   4.198
 5207SOL     OW16519   5.551   6.503   4.750
 5207SOL    HW116520   5.638   6.485   4.797
 5207SOL    HW216521   5.531   6.601   4.754
 5208SOL     OW16522   6.607   1.787   0.510
 5208SOL    HW116523   6.551   1.822   0.585
 5208SOL    HW216524   6.679   1.852   0.489
 5209SOL     OW16525   5.426   6.569   3.543
 5209SOL    HW116526   5.468   6.509   3.476
 5209SOL    HW216527   5.497   6.607   3.603
 5210SOL     OW16528   5.515   4.566   1.000
 5210SOL    HW116529   5.467   4.532   1.081
 5210SOL    HW216530   5.614   4.568   1.017
 5211SOL     OW16531   5.261   3.039   4.810
 5211SOL    HW116532   5.357   3.019   4.828
 5211SOL    HW216533   5.218   2.961   4.763
 5212SOL     OW16534   0.103   3.941   0.731
 5212SOL    HW116535   0.036   3.967   0.661
 5212SOL    HW216536   0.169   4.015   0.743
 5213SOL     OW16537   3.842   3.398   2.830
 5213SOL    HW116538   3.865   3.328   2.762
 5213SOL    HW216539   3.856   3.488   2.790
 5214SOL     OW16540   5.388   3.077   5.730
 5214SOL    HW116541   5.386   3.139   5.808
 5214SOL    HW216542   5.295   3.044   5.711
 5215SOL     OW16543   7.010   5.116   5.400
 5215SOL    HW116544   0.012   5.200   5.448
 5215SOL    HW216545   6.931   5.134   5.340
 5216SOL     OW16546   5.454   4.947   1.241
 5216SOL    HW116547   5.549   4.957   1.270
 5216SOL    HW216548   5.451   4.918   1.145
 5217SOL     OW16549   4.644   6.983   2.797
 5217SOL    HW116550   4.551   6.948   2.782
 5217SOL    HW216551   4.640   0.044   2.852
 5218SOL     OW16552   6.329   0.067   0.573
 5218SOL    HW116553   6.385   0.072   0.655
 5218SOL    HW216554   6.239   0.029   0.597
 5219SOL     OW16555   3.568   1.422   5.073
 5219SOL    HW116556   3.540   1.412   4.978
 5219SOL    HW216557   3.529   1.506   5.111
 5220SOL     OW16558   2.309   4.785   4.348
 5220SOL    HW116559   2.238   4.733   4.396
 5220SOL    HW216560   2.399   4.761   4.385
 5221SOL     OW16561   5.188   6.011   1.304
 5221SOL    HW116562   5.127   6.072   1.354
 5221SOL    HW216563   5.204   6.047   1.212
 5222SOL     OW16564   6.922   3.466   2.097
 5222SOL    HW116565   6.909   3.562   2.125
 5222SOL    HW216566   6.908   3.407   2.177
 5223SOL     OW16567   6.314   2.777   0.898
 5223SOL    HW116568   6.244   2.784   0.828
 5223SOL    HW216569   6.282   2.821   0.982
 5224SOL     OW16570   1.269   1.822   5.094
 5224SOL    HW116571   1.278   1.827   5.193
 5224SOL    HW216572   1.234   1.732   5.068
 5225SOL     OW16573   6.806   1.952   4.896
 5225SOL    HW116574   6.771   1.861   4.877
 5225SOL    HW216575   6.901   1.958   4.867
 5226SOL     OW16576   0.131   6.223   4.514
 5226SOL    HW116577   0.033   6.207   4.504
 5226SOL    HW216578   0.158   6.208   4.609
 5227SOL     OW16579   0.981   3.486   5.791
 5227SOL    HW116580   0.992   3.570   5.739
 5227SOL    HW216581   0.931   3.419   5.736
 5228SOL     OW16582   1.121   1.949   5.441
 5228SOL    HW116583   1.044   1.888   5.420
 5228SOL    HW216584   1.203   1.894   5.456
 5229SOL     OW16585   3.478   1.942   6.055
 5229SOL    HW116586   3.464   1.907   6.148
 5229SOL    HW216587   3.390   1.965   6.015
 5230SOL     OW16588   6.488   0.521   2.553
 5230SOL    HW116589   6.548   0.460   2.502
 5230SOL    HW216590   6.478   0.488   2.647
 5231SOL     OW16591   6.329   3.768   2.321
 5231SOL    HW116592   6.412   3.798   2.273
 5231SOL    HW216593   6.261   3.738   2.254
 5232SOL     OW16594   1.708   2.457   5.771
 5232SOL    HW116595   1.626   2.496   5.729
 5232SOL    HW216596   1.762   2.530   5.812
 5233SOL     OW16597   3.761   0.030   3.141
 5233SOL    HW116598   3.665   0.003   3.146
 5233SOL    HW216599   3.796   0.014   3.048
 5234SOL     OW16600   2.803   2.830   6.153
 5234SOL    HW116601   2.795   2.920   6.110
 5234SOL    HW216602   2.728   2.771   6.121
 5235SOL     OW16603   2.446   1.842   1.503
 5235SOL    HW116604   2.464   1.922   1.560
 5235SOL    HW216605   2.351   1.844   1.471
 5236SOL     OW16606   3.096   4.856   2.002
 5236SOL    HW116607   3.018   4.846   2.064
 5236SOL    HW216608   3.069   4.823   1.911
 5237SOL     OW16609   1.528   1.774   1.694
 5237SOL    HW116610   1.484   1.746   1.609
 5237SOL    HW216611   1.627   1.763   1.685
 5238SOL     OW16612   6.807   0.210   3.035
 5238SOL    HW116613   6.821   0.156   2.952
 5238SOL    HW216614   6.710   0.237   3.041
 5239SOL     OW16615   2.445   4.251   1.029
 5239SOL    HW116616   2.411   4.320   1.093
 5239SOL    HW216617   2.382   4.174   1.027
 5240SOL     OW16618   2.360   4.104   6.096
 5240SOL    HW116619   2.320   4.195   6.107
 5240SOL    HW216620   2.297   4.035   6.131
 5241SOL     OW16621   2.263   6.849   2.652
 5241SOL    HW116622   2.317   6.923   2.691
 5241SOL    HW216623   2.173   6.884   2.625
 5242SOL     OW16624   3.580   6.855   6.203
 5242SOL    HW116625   3.587   6.760   6.174
 5242SOL    HW216626   3.672   6.894   6.214
 5243SOL     OW16627   2.688   5.791   3.170
 5243SOL    HW116628   2.713   5.712   3.226
 5243SOL    HW216629   2.744   5.870   3.196
 5244SOL     OW16630   4.344   0.873   6.760
 5244SOL    HW116631   4.286   0.866   6.841
 5244SOL    HW216632   4.308   0.945   6.700
 5245SOL     OW16633   3.187   3.955   1.565
 5245SOL    HW116634   3.248   3.891   1.612
 5245SOL    HW216635   3.132   4.005   1.633
 5246SOL     OW16636   5.861   4.066   6.268
 5246SOL    HW116637   5.839   4.008   6.190
 5246SOL    HW216638   5.796   4.142   6.273
 5247SOL     OW16639   5.160   1.581   6.697
 5247SOL    HW116640   5.252   1.581   6.658
 5247SOL    HW216641   5.127   1.675   6.704
 5248SOL     OW16642   5.287   1.226   4.038
 5248SOL    HW116643   5.286   1.226   4.138
 5248SOL    HW216644   5.365   1.172   4.005
 5249SOL     OW16645   0.060   5.173   1.213
 5249SOL    HW116646   0.025   5.081   1.197
 5249SOL    HW216647   0.058   5.192   1.311
 5250SOL     OW16648   2.669   5.285   1.074
 5250SOL    HW116649   2.683   5.317   1.168
 5250SOL    HW216650   2.571   5.288   1.053
 5251SOL     OW16651   0.566   4.570   7.021
 5251SOL    HW116652   0.474   4.533   7.013
 5251SOL    HW216653   0.586   4.588   0.095
 5252SOL     OW16654   3.828   5.692   2.824
 5252SOL    HW116655   3.869   5.601   2.819
 5252SOL    HW216656   3.737   5.690   2.782
 5253SOL     OW16657   0.433   6.060   4.937
 5253SOL    HW116658   0.426   5.967   4.974
 5253SOL    HW216659   0.464   6.056   4.842
 5254SOL     OW16660   4.615   5.780   2.578
 5254SOL    HW116661   4.550   5.846   2.543
 5254SOL    HW216662   4.708   5.817   2.572
 5255SOL     OW16663   6.621   1.850   5.820
 5255SOL    HW116664   6.678   1.786   5.871
 5255SOL    HW216665   6.525   1.839   5.847
 5256SOL     OW16666   5.784   1.952   2.682
 5256SOL    HW116667   5.852   1.977   2.613
 5256SOL    HW216668   5.715   2.025   2.689
 5257SOL     OW16669   4.504   2.196   6.511
 5257SOL    HW116670   4.514   2.296   6.514
 5257SOL    HW216671   4.463   2.169   6.424
 5258SOL     OW16672   4.655   1.544   5.032
 5258SOL    HW116673   4.603   1.472   5.079
 5258SOL    HW216674   4.612   1.633   5.050
 5259SOL     OW16675   5.589   5.214   3.814
 5259SOL    HW116676   5.676   5.180   3.778
 5259SOL    HW216677   5.569   5.170   3.901
 5260SOL     OW16678   2.504   5.970   1.724
 5260SOL    HW116679   2.464   5.883   1.695
 5260SOL    HW216680   2.553   6.011   1.647
 5261SOL     OW16681   5.840   4.767   6.813
 5261SOL    HW116682   5.837   4.791   6.910
 5261SOL    HW216683   5.917   4.814   6.770
 5262SOL     OW16684   1.512   1.214   1.616
 5262SOL    HW116685   1.520   1.239   1.519
 5262SOL    HW216686   1.603   1.212   1.657
 5263SOL     OW16687   2.205   6.237   3.174
 5263SOL    HW116688   2.257   6.321   3.158
 5263SOL    HW216689   2.194   6.188   3.087
 5264SOL     OW16690   6.581   2.445   1.847
 5264SOL    HW116691   6.518   2.429   1.771
 5264SOL    HW216692   6.674   2.453   1.812
 5265SOL     OW16693   6.531   5.820   5.498
 5265SOL    HW116694   6.446   5.769   5.513
 5265SOL    HW216695   6.509   5.911   5.463
 5266SOL     OW16696   1.491   6.929   6.116
 5266SOL    HW116697   1.517   6.862   6.185
 5266SOL    HW216698   1.572   6.963   6.069
 5267SOL     OW16699   5.772   1.931   3.997
 5267SOL    HW116700   5.772   1.875   3.914
 5267SOL    HW216701   5.703   2.003   3.989
 5268SOL     OW16702   5.346   0.035   6.201
 5268SOL    HW116703   5.341   0.090   6.117
 5268SOL    HW216704   5.440   0.006   6.217
 5269SOL     OW16705   1.162   0.417   3.697
 5269SOL    HW116706   1.196   0.489   3.638
 5269SOL    HW216707   1.237   0.355   3.721
 5270SOL     OW16708   0.591   2.186   6.376
 5270SOL    HW116709   0.603   2.280   6.342
 5270SOL    HW216710   0.527   2.137   6.317
 5271SOL     OW16711   1.229   4.820   3.827
 5271SOL    HW116712   1.202   4.897   3.885
 5271SOL    HW216713   1.327   4.805   3.835
 5272SOL     OW16714   4.300   0.657   6.277
 5272SOL    HW116715   4.388   0.692   6.309
 5272SOL    HW216716   4.226   0.699   6.330
 5273SOL     OW16717   3.027   1.848   2.744
 5273SOL    HW116718   3.110   1.875   2.793
 5273SOL    HW216719   3.022   1.900   2.659
 5274SOL     OW16720   5.274   5.119   1.348
 5274SOL    HW116721   5.342   5.074   1.290
 5274SOL    HW216722   5.311   5.132   1.439
 5275SOL     OW16723   5.307   1.626   6.337
 5275SOL    HW116724   5.358   1.605   6.420
 5275SOL    HW216725   5.223   1.676   6.361
 5276SOL     OW16726   4.023   6.360   1.851
 5276SOL    HW116727   4.032   6.276   1.905
 5276SOL    HW216728   4.104   6.372   1.793
 5277SOL     OW16729   2.261   2.779   2.020
 5277SOL    HW116730   2.255   2.792   2.118
 5277SOL    HW216731   2.244   2.866   1.973
 5278SOL     OW16732   3.643   3.367   2.462
 5278SOL    HW116733   3.650   3.340   2.366
 5278SOL    HW216734   3.735   3.386   2.497
 5279SOL     OW16735   1.569   6.099   3.005
 5279SOL    HW116736   1.589   6.197   3.009
 5279SOL    HW216737   1.476   6.085   2.971
 5280SOL     OW16738   3.735   0.940   4.640
 5280SOL    HW116739   3.825   0.978   4.616
 5280SOL    HW216740   3.722   0.853   4.594
 5281SOL     OW16741   6.988   2.500   3.927
 5281SOL    HW116742   6.921   2.512   4.000
 5281SOL    HW216743   0.057   2.497   3.966
 5282SOL     OW16744   4.876   2.020   1.160
 5282SOL    HW116745   4.968   2.059   1.157
 5282SOL    HW216746   4.827   2.045   1.076
 5283SOL     OW16747   4.829   4.396   6.404
 5283SOL    HW116748   4.913   4.448   6.415
 5283SOL    HW216749   4.819   4.369   6.308
 5284SOL     OW16750   5.155   3.016   3.826
 5284SOL    HW116751   5.187   3.066   3.907
 5284SOL    HW216752   5.136   2.921   3.852
 5285SOL     OW16753   4.380   6.531   2.570
 5285SOL    HW116754   4.356   6.627   2.583
 5285SOL    HW216755   4.473   6.516   2.605
 5286SOL     OW16756   2.090   4.966   1.787
 5286SOL    HW116757   2.027   4.913   1.844
 5286SOL    HW216758   2.116   5.050   1.834
 5287SOL     OW16759   0.610   1.075   2.562
 5287SOL    HW116760   0.604   1.037   2.470
 5287SOL    HW216761   0.704   1.100   2.581
 5288SOL     OW16762   4.168   0.421   0.521
 5288SOL    HW116763   4.146   0.517   0.541
 5288SOL    HW216764   4.143   0.400   0.427
 5289SOL     OW16765   1.413   6.075   1.412
 5289SOL    HW116766   1.433   6.165   1.450
 5289SOL    HW216767   1.314   6.064   1.403
 5290SOL     OW16768   5.771   5.858   0.041
 5290SOL    HW116769   5.851   5.898   7.019
 5290SOL    HW216770   5.688   5.899   0.004
 5291SOL     OW16771   1.280   5.805   6.459
 5291SOL    HW116772   1.260   5.745   6.382
 5291SOL    HW216773   1.337   5.757   6.525
 5292SOL     OW16774   5.436   1.635   0.986
 5292SOL    HW116775   5.355   1.683   1.020
 5292SOL    HW216776   5.516   1.662   1.039
 5293SOL     OW16777   1.364   1.526   4.186
 5293SOL    HW116778   1.318   1.523   4.275
 5293SOL    HW216779   1.321   1.461   4.124
 5294SOL     OW16780   4.133   2.814   6.181
 5294SOL    HW116781   4.150   2.901   6.136
 5294SOL    HW216782   4.184   2.811   6.268
 5295SOL     OW16783   6.467   1.696   2.618
 5295SOL    HW116784   6.455   1.698   2.519
 5295SOL    HW216785   6.377   1.693   2.662
 5296SOL     OW16786   0.498   3.227   6.604
 5296SOL    HW116787   0.522   3.176   6.687
 5296SOL    HW216788   0.502   3.325   6.623
 5297SOL     OW16789   1.324   2.692   2.052
 5297SOL    HW116790   1.263   2.636   2.108
 5297SOL    HW216791   1.304   2.676   1.955
 5298SOL     OW16792   1.239   4.367   1.788
 5298SOL    HW116793   1.161   4.310   1.813
 5298SOL    HW216794   1.322   4.311   1.784
 5299SOL     OW16795   2.928   0.239   1.065
 5299SOL    HW116796   2.980   0.154   1.050
 5299SOL    HW216797   2.898   0.243   1.161
 5300SOL     OW16798   0.381   5.231   3.894
 5300SOL    HW116799   0.354   5.135   3.888
 5300SOL    HW216800   0.445   5.243   3.969
 5301SOL     OW16801   4.481   0.409   0.037
 5301SOL    HW116802   4.577   0.406   0.010
 5301SOL    HW216803   4.435   0.326   0.004
 5302SOL     OW16804   6.400   4.010   3.298
 5302SOL    HW116805   6.330   3.995   3.227
 5302SOL    HW216806   6.453   3.927   3.311
 5303SOL     OW16807   1.754   5.009   3.427
 5303SOL    HW116808   1.784   5.098   3.392
 5303SOL    HW216809   1.732   4.949   3.350
 5304SOL     OW16810   4.566   2.897   5.705
 5304SOL    HW116811   4.522   2.899   5.795
 5304SOL    HW216812   4.606   2.807   5.690
 5305SOL     OW16813   2.934   1.317   4.202
 5305SOL    HW116814   2.881   1.275   4.128
 5305SOL    HW216815   2.989   1.248   4.247
 5306SOL     OW16816   2.380   6.332   4.473
 5306SOL    HW116817   2.410   6.395   4.402
 5306SOL    HW216818   2.313   6.377   4.532
 5307SOL     OW16819   4.508   0.057   0.235
 5307SOL    HW116820   4.564   0.126   0.281
 5307SOL    HW216821   4.450   0.011   0.302
 5308SOL     OW16822   6.469   1.770   1.932
 5308SOL    HW116823   6.473   1.865   1.903
 5308SOL    HW216824   6.560   1.729   1.927
 5309SOL     OW16825   3.814   3.697   4.915
 5309SOL    HW116826   3.776   3.608   4.890
 5309SOL    HW216827   3.911   3.700   4.893
 5310SOL     OW16828   5.376   2.932   0.698
 5310SOL    HW116829   5.362   2.944   0.796
 5310SOL    HW216830   5.408   3.018   0.658
 5311SOL     OW16831   0.329   6.139   6.803
 5311SOL    HW116832   0.329   6.072   6.878
 5311SOL    HW216833   0.419   6.183   6.798
 5312SOL     OW16834   0.646   2.999   2.238
 5312SOL    HW116835   0.552   2.966   2.247
 5312SOL    HW216836   0.667   3.013   2.141
 5313SOL     OW16837   0.473   6.273   0.860
 5313SOL    HW116838   0.490   6.253   0.956
 5313SOL    HW216839   0.533   6.348   0.831
 5314SOL     OW16840   3.625   5.250   1.324
 5314SOL    HW116841   3.705   5.209   1.279
 5314SOL    HW216842   3.612   5.343   1.290
 5315SOL     OW16843   5.512   2.346   2.145
 5315SOL    HW116844   5.469   2.333   2.055
 5315SOL    HW216845   5.509   2.261   2.197
 5316SOL     OW16846   5.809   5.325   4.020
 5316SOL    HW116847   5.908   5.318   4.031
 5316SOL    HW216848   5.788   5.404   3.962
 5317SOL     OW16849   6.680   5.570   2.238
 5317SOL    HW116850   6.595   5.606   2.200
 5317SOL    HW216851   6.747   5.643   2.246
 5318SOL     OW16852   0.396   2.588   4.287
 5318SOL    HW116853   0.469   2.522   4.271
 5318SOL    HW216854   0.434   2.669   4.333
 5319SOL     OW16855   3.417   6.798   2.554
 5319SOL    HW116856   3.509   6.830   2.533
 5319SOL    HW216857   3.365   6.785   2.470
 5320SOL     OW16858   6.661   3.086   6.193
 5320SOL    HW116859   6.689   3.179   6.172
 5320SOL    HW216860   6.695   3.061   6.284
 5321SOL     OW16861   2.678   4.407   5.944
 5321SOL    HW116862   2.762   4.353   5.946
 5321SOL    HW216863   2.605   4.358   5.993
 5322SOL     OW16864   2.339   5.717   0.984
 5322SOL    HW116865   2.245   5.748   0.978
 5322SOL    HW216866   2.384   5.762   1.062
 5323SOL     OW16867   5.291   3.055   0.441
 5323SOL    HW116868   5.291   2.955   0.441
 5323SOL    HW216869   5.210   3.090   0.488
 5324SOL     OW16870   4.191   2.893   1.433
 5324SOL    HW116871   4.281   2.864   1.399
 5324SOL    HW216872   4.126   2.818   1.420
 5325SOL     OW16873   4.264   6.282   4.459
 5325SOL    HW116874   4.201   6.288   4.538
 5325SOL    HW216875   4.218   6.317   4.378
 5326SOL     OW16876   0.495   0.264   2.432
 5326SOL    HW116877   0.588   0.230   2.437
 5326SOL    HW216878   0.447   0.244   2.518
 5327SOL     OW16879   6.953   0.502   3.588
 5327SOL    HW116880   0.004   0.445   3.553
 5327SOL    HW216881   6.968   0.597   3.560
 5328SOL     OW16882   3.760   4.892   6.912
 5328SOL    HW116883   3.841   4.888   6.970
 5328SOL    HW216884   3.786   4.920   6.819
 5329SOL     OW16885   0.281   5.415   6.545
 5329SOL    HW116886   0.321   5.341   6.490
 5329SOL    HW216887   0.275   5.386   6.640
 5330SOL     OW16888   3.602   4.356   0.169
 5330SOL    HW116889   3.526   4.302   0.204
 5330SOL    HW216890   3.659   4.300   0.109
 5331SOL     OW16891   5.299   1.236   6.749
 5331SOL    HW116892   5.259   1.273   6.665
 5331SOL    HW216893   5.329   1.142   6.733
 5332SOL     OW16894   6.024   3.258   6.953
 5332SOL    HW116895   6.019   3.296   6.861
 5332SOL    HW216896   6.096   3.305   7.005
 5333SOL     OW16897   1.007   0.737   4.010
 5333SOL    HW116898   0.945   0.775   4.079
 5333SOL    HW216899   0.997   0.637   4.008
 5334SOL     OW16900   3.279   6.249   1.936
 5334SOL    HW116901   3.254   6.268   2.031
 5334SOL    HW216902   3.336   6.322   1.901
 5335SOL     OW16903   0.106   4.519   2.309
 5335SOL    HW116904   0.127   4.441   2.250
 5335SOL    HW216905   0.136   4.603   2.265
 5336SOL     OW16906   1.853   3.576   5.262
 5336SOL    HW116907   1.874   3.669   5.293
 5336SOL    HW216908   1.754   3.561   5.267
 5337SOL     OW16909   6.601   3.307   1.160
 5337SOL    HW116910   6.694   3.326   1.191
 5337SOL    HW216911   6.535   3.344   1.225
 5338SOL     OW16912   6.891   3.255   1.197
 5338SOL    HW116913   6.924   3.301   1.114
 5338SOL    HW216914   6.956   3.271   1.271
 5339SOL     OW16915   5.624   2.748   2.770
 5339SOL    HW116916   5.634   2.809   2.691
 5339SOL    HW216917   5.614   2.654   2.738
 5340SOL     OW16918   4.881   3.227   1.626
 5340SOL    HW116919   4.885   3.274   1.714
 5340SOL    HW216920   4.845   3.289   1.557
 5341SOL     OW16921   4.824   5.032   3.643
 5341SOL    HW116922   4.791   4.978   3.720
 5341SOL    HW216923   4.766   5.016   3.564
 5342SOL     OW16924   6.229   5.535   4.592
 5342SOL    HW116925   6.328   5.524   4.586
 5342SOL    HW216926   6.197   5.500   4.679
 5343SOL     OW16927   3.847   3.413   6.654
 5343SOL    HW116928   3.797   3.445   6.574
 5343SOL    HW216929   3.890   3.490   6.701
 5344SOL     OW16930   6.584   1.710   6.740
 5344SOL    HW116931   6.633   1.632   6.701
 5344SOL    HW216932   6.637   1.793   6.727
 5345SOL     OW16933   3.570   1.385   0.134
 5345SOL    HW116934   3.666   1.381   0.103
 5345SOL    HW216935   3.515   1.429   0.064
 5346SOL     OW16936   2.870   6.437   3.454
 5346SOL    HW116937   2.924   6.520   3.470
 5346SOL    HW216938   2.774   6.462   3.441
 5347SOL     OW16939   5.204   1.562   5.042
 5347SOL    HW116940   5.134   1.491   5.029
 5347SOL    HW216941   5.223   1.572   5.140
 5348SOL     OW16942   5.113   2.974   5.079
 5348SOL    HW116943   5.126   2.990   4.981
 5348SOL    HW216944   5.016   2.973   5.100
 5349SOL     OW16945   1.093   4.150   1.456
 5349SOL    HW116946   1.085   4.059   1.496
 5349SOL    HW216947   1.123   4.142   1.361
 5350SOL     OW16948   0.809   6.697   5.927
 5350SOL    HW116949   0.786   6.777   5.983
 5350SOL    HW216950   0.909   6.690   5.920
 5351SOL     OW16951   0.211   5.842   3.159
 5351SOL    HW116952   0.147   5.774   3.125
 5351SOL    HW216953   0.296   5.837   3.105
 5352SOL     OW16954   1.436   2.724   5.844
 5352SOL    HW116955   1.415   2.634   5.884
 5352SOL    HW216956   1.375   2.793   5.883
 5353SOL     OW16957   3.219   6.323   3.592
 5353SOL    HW116958   3.172   6.390   3.650
 5353SOL    HW216959   3.314   6.314   3.622
 5354SOL     OW16960   3.882   5.994   1.777
 5354SOL    HW116961   3.959   6.031   1.724
 5354SOL    HW216962   3.915   5.960   1.865
 5355SOL     OW16963   5.139   5.798   5.320
 5355SOL    HW116964   5.231   5.814   5.286
 5355SOL    HW216965   5.076   5.788   5.243
 5356SOL     OW16966   1.097   6.594   1.492
 5356SOL    HW116967   1.136   6.686   1.489
 5356SOL    HW216968   1.156   6.535   1.547
 5357SOL     OW16969   6.277   3.562   2.716
 5357SOL    HW116970   6.263   3.479   2.770
 5357SOL    HW216971   6.360   3.554   2.662
 5358SOL     OW16972   6.164   0.936   6.533
 5358SOL    HW116973   6.173   1.035   6.523
 5358SOL    HW216974   6.216   0.891   6.460
 5359SOL     OW16975   2.830   2.424   6.971
 5359SOL    HW116976   2.915   2.381   6.940
 5359SOL    HW216977   2.786   2.470   6.894
 5360SOL     OW16978   5.687   6.108   3.978
 5360SOL    HW116979   5.693   6.048   3.898
 5360SOL    HW216980   5.712   6.201   3.951
 5361SOL     OW16981   1.915   3.949   3.300
 5361SOL    HW116982   1.923   3.948   3.200
 5361SOL    HW216983   1.965   3.871   3.338
 5362SOL     OW16984   6.723   1.364   3.260
 5362SOL    HW116985   6.820   1.360   3.237
 5362SOL    HW216986   6.677   1.284   3.222
 5363SOL     OW16987   5.559   5.601   4.140
 5363SOL    HW116988   5.478   5.653   4.114
 5363SOL    HW216989   5.577   5.531   4.070
 5364SOL     OW16990   4.654   2.311   2.436
 5364SOL    HW116991   4.646   2.227   2.382
 5364SOL    HW216992   4.592   2.380   2.399
 5365SOL     OW16993   3.165   3.893   5.469
 5365SOL    HW116994   3.257   3.893   5.430
 5365SOL    HW216995   3.165   3.839   5.553
 5366SOL     OW16996   0.551   5.125   3.398
 5366SOL    HW116997   0.627   5.167   3.447
 5366SOL    HW216998   0.529   5.037   3.440
 5367SOL     OW16999   6.080   6.272   1.472
 5367SOL    HW117000   6.002   6.222   1.510
 5367SOL    HW217001   6.104   6.348   1.532
 5368SOL     OW17002   0.318   5.383   4.980
 5368SOL    HW117003   0.418   5.377   4.975
 5368SOL    HW217004   0.290   5.393   5.075
 5369SOL     OW17005   4.383   7.004   2.893
 5369SOL    HW117006   4.332   6.937   2.947
 5369SOL    HW217007   4.425   0.048   2.954
 5370SOL     OW17008   2.576   2.123   0.688
 5370SOL    HW117009   2.513   2.200   0.699
 5370SOL    HW217010   2.523   2.038   0.680
 5371SOL     OW17011   5.788   5.495   3.538
 5371SOL    HW117012   5.718   5.490   3.609
 5371SOL    HW217013   5.826   5.404   3.522
 5372SOL     OW17014   1.626   0.192   3.802
 5372SOL    HW117015   1.705   0.242   3.768
 5372SOL    HW217016   1.621   0.200   3.901
 5373SOL     OW17017   3.447   0.628   6.742
 5373SOL    HW117018   3.396   0.547   6.714
 5373SOL    HW217019   3.500   0.607   6.825
 5374SOL     OW17020   1.236   3.839   1.301
 5374SOL    HW117021   1.326   3.850   1.343
 5374SOL    HW217022   1.213   3.922   1.250
 5375SOL     OW17023   2.526   4.591   4.941
 5375SOL    HW117024   2.456   4.562   5.006
 5375SOL    HW217025   2.614   4.601   4.988
 5376SOL     OW17026   0.967   1.180   1.100
 5376SOL    HW117027   0.886   1.174   1.042
 5376SOL    HW217028   1.024   1.257   1.070
 5377SOL     OW17029   0.645   2.131   2.165
 5377SOL    HW117030   0.645   2.158   2.069
 5377SOL    HW217031   0.557   2.156   2.207
 5378SOL     OW17032   5.170   0.137   2.450
 5378SOL    HW117033   5.187   0.051   2.499
 5378SOL    HW217034   5.113   0.118   2.370
 5379SOL     OW17035   2.359   1.829   3.727
 5379SOL    HW117036   2.302   1.781   3.793
 5379SOL    HW217037   2.316   1.824   3.637
 5380SOL     OW17038   4.719   6.212   1.175
 5380SOL    HW117039   4.788   6.213   1.102
 5380SOL    HW217040   4.736   6.134   1.235
 5381SOL     OW17041   3.609   1.776   3.212
 5381SOL    HW117042   3.633   1.728   3.296
 5381SOL    HW217043   3.674   1.851   3.196
 5382SOL     OW17044   4.358   0.427   2.626
 5382SOL    HW117045   4.386   0.521   2.646
 5382SOL    HW217046   4.308   0.391   2.705
 5383SOL     OW17047   2.484   3.466   5.357
 5383SOL    HW117048   2.449   3.512   5.439
 5383SOL    HW217049   2.530   3.381   5.384
 5384SOL     OW17050   5.184   6.774   6.301
 5384SOL    HW117051   5.162   6.867   6.332
 5384SOL    HW217052   5.242   6.729   6.369
 5385SOL     OW17053   2.999   3.525   0.164
 5385SOL    HW117054   3.078   3.475   0.128
 5385SOL    HW217055   3.029   3.586   0.237
 5386SOL     OW17056   4.143   5.068   3.833
 5386SOL    HW117057   4.227   5.057   3.781
 5386SOL    HW217058   4.129   4.987   3.891
 5387SOL     OW17059   1.269   2.490   4.196
 5387SOL    HW117060   1.315   2.559   4.140
 5387SOL    HW217061   1.302   2.496   4.290
 5388SOL     OW17062   6.767   6.129   3.734
 5388SOL    HW117063   6.854   6.170   3.758
 5388SOL    HW217064   6.782   6.036   3.701
 5389SOL     OW17065   5.250   1.703   4.329
 5389SOL    HW117066   5.309   1.713   4.249
 5389SOL    HW217067   5.154   1.717   4.302
 5390SOL     OW17068   5.710   3.568   3.334
 5390SOL    HW117069   5.669   3.551   3.244
 5390SOL    HW217070   5.768   3.491   3.359
 5391SOL     OW17071   4.757   2.577   1.495
 5391SOL    HW117072   4.797   2.495   1.455
 5391SOL    HW217073   4.828   2.647   1.508
 5392SOL     OW17074   5.149   0.685   4.282
 5392SOL    HW117075   5.195   0.672   4.371
 5392SOL    HW217076   5.187   0.621   4.215
 5393SOL     OW17077   4.045   1.429   3.434
 5393SOL    HW117078   4.033   1.335   3.464
 5393SOL    HW217079   4.143   1.448   3.424
 5394SOL     OW17080   0.000   2.924   2.271
 5394SOL    HW117081   0.068   2.897   2.339
 5394SOL    HW217082   6.957   2.987   2.312
 5395SOL     OW17083   6.900   1.124   1.241
 5395SOL    HW117084   6.849   1.080   1.168
 5395SOL    HW217085   6.920   1.219   1.215
 5396SOL     OW17086   4.260   2.576   1.411
 5396SOL    HW117087   4.229   2.485   1.439
 5396SOL    HW217088   4.343   2.567   1.356
 5397SOL     OW17089   0.324   0.349   2.010
 5397SOL    HW117090   0.323   0.437   2.058
 5397SOL    HW217091   0.394   0.352   1.938
 5398SOL     OW17092   6.145   2.508   3.457
 5398SOL    HW117093   6.062   2.554   3.426
 5398SOL    HW217094   6.194   2.471   3.378
 5399SOL     OW17095   1.985   2.740   1.151
 5399SOL    HW117096   1.905   2.697   1.193
 5399SOL    HW217097   2.031   2.674   1.091
 5400SOL     OW17098   5.344   3.141   1.244
 5400SOL    HW117099   5.400   3.080   1.188
 5400SOL    HW217100   5.366   3.236   1.223
 5401SOL     OW17101   5.132   3.014   1.580
 5401SOL    HW117102   5.183   2.966   1.509
 5401SOL    HW217103   5.047   3.049   1.542
 5402SOL     OW17104   1.760   6.194   1.926
 5402SOL    HW117105   1.855   6.214   1.904
 5402SOL    HW217106   1.727   6.120   1.869
 5403SOL     OW17107   5.657   2.072   6.147
 5403SOL    HW117108   5.706   2.026   6.073
 5403SOL    HW217109   5.713   2.148   6.182
 5404SOL     OW17110   4.794   6.761   0.314
 5404SOL    HW117111   4.885   6.773   0.275
 5404SOL    HW217112   4.794   6.683   0.377
 5405SOL     OW17113   0.121   5.105   6.508
 5405SOL    HW117114   0.075   5.189   6.539
 5405SOL    HW217115   0.074   5.025   6.546
 5406SOL     OW17116   2.744   0.984   5.760
 5406SOL    HW117117   2.667   1.010   5.820
 5406SOL    HW217118   2.772   1.063   5.706
 5407SOL     OW17119   1.656   0.118   3.085
 5407SOL    HW117120   1.570   0.166   3.067
 5407SOL    HW217121   1.723   0.183   3.123
 5408SOL     OW17122   2.167   2.271   4.647
 5408SOL    HW117123   2.160   2.251   4.549
 5408SOL    HW217124   2.115   2.354   4.668
 5409SOL     OW17125   0.748   3.485   3.136
 5409SOL    HW117126   0.715   3.422   3.206
 5409SOL    HW217127   0.775   3.434   3.054
 5410SOL     OW17128   6.084   2.119   0.428
 5410SOL    HW117129   6.120   2.201   0.473
 5410SOL    HW217130   6.051   2.055   0.497
 5411SOL     OW17131   3.251   5.259   1.222
 5411SOL    HW117132   3.308   5.255   1.304
 5411SOL    HW217133   3.189   5.338   1.228
 5412SOL     OW17134   1.471   2.523   5.610
 5412SOL    HW117135   1.389   2.477   5.644
 5412SOL    HW217136   1.479   2.613   5.654
 5413SOL     OW17137   7.013   5.563   5.836
 5413SOL    HW117138   0.072   5.612   5.866
 5413SOL    HW217139   6.991   5.589   5.742
 5414SOL     OW17140   5.488   5.356   5.801
 5414SOL    HW117141   5.449   5.443   5.830
 5414SOL    HW217142   5.429   5.281   5.831
 5415SOL     OW17143   1.623   1.626   6.172
 5415SOL    HW117144   1.682   1.559   6.216
 5415SOL    HW217145   1.528   1.597   6.181
 5416SOL     OW17146   3.357   6.131   6.163
 5416SOL    HW117147   3.357   6.153   6.261
 5416SOL    HW217148   3.441   6.165   6.121
 5417SOL     OW17149   5.714   0.340   2.409
 5417SOL    HW117150   5.690   0.260   2.463
 5417SOL    HW217151   5.675   0.422   2.451
 5418SOL     OW17152   0.386   3.865   5.467
 5418SOL    HW117153   0.415   3.956   5.440
 5418SOL    HW217154   0.289   3.866   5.491
 5419SOL     OW17155   3.789   1.341   6.287
 5419SOL    HW117156   3.836   1.412   6.339
 5419SOL    HW217157   3.836   1.328   6.199
 5420SOL     OW17158   1.544   2.373   1.081
 5420SOL    HW117159   1.483   2.452   1.084
 5420SOL    HW217160   1.554   2.342   0.987
 5421SOL     OW17161   4.018   5.065   1.892
 5421SOL    HW117162   4.102   5.092   1.845
 5421SOL    HW217163   3.979   5.144   1.940
 5422SOL     OW17164   2.626   5.882   3.538
 5422SOL    HW117165   2.604   5.934   3.621
 5422SOL    HW217166   2.550   5.820   3.517
 5423SOL     OW17167   4.011   6.626   1.636
 5423SOL    HW117168   3.969   6.574   1.562
 5423SOL    HW217169   3.954   6.619   1.718
 5424SOL     OW17170   4.053   3.693   5.221
 5424SOL    HW117171   4.121   3.633   5.178
 5424SOL    HW217172   4.092   3.784   5.232
 5425SOL     OW17173   1.820   5.269   5.558
 5425SOL    HW117174   1.762   5.339   5.517
 5425SOL    HW217175   1.864   5.306   5.639
 5426SOL     OW17176   0.488   4.190   0.006
 5426SOL    HW117177   0.493   4.241   6.943
 5426SOL    HW217178   0.573   4.202   0.057
 5427SOL     OW17179   5.151   2.192   0.468
 5427SOL    HW117180   5.189   2.184   0.560
 5427SOL    HW217181   5.221   2.168   0.401
 5428SOL     OW17182   4.575   5.799   2.857
 5428SOL    HW117183   4.579   5.775   2.760
 5428SOL    HW217184   4.493   5.855   2.874
 5429SOL     OW17185   2.452   6.665   4.035
 5429SOL    HW117186   2.457   6.763   4.017
 5429SOL    HW217187   2.428   6.617   3.950
 5430SOL     OW17188   1.347   4.246   5.173
 5430SOL    HW117189   1.393   4.331   5.199
 5430SOL    HW217190   1.360   4.229   5.076
 5431SOL     OW17191   4.894   4.650   0.671
 5431SOL    HW117192   4.880   4.749   0.680
 5431SOL    HW217193   4.817   4.602   0.712
 5432SOL     OW17194   0.376   5.169   6.444
 5432SOL    HW117195   0.299   5.122   6.489
 5432SOL    HW217196   0.418   5.107   6.378
 5433SOL     OW17197   2.798   6.836   1.365
 5433SOL    HW117198   2.848   6.895   1.302
 5433SOL    HW217199   2.854   6.820   1.447
 5434SOL     OW17200   4.791   6.099   3.908
 5434SOL    HW117201   4.891   6.100   3.913
 5434SOL    HW217202   4.760   6.008   3.879
 5435SOL     OW17203   6.770   3.917   6.510
 5435SOL    HW117204   6.696   3.972   6.548
 5435SOL    HW217205   6.733   3.830   6.477
 5436SOL     OW17206   1.892   4.561   1.953
 5436SOL    HW117207   1.793   4.554   1.941
 5436SOL    HW217208   1.938   4.545   1.865
 5437SOL     OW17209   3.172   6.232   6.987
 5437SOL    HW117210   3.258   6.233   0.015
 5437SOL    HW217211   3.099   6.197   0.022
 5438SOL     OW17212   5.485   6.937   2.764
 5438SOL    HW117213   5.470   6.841   2.785
 5438SOL    HW217214   5.519   6.984   2.845
 5439SOL     OW17215   1.626   4.004   1.899
 5439SOL    HW117216   1.581   3.931   1.951
 5439SOL    HW217217   1.681   4.059   1.961
 5440SOL     OW17218   6.178   0.021   3.823
 5440SOL    HW117219   6.245   0.065   3.762
 5440SOL    HW217220   6.093   0.007   3.774
 5441SOL     OW17221   5.965   2.288   4.597
 5441SOL    HW117222   5.962   2.245   4.687
 5441SOL    HW217223   5.912   2.234   4.532
 5442SOL     OW17224   2.601   0.171   6.828
 5442SOL    HW117225   2.662   0.091   6.830
 5442SOL    HW217226   2.543   0.168   6.747
 5443SOL     OW17227   6.111   0.660   3.247
 5443SOL    HW117228   6.064   0.582   3.207
 5443SOL    HW217229   6.197   0.630   3.289
 5444SOL     OW17230   0.955   1.427   5.720
 5444SOL    HW117231   1.024   1.427   5.648
 5444SOL    HW217232   0.883   1.492   5.697
 5445SOL     OW17233   6.005   6.755   5.373
 5445SOL    HW117234   5.924   6.742   5.430
 5445SOL    HW217235   6.001   6.845   5.329
 5446SOL     OW17236   1.230   4.978   5.728
 5446SOL    HW117237   1.314   4.956   5.679
 5446SOL    HW217238   1.238   4.949   5.823
 5447SOL     OW17239   6.812   2.249   1.561
 5447SOL    HW117240   6.857   2.164   1.589
 5447SOL    HW217241   6.807   2.311   1.639
 5448SOL     OW17242   6.304   4.869   1.708
 5448SOL    HW117243   6.252   4.952   1.687
 5448SOL    HW217244   6.327   4.868   1.805
 5449SOL     OW17245   1.970   6.965   1.867
 5449SOL    HW117246   2.046   7.009   1.914
 5449SOL    HW217247   1.960   7.005   1.775
 5450SOL     OW17248   4.175   5.633   1.426
 5450SOL    HW117249   4.192   5.732   1.428
 5450SOL    HW217250   4.106   5.613   1.357
 5451SOL     OW17251   0.715   6.368   3.705
 5451SOL    HW117252   0.619   6.388   3.726
 5451SOL    HW217253   0.725   6.346   3.608
 5452SOL     OW17254   2.343   4.525   2.749
 5452SOL    HW117255   2.298   4.550   2.834
 5452SOL    HW217256   2.322   4.429   2.728
 5453SOL     OW17257   5.921   4.726   4.047
 5453SOL    HW117258   5.885   4.633   4.033
 5453SOL    HW217259   5.898   4.756   4.140
 5454SOL     OW17260   5.877   4.116   2.294
 5454SOL    HW117261   5.804   4.123   2.361
 5454SOL    HW217262   5.966   4.122   2.340
 5455SOL     OW17263   2.675   1.921   3.021
 5455SOL    HW117264   2.647   2.006   2.975
 5455SOL    HW217265   2.759   1.937   3.072
 5456SOL     OW17266   5.640   2.237   0.617
 5456SOL    HW117267   5.554   2.187   0.629
 5456SOL    HW217268   5.627   2.332   0.647
 5457SOL     OW17269   6.936   1.134   0.065
 5457SOL    HW117270   6.861   1.123   0.000
 5457SOL    HW217271   6.899   1.145   0.158
 5458SOL     OW17272   5.376   4.886   5.795
 5458SOL    HW117273   5.334   4.859   5.708
 5458SOL    HW217274   5.442   4.816   5.823
 5459SOL     OW17275   2.196   3.130   5.197
 5459SOL    HW117276   2.117   3.073   5.218
 5459SOL    HW217277   2.271   3.073   5.164
 5460SOL     OW17278   0.618   0.450   0.984
 5460SOL    HW117279   0.539   0.410   1.031
 5460SOL    HW217280   0.595   0.543   0.955
 5461SOL     OW17281   6.093   1.321   6.668
 5461SOL    HW117282   6.150   1.269   6.732
 5461SOL    HW217283   6.106   1.419   6.683
 5462SOL     OW17284   5.082   5.467   6.286
 5462SOL    HW117285   5.106   5.415   6.368
 5462SOL    HW217286   5.164   5.484   6.232
 5463SOL     OW17287   1.799   4.975   5.777
 5463SOL    HW117288   1.835   5.012   5.862
 5463SOL    HW217289   1.718   5.027   5.750
 5464SOL     OW17290   2.110   5.198   4.576
 5464SOL    HW117291   2.200   5.186   4.619
 5464SOL    HW217292   2.038   5.188   4.645
 5465SOL     OW17293   0.292   0.180   5.171
 5465SOL    HW117294   0.363   0.154   5.236
 5465SOL    HW217295   0.311   0.140   5.081
 5466SOL     OW17296   4.895   2.240   4.895
 5466SOL    HW117297   4.976   2.295   4.914
 5466SOL    HW217298   4.922   2.145   4.876
 5467SOL     OW17299   5.642   3.272   4.155
 5467SOL    HW117300   5.685   3.183   4.145
 5467SOL    HW217301   5.695   3.341   4.106
 5468SOL     OW17302   6.879   2.669   1.438
 5468SOL    HW117303   6.977   2.651   1.431
 5468SOL    HW217304   6.858   2.707   1.528
 5469SOL     OW17305   4.127   1.965   3.780
 5469SOL    HW117306   4.051   2.029   3.786
 5469SOL    HW217307   4.093   1.872   3.794
 5470SOL     OW17308   3.230   5.159   3.324
 5470SOL    HW117309   3.291   5.238   3.322
 5470SOL    HW217310   3.268   5.089   3.385
 5471SOL     OW17311   5.688   0.875   3.093
 5471SOL    HW117312   5.679   0.961   3.143
 5471SOL    HW217313   5.730   0.891   3.004
 5472SOL     OW17314   2.606   3.925   6.672
 5472SOL    HW117315   2.539   3.970   6.612
 5472SOL    HW217316   2.591   3.954   6.766
 5473SOL     OW17317   2.898   4.807   2.188
 5473SOL    HW117318   2.832   4.811   2.262
 5473SOL    HW217319   2.863   4.749   2.114
 5474SOL     OW17320   1.135   4.867   2.020
 5474SOL    HW117321   1.128   4.795   2.089
 5474SOL    HW217322   1.151   4.955   2.064
 5475SOL     OW17323   1.605   1.097   5.344
 5475SOL    HW117324   1.654   1.020   5.304
 5475SOL    HW217325   1.597   1.083   5.443
 5476SOL     OW17326   2.127   0.908   4.807
 5476SOL    HW117327   2.122   1.004   4.835
 5476SOL    HW217328   2.043   0.862   4.834
 5477SOL     OW17329   2.181   3.058   2.998
 5477SOL    HW117330   2.210   3.153   3.012
 5477SOL    HW217331   2.082   3.052   3.009
 5478SOL     OW17332   5.989   4.135   5.846
 5478SOL    HW117333   6.085   4.144   5.819
 5478SOL    HW217334   5.963   4.214   5.901
 5479SOL     OW17335   5.430   3.350   4.341
 5479SOL    HW117336   5.473   3.289   4.274
 5479SOL    HW217337   5.443   3.445   4.313
 5480SOL     OW17338   1.251   3.757   4.773
 5480SOL    HW117339   1.234   3.659   4.768
 5480SOL    HW217340   1.204   3.795   4.853
 5481SOL     OW17341   3.604   1.524   6.455
 5481SOL    HW117342   3.698   1.555   6.441
 5481SOL    HW217343   3.587   1.442   6.399
 5482SOL     OW17344   5.438   3.789   2.023
 5482SOL    HW117345   5.437   3.749   2.115
 5482SOL    HW217346   5.456   3.717   1.956
 5483SOL     OW17347   6.453   2.969   0.250
 5483SOL    HW117348   6.364   3.000   0.216
 5483SOL    HW217349   6.453   2.869   0.256
 5484SOL     OW17350   6.469   0.329   5.460
 5484SOL    HW117351   6.481   0.234   5.489
 5484SOL    HW217352   6.514   0.343   5.372
 5485SOL     OW17353   3.190   0.511   4.477
 5485SOL    HW117354   3.101   0.469   4.495
 5485SOL    HW217355   3.262   0.459   4.523
 5486SOL     OW17356   1.169   0.265   3.439
 5486SOL    HW117357   1.079   0.223   3.449
 5486SOL    HW217358   1.197   0.304   3.527
 5487SOL     OW17359   3.958   5.302   1.434
 5487SOL    HW117360   3.942   5.385   1.382
 5487SOL    HW217361   4.011   5.323   1.517
 5488SOL     OW17362   4.668   1.422   5.722
 5488SOL    HW117363   4.620   1.510   5.728
 5488SOL    HW217364   4.608   1.355   5.678
 5489SOL     OW17365   6.404   4.518   2.266
 5489SOL    HW117366   6.390   4.614   2.291
 5489SOL    HW217367   6.502   4.497   2.265
 5490SOL     OW17368   2.379   2.195   6.527
 5490SOL    HW117369   2.374   2.176   6.429
 5490SOL    HW217370   2.344   2.117   6.579
 5491SOL     OW17371   0.405   5.893   2.517
 5491SOL    HW117372   0.410   5.971   2.580
 5491SOL    HW217373   0.437   5.921   2.427
 5492SOL     OW17374   1.169   1.370   4.670
 5492SOL    HW117375   1.145   1.294   4.730
 5492SOL    HW217376   1.236   1.339   4.603
 5493SOL     OW17377   2.985   1.583   0.664
 5493SOL    HW117378   2.941   1.651   0.722
 5493SOL    HW217379   3.055   1.626   0.608
 5494SOL     OW17380   5.966   3.033   2.613
 5494SOL    HW117381   5.878   3.057   2.653
 5494SOL    HW217382   5.960   3.040   2.513
 5495SOL     OW17383   3.765   2.941   3.736
 5495SOL    HW117384   3.689   2.934   3.800
 5495SOL    HW217385   3.734   2.915   3.644
 5496SOL     OW17386   4.816   5.023   2.001
 5496SOL    HW117387   4.738   4.997   2.057
 5496SOL    HW217388   4.815   4.970   1.916
 5497SOL     OW17389   5.783   7.015   1.113
 5497SOL    HW117390   5.689   7.008   1.080
 5497SOL    HW217391   5.787   0.053   1.192
 5498SOL     OW17392   3.983   1.048   4.539
 5498SOL    HW117393   3.978   1.137   4.495
 5498SOL    HW217394   4.074   1.034   4.578
 5499SOL     OW17395   0.498   1.408   5.664
 5499SOL    HW117396   0.477   1.310   5.669
 5499SOL    HW217397   0.454   1.455   5.740
 5500SOL     OW17398   1.835   6.380   0.774
 5500SOL    HW117399   1.876   6.340   0.856
 5500SOL    HW217400   1.881   6.466   0.753
 5501SOL     OW17401   3.027   0.657   2.561
 5501SOL    HW117402   3.040   0.647   2.660
 5501SOL    HW217403   3.060   0.747   2.532
 5502SOL     OW17404   4.569   2.991   0.482
 5502SOL    HW117405   4.535   3.085   0.481
 5502SOL    HW217406   4.515   2.937   0.546
 5503SOL     OW17407   0.202   6.630   4.869
 5503SOL    HW117408   0.180   6.545   4.917
 5503SOL    HW217409   0.163   6.708   4.918
 5504SOL     OW17410   2.989   2.010   4.390
 5504SOL    HW117411   3.028   1.927   4.430
 5504SOL    HW217412   2.893   2.018   4.417
 5505SOL     OW17413   3.766   4.490   6.759
 5505SOL    HW117414   3.737   4.509   6.853
 5505SOL    HW217415   3.796   4.395   6.752
 5506SOL     OW17416   0.132   6.634   6.022
 5506SOL    HW117417   0.176   6.721   6.045
 5506SOL    HW217418   0.035   6.639   6.046
 5507SOL     OW17419   3.519   5.739   4.647
 5507SOL    HW117420   3.603   5.684   4.652
 5507SOL    HW217421   3.471   5.735   4.735
 5508SOL     OW17422   1.602   0.375   5.709
 5508SOL    HW117423   1.682   0.385   5.769
 5508SOL    HW217424   1.528   0.434   5.743
 5509SOL     OW17425   6.123   6.968   6.617
 5509SOL    HW117426   6.162   7.020   6.540
 5509SOL    HW217427   6.181   6.888   6.635
 5510SOL     OW17428   5.991   0.545   6.162
 5510SOL    HW117429   5.948   0.468   6.115
 5510SOL    HW217430   5.986   0.627   6.104
 5511SOL     OW17431   6.687   2.466   1.435
 5511SOL    HW117432   6.725   2.382   1.475
 5511SOL    HW217433   6.760   2.532   1.421
 5512SOL     OW17434   0.367   0.760   0.365
 5512SOL    HW117435   0.289   0.734   0.309
 5512SOL    HW217436   0.356   0.723   0.457
 5513SOL     OW17437   3.090   5.999   4.987
 5513SOL    HW117438   3.001   6.043   4.976
 5513SOL    HW217439   3.085   5.904   4.957
 5514SOL     OW17440   5.787   5.581   3.844
 5514SOL    HW117441   5.881   5.575   3.875
 5514SOL    HW217442   5.775   5.662   3.788
 5515SOL     OW17443   6.582   3.706   3.189
 5515SOL    HW117444   6.546   3.652   3.113
 5515SOL    HW217445   6.600   3.646   3.267
 5516SOL     OW17446   1.267   3.070   6.350
 5516SOL    HW117447   1.351   3.029   6.315
 5516SOL    HW217448   1.240   3.146   6.291
 5517SOL     OW17449   2.696   1.007   2.254
 5517SOL    HW117450   2.619   1.067   2.234
 5517SOL    HW217451   2.776   1.037   2.202
 5518SOL     OW17452   5.532   4.744   5.358
 5518SOL    HW117453   5.566   4.757   5.452
 5518SOL    HW217454   5.599   4.690   5.306
 5519SOL     OW17455   5.205   3.724   3.059
 5519SOL    HW117456   5.172   3.657   2.992
 5519SOL    HW217457   5.272   3.784   3.015
 5520SOL     OW17458   1.919   2.842   0.812
 5520SOL    HW117459   1.830   2.851   0.858
 5520SOL    HW217460   1.926   2.751   0.772
 5521SOL     OW17461   5.029   5.386   0.764
 5521SOL    HW117462   5.105   5.408   0.824
 5521SOL    HW217463   5.022   5.286   0.754
 5522SOL     OW17464   1.865   2.997   2.187
 5522SOL    HW117465   1.923   3.075   2.211
 5522SOL    HW217466   1.845   2.999   2.089
 5523SOL     OW17467   3.668   0.764   1.727
 5523SOL    HW117468   3.576   0.744   1.759
 5523SOL    HW217469   3.678   0.862   1.713
 5524SOL     OW17470   5.798   6.077   5.428
 5524SOL    HW117471   5.787   5.998   5.490
 5524SOL    HW217472   5.805   6.161   5.483
 5525SOL     OW17473   6.579   5.587   4.095
 5525SOL    HW117474   6.555   5.671   4.045
 5525SOL    HW217475   6.641   5.532   4.041
 5526SOL     OW17476   5.447   3.287   4.631
 5526SOL    HW117477   5.443   3.289   4.531
 5526SOL    HW217478   5.520   3.225   4.660
 5527SOL     OW17479   1.997   3.210   0.213
 5527SOL    HW117480   2.077   3.270   0.211
 5527SOL    HW217481   2.015   3.129   0.156
 5528SOL     OW17482   6.526   3.434   2.989
 5528SOL    HW117483   6.530   3.493   2.909
 5528SOL    HW217484   6.608   3.377   2.993
 5529SOL     OW17485   0.747   1.175   4.276
 5529SOL    HW117486   0.648   1.169   4.285
 5529SOL    HW217487   0.788   1.185   4.367
 5530SOL     OW17488   0.137   3.342   6.781
 5530SOL    HW117489   0.183   3.354   6.693
 5530SOL    HW217490   0.138   3.245   6.806
 5531SOL     OW17491   1.484   2.719   6.575
 5531SOL    HW117492   1.544   2.701   6.652
 5531SOL    HW217493   1.499   2.650   6.504
 5532SOL     OW17494   1.950   2.312   1.518
 5532SOL    HW117495   1.946   2.216   1.546
 5532SOL    HW217496   2.010   2.320   1.438
 5533SOL     OW17497   3.489   0.357   0.590
 5533SOL    HW117498   3.580   0.362   0.548
 5533SOL    HW217499   3.429   0.425   0.547
 5534SOL     OW17500   6.940   4.220   5.310
 5534SOL    HW117501   6.922   4.191   5.216
 5534SOL    HW217502   0.003   4.271   5.314
 5535SOL     OW17503   6.254   3.221   3.971
 5535SOL    HW117504   6.187   3.148   3.962
 5535SOL    HW217505   6.289   3.222   4.065
 5536SOL     OW17506   2.821   0.435   3.994
 5536SOL    HW117507   2.791   0.489   4.072
 5536SOL    HW217508   2.806   0.338   4.013
 5537SOL     OW17509   4.244   1.668   4.664
 5537SOL    HW117510   4.212   1.576   4.643
 5537SOL    HW217511   4.178   1.735   4.629
 5538SOL     OW17512   5.434   2.597   2.291
 5538SOL    HW117513   5.337   2.616   2.280
 5538SOL    HW217514   5.456   2.509   2.249
 5539SOL     OW17515   2.637   0.059   0.276
 5539SOL    HW117516   2.732   0.054   0.307
 5539SOL    HW217517   2.624   0.142   0.223
 5540SOL     OW17518   5.093   0.378   5.564
 5540SOL    HW117519   5.028   0.440   5.519
 5540SOL    HW217520   5.043   0.301   5.603
 5541SOL     OW17521   4.625   3.158   0.201
 5541SOL    HW117522   4.572   3.186   0.281
 5541SOL    HW217523   4.572   3.176   0.118
 5542SOL     OW17524   4.613   4.522   0.284
 5542SOL    HW117525   4.707   4.494   0.270
 5542SOL    HW217526   4.571   4.467   0.356
 5543SOL     OW17527   1.517   0.479   6.742
 5543SOL    HW117528   1.577   0.416   6.691
 5543SOL    HW217529   1.510   0.448   6.837
 5544SOL     OW17530   3.828   5.070   0.229
 5544SOL    HW117531   3.741   5.119   0.224
 5544SOL    HW217532   3.852   5.055   0.325
 5545SOL     OW17533   4.854   0.967   4.273
 5545SOL    HW117534   4.949   0.949   4.248
 5545SOL    HW217535   4.846   1.058   4.312
 5546SOL     OW17536   0.366   5.089   4.319
 5546SOL    HW117537   0.272   5.066   4.296
 5546SOL    HW217538   0.367   5.162   4.388
 5547SOL     OW17539   5.046   2.021   4.759
 5547SOL    HW117540   5.134   2.056   4.792
 5547SOL    HW217541   5.022   1.938   4.809
 5548SOL     OW17542   0.748   4.873   4.940
 5548SOL    HW117543   0.716   4.794   4.887
 5548SOL    HW217544   0.804   4.932   4.881
 5549SOL     OW17545   4.185   2.661   0.768
 5549SOL    HW117546   4.269   2.678   0.717
 5549SOL    HW217547   4.208   2.640   0.863
 5550SOL     OW17548   2.223   4.237   1.738
 5550SOL    HW117549   2.302   4.257   1.797
 5550SOL    HW217550   2.193   4.143   1.755
 5551SOL     OW17551   1.990   5.464   2.747
 5551SOL    HW117552   1.954   5.508   2.665
 5551SOL    HW217553   1.961   5.368   2.749
 5552SOL     OW17554   0.970   6.445   0.271
 5552SOL    HW117555   1.014   6.529   0.303
 5552SOL    HW217556   1.037   6.388   0.225
 5553SOL     OW17557   5.269   0.639   0.458
 5553SOL    HW117558   5.205   0.563   0.447
 5553SOL    HW217559   5.219   0.719   0.493
 5554SOL     OW17560   6.618   1.670   1.446
 5554SOL    HW117561   6.700   1.657   1.502
 5554SOL    HW217562   6.566   1.586   1.443
 5555SOL     OW17563   1.337   4.985   3.043
 5555SOL    HW117564   1.365   5.056   2.978
 5555SOL    HW217565   1.351   4.895   3.001
 5556SOL     OW17566   0.031   0.874   4.530
 5556SOL    HW117567   0.082   0.934   4.592
 5556SOL    HW217568   0.005   0.924   4.448
 5557SOL     OW17569   3.622   6.000   3.352
 5557SOL    HW117570   3.527   5.993   3.321
 5557SOL    HW217571   3.682   6.016   3.273
 5558SOL     OW17572   4.235   4.169   7.008
 5558SOL    HW117573   4.233   4.085   0.039
 5558SOL    HW217574   4.312   4.167   6.945
 5559SOL     OW17575   3.390   1.261   2.607
 5559SOL    HW117576   3.309   1.273   2.665
 5559SOL    HW217577   3.377   1.310   2.521
 5560SOL     OW17578   0.761   5.468   3.952
 5560SOL    HW117579   0.780   5.388   4.008
 5560SOL    HW217580   0.722   5.439   3.864
 5561SOL     OW17581   3.371   6.172   3.080
 5561SOL    HW117582   3.327   6.237   3.017
 5561SOL    HW217583   3.465   6.202   3.097
 5562SOL     OW17584   3.471   3.696   0.913
 5562SOL    HW117585   3.517   3.632   0.976
 5562SOL    HW217586   3.458   3.652   0.824
 5563SOL     OW17587   2.222   4.582   2.374
 5563SOL    HW117588   2.247   4.654   2.309
 5563SOL    HW217589   2.217   4.621   2.466
 5564SOL     OW17590   5.174   0.491   6.091
 5564SOL    HW117591   5.229   0.420   6.046
 5564SOL    HW217592   5.180   0.576   6.039
 5565SOL     OW17593   3.195   1.694   6.356
 5565SOL    HW117594   3.264   1.632   6.316
 5565SOL    HW217595   3.136   1.642   6.417
 5566SOL     OW17596   1.534   3.971   6.586
 5566SOL    HW117597   1.434   3.974   6.587
 5566SOL    HW217598   1.569   4.023   6.508
 5567SOL     OW17599   0.479   3.912   0.554
 5567SOL    HW117600   0.462   3.835   0.492
 5567SOL    HW217601   0.459   3.884   0.648
 5568SOL     OW17602   4.786   4.676   1.279
 5568SOL    HW117603   4.845   4.743   1.234
 5568SOL    HW217604   4.746   4.716   1.361
 5569SOL     OW17605   2.249   2.813   2.791
 5569SOL    HW117606   2.293   2.729   2.823
 5569SOL    HW217607   2.258   2.884   2.861
 5570SOL     OW17608   6.825   4.000   2.054
 5570SOL    HW117609   6.756   3.998   2.126
 5570SOL    HW217610   6.876   4.086   2.059
 5571SOL     OW17611   6.249   4.737   1.005
 5571SOL    HW117612   6.250   4.718   0.907
 5571SOL    HW217613   6.339   4.771   1.033
 5572SOL     OW17614   1.991   4.185   4.898
 5572SOL    HW117615   1.901   4.167   4.939
 5572SOL    HW217616   1.986   4.267   4.842
 5573SOL     OW17617   3.006   5.080   3.732
 5573SOL    HW117618   2.940   5.143   3.774
 5573SOL    HW217619   3.003   5.089   3.633
 5574SOL     OW17620   0.474   2.325   5.640
 5574SOL    HW117621   0.411   2.258   5.600
 5574SOL    HW217622   0.563   2.283   5.654
 5575SOL     OW17623   0.132   0.206   1.564
 5575SOL    HW117624   0.050   0.149   1.577
 5575SOL    HW217625   0.105   0.302   1.558
 5576SOL     OW17626   1.415   5.383   3.021
 5576SOL    HW117627   1.394   5.402   3.117
 5576SOL    HW217628   1.505   5.422   2.999
 5577SOL     OW17629   2.237   2.826   5.435
 5577SOL    HW117630   2.323   2.866   5.403
 5577SOL    HW217631   2.218   2.857   5.528
 5578SOL     OW17632   3.504   4.068   3.552
 5578SOL    HW117633   3.490   4.075   3.651
 5578SOL    HW217634   3.417   4.083   3.505
 5579SOL     OW17635   6.814   3.232   2.292
 5579SOL    HW117636   6.785   3.190   2.206
 5579SOL    HW217637   6.768   3.320   2.303
 5580SOL     OW17638   5.421   2.196   5.753
 5580SOL    HW117639   5.385   2.245   5.674
 5580SOL    HW217640   5.382   2.104   5.756
 5581SOL     OW17641   1.160   2.578   6.816
 5581SOL    HW117642   1.183   2.670   6.785
 5581SOL    HW217643   1.216   2.511   6.768
 5582SOL     OW17644   2.500   3.213   6.247
 5582SOL    HW117645   2.446   3.295   6.226
 5582SOL    HW217646   2.438   3.138   6.271
 5583SOL     OW17647   5.327   0.477   1.335
 5583SOL    HW117648   5.376   0.390   1.337
 5583SOL    HW217649   5.230   0.462   1.357
 5584SOL     OW17650   1.499   3.158   4.356
 5584SOL    HW117651   1.459   3.070   4.330
 5584SOL    HW217652   1.534   3.204   4.274
 5585SOL     OW17653   5.183   4.837   1.772
 5585SOL    HW117654   5.097   4.822   1.723
 5585SOL    HW217655   5.175   4.919   1.828
 5586SOL     OW17656   7.005   4.092   0.497
 5586SOL    HW117657   0.030   4.037   0.428
 5586SOL    HW217658   6.910   4.105   0.468
 5587SOL     OW17659   5.999   0.958   6.121
 5587SOL    HW117660   6.033   1.006   6.202
 5587SOL    HW217661   6.063   0.886   6.095
 5588SOL     OW17662   4.047   6.474   0.856
 5588SOL    HW117663   4.036   6.570   0.829
 5588SOL    HW217664   4.117   6.467   0.927
 5589SOL     OW17665   5.796   4.958   5.978
 5589SOL    HW117666   5.763   5.007   5.897
 5589SOL    HW217667   5.896   4.956   5.978
 5590SOL     OW17668   6.276   5.825   3.534
 5590SOL    HW117669   6.232   5.901   3.487
 5590SOL    HW217670   6.339   5.861   3.603
 5591SOL     OW17671   5.893   0.887   1.880
 5591SOL    HW117672   5.855   0.844   1.798
 5591SOL    HW217673   5.991   0.905   1.866
 5592SOL     OW17674   1.163   3.920   3.380
 5592SOL    HW117675   1.109   3.906   3.297
 5592SOL    HW217676   1.103   3.950   3.454
 5593SOL     OW17677   0.025   3.663   0.367
 5593SOL    HW117678   0.057   3.724   0.295
 5593SOL    HW217679   0.070   3.688   0.454
 5594SOL     OW17680   6.367   1.987   6.442
 5594SOL    HW117681   6.318   2.066   6.479
 5594SOL    HW217682   6.367   1.991   6.342
 5595SOL     OW17683   1.235   2.776   6.044
 5595SOL    HW117684   1.260   2.800   6.138
 5595SOL    HW217685   1.250   2.678   6.029
 5596SOL     OW17686   2.851   6.134   3.117
 5596SOL    HW117687   2.907   6.101   3.193
 5596SOL    HW217688   2.871   6.230   3.099
 5597SOL     OW17689   5.087   3.159   2.494
 5597SOL    HW117690   5.135   3.140   2.408
 5597SOL    HW217691   5.151   3.156   2.570
 5598SOL     OW17692   5.276   1.517   4.736
 5598SOL    HW117693   5.211   1.589   4.714
 5598SOL    HW217694   5.248   1.472   4.821
 5599SOL     OW17695   0.900   0.516   3.678
 5599SOL    HW117696   0.838   0.585   3.639
 5599SOL    HW217697   0.993   0.553   3.679
 5600SOL     OW17698   1.611   2.159   4.736
 5600SOL    HW117699   1.561   2.074   4.748
 5600SOL    HW217700   1.546   2.234   4.721
 5601SOL     OW17701   2.523   0.596   6.266
 5601SOL    HW117702   2.520   0.511   6.318
 5601SOL    HW217703   2.618   0.629   6.260
 5602SOL     OW17704   1.832   1.195   0.081
 5602SOL    HW117705   1.736   1.202   0.054
 5602SOL    HW217706   1.875   1.119   0.032
 5603SOL     OW17707   5.936   4.525   6.505
 5603SOL    HW117708   5.857   4.466   6.519
 5603SOL    HW217709   5.915   4.618   6.537
 5604SOL     OW17710   6.163   1.448   6.008
 5604SOL    HW117711   6.112   1.364   6.024
 5604SOL    HW217712   6.154   1.475   5.912
 5605SOL     OW17713   1.285   2.715   6.322
 5605SOL    HW117714   1.368   2.770   6.313
 5605SOL    HW217715   1.214   2.768   6.368
 5606SOL     OW17716   5.500   0.300   3.084
 5606SOL    HW117717   5.570   0.372   3.088
 5606SOL    HW217718   5.497   0.252   3.172
 5607SOL     OW17719   5.912   0.845   1.282
 5607SOL    HW117720   5.828   0.860   1.334
 5607SOL    HW217721   5.895   0.773   1.213
 5608SOL     OW17722   4.237   6.774   4.608
 5608SOL    HW117723   4.318   6.715   4.615
 5608SOL    HW217724   4.228   6.807   4.514
 5609SOL     OW17725   1.870   5.543   5.373
 5609SOL    HW117726   1.965   5.549   5.406
 5609SOL    HW217727   1.864   5.471   5.304
 5610SOL     OW17728   4.387   0.196   6.381
 5610SOL    HW117729   4.418   0.182   6.475
 5610SOL    HW217730   4.454   0.250   6.331
 5611SOL     OW17731   2.000   4.660   3.725
 5611SOL    HW117732   1.977   4.673   3.822
 5611SOL    HW217733   2.016   4.749   3.683
 5612SOL     OW17734   2.305   0.493   5.174
 5612SOL    HW117735   2.298   0.479   5.075
 5612SOL    HW217736   2.291   0.406   5.221
 5613SOL     OW17737   3.825   4.925   1.664
 5613SOL    HW117738   3.845   4.964   1.574
 5613SOL    HW217739   3.880   4.973   1.733
 5614SOL     OW17740   4.997   2.383   3.568
 5614SOL    HW117741   4.946   2.373   3.654
 5614SOL    HW217742   5.005   2.480   3.546
 5615SOL     OW17743   1.480   1.612   1.108
 5615SOL    HW117744   1.567   1.578   1.145
 5615SOL    HW217745   1.455   1.559   1.027
 5616SOL     OW17746   2.470   0.320   4.702
 5616SOL    HW117747   2.395   0.375   4.666
 5616SOL    HW217748   2.470   0.230   4.657
 5617SOL     OW17749   1.017   0.672   5.241
 5617SOL    HW117750   0.931   0.702   5.200
 5617SOL    HW217751   1.048   0.741   5.307
 5618SOL     OW17752   6.487   4.586   2.689
 5618SOL    HW117753   6.527   4.525   2.757
 5618SOL    HW217754   6.543   4.584   2.606
 5619SOL     OW17755   2.129   3.922   4.899
 5619SOL    HW117756   2.213   3.894   4.946
 5619SOL    HW217757   2.125   4.021   4.893
 5620SOL     OW17758   3.651   2.203   6.520
 5620SOL    HW117759   3.744   2.236   6.506
 5620SOL    HW217760   3.586   2.277   6.506
 5621SOL     OW17761   1.884   2.230   6.512
 5621SOL    HW117762   1.949   2.262   6.443
 5621SOL    HW217763   1.792   2.227   6.473
 5622SOL     OW17764   5.849   0.822   5.246
 5622SOL    HW117765   5.942   0.826   5.283
 5622SOL    HW217766   5.845   0.874   5.161
 5623SOL     OW17767   0.709   5.663   6.641
 5623SOL    HW117768   0.627   5.711   6.673
 5623SOL    HW217769   0.787   5.725   6.643
 5624SOL     OW17770   1.133   4.328   2.866
 5624SOL    HW117771   1.125   4.229   2.880
 5624SOL    HW217772   1.066   4.358   2.799
 5625SOL     OW17773   6.489   2.336   5.808
 5625SOL    HW117774   6.399   2.333   5.764
 5625SOL    HW217775   6.548   2.399   5.758
 5626SOL     OW17776   4.599   6.939   4.096
 5626SOL    HW117777   4.699   6.946   4.100
 5626SOL    HW217778   4.572   6.887   4.015
 5627SOL     OW17779   1.151   6.019   1.008
 5627SOL    HW117780   1.216   5.947   1.029
 5627SOL    HW217781   1.173   6.059   0.919
 5628SOL     OW17782   0.876   1.164   4.555
 5628SOL    HW117783   0.957   1.200   4.508
 5628SOL    HW217784   0.876   1.194   4.650
 5629SOL     OW17785   3.574   3.343   2.853
 5629SOL    HW117786   3.535   3.320   2.764
 5629SOL    HW217787   3.673   3.359   2.843
 5630SOL     OW17788   0.021   4.605   1.527
 5630SOL    HW117789   6.979   4.530   1.546
 5630SOL    HW217790   0.054   4.643   1.613
 5631SOL     OW17791   4.666   0.637   6.815
 5631SOL    HW117792   4.619   0.569   6.759
 5631SOL    HW217793   4.763   0.615   6.820
 5632SOL     OW17794   2.884   3.129   0.070
 5632SOL    HW117795   2.897   3.227   0.053
 5632SOL    HW217796   2.959   3.078   0.030
 5633SOL     OW17797   6.173   2.697   5.021
 5633SOL    HW117798   6.159   2.780   5.075
 5633SOL    HW217799   6.141   2.712   4.928
 5634SOL     OW17800   4.914   5.603   4.448
 5634SOL    HW117801   4.823   5.565   4.431
 5634SOL    HW217802   4.922   5.693   4.405
 5635SOL     OW17803   3.225   2.086   5.238
 5635SOL    HW117804   3.233   2.177   5.195
 5635SOL    HW217805   3.155   2.033   5.190
 5636SOL     OW17806   3.976   6.003   3.913
 5636SOL    HW117807   4.066   5.969   3.938
 5636SOL    HW217808   3.932   6.044   3.993
 5637SOL     OW17809   6.078   0.204   3.272
 5637SOL    HW117810   6.019   0.128   3.245
 5637SOL    HW217811   6.153   0.168   3.328
 5638SOL     OW17812   4.881   4.064   6.615
 5638SOL    HW117813   4.927   4.067   6.527
 5638SOL    HW217814   4.876   3.969   6.647
 5639SOL     OW17815   3.027   0.354   6.956
 5639SOL    HW117816   2.979   0.272   6.987
 5639SOL    HW217817   3.090   0.329   6.882
 5640SOL     OW17818   2.216   0.020   3.140
 5640SOL    HW117819   2.121   7.013   3.143
 5640SOL    HW217820   2.271   6.973   3.094
 5641SOL     OW17821   6.164   6.034   4.476
 5641SOL    HW117822   6.201   6.035   4.383
 5641SOL    HW217823   6.193   5.951   4.522
 5642SOL     OW17824   1.724   1.838   6.963
 5642SOL    HW117825   1.722   1.747   7.004
 5642SOL    HW217826   1.733   1.830   6.864
 5643SOL     OW17827   5.509   1.903   5.072
 5643SOL    HW117828   5.493   1.832   5.141
 5643SOL    HW217829   5.489   1.865   4.981
 5644SOL     OW17830   2.915   6.894   6.324
 5644SOL    HW117831   3.015   6.890   6.315
 5644SOL    HW217832   2.873   6.826   6.264
 5645SOL     OW17833   5.067   3.807   4.700
 5645SOL    HW117834   5.115   3.726   4.735
 5645SOL    HW217835   5.129   3.861   4.643
 5646SOL     OW17836   1.608   4.304   3.028
 5646SOL    HW117837   1.604   4.205   3.038
 5646SOL    HW217838   1.516   4.339   3.009
 5647SOL     OW17839   6.553   6.802   2.201
 5647SOL    HW117840   6.485   6.790   2.129
 5647SOL    HW217841   6.584   6.713   2.234
 5648SOL     OW17842   4.715   6.211   3.350
 5648SOL    HW117843   4.713   6.310   3.335
 5648SOL    HW217844   4.757   6.193   3.439
 5649SOL     OW17845   0.998   6.769   4.447
 5649SOL    HW117846   1.065   6.733   4.512
 5649SOL    HW217847   0.978   6.700   4.378
 5650SOL     OW17848   6.628   4.290   6.771
 5650SOL    HW117849   6.544   4.285   6.718
 5650SOL    HW217850   6.701   4.240   6.723
 5651SOL     OW17851   3.045   0.582   1.089
 5651SOL    HW117852   3.115   0.645   1.121
 5651SOL    HW217853   3.087   0.511   1.032
 5652SOL     OW17854   0.544   6.106   1.660
 5652SOL    HW117855   0.576   6.127   1.568
 5652SOL    HW217856   0.448   6.130   1.668
 5653SOL     OW17857   0.122   0.264   1.852
 5653SOL    HW117858   0.186   0.319   1.906
 5653SOL    HW217859   0.031   0.305   1.855
 5654SOL     OW17860   3.458   5.690   4.317
 5654SOL    HW117861   3.471   5.626   4.393
 5654SOL    HW217862   3.477   5.783   4.349
 5655SOL     OW17863   5.609   2.803   5.247
 5655SOL    HW117864   5.662   2.802   5.332
 5655SOL    HW217865   5.525   2.749   5.260
 5656SOL     OW17866   6.691   3.387   0.062
 5656SOL    HW117867   6.764   3.415   0.125
 5656SOL    HW217868   6.719   3.304   0.014
 5657SOL     OW17869   5.240   5.600   4.731
 5657SOL    HW117870   5.320   5.539   4.725
 5657SOL    HW217871   5.235   5.639   4.822
 5658SOL     OW17872   2.109   2.946   5.663
 5658SOL    HW117873   2.163   3.026   5.689
 5658SOL    HW217874   2.134   2.869   5.723
 5659SOL     OW17875   2.603   3.974   6.962
 5659SOL    HW117876   2.634   3.954   0.032
 5659SOL    HW217877   2.527   4.040   6.965
 5660SOL     OW17878   4.505   0.845   5.763
 5660SOL    HW117879   4.466   0.850   5.855
 5660SOL    HW217880   4.543   0.754   5.748
 5661SOL     OW17881   1.393   5.515   5.812
 5661SOL    HW117882   1.460   5.450   5.850
 5661SOL    HW217883   1.441   5.586   5.762
 5662SOL     OW17884   3.347   6.430   0.895
 5662SOL    HW117885   3.313   6.335   0.895
 5662SOL    HW217886   3.291   6.485   0.833
 5663SOL     OW17887   1.949   3.361   6.174
 5663SOL    HW117888   2.026   3.330   6.118
 5663SOL    HW217889   1.865   3.318   6.141
 5664SOL     OW17890   4.760   4.506   4.734
 5664SOL    HW117891   4.699   4.436   4.771
 5664SOL    HW217892   4.708   4.573   4.683
 5665SOL     OW17893   1.661   1.646   0.872
 5665SOL    HW117894   1.711   1.564   0.845
 5665SOL    HW217895   1.598   1.673   0.799
 5666SOL     OW17896   5.855   2.310   5.050
 5666SOL    HW117897   5.760   2.277   5.055
 5666SOL    HW217898   5.864   2.395   5.101
 5667SOL     OW17899   2.650   4.672   4.231
 5667SOL    HW117900   2.605   4.591   4.195
 5667SOL    HW217901   2.604   4.702   4.314
 5668SOL     OW17902   4.835   3.963   3.578
 5668SOL    HW117903   4.817   4.041   3.638
 5668SOL    HW217904   4.803   3.984   3.486
 5669SOL     OW17905   5.481   4.270   5.944
 5669SOL    HW117906   5.444   4.178   5.952
 5669SOL    HW217907   5.414   4.336   5.978
 5670SOL     OW17908   1.592   2.522   3.364
 5670SOL    HW117909   1.551   2.596   3.312
 5670SOL    HW217910   1.657   2.559   3.430
 5671SOL     OW17911   0.281   6.170   3.873
 5671SOL    HW117912   0.337   6.109   3.928
 5671SOL    HW217913   0.253   6.123   3.789
 5672SOL     OW17914   5.143   3.274   4.349
 5672SOL    HW117915   5.227   3.312   4.312
 5672SOL    HW217916   5.163   3.221   4.432
 5673SOL     OW17917   0.958   1.514   0.841
 5673SOL    HW117918   1.019   1.435   0.838
 5673SOL    HW217919   0.923   1.526   0.933
 5674SOL     OW17920   2.068   4.912   4.841
 5674SOL    HW117921   1.983   4.874   4.876
 5674SOL    HW217922   2.135   4.917   4.915
 5675SOL     OW17923   2.789   1.514   1.205
 5675SOL    HW117924   2.855   1.446   1.173
 5675SOL    HW217925   2.750   1.562   1.126
 5676SOL     OW17926   3.275   1.085   1.816
 5676SOL    HW117927   3.295   1.180   1.789
 5676SOL    HW217928   3.330   1.061   1.896
 5677SOL     OW17929   0.138   1.567   6.576
 5677SOL    HW117930   0.111   1.567   6.672
 5677SOL    HW217931   0.236   1.588   6.569
 5678SOL     OW17932   3.498   2.016   2.070
 5678SOL    HW117933   3.412   2.041   2.116
 5678SOL    HW217934   3.536   2.097   2.025
 5679SOL     OW17935   6.433   3.528   5.159
 5679SOL    HW117936   6.473   3.615   5.128
 5679SOL    HW217937   6.348   3.547   5.209
 5680SOL     OW17938   0.832   5.938   4.888
 5680SOL    HW117939   0.883   6.022   4.870
 5680SOL    HW217940   0.868   5.865   4.830
 5681SOL     OW17941   1.196   3.456   3.879
 5681SOL    HW117942   1.190   3.357   3.885
 5681SOL    HW217943   1.255   3.481   3.802
 5682SOL     OW17944   2.100   4.651   1.425
 5682SOL    HW117945   2.004   4.644   1.398
 5682SOL    HW217946   2.106   4.682   1.520
 5683SOL     OW17947   6.561   0.669   5.940
 5683SOL    HW117948   6.530   0.750   5.890
 5683SOL    HW217949   6.656   0.682   5.970
 5684SOL     OW17950   2.224   2.809   5.016
 5684SOL    HW117951   2.247   2.712   5.027
 5684SOL    HW217952   2.288   2.865   5.068
 5685SOL     OW17953   2.416   2.050   2.280
 5685SOL    HW117954   2.336   2.109   2.286
 5685SOL    HW217955   2.470   2.075   2.199
 5686SOL     OW17956   4.623   5.769   5.958
 5686SOL    HW117957   4.612   5.855   5.909
 5686SOL    HW217958   4.718   5.758   5.986
 5687SOL     OW17959   1.670   6.210   6.324
 5687SOL    HW117960   1.583   6.260   6.315
 5687SOL    HW217961   1.718   6.211   6.237
 5688SOL     OW17962   1.882   2.024   2.739
 5688SOL    HW117963   1.935   2.001   2.820
 5688SOL    HW217964   1.878   1.945   2.678
 5689SOL     OW17965   0.251   2.441   1.311
 5689SOL    HW117966   0.227   2.345   1.330
 5689SOL    HW217967   0.339   2.444   1.265
 5690SOL     OW17968   2.190   4.816   6.527
 5690SOL    HW117969   2.113   4.752   6.520
 5690SOL    HW217970   2.266   4.784   6.470
 5691SOL     OW17971   3.934   1.689   2.903
 5691SOL    HW117972   4.000   1.614   2.907
 5691SOL    HW217973   3.980   1.776   2.923
 5692SOL     OW17974   5.611   4.782   1.907
 5692SOL    HW117975   5.668   4.704   1.881
 5692SOL    HW217976   5.582   4.773   2.002
 5693SOL     OW17977   4.135   0.339   1.407
 5693SOL    HW117978   4.040   0.313   1.426
 5693SOL    HW217979   4.181   0.363   1.493
 5694SOL     OW17980   0.904   6.993   1.609
 5694SOL    HW117981   0.864   6.995   1.518
 5694SOL    HW217982   0.998   0.006   1.605
 5695SOL     OW17983   2.674   0.782   2.064
 5695SOL    HW117984   2.641   0.808   1.973
 5695SOL    HW217985   2.651   0.855   2.129
 5696SOL     OW17986   1.227   0.827   4.282
 5696SOL    HW117987   1.240   0.918   4.242
 5696SOL    HW217988   1.299   0.766   4.250
 5697SOL     OW17989   6.207   2.696   0.526
 5697SOL    HW117990   6.150   2.765   0.570
 5697SOL    HW217991   6.152   2.642   0.462
 5698SOL     OW17992   2.837   1.748   4.543
 5698SOL    HW117993   2.842   1.659   4.588
 5698SOL    HW217994   2.792   1.737   4.454
 5699SOL     OW17995   1.938   2.691   2.452
 5699SOL    HW117996   1.974   2.599   2.470
 5699SOL    HW217997   2.013   2.753   2.430
 5700SOL     OW17998   6.421   0.399   2.821
 5700SOL    HW117999   6.351   0.338   2.783
 5700SOL    HW218000   6.468   0.353   2.897
 5701SOL     OW18001   0.376   0.622   0.595
 5701SOL    HW118002   0.467   0.581   0.587
 5701SOL    HW218003   0.320   0.566   0.656
 5702SOL     OW18004   2.276   0.096   4.619
 5702SOL    HW118005   2.231   0.070   4.704
 5702SOL    HW218006   2.207   0.120   4.550
 5703SOL     OW18007   0.486   3.292   6.177
 5703SOL    HW118008   0.530   3.375   6.211
 5703SOL    HW218009   0.419   3.316   6.107
 5704SOL     OW18010   4.183   5.614   4.059
 5704SOL    HW118011   4.191   5.708   4.025
 5704SOL    HW218012   4.155   5.554   3.984
 5705SOL     OW18013   6.051   0.741   5.724
 5705SOL    HW118014   5.963   0.705   5.692
 5705SOL    HW218015   6.058   0.838   5.699
 5706SOL     OW18016   4.794   1.704   0.394
 5706SOL    HW118017   4.731   1.775   0.362
 5706SOL    HW218018   4.879   1.708   0.342
 5707SOL     OW18019   5.895   5.291   1.387
 5707SOL    HW118020   5.796   5.282   1.392
 5707SOL    HW218021   5.930   5.232   1.314
 5708SOL     OW18022   5.529   6.444   2.277
 5708SOL    HW118023   5.588   6.364   2.273
 5708SOL    HW218024   5.441   6.423   2.234
 5709SOL     OW18025   0.029   2.536   2.399
 5709SOL    HW118026   0.099   2.605   2.378
 5709SOL    HW218027   0.010   2.537   2.497
 5710SOL     OW18028   3.898   1.803   0.559
 5710SOL    HW118029   3.934   1.867   0.491
 5710SOL    HW218030   3.820   1.844   0.606
 5711SOL     OW18031   5.355   1.989   3.159
 5711SOL    HW118032   5.399   1.913   3.111
 5711SOL    HW218033   5.258   1.969   3.172
 5712SOL     OW18034   6.505   0.165   0.390
 5712SOL    HW118035   6.433   0.118   0.441
 5712SOL    HW218036   6.498   0.141   0.293
 5713SOL     OW18037   2.042   0.896   0.561
 5713SOL    HW118038   2.031   0.834   0.639
 5713SOL    HW218039   2.138   0.920   0.550
 5714SOL     OW18040   6.197   0.431   0.350
 5714SOL    HW118041   6.282   0.483   0.352
 5714SOL    HW218042   6.172   0.410   0.255
 5715SOL     OW18043   0.425   0.071   2.237
 5715SOL    HW118044   0.454   0.157   2.277
 5715SOL    HW218045   0.340   0.084   2.187
 5716SOL     OW18046   6.435   4.203   5.487
 5716SOL    HW118047   6.415   4.105   5.479
 5716SOL    HW218048   6.351   4.255   5.469
 5717SOL     OW18049   1.076   5.321   3.636
 5717SOL    HW118050   1.076   5.226   3.606
 5717SOL    HW218051   1.058   5.326   3.734
 5718SOL     OW18052   1.070   3.198   6.899
 5718SOL    HW118053   1.163   3.214   6.866
 5718SOL    HW218054   1.014   3.279   6.881
 5719SOL     OW18055   2.441   3.202   0.614
 5719SOL    HW118056   2.459   3.190   0.516
 5719SOL    HW218057   2.522   3.174   0.666
 5720SOL     OW18058   3.006   4.822   5.721
 5720SOL    HW118059   2.920   4.873   5.715
 5720SOL    HW218060   2.988   4.730   5.755
 5721SOL     OW18061   1.574   2.621   6.932
 5721SOL    HW118062   1.482   2.646   6.961
 5721SOL    HW218063   1.623   2.702   6.900
 5722SOL     OW18064   1.367   0.201   6.907
 5722SOL    HW118065   1.451   0.252   6.926
 5722SOL    HW218066   1.348   0.203   6.809
 5723SOL     OW18067   4.002   3.357   0.523
 5723SOL    HW118068   3.993   3.265   0.563
 5723SOL    HW218069   4.091   3.366   0.480
 5724SOL     OW18070   5.281   1.954   5.714
 5724SOL    HW118071   5.227   1.910   5.786
 5724SOL    HW218072   5.368   1.906   5.704
 5725SOL     OW18073   0.228   4.443   5.014
 5725SOL    HW118074   0.196   4.473   5.104
 5725SOL    HW218075   0.178   4.362   4.986
 5726SOL     OW18076   5.252   4.025   2.490
 5726SOL    HW118077   5.297   4.087   2.555
 5726SOL    HW218078   5.217   3.945   2.539
 5727SOL     OW18079   0.671   2.700   5.262
 5727SOL    HW118080   0.693   2.614   5.217
 5727SOL    HW218081   0.698   2.777   5.204
 5728SOL     OW18082   4.217   0.194   4.909
 5728SOL    HW118083   4.208   0.099   4.935
 5728SOL    HW218084   4.148   0.249   4.956
 5729SOL     OW18085   2.742   2.097   4.892
 5729SOL    HW118086   2.786   2.017   4.851
 5729SOL    HW218087   2.797   2.129   4.969
 5730SOL     OW18088   6.784   4.501   4.872
 5730SOL    HW118089   6.826   4.531   4.958
 5730SOL    HW218090   6.688   4.476   4.890
 5731SOL     OW18091   0.729   6.792   2.992
 5731SOL    HW118092   0.802   6.731   2.962
 5731SOL    HW218093   0.765   6.857   3.060
 5732SOL     OW18094   0.356   0.763   3.691
 5732SOL    HW118095   0.408   0.846   3.673
 5732SOL    HW218096   0.267   0.769   3.645
 5733SOL     OW18097   3.122   0.363   5.311
 5733SOL    HW118098   3.221   0.380   5.307
 5733SOL    HW218099   3.077   0.412   5.237
 5734SOL     OW18100   1.727   6.715   3.796
 5734SOL    HW118101   1.741   6.630   3.848
 5734SOL    HW218102   1.753   6.700   3.701
 5735SOL     OW18103   3.479   0.648   1.893
 5735SOL    HW118104   3.535   0.621   1.972
 5735SOL    HW218105   3.420   0.725   1.919
 5736SOL     OW18106   1.745   5.704   6.773
 5736SOL    HW118107   1.821   5.682   6.713
 5736SOL    HW218108   1.744   5.640   6.850
 5737SOL     OW18109   5.522   4.469   0.206
 5737SOL    HW118110   5.441   4.515   0.243
 5737SOL    HW218111   5.564   4.414   0.279
 5738SOL     OW18112   1.189   4.459   5.282
 5738SOL    HW118113   1.217   4.365   5.262
 5738SOL    HW218114   1.159   4.503   5.197
 5739SOL     OW18115   0.811   2.437   1.962
 5739SOL    HW118116   0.716   2.407   1.952
 5739SOL    HW218117   0.872   2.364   1.929
 5740SOL     OW18118   3.690   5.612   6.799
 5740SOL    HW118119   3.727   5.540   6.857
 5740SOL    HW218120   3.616   5.575   6.743
 5741SOL     OW18121   0.134   4.713   1.801
 5741SOL    HW118122   0.103   4.770   1.877
 5741SOL    HW218123   0.171   4.771   1.729
 5742SOL     OW18124   0.280   5.720   4.323
 5742SOL    HW118125   0.251   5.815   4.335
 5742SOL    HW218126   0.284   5.699   4.225
 5743SOL     OW18127   1.678   6.133   4.302
 5743SOL    HW118128   1.638   6.191   4.373
 5743SOL    HW218129   1.616   6.058   4.281
 5744SOL     OW18130   5.976   0.208   1.845
 5744SOL    HW118131   6.046   0.150   1.802
 5744SOL    HW218132   5.980   0.299   1.805
 5745SOL     OW18133   1.301   2.405   3.084
 5745SOL    HW118134   1.313   2.464   3.004
 5745SOL    HW218135   1.389   2.368   3.112
 5746SOL     OW18136   6.605   4.554   0.069
 5746SOL    HW118137   6.661   4.601   0.001
 5746SOL    HW218138   6.629   4.587   0.160
 5747SOL     OW18139   0.465   6.393   3.226
 5747SOL    HW118140   0.479   6.481   3.181
 5747SOL    HW218141   0.442   6.324   3.157
 5748SOL     OW18142   2.149   6.850   3.596
 5748SOL    HW118143   2.094   6.914   3.650
 5748SOL    HW218144   2.089   6.787   3.547
 5749SOL     OW18145   2.084   0.941   3.141
 5749SOL    HW118146   2.070   0.977   3.049
 5749SOL    HW218147   2.179   0.908   3.150
 5750SOL     OW18148   6.128   5.783   2.246
 5750SOL    HW118149   6.111   5.736   2.332
 5750SOL    HW218150   6.067   5.746   2.175
 5751SOL     OW18151   1.141   3.242   6.177
 5751SOL    HW118152   1.170   3.197   6.092
 5751SOL    HW218153   1.072   3.311   6.155
 5752SOL     OW18154   1.089   1.200   6.378
 5752SOL    HW118155   1.083   1.114   6.429
 5752SOL    HW218156   1.107   1.275   6.441
 5753SOL     OW18157   4.292   1.703   0.355
 5753SOL    HW118158   4.364   1.709   0.285
 5753SOL    HW218159   4.268   1.606   0.369
 5754SOL     OW18160   6.517   5.209   0.592
 5754SOL    HW118161   6.498   5.253   0.680
 5754SOL    HW218162   6.495   5.112   0.598
 5755SOL     OW18163   3.346   3.778   1.665
 5755SOL    HW118164   3.415   3.835   1.710
 5755SOL    HW218165   3.376   3.683   1.665
 5756SOL     OW18166   6.909   6.599   4.407
 5756SOL    HW118167   6.909   6.532   4.333
 5756SOL    HW218168   6.855   6.565   4.484
 5757SOL     OW18169   0.211   6.530   2.082
 5757SOL    HW118170   0.214   6.596   2.157
 5757SOL    HW218171   0.296   6.533   2.031
 5758SOL     OW18172   2.588   1.385   5.537
 5758SOL    HW118173   2.513   1.319   5.550
 5758SOL    HW218174   2.652   1.378   5.614
 5759SOL     OW18175   0.247   2.164   5.554
 5759SOL    HW118176   0.207   2.127   5.470
 5759SOL    HW218177   0.242   2.096   5.627
 5760SOL     OW18178   1.134   5.125   1.600
 5760SOL    HW118179   1.113   5.028   1.611
 5760SOL    HW218180   1.137   5.169   1.689
 5761SOL     OW18181   5.497   0.411   4.406
 5761SOL    HW118182   5.423   0.359   4.450
 5761SOL    HW218183   5.468   0.506   4.392
 5762SOL     OW18184   5.674   6.281   1.447
 5762SOL    HW118185   5.702   6.209   1.385
 5762SOL    HW218186   5.580   6.266   1.477
 5763SOL     OW18187   1.938   1.147   0.830
 5763SOL    HW118188   2.038   1.139   0.836
 5763SOL    HW218189   1.906   1.106   0.745
 5764SOL     OW18190   4.598   2.921   6.466
 5764SOL    HW118191   4.640   2.993   6.521
 5764SOL    HW218192   4.641   2.920   6.376
 5765SOL     OW18193   6.669   5.664   0.500
 5765SOL    HW118194   6.638   5.656   0.405
 5765SOL    HW218195   6.642   5.582   0.551
 5766SOL     OW18196   3.229   1.316   3.062
 5766SOL    HW118197   3.186   1.338   2.975
 5766SOL    HW218198   3.167   1.261   3.117
 5767SOL     OW18199   5.822   0.590   0.815
 5767SOL    HW118200   5.911   0.551   0.793
 5767SOL    HW218201   5.791   0.646   0.739
 5768SOL     OW18202   6.361   1.031   2.524
 5768SOL    HW118203   6.268   1.027   2.487
 5768SOL    HW218204   6.422   0.977   2.466
 5769SOL     OW18205   2.010   5.423   3.330
 5769SOL    HW118206   1.950   5.424   3.410
 5769SOL    HW218207   2.019   5.329   3.296
 5770SOL     OW18208   5.688   2.359   1.743
 5770SOL    HW118209   5.590   2.374   1.758
 5770SOL    HW218210   5.700   2.295   1.667
 5771SOL     OW18211   0.509   0.874   0.716
 5771SOL    HW118212   0.484   0.787   0.674
 5771SOL    HW218213   0.584   0.915   0.665
 5772SOL     OW18214   6.372   4.314   6.637
 5772SOL    HW118215   6.298   4.374   6.667
 5772SOL    HW218216   6.397   4.336   6.543
 5773SOL     OW18217   4.904   6.012   5.222
 5773SOL    HW118218   4.829   6.038   5.282
 5773SOL    HW218219   4.898   5.914   5.201
 5774SOL     OW18220   2.347   4.929   2.806
 5774SOL    HW118221   2.362   4.879   2.892
 5774SOL    HW218222   2.430   4.924   2.751
 5775SOL     OW18223   0.832   0.640   0.156
 5775SOL    HW118224   0.910   0.627   0.218
 5775SOL    HW218225   0.747   0.628   0.208
 5776SOL     OW18226   4.317   1.466   5.982
 5776SOL    HW118227   4.224   1.440   6.006
 5776SOL    HW218228   4.377   1.447   6.060
 5777SOL     OW18229   5.769   0.391   5.240
 5777SOL    HW118230   5.801   0.334   5.315
 5777SOL    HW218231   5.829   0.471   5.231
 5778SOL     OW18232   2.503   6.496   4.241
 5778SOL    HW118233   2.594   6.456   4.246
 5778SOL    HW218234   2.504   6.572   4.175
 5779SOL     OW18235   4.260   0.149   0.860
 5779SOL    HW118236   4.207   0.233   0.846
 5779SOL    HW218237   4.262   0.126   0.957
 5780SOL     OW18238   6.022   3.862   0.710
 5780SOL    HW118239   5.928   3.894   0.694
 5780SOL    HW218240   6.063   3.833   0.624
 5781SOL     OW18241   3.079   4.695   5.205
 5781SOL    HW118242   3.008   4.628   5.184
 5781SOL    HW218243   3.046   4.757   5.277
 5782SOL     OW18244   4.544   1.740   3.590
 5782SOL    HW118245   4.464   1.800   3.586
 5782SOL    HW218246   4.621   1.783   3.544
 5783SOL     OW18247   2.244   6.761   2.130
 5783SOL    HW118248   2.336   6.752   2.090
 5783SOL    HW218249   2.249   6.744   2.228
 5784SOL     OW18250   1.359   6.002   6.690
 5784SOL    HW118251   1.324   6.013   6.598
 5784SOL    HW218252   1.424   5.926   6.693
 5785SOL     OW18253   1.947   2.059   6.698
 5785SOL    HW118254   2.036   2.064   6.744
 5785SOL    HW218255   1.946   2.121   6.620
 5786SOL     OW18256   0.421   2.638   6.040
 5786SOL    HW118257   0.364   2.557   6.025
 5786SOL    HW218258   0.515   2.618   6.012
 5787SOL     OW18259   0.353   2.807   5.199
 5787SOL    HW118260   0.335   2.905   5.194
 5787SOL    HW218261   0.401   2.785   5.284
 5788SOL     OW18262   0.368   1.844   2.176
 5788SOL    HW118263   0.317   1.908   2.233
 5788SOL    HW218264   0.401   1.892   2.094
 5789SOL     OW18265   2.837   5.272   6.946
 5789SOL    HW118266   2.926   5.227   6.940
 5789SOL    HW218267   2.772   5.213   6.994
 5790SOL     OW18268   6.624   6.302   2.496
 5790SOL    HW118269   6.721   6.293   2.475
 5790SOL    HW218270   6.577   6.217   2.471
 5791SOL     OW18271   3.967   0.915   1.063
 5791SOL    HW118272   3.955   0.938   1.160
 5791SOL    HW218273   3.916   0.980   1.007
 5792SOL     OW18274   4.592   2.092   2.267
 5792SOL    HW118275   4.502   2.052   2.282
 5792SOL    HW218276   4.593   2.142   2.180
 5793SOL     OW18277   3.350   1.820   0.085
 5793SOL    HW118278   3.326   1.736   0.133
 5793SOL    HW218279   3.271   1.881   0.083
 5794SOL     OW18280   3.351   5.727   6.879
 5794SOL    HW118281   3.385   5.656   6.816
 5794SOL    HW218282   3.265   5.696   6.920
 5795SOL     OW18283   0.996   0.308   1.113
 5795SOL    HW118284   1.055   0.347   1.043
 5795SOL    HW218285   0.902   0.304   1.080
 5796SOL     OW18286   4.883   0.763   6.170
 5796SOL    HW118287   4.816   0.713   6.113
 5796SOL    HW218288   4.975   0.734   6.145
 5797SOL     OW18289   0.411   2.670   6.955
 5797SOL    HW118290   0.474   2.669   6.877
 5797SOL    HW218291   0.458   2.633   0.013
 5798SOL     OW18292   1.945   2.689   4.497
 5798SOL    HW118293   1.907   2.709   4.407
 5798SOL    HW218294   1.949   2.774   4.551
 5799SOL     OW18295   2.726   6.993   3.660
 5799SOL    HW118296   2.646   0.003   3.609
 5799SOL    HW218297   2.784   6.939   3.599
 5800SOL     OW18298   1.233   6.276   2.359
 5800SOL    HW118299   1.332   6.273   2.372
 5800SOL    HW218300   1.199   6.183   2.344
 5801SOL     OW18301   1.731   1.796   2.878
 5801SOL    HW118302   1.660   1.826   2.815
 5801SOL    HW218303   1.737   1.696   2.878
 5802SOL     OW18304   0.697   0.265   2.989
 5802SOL    HW118305   0.784   0.312   2.974
 5802SOL    HW218306   0.655   0.244   2.900
 5803SOL     OW18307   0.424   6.911   4.280
 5803SOL    HW118308   0.346   6.850   4.292
 5803SOL    HW218309   0.440   6.962   4.365
 5804SOL     OW18310   6.514   2.174   3.342
 5804SOL    HW118311   6.589   2.168   3.275
 5804SOL    HW218312   6.515   2.265   3.384
 5805SOL     OW18313   0.872   2.708   1.949
 5805SOL    HW118314   0.829   2.618   1.959
 5805SOL    HW218315   0.881   2.751   2.039
 5806SOL     OW18316   6.569   3.726   2.187
 5806SOL    HW118317   6.623   3.808   2.209
 5806SOL    HW218318   6.612   3.677   2.112
 5807SOL     OW18319   0.949   1.528   2.098
 5807SOL    HW118320   0.978   1.466   2.026
 5807SOL    HW218321   0.889   1.598   2.060
 5808SOL     OW18322   0.081   0.485   5.578
 5808SOL    HW118323   0.083   0.477   5.677
 5808SOL    HW218324   0.054   0.578   5.552
 5809SOL     OW18325   0.076   3.766   4.441
 5809SOL    HW118326   0.124   3.781   4.354
 5809SOL    HW218327   0.130   3.705   4.499
 5810SOL     OW18328   1.863   6.503   5.710
 5810SOL    HW118329   1.792   6.566   5.740
 5810SOL    HW218330   1.938   6.555   5.669
 5811SOL     OW18331   3.954   5.140   6.801
 5811SOL    HW118332   4.048   5.110   6.810
 5811SOL    HW218333   3.896   5.064   6.774
 5812SOL     OW18334   6.322   3.869   6.341
 5812SOL    HW118335   6.223   3.865   6.340
 5812SOL    HW218336   6.354   3.896   6.432
 5813SOL     OW18337   5.669   4.595   0.480
 5813SOL    HW118338   5.719   4.595   0.567
 5813SOL    HW218339   5.731   4.569   0.406
 5814SOL     OW18340   5.734   1.172   2.735
 5814SOL    HW118341   5.710   1.232   2.659
 5814SOL    HW218342   5.786   1.223   2.803
 5815SOL     OW18343   6.740   3.828   5.251
 5815SOL    HW118344   6.759   3.925   5.232
 5815SOL    HW218345   6.763   3.773   5.170
 5816SOL     OW18346   6.725   4.015   1.208
 5816SOL    HW118347   6.804   3.990   1.151
 5816SOL    HW218348   6.644   3.965   1.177
 5817SOL     OW18349   6.994   2.903   3.863
 5817SOL    HW118350   6.947   2.931   3.780
 5817SOL    HW218351   0.025   2.821   3.845
 5818SOL     OW18352   2.536   0.194   4.369
 5818SOL    HW118353   2.552   0.122   4.437
 5818SOL    HW218354   2.622   0.217   4.324
 5819SOL     OW18355   4.495   4.118   1.182
 5819SOL    HW118356   4.494   4.139   1.084
 5819SOL    HW218357   4.405   4.135   1.221
 5820SOL     OW18358   7.021   6.898   2.904
 5820SOL    HW118359   0.064   6.895   2.980
 5820SOL    HW218360   7.022   6.810   2.856
 5821SOL     OW18361   6.373   6.601   2.099
 5821SOL    HW118362   6.430   6.567   2.174
 5821SOL    HW218363   6.431   6.619   2.019
 5822SOL     OW18364   0.447   3.982   2.443
 5822SOL    HW118365   0.382   4.006   2.515
 5822SOL    HW218366   0.416   4.022   2.356
 5823SOL     OW18367   2.713   6.767   4.928
 5823SOL    HW118368   2.622   6.809   4.935
 5823SOL    HW218369   2.705   6.668   4.944
 5824SOL     OW18370   1.974   6.109   2.237
 5824SOL    HW118371   2.016   6.018   2.234
 5824SOL    HW218372   2.012   6.165   2.164
 5825SOL     OW18373   4.286   1.823   4.894
 5825SOL    HW118374   4.199   1.872   4.894
 5825SOL    HW218375   4.291   1.764   4.813
 5826SOL     OW18376   1.581   6.318   4.516
 5826SOL    HW118377   1.507   6.255   4.542
 5826SOL    HW218378   1.613   6.367   4.597
 5827SOL     OW18379   2.120   3.741   3.339
 5827SOL    HW118380   2.118   3.733   3.239
 5827SOL    HW218381   2.102   3.651   3.380
 5828SOL     OW18382   4.621   6.749   5.476
 5828SOL    HW118383   4.687   6.780   5.545
 5828SOL    HW218384   4.661   6.672   5.426
 5829SOL     OW18385   1.989   0.099   2.858
 5829SOL    HW118386   2.052   0.174   2.839
 5829SOL    HW218387   1.918   0.097   2.788
 5830SOL     OW18388   4.569   5.542   4.431
 5830SOL    HW118389   4.551   5.600   4.511
 5830SOL    HW218390   4.492   5.548   4.367
 5831SOL     OW18391   2.290   2.068   4.408
 5831SOL    HW118392   2.211   2.011   4.388
 5831SOL    HW218393   2.323   2.050   4.500
 5832SOL     OW18394   2.476   5.373   3.888
 5832SOL    HW118395   2.490   5.469   3.914
 5832SOL    HW218396   2.507   5.359   3.794
 5833SOL     OW18397   3.149   4.724   0.602
 5833SOL    HW118398   3.124   4.820   0.591
 5833SOL    HW218399   3.178   4.707   0.696
 5834SOL     OW18400   6.379   2.404   6.469
 5834SOL    HW118401   6.456   2.415   6.531
 5834SOL    HW218402   6.314   2.338   6.507
 5835SOL     OW18403   4.313   1.501   3.424
 5835SOL    HW118404   4.337   1.416   3.470
 5835SOL    HW218405   4.391   1.533   3.370
 5836SOL     OW18406   4.467   5.182   1.144
 5836SOL    HW118407   4.509   5.260   1.097
 5836SOL    HW218408   4.399   5.215   1.209
 5837SOL     OW18409   2.707   4.115   0.359
 5837SOL    HW118410   2.722   4.207   0.324
 5837SOL    HW218411   2.611   4.089   0.344
 5838SOL     OW18412   3.147   3.272   0.106
 5838SOL    HW118413   3.180   3.283   0.200
 5838SOL    HW218414   3.224   3.256   0.045
 5839SOL     OW18415   1.963   1.450   0.559
 5839SOL    HW118416   1.865   1.446   0.581
 5839SOL    HW218417   1.979   1.406   0.470
 5840SOL     OW18418   0.663   3.607   2.561
 5840SOL    HW118419   0.577   3.559   2.542
 5840SOL    HW218420   0.738   3.540   2.565
 5841SOL     OW18421   5.246   1.471   0.576
 5841SOL    HW118422   5.154   1.442   0.600
 5841SOL    HW218423   5.247   1.570   0.560
 5842SOL     OW18424   3.259   2.067   2.192
 5842SOL    HW118425   3.286   2.133   2.262
 5842SOL    HW218426   3.159   2.070   2.180
 5843SOL     OW18427   3.167   3.265   0.782
 5843SOL    HW118428   3.253   3.310   0.805
 5843SOL    HW218429   3.177   3.219   0.693
 5844SOL     OW18430   0.688   5.425   5.229
 5844SOL    HW118431   0.784   5.406   5.206
 5844SOL    HW218432   0.652   5.352   5.287
 5845SOL     OW18433   1.838   6.700   2.577
 5845SOL    HW118434   1.898   6.778   2.561
 5845SOL    HW218435   1.750   6.716   2.533
 5846SOL     OW18436   0.698   4.778   5.787
 5846SOL    HW118437   0.666   4.717   5.714
 5846SOL    HW218438   0.734   4.722   5.862
 5847SOL     OW18439   1.788   4.272   6.169
 5847SOL    HW118440   1.717   4.321   6.119
 5847SOL    HW218441   1.842   4.336   6.223
 5848SOL     OW18442   2.383   6.619   1.588
 5848SOL    HW118443   2.296   6.571   1.593
 5848SOL    HW218444   2.457   6.555   1.611
 5849SOL     OW18445   2.676   5.697   6.510
 5849SOL    HW118446   2.774   5.706   6.489
 5849SOL    HW218447   2.659   5.609   6.554
 5850SOL     OW18448   6.321   1.594   1.670
 5850SOL    HW118449   6.403   1.541   1.689
 5850SOL    HW218450   6.343   1.692   1.673
 5851SOL     OW18451   0.346   3.950   4.921
 5851SOL    HW118452   0.302   3.916   4.838
 5851SOL    HW218453   0.397   3.877   4.965
 5852SOL     OW18454   5.025   4.054   2.963
 5852SOL    HW118455   5.039   4.133   3.022
 5852SOL    HW218456   5.021   4.084   2.868
 5853SOL     OW18457   4.683   5.110   0.264
 5853SOL    HW118458   4.680   5.115   0.164
 5853SOL    HW218459   4.626   5.034   0.295
 5854SOL     OW18460   2.943   4.512   5.471
 5854SOL    HW118461   2.861   4.562   5.501
 5854SOL    HW218462   2.933   4.487   5.375
 5855SOL     OW18463   1.959   2.307   4.425
 5855SOL    HW118464   1.874   2.338   4.382
 5855SOL    HW218465   1.967   2.348   4.516
 5856SOL     OW18466   0.491   0.511   2.775
 5856SOL    HW118467   0.473   0.600   2.818
 5856SOL    HW218468   0.491   0.440   2.844
 5857SOL     OW18469   5.681   5.170   6.937
 5857SOL    HW118470   5.647   5.081   6.908
 5857SOL    HW218471   5.674   5.235   6.861
 5858SOL     OW18472   2.324   1.584   2.401
 5858SOL    HW118473   2.295   1.501   2.354
 5858SOL    HW218474   2.275   1.662   2.362
 5859SOL     OW18475   5.467   5.350   2.043
 5859SOL    HW118476   5.489   5.442   2.011
 5859SOL    HW218477   5.471   5.347   2.143
 5860SOL     OW18478   1.808   3.338   2.720
 5860SOL    HW118479   1.747   3.337   2.799
 5860SOL    HW218480   1.901   3.317   2.750
 5861SOL     OW18481   5.938   0.586   5.149
 5861SOL    HW118482   6.037   0.600   5.141
 5861SOL    HW218483   5.896   0.670   5.182
 5862SOL     OW18484   6.928   5.001   3.221
 5862SOL    HW118485   6.856   4.941   3.187
 5862SOL    HW218486   6.898   5.096   3.214
 5863SOL     OW18487   4.029   0.038   5.841
 5863SOL    HW118488   4.065   0.110   5.900
 5863SOL    HW218489   4.031   0.068   5.746
 5864SOL     OW18490   3.844   3.117   2.780
 5864SOL    HW118491   3.787   3.037   2.799
 5864SOL    HW218492   3.885   3.108   2.690
 5865SOL     OW18493   6.534   6.961   1.475
 5865SOL    HW118494   6.454   6.901   1.466
 5865SOL    HW218495   6.543   6.990   1.571
 5866SOL     OW18496   3.475   3.244   3.411
 5866SOL    HW118497   3.446   3.317   3.474
 5866SOL    HW218498   3.569   3.259   3.383
 5867SOL     OW18499   3.783   1.373   1.171
 5867SOL    HW118500   3.743   1.285   1.197
 5867SOL    HW218501   3.872   1.358   1.128
 5868SOL     OW18502   1.723   0.519   0.461
 5868SOL    HW118503   1.657   0.583   0.501
 5868SOL    HW218504   1.727   0.436   0.516
 5869SOL     OW18505   1.625   5.872   2.602
 5869SOL    HW118506   1.690   5.946   2.589
 5869SOL    HW218507   1.636   5.832   2.693
 5870SOL     OW18508   4.748   0.560   3.447
 5870SOL    HW118509   4.762   0.583   3.543
 5870SOL    HW218510   4.673   0.615   3.410
 5871SOL     OW18511   3.797   3.218   3.693
 5871SOL    HW118512   3.734   3.269   3.751
 5871SOL    HW218513   3.769   3.122   3.688
 5872SOL     OW18514   4.083   6.201   1.041
 5872SOL    HW118515   3.985   6.212   1.024
 5872SOL    HW218516   4.134   6.265   0.984
 5873SOL     OW18517   4.127   6.145   2.067
 5873SOL    HW118518   4.066   6.067   2.064
 5873SOL    HW218519   4.169   6.151   2.158
 5874SOL     OW18520   0.396   4.793   5.122
 5874SOL    HW118521   0.305   4.831   5.103
 5874SOL    HW218522   0.418   4.724   5.052
 5875SOL     OW18523   4.028   2.288   1.371
 5875SOL    HW118524   3.971   2.338   1.307
 5875SOL    HW218525   4.037   2.340   1.456
 5876SOL     OW18526   3.156   3.127   1.923
 5876SOL    HW118527   3.092   3.203   1.911
 5876SOL    HW218528   3.216   3.146   2.001
 5877SOL     OW18529   5.157   4.383   1.488
 5877SOL    HW118530   5.098   4.429   1.421
 5877SOL    HW218531   5.101   4.325   1.547
 5878SOL     OW18532   1.799   3.737   2.721
 5878SOL    HW118533   1.895   3.729   2.697
 5878SOL    HW218534   1.766   3.828   2.696
 5879SOL     OW18535   1.882   3.172   4.183
 5879SOL    HW118536   1.982   3.166   4.189
 5879SOL    HW218537   1.847   3.229   4.257
 5880SOL     OW18538   3.082   5.671   6.981
 5880SOL    HW118539   2.994   5.643   6.943
 5880SOL    HW218540   3.068   5.733   0.034
 5881SOL     OW18541   1.784   6.467   4.406
 5881SOL    HW118542   1.852   6.496   4.473
 5881SOL    HW218543   1.716   6.409   4.451
 5882SOL     OW18544   5.364   0.144   3.307
 5882SOL    HW118545   5.430   0.197   3.359
 5882SOL    HW218546   5.272   0.181   3.321
 5883SOL     OW18547   0.483   3.179   4.624
 5883SOL    HW118548   0.499   3.168   4.526
 5883SOL    HW218549   0.571   3.176   4.672
 5884SOL     OW18550   0.432   0.762   2.867
 5884SOL    HW118551   0.504   0.812   2.914
 5884SOL    HW218552   0.393   0.819   2.795
 5885SOL     OW18553   5.764   6.577   1.005
 5885SOL    HW118554   5.686   6.599   1.064
 5885SOL    HW218555   5.797   6.484   1.026
 5886SOL     OW18556   5.994   2.086   6.352
 5886SOL    HW118557   5.901   2.099   6.387
 5886SOL    HW218558   6.046   2.170   6.366
 5887SOL     OW18559   3.921   5.841   2.604
 5887SOL    HW118560   3.914   5.747   2.637
 5887SOL    HW218561   3.840   5.864   2.550
 5888SOL     OW18562   6.817   0.082   1.939
 5888SOL    HW118563   6.907   0.047   1.964
 5888SOL    HW218564   6.755   0.071   2.017
 5889SOL     OW18565   2.383   6.911   6.535
 5889SOL    HW118566   2.300   6.948   6.493
 5889SOL    HW218567   2.389   6.813   6.518
 5890SOL     OW18568   3.761   5.247   6.002
 5890SOL    HW118569   3.720   5.180   5.941
 5890SOL    HW218570   3.688   5.298   6.048
 5891SOL     OW18571   2.183   3.873   6.196
 5891SOL    HW118572   2.105   3.936   6.202
 5891SOL    HW218573   2.150   3.779   6.201
 5892SOL     OW18574   2.233   6.406   2.675
 5892SOL    HW118575   2.298   6.438   2.743
 5892SOL    HW218576   2.141   6.439   2.699
 5893SOL     OW18577   1.515   2.105   3.303
 5893SOL    HW118578   1.418   2.114   3.283
 5893SOL    HW218579   1.565   2.179   3.258
 5894SOL     OW18580   1.295   3.858   3.904
 5894SOL    HW118581   1.298   3.851   4.004
 5894SOL    HW218582   1.200   3.847   3.873
 5895SOL     OW18583   5.659   3.801   3.472
 5895SOL    HW118584   5.673   3.706   3.443
 5895SOL    HW218585   5.661   3.860   3.391
 5896SOL     OW18586   5.222   3.358   6.328
 5896SOL    HW118587   5.163   3.328   6.253
 5896SOL    HW218588   5.307   3.304   6.327
 5897SOL     OW18589   4.574   4.828   0.948
 5897SOL    HW118590   4.487   4.849   0.904
 5897SOL    HW218591   4.560   4.817   1.047
 5898SOL     OW18592   2.898   6.499   3.184
 5898SOL    HW118593   2.956   6.580   3.194
 5898SOL    HW218594   2.886   6.454   3.272
 5899SOL     OW18595   5.875   0.287   3.773
 5899SOL    HW118596   5.898   0.190   3.779
 5899SOL    HW218597   5.867   0.326   3.865
 5900SOL     OW18598   3.940   4.838   2.026
 5900SOL    HW118599   3.989   4.904   1.970
 5900SOL    HW218600   3.864   4.799   1.974
 5901SOL     OW18601   2.984   6.331   4.747
 5901SOL    HW118602   3.071   6.319   4.793
 5901SOL    HW218603   2.999   6.340   4.648
 5902SOL     OW18604   5.980   2.274   0.072
 5902SOL    HW118605   5.922   2.211   0.124
 5902SOL    HW218606   6.071   2.278   0.114
 5903SOL     OW18607   0.579   3.012   5.879
 5903SOL    HW118608   0.665   3.049   5.914
 5903SOL    HW218609   0.503   3.066   5.914
 5904SOL     OW18610   1.490   2.949   2.665
 5904SOL    HW118611   1.487   2.866   2.609
 5904SOL    HW218612   1.463   3.028   2.609
 5905SOL     OW18613   0.102   4.669   2.883
 5905SOL    HW118614   0.145   4.722   2.810
 5905SOL    HW218615   0.005   4.694   2.890
 5906SOL     OW18616   1.447   1.423   2.585
 5906SOL    HW118617   1.368   1.462   2.633
 5906SOL    HW218618   1.482   1.489   2.520
 5907SOL     OW18619   2.056   0.486   2.761
 5907SOL    HW118620   1.994   0.519   2.832
 5907SOL    HW218621   2.005   0.472   2.676
 5908SOL     OW18622   1.124   2.948   5.866
 5908SOL    HW118623   1.156   2.919   5.775
 5908SOL    HW218624   1.134   2.873   5.931
 5909SOL     OW18625   6.631   4.546   0.354
 5909SOL    HW118626   6.625   4.597   0.440
 5909SOL    HW218627   6.716   4.495   0.352
 5910SOL     OW18628   1.472   1.552   3.200
 5910SOL    HW118629   1.411   1.626   3.170
 5910SOL    HW218630   1.425   1.465   3.190
 5911SOL     OW18631   6.334   5.742   6.526
 5911SOL    HW118632   6.280   5.815   6.567
 5911SOL    HW218633   6.273   5.676   6.483
 5912SOL     OW18634   0.118   7.012   3.750
 5912SOL    HW118635   0.142   6.918   3.728
 5912SOL    HW218636   0.201   0.044   3.758
 5913SOL     OW18637   6.499   2.277   0.760
 5913SOL    HW118638   6.570   2.341   0.732
 5913SOL    HW218639   6.415   2.328   0.782
 5914SOL     OW18640   1.016   6.573   0.728
 5914SOL    HW118641   0.985   6.543   0.818
 5914SOL    HW218642   0.946   6.551   0.660
 5915SOL     OW18643   4.169   0.673   5.751
 5915SOL    HW118644   4.219   0.703   5.670
 5915SOL    HW218645   4.208   0.587   5.784
 5916SOL     OW18646   1.081   0.200   2.189
 5916SOL    HW118647   1.029   0.263   2.131
 5916SOL    HW218648   1.166   0.175   2.143
 5917SOL     OW18649   3.191   2.913   0.223
 5917SOL    HW118650   3.228   2.848   0.157
 5917SOL    HW218651   3.244   2.998   0.219
 5918SOL     OW18652   3.399   0.022   4.294
 5918SOL    HW118653   3.398   0.059   4.201
 5918SOL    HW218654   3.492   0.030   4.332
 5919SOL     OW18655   3.197   3.209   4.853
 5919SOL    HW118656   3.204   3.113   4.827
 5919SOL    HW218657   3.116   3.249   4.810
 5920SOL     OW18658   0.442   0.220   5.997
 5920SOL    HW118659   0.382   0.269   6.061
 5920SOL    HW218660   0.456   0.127   6.030
 5921SOL     OW18661   2.433   4.448   7.008
 5921SOL    HW118662   2.386   4.516   6.953
 5921SOL    HW218663   2.526   4.478   0.005
 5922SOL     OW18664   5.283   2.844   2.732
 5922SOL    HW118665   5.321   2.814   2.820
 5922SOL    HW218666   5.224   2.771   2.695
 5923SOL     OW18667   6.009   0.933   3.256
 5923SOL    HW118668   6.066   0.851   3.260
 5923SOL    HW218669   6.018   0.976   3.166
 5924SOL     OW18670   5.893   6.328   3.690
 5924SOL    HW118671   5.865   6.232   3.694
 5924SOL    HW218672   5.974   6.337   3.632
 5925SOL     OW18673   4.317   1.359   1.019
 5925SOL    HW118674   4.324   1.357   0.919
 5925SOL    HW218675   4.279   1.272   1.052
 5926SOL     OW18676   5.299   3.790   3.325
 5926SOL    HW118677   5.265   3.772   3.233
 5926SOL    HW218678   5.306   3.704   3.375
 5927SOL     OW18679   0.674   5.221   1.865
 5927SOL    HW118680   0.692   5.296   1.928
 5927SOL    HW218681   0.722   5.238   1.779
 5928SOL     OW18682   2.738   6.937   6.789
 5928SOL    HW118683   2.683   6.854   6.774
 5928SOL    HW218684   2.798   6.952   6.710
 5929SOL     OW18685   1.116   0.639   0.648
 5929SOL    HW118686   1.190   0.695   0.612
 5929SOL    HW218687   1.123   0.634   0.747
 5930SOL     OW18688   1.750   3.803   2.432
 5930SOL    HW118689   1.843   3.811   2.469
 5930SOL    HW218690   1.754   3.767   2.339
 5931SOL     OW18691   5.205   6.255   3.043
 5931SOL    HW118692   5.115   6.213   3.037
 5931SOL    HW218693   5.206   6.341   2.991
 5932SOL     OW18694   3.203   6.438   0.455
 5932SOL    HW118695   3.193   6.432   0.555
 5932SOL    HW218696   3.283   6.494   0.433
 5933SOL     OW18697   6.049   5.916   4.170
 5933SOL    HW118698   6.110   5.857   4.222
 5933SOL    HW218699   5.962   5.870   4.155
 5934SOL     OW18700   2.773   3.478   0.388
 5934SOL    HW118701   2.813   3.569   0.378
 5934SOL    HW218702   2.817   3.415   0.324
 5935SOL     OW18703   0.770   0.340   5.405
 5935SOL    HW118704   0.849   0.359   5.463
 5935SOL    HW218705   0.722   0.259   5.437
 5936SOL     OW18706   3.533   2.903   1.629
 5936SOL    HW118707   3.440   2.930   1.655
 5936SOL    HW218708   3.571   2.973   1.568
 5937SOL     OW18709   0.458   2.378   0.733
 5937SOL    HW118710   0.390   2.378   0.660
 5937SOL    HW218711   0.413   2.365   0.821
 5938SOL     OW18712   0.134   3.918   3.982
 5938SOL    HW118713   0.191   3.980   3.928
 5938SOL    HW218714   0.106   3.841   3.925
 5939SOL     OW18715   4.248   1.299   5.777
 5939SOL    HW118716   4.243   1.393   5.813
 5939SOL    HW218717   4.158   1.256   5.784
 5940SOL     OW18718   4.551   5.087   1.591
 5940SOL    HW118719   4.552   5.038   1.678
 5940SOL    HW218720   4.615   5.165   1.596
 5941SOL     OW18721   6.967   1.949   3.191
 5941SOL    HW118722   6.911   1.882   3.143
 5941SOL    HW218723   6.992   2.023   3.128
 5942SOL     OW18724   5.387   2.679   6.368
 5942SOL    HW118725   5.305   2.640   6.409
 5942SOL    HW218726   5.445   2.605   6.333
 5943SOL     OW18727   1.891   4.767   1.258
 5943SOL    HW118728   1.947   4.832   1.207
 5943SOL    HW218729   1.802   4.758   1.215
 5944SOL     OW18730   6.049   3.566   6.114
 5944SOL    HW118731   6.003   3.607   6.035
 5944SOL    HW218732   5.981   3.544   6.184
 5945SOL     OW18733   6.514   6.673   4.778
 5945SOL    HW118734   6.542   6.754   4.727
 5945SOL    HW218735   6.414   6.666   4.777
 5946SOL     OW18736   1.985   3.306   6.728
 5946SOL    HW118737   2.072   3.265   6.757
 5946SOL    HW218738   2.004   3.381   6.664
 5947SOL     OW18739   3.285   3.649   4.691
 5947SOL    HW118740   3.329   3.586   4.627
 5947SOL    HW218741   3.321   3.634   4.783
 5948SOL     OW18742   4.713   3.644   1.351
 5948SOL    HW118743   4.695   3.724   1.409
 5948SOL    HW218744   4.798   3.657   1.300
 5949SOL     OW18745   0.655   4.165   2.951
 5949SOL    HW118746   0.737   4.223   2.957
 5949SOL    HW218747   0.683   4.069   2.951
 5950SOL     OW18748   3.014   6.990   4.652
 5950SOL    HW118749   3.048   6.967   4.561
 5950SOL    HW218750   2.924   6.949   4.665
 5951SOL     OW18751   6.884   4.170   6.642
 5951SOL    HW118752   6.960   4.112   6.669
 5951SOL    HW218753   6.877   4.171   6.542
 5952SOL     OW18754   3.788   4.082   1.684
 5952SOL    HW118755   3.715   4.100   1.751
 5952SOL    HW218756   3.761   4.118   1.595
 5953SOL     OW18757   6.616   3.437   5.927
 5953SOL    HW118758   6.551   3.513   5.917
 5953SOL    HW218759   6.585   3.360   5.872
 5954SOL     OW18760   1.965   5.481   3.941
 5954SOL    HW118761   1.946   5.494   4.039
 5954SOL    HW218762   2.056   5.440   3.930
 5955SOL     OW18763   5.088   2.598   0.440
 5955SOL    HW118764   5.031   2.518   0.419
 5955SOL    HW218765   5.129   2.586   0.530
 5956SOL     OW18766   4.971   2.851   5.513
 5956SOL    HW118767   4.957   2.947   5.491
 5956SOL    HW218768   4.887   2.800   5.497
 5957SOL     OW18769   6.639   1.835   3.679
 5957SOL    HW118770   6.712   1.779   3.640
 5957SOL    HW218771   6.595   1.888   3.607
 5958SOL     OW18772   2.570   6.763   3.386
 5958SOL    HW118773   2.488   6.820   3.379
 5958SOL    HW218774   2.573   6.700   3.308
 5959SOL     OW18775   5.543   2.988   2.980
 5959SOL    HW118776   5.532   2.892   2.955
 5959SOL    HW218777   5.558   3.043   2.898
 5960SOL     OW18778   4.982   1.004   6.172
 5960SOL    HW118779   5.044   0.978   6.246
 5960SOL    HW218780   4.916   0.931   6.156
 5961SOL     OW18781   2.785   2.335   3.623
 5961SOL    HW118782   2.792   2.250   3.570
 5961SOL    HW218783   2.825   2.322   3.713
 5962SOL     OW18784   4.657   4.921   0.616
 5962SOL    HW118785   4.692   4.946   0.706
 5962SOL    HW218786   4.733   4.917   0.551
 5963SOL     OW18787   1.997   3.753   0.870
 5963SOL    HW118788   1.957   3.751   0.779
 5963SOL    HW218789   2.033   3.662   0.892
 5964SOL     OW18790   1.958   0.003   3.378
 5964SOL    HW118791   1.965   0.006   3.279
 5964SOL    HW218792   2.028   0.063   3.418
 5965SOL     OW18793   2.380   0.235   0.957
 5965SOL    HW118794   2.343   0.216   1.048
 5965SOL    HW218795   2.402   0.148   0.912
 5966SOL     OW18796   2.979   1.888   5.205
 5966SOL    HW118797   2.968   1.984   5.182
 5966SOL    HW218798   2.939   1.869   5.295
 5967SOL     OW18799   4.805   2.355   5.408
 5967SOL    HW118800   4.771   2.303   5.329
 5967SOL    HW218801   4.887   2.311   5.444
 5968SOL     OW18802   6.033   2.188   2.459
 5968SOL    HW118803   6.023   2.240   2.544
 5968SOL    HW218804   6.128   2.189   2.430
 5969SOL     OW18805   4.548   0.209   0.830
 5969SOL    HW118806   4.460   0.174   0.796
 5969SOL    HW218807   4.608   0.227   0.753
 5970SOL     OW18808   6.599   2.890   0.775
 5970SOL    HW118809   6.578   2.794   0.794
 5970SOL    HW218810   6.588   2.944   0.858
 5971SOL     OW18811   0.073   5.420   3.659
 5971SOL    HW118812   0.105   5.397   3.567
 5971SOL    HW218813   7.003   5.456   3.654
 5972SOL     OW18814   5.988   5.213   0.528
 5972SOL    HW118815   6.062   5.249   0.472
 5972SOL    HW218816   5.949   5.287   0.583
 5973SOL     OW18817   2.837   1.224   2.443
 5973SOL    HW118818   2.777   1.161   2.395
 5973SOL    HW218819   2.835   1.313   2.397
 5974SOL     OW18820   5.872   1.760   4.507
 5974SOL    HW118821   5.783   1.798   4.482
 5974SOL    HW218822   5.943   1.798   4.448
 5975SOL     OW18823   4.152   5.428   1.624
 5975SOL    HW118824   4.225   5.413   1.691
 5975SOL    HW218825   4.182   5.495   1.556
 5976SOL     OW18826   1.712   4.154   5.717
 5976SOL    HW118827   1.768   4.154   5.800
 5976SOL    HW218828   1.656   4.236   5.715
 5977SOL     OW18829   6.877   5.408   0.991
 5977SOL    HW118830   6.892   5.336   0.923
 5977SOL    HW218831   6.833   5.486   0.947
 5978SOL     OW18832   2.772   3.698   6.890
 5978SOL    HW118833   2.795   3.601   6.900
 5978SOL    HW218834   2.698   3.708   6.823
 5979SOL     OW18835   6.304   0.180   1.228
 5979SOL    HW118836   6.227   0.141   1.177
 5979SOL    HW218837   6.270   0.225   1.310
 5980SOL     OW18838   2.985   2.309   1.003
 5980SOL    HW118839   3.009   2.371   0.929
 5980SOL    HW218840   2.890   2.278   0.991
 5981SOL     OW18841   2.946   1.987   1.114
 5981SOL    HW118842   3.043   2.013   1.117
 5981SOL    HW218843   2.894   2.058   1.067
 5982SOL     OW18844   5.412   2.845   1.879
 5982SOL    HW118845   5.339   2.906   1.849
 5982SOL    HW218846   5.468   2.819   1.800
 5983SOL     OW18847   0.003   0.957   3.719
 5983SOL    HW118848   0.012   0.873   3.665
 5983SOL    HW218849   0.031   0.940   3.813
 5984SOL     OW18850   6.079   5.972   3.395
 5984SOL    HW118851   6.054   6.069   3.396
 5984SOL    HW218852   6.071   5.936   3.302
 5985SOL     OW18853   6.530   3.642   2.460
 5985SOL    HW118854   6.553   3.711   2.529
 5985SOL    HW218855   6.458   3.678   2.400
 5986SOL     OW18856   3.899   3.972   3.584
 5986SOL    HW118857   3.875   4.003   3.676
 5986SOL    HW218858   3.863   4.037   3.517
 5987SOL     OW18859   0.049   5.990   5.192
 5987SOL    HW118860   0.057   5.934   5.109
 5987SOL    HW218861   0.134   6.041   5.206
 5988SOL     OW18862   1.096   2.905   6.879
 5988SOL    HW118863   1.090   3.004   6.872
 5988SOL    HW218864   1.152   2.869   6.804
 5989SOL     OW18865   1.214   6.560   5.358
 5989SOL    HW118866   1.157   6.479   5.342
 5989SOL    HW218867   1.157   6.636   5.388
 5990SOL     OW18868   2.715   4.534   1.637
 5990SOL    HW118869   2.746   4.593   1.563
 5990SOL    HW218870   2.764   4.558   1.721
 5991SOL     OW18871   5.322   0.924   1.097
 5991SOL    HW118872   5.289   1.011   1.058
 5991SOL    HW218873   5.311   0.851   1.029
 5992SOL     OW18874   3.536   5.360   2.996
 5992SOL    HW118875   3.440   5.341   3.017
 5992SOL    HW218876   3.556   5.329   2.903
 5993SOL     OW18877   5.839   2.271   0.424
 5993SOL    HW118878   5.914   2.204   0.418
 5993SOL    HW218879   5.769   2.237   0.486
 5994SOL     OW18880   6.792   3.709   0.142
 5994SOL    HW118881   6.858   3.691   0.069
 5994SOL    HW218882   6.793   3.633   0.207
 5995SOL     OW18883   5.013   3.461   1.045
 5995SOL    HW118884   5.032   3.558   1.029
 5995SOL    HW218885   5.044   3.435   1.136
 5996SOL     OW18886   2.537   6.835   1.281
 5996SOL    HW118887   2.621   6.785   1.299
 5996SOL    HW218888   2.544   6.883   1.194
 5997SOL     OW18889   6.123   0.688   4.185
 5997SOL    HW118890   6.093   0.762   4.125
 5997SOL    HW218891   6.218   0.703   4.212
 5998SOL     OW18892   7.010   6.019   6.847
 5998SOL    HW118893   0.039   6.084   6.792
 5998SOL    HW218894   0.002   6.038   6.944
 5999SOL     OW18895   4.706   3.373   1.461
 5999SOL    HW118896   4.656   3.410   1.539
 5999SOL    HW218897   4.693   3.433   1.382
 6000SOL     OW18898   0.807   4.404   0.796
 6000SOL    HW118899   0.885   4.464   0.818
 6000SOL    HW218900   0.763   4.436   0.713
 6001SOL     OW18901   5.782   5.309   5.936
 6001SOL    HW118902   5.725   5.330   6.016
 6001SOL    HW218903   5.873   5.281   5.966
 6002SOL     OW18904   5.329   5.167   5.431
 6002SOL    HW118905   5.244   5.170   5.483
 6002SOL    HW218906   5.344   5.073   5.398
 6003SOL     OW18907   2.428   2.147   5.110
 6003SOL    HW118908   2.444   2.158   5.012
 6003SOL    HW218909   2.447   2.052   5.136
 6004SOL     OW18910   5.326   3.307   5.301
 6004SOL    HW118911   5.331   3.215   5.262
 6004SOL    HW218912   5.308   3.301   5.399
 6005SOL     OW18913   3.978   4.314   0.051
 6005SOL    HW118914   3.995   4.413   0.049
 6005SOL    HW218915   4.065   4.266   0.059
 6006SOL     OW18916   3.242   5.903   6.571
 6006SOL    HW118917   3.307   5.899   6.496
 6006SOL    HW218918   3.282   5.954   6.647
 6007SOL     OW18919   2.412   6.396   4.937
 6007SOL    HW118920   2.509   6.392   4.963
 6007SOL    HW218921   2.366   6.312   4.965
 6008SOL     OW18922   2.409   4.243   6.339
 6008SOL    HW118923   2.399   4.143   6.339
 6008SOL    HW218924   2.319   4.285   6.327
 6009SOL     OW18925   4.186   5.211   2.747
 6009SOL    HW118926   4.235   5.288   2.705
 6009SOL    HW218927   4.236   5.126   2.727
 6010SOL     OW18928   0.441   5.029   4.803
 6010SOL    HW118929   0.460   5.046   4.899
 6010SOL    HW218930   0.512   5.071   4.746
 6011SOL     OW18931   5.627   1.542   3.277
 6011SOL    HW118932   5.569   1.483   3.222
 6011SOL    HW218933   5.575   1.621   3.310
 6012SOL     OW18934   6.574   0.416   5.843
 6012SOL    HW118935   6.552   0.505   5.883
 6012SOL    HW218936   6.651   0.425   5.780
 6013SOL     OW18937   5.819   1.816   2.084
 6013SOL    HW118938   5.900   1.789   2.033
 6013SOL    HW218939   5.772   1.890   2.036
 6014SOL     OW18940   3.120   3.023   4.113
 6014SOL    HW118941   3.112   2.943   4.172
 6014SOL    HW218942   3.049   3.089   4.137
 6015SOL     OW18943   5.902   0.019   4.095
 6015SOL    HW118944   5.975   6.974   4.107
 6015SOL    HW218945   5.873   0.054   4.184
 6016SOL     OW18946   4.023   2.191   4.240
 6016SOL    HW118947   3.933   2.162   4.273
 6016SOL    HW218948   4.015   2.224   4.146
 6017SOL     OW18949   1.482   1.721   5.649
 6017SOL    HW118950   1.546   1.654   5.611
 6017SOL    HW218951   1.533   1.793   5.695
 6018SOL     OW18952   2.628   1.176   3.809
 6018SOL    HW118953   2.657   1.171   3.904
 6018SOL    HW218954   2.622   1.084   3.771
 6019SOL     OW18955   6.475   4.747   6.644
 6019SOL    HW118956   6.476   4.843   6.669
 6019SOL    HW218957   6.559   4.703   6.676
 6020SOL     OW18958   0.668   5.354   6.065
 6020SOL    HW118959   0.753   5.319   6.027
 6020SOL    HW218960   0.646   5.306   6.150
 6021SOL     OW18961   5.622   6.772   3.378
 6021SOL    HW118962   5.686   6.708   3.423
 6021SOL    HW218963   5.538   6.724   3.355
 6022SOL     OW18964   6.337   2.986   1.797
 6022SOL    HW118965   6.274   2.940   1.860
 6022SOL    HW218966   6.383   3.060   1.845
 6023SOL     OW18967   4.639   6.759   2.430
 6023SOL    HW118968   4.640   6.745   2.331
 6023SOL    HW218969   4.601   6.849   2.450
 6024SOL     OW18970   0.749   6.260   6.413
 6024SOL    HW118971   0.784   6.238   6.504
 6024SOL    HW218972   0.762   6.357   6.396
 6025SOL     OW18973   2.605   0.455   5.306
 6025SOL    HW118974   2.552   0.506   5.374
 6025SOL    HW218975   2.677   0.402   5.352
 6026SOL     OW18976   6.137   6.170   3.887
 6026SOL    HW118977   6.121   6.076   3.858
 6026SOL    HW218978   6.073   6.193   3.960
 6027SOL     OW18979   5.612   5.333   6.168
 6027SOL    HW118980   5.650   5.251   6.210
 6027SOL    HW218981   5.513   5.322   6.155
 6028SOL     OW18982   5.709   5.916   6.199
 6028SOL    HW118983   5.665   5.833   6.234
 6028SOL    HW218984   5.669   5.996   6.244
 6029SOL     OW18985   3.222   1.429   2.795
 6029SOL    HW118986   3.313   1.452   2.829
 6029SOL    HW218987   3.192   1.498   2.729
 6030SOL     OW18988   5.980   3.324   4.369
 6030SOL    HW118989   6.022   3.389   4.305
 6030SOL    HW218990   6.048   3.294   4.436
 6031SOL     OW18991   0.035   6.244   5.039
 6031SOL    HW118992   7.006   6.163   5.012
 6031SOL    HW218993   7.000   6.325   5.030
 6032SOL     OW18994   3.243   6.509   3.273
 6032SOL    HW118995   3.209   6.559   3.193
 6032SOL    HW218996   3.194   6.422   3.281
 6033SOL     OW18997   0.555   1.551   2.648
 6033SOL    HW118998   0.627   1.511   2.591
 6033SOL    HW218999   0.595   1.619   2.709
 6034SOL     OW19000   0.234   6.889   0.577
 6034SOL    HW119001   0.154   6.921   0.628
 6034SOL    HW219002   0.229   6.790   0.568
 6035SOL     OW19003   2.792   0.372   2.506
 6035SOL    HW119004   2.818   0.422   2.424
 6035SOL    HW219005   2.744   0.288   2.480
 6036SOL     OW19006   6.217   3.294   0.478
 6036SOL    HW119007   6.178   3.221   0.534
 6036SOL    HW219008   6.303   3.262   0.438
 6037SOL     OW19009   4.518   1.379   6.189
 6037SOL    HW119010   4.583   1.454   6.180
 6037SOL    HW219011   4.558   1.296   6.152
 6038SOL     OW19012   1.287   1.398   6.000
 6038SOL    HW119013   1.221   1.470   6.022
 6038SOL    HW219014   1.249   1.338   5.929
 6039SOL     OW19015   3.966   3.500   3.804
 6039SOL    HW119016   3.946   3.479   3.708
 6039SOL    HW219017   3.988   3.597   3.812
 6040SOL     OW19018   0.667   2.110   0.317
 6040SOL    HW119019   0.594   2.041   0.314
 6040SOL    HW219020   0.753   2.066   0.342
 6041SOL     OW19021   0.987   3.315   5.392
 6041SOL    HW119022   1.074   3.268   5.374
 6041SOL    HW219023   0.958   3.364   5.310
 6042SOL     OW19024   3.195   5.876   3.734
 6042SOL    HW119025   3.225   5.835   3.820
 6042SOL    HW219026   3.275   5.904   3.681
 6043SOL     OW19027   2.326   0.285   2.801
 6043SOL    HW119028   2.403   0.269   2.740
 6043SOL    HW219029   2.266   0.355   2.762
 6044SOL     OW19030   0.720   3.207   0.807
 6044SOL    HW119031   0.735   3.223   0.905
 6044SOL    HW219032   0.690   3.113   0.794
 6045SOL     OW19033   5.801   1.274   3.570
 6045SOL    HW119034   5.848   1.222   3.499
 6045SOL    HW219035   5.868   1.322   3.626
 6046SOL     OW19036   3.270   3.234   2.851
 6046SOL    HW119037   3.304   3.242   2.758
 6046SOL    HW219038   3.170   3.232   2.850
 6047SOL     OW19039   6.911   1.452   0.142
 6047SOL    HW119040   7.000   1.407   0.136
 6047SOL    HW219041   6.903   1.498   0.231
 6048SOL     OW19042   5.744   5.959   3.134
 6048SOL    HW119043   5.685   5.904   3.194
 6048SOL    HW219044   5.797   5.898   3.076
 6049SOL     OW19045   4.524   5.338   6.957
 6049SOL    HW119046   4.614   5.376   6.981
 6049SOL    HW219047   4.484   5.391   6.883
 6050SOL     OW19048   2.739   5.201   2.370
 6050SOL    HW119049   2.756   5.206   2.469
 6050SOL    HW219050   2.823   5.174   2.324
 6051SOL     OW19051   0.704   1.353   3.195
 6051SOL    HW119052   0.607   1.354   3.219
 6051SOL    HW219053   0.722   1.279   3.130
 6052SOL     OW19054   5.325   5.351   0.451
 6052SOL    HW119055   5.306   5.415   0.525
 6052SOL    HW219056   5.258   5.277   0.452
 6053SOL     OW19057   4.506   2.463   6.477
 6053SOL    HW119058   4.497   2.556   6.514
 6053SOL    HW219059   4.574   2.462   6.404
 6054SOL     OW19060   4.089   3.606   1.064
 6054SOL    HW119061   4.181   3.567   1.060
 6054SOL    HW219062   4.075   3.652   1.152
 6055SOL     OW19063   2.812   3.477   1.352
 6055SOL    HW119064   2.741   3.418   1.391
 6055SOL    HW219065   2.770   3.560   1.315
 6056SOL     OW19066   5.278   6.064   3.399
 6056SOL    HW119067   5.300   6.090   3.305
 6056SOL    HW219068   5.349   6.100   3.460
 6057SOL     OW19069   5.523   0.594   3.998
 6057SOL    HW119070   5.567   0.595   3.908
 6057SOL    HW219071   5.592   0.577   4.068
 6058SOL     OW19072   6.945   2.549   6.032
 6058SOL    HW119073   6.931   2.534   5.934
 6058SOL    HW219074   7.014   2.486   6.066
 6059SOL     OW19075   4.686   2.453   6.961
 6059SOL    HW119076   4.707   2.480   6.867
 6059SOL    HW219077   4.711   2.527   0.000
 6060SOL     OW19078   2.237   2.343   0.383
 6060SOL    HW119079   2.285   2.402   0.449
 6060SOL    HW219080   2.141   2.368   0.380
 6061SOL     OW19081   3.617   3.988   6.927
 6061SOL    HW119082   3.553   4.025   6.994
 6061SOL    HW219083   3.670   3.914   6.970
 6062SOL     OW19084   2.026   2.086   6.203
 6062SOL    HW119085   2.037   2.173   6.250
 6062SOL    HW219086   2.115   2.042   6.192
 6063SOL     OW19087   4.681   4.140   0.146
 6063SOL    HW119088   4.752   4.079   0.111
 6063SOL    HW219089   4.724   4.221   0.187
 6064SOL     OW19090   6.206   6.059   0.880
 6064SOL    HW119091   6.231   6.106   0.795
 6064SOL    HW219092   6.115   6.090   0.909
 6065SOL     OW19093   2.231   6.211   1.531
 6065SOL    HW119094   2.301   6.250   1.592
 6065SOL    HW219095   2.178   6.285   1.490
 6066SOL     OW19096   5.290   5.650   2.814
 6066SOL    HW119097   5.234   5.635   2.896
 6066SOL    HW219098   5.274   5.743   2.781
 6067SOL     OW19099   0.155   6.241   5.969
 6067SOL    HW119100   0.211   6.323   5.959
 6067SOL    HW219101   0.093   6.253   6.047
 6068SOL     OW19102   5.013   2.194   4.230
 6068SOL    HW119103   5.107   2.219   4.253
 6068SOL    HW219104   5.006   2.175   4.132
 6069SOL     OW19105   6.925   4.696   5.991
 6069SOL    HW119106   6.840   4.665   6.035
 6069SOL    HW219107   6.902   4.753   5.912
 6070SOL     OW19108   2.500   1.398   0.800
 6070SOL    HW119109   2.569   1.470   0.800
 6070SOL    HW219110   2.427   1.421   0.864
 6071SOL     OW19111   5.480   1.103   5.794
 6071SOL    HW119112   5.458   1.199   5.781
 6071SOL    HW219113   5.399   1.048   5.776
 6072SOL     OW19114   6.609   3.551   6.688
 6072SOL    HW119115   6.565   3.593   6.609
 6072SOL    HW219116   6.654   3.466   6.660
 6073SOL     OW19117   5.051   3.610   0.072
 6073SOL    HW119118   5.060   3.586   6.999
 6073SOL    HW219119   5.019   3.705   0.080
 6074SOL     OW19120   1.135   6.800   1.930
 6074SOL    HW119121   1.154   6.898   1.934
 6074SOL    HW219122   1.193   6.752   1.996
 6075SOL     OW19123   5.776   0.607   6.974
 6075SOL    HW119124   5.686   0.634   6.939
 6075SOL    HW219125   5.780   0.508   6.985
 6076SOL     OW19126   0.630   5.975   2.837
 6076SOL    HW119127   0.713   5.927   2.809
 6076SOL    HW219128   0.654   6.057   2.889
 6077SOL     OW19129   5.234   5.909   2.723
 6077SOL    HW119130   5.142   5.948   2.718
 6077SOL    HW219131   5.293   5.953   2.655
 6078SOL     OW19132   5.011   4.009   0.345
 6078SOL    HW119133   5.022   4.100   0.304
 6078SOL    HW219134   5.087   3.951   0.315
 6079SOL     OW19135   3.142   1.914   6.888
 6079SOL    HW119136   3.062   1.928   6.829
 6079SOL    HW219137   3.122   1.945   6.980
 6080SOL     OW19138   6.467   3.672   5.919
 6080SOL    HW119139   6.402   3.703   5.851
 6080SOL    HW219140   6.419   3.644   6.002
 6081SOL     OW19141   1.474   3.019   3.611
 6081SOL    HW119142   1.523   3.000   3.696
 6081SOL    HW219143   1.473   3.117   3.594
 6082SOL     OW19144   5.107   1.120   1.769
 6082SOL    HW119145   5.168   1.062   1.822
 6082SOL    HW219146   5.140   1.214   1.770
 6083SOL     OW19147   4.809   0.227   6.527
 6083SOL    HW119148   4.834   0.304   6.585
 6083SOL    HW219149   4.838   0.245   6.433
 6084SOL     OW19150   6.360   5.492   2.816
 6084SOL    HW119151   6.359   5.452   2.908
 6084SOL    HW219152   6.266   5.507   2.786
 6085SOL     OW19153   0.770   6.345   0.420
 6085SOL    HW119154   0.771   6.248   0.395
 6085SOL    HW219155   0.855   6.388   0.390
 6086SOL     OW19156   3.403   3.971   0.060
 6086SOL    HW119157   3.313   4.014   0.067
 6086SOL    HW219158   3.420   3.916   0.142
 6087SOL     OW19159   4.390   0.253   0.545
 6087SOL    HW119160   4.299   0.291   0.525
 6087SOL    HW219161   4.460   0.318   0.517
 6088SOL     OW19162   4.604   5.287   2.976
 6088SOL    HW119163   4.642   5.377   2.953
 6088SOL    HW219164   4.628   5.265   3.071
 6089SOL     OW19165   6.221   3.684   3.405
 6089SOL    HW119166   6.135   3.705   3.358
 6089SOL    HW219167   6.277   3.625   3.347
 6090SOL     OW19168   3.715   5.297   4.071
 6090SOL    HW119169   3.806   5.256   4.068
 6090SOL    HW219170   3.717   5.388   4.029
 6091SOL     OW19171   0.662   1.507   1.119
 6091SOL    HW119172   0.710   1.449   1.184
 6091SOL    HW219173   0.619   1.451   1.048
 6092SOL     OW19174   2.603   0.031   1.459
 6092SOL    HW119175   2.519   7.020   1.502
 6092SOL    HW219176   2.645   6.980   1.406
 6093SOL     OW19177   2.536   2.563   2.235
 6093SOL    HW119178   2.556   2.657   2.261
 6093SOL    HW219179   2.474   2.563   2.156
 6094SOL     OW19180   0.809   6.170   5.534
 6094SOL    HW119181   0.836   6.139   5.443
 6094SOL    HW219182   0.731   6.116   5.566
 6095SOL     OW19183   4.939   4.786   1.577
 6095SOL    HW119184   4.914   4.690   1.568
 6095SOL    HW219185   5.003   4.811   1.504
 6096SOL     OW19186   5.097   5.790   3.331
 6096SOL    HW119187   5.141   5.878   3.351
 6096SOL    HW219188   5.042   5.762   3.410
 6097SOL     OW19189   2.416   5.238   2.008
 6097SOL    HW119190   2.331   5.200   1.971
 6097SOL    HW219191   2.493   5.183   1.976
 6098SOL     OW19192   6.565   0.373   5.213
 6098SOL    HW119193   6.646   0.318   5.192
 6098SOL    HW219194   6.569   0.459   5.163
 6099SOL     OW19195   3.791   0.068   5.617
 6099SOL    HW119196   3.768   0.106   5.707
 6099SOL    HW219197   3.883   0.099   5.592
 6100SOL     OW19198   0.926   5.602   5.104
 6100SOL    HW119199   0.842   5.605   5.050
 6100SOL    HW219200   0.946   5.507   5.129
 6101SOL     OW19201   0.207   3.302   1.773
 6101SOL    HW119202   0.221   3.353   1.688
 6101SOL    HW219203   0.212   3.204   1.755
 6102SOL     OW19204   3.684   0.117   2.651
 6102SOL    HW119205   3.617   0.178   2.694
 6102SOL    HW219206   3.741   0.074   2.721
 6103SOL     OW19207   6.067   1.782   2.320
 6103SOL    HW119208   6.122   1.822   2.247
 6103SOL    HW219209   5.983   1.835   2.332
 6104SOL     OW19210   6.847   0.764   4.942
 6104SOL    HW119211   6.862   0.856   4.905
 6104SOL    HW219212   6.785   0.714   4.881
 6105SOL     OW19213   3.618   4.536   6.357
 6105SOL    HW119214   3.582   4.619   6.316
 6105SOL    HW219215   3.566   4.513   6.439
 6106SOL     OW19216   6.096   5.115   5.335
 6106SOL    HW119217   6.050   5.086   5.419
 6106SOL    HW219218   6.169   5.050   5.313
 6107SOL     OW19219   5.765   5.243   5.354
 6107SOL    HW119220   5.802   5.151   5.363
 6107SOL    HW219221   5.686   5.253   5.414
 6108SOL     OW19222   2.074   1.223   6.751
 6108SOL    HW119223   2.136   1.221   6.673
 6108SOL    HW219224   2.115   1.174   6.828
 6109SOL     OW19225   0.038   6.813   4.017
 6109SOL    HW119226   0.009   6.876   3.945
 6109SOL    HW219227   6.983   6.791   4.076
 6110SOL     OW19228   1.812   1.497   4.498
 6110SOL    HW119229   1.801   1.483   4.597
 6110SOL    HW219230   1.735   1.457   4.450
 6111SOL     OW19231   2.120   3.490   0.924
 6111SOL    HW119232   2.120   3.411   0.863
 6111SOL    HW219233   2.214   3.511   0.951
 6112SOL     OW19234   4.924   6.646   3.640
 6112SOL    HW119235   5.023   6.643   3.656
 6112SOL    HW219236   4.882   6.710   3.704
 6113SOL     OW19237   2.101   5.401   1.024
 6113SOL    HW119238   2.100   5.304   1.000
 6113SOL    HW219239   2.068   5.454   0.947
 6114SOL     OW19240   5.033   2.426   1.242
 6114SOL    HW119241   5.113   2.376   1.210
 6114SOL    HW219242   5.020   2.408   1.340
 6115SOL     OW19243   1.089   0.968   5.927
 6115SOL    HW119244   1.003   0.943   5.972
 6115SOL    HW219245   1.083   1.061   5.892
 6116SOL     OW19246   5.672   3.599   6.812
 6116SOL    HW119247   5.627   3.638   6.731
 6116SOL    HW219248   5.631   3.638   6.894
 6117SOL     OW19249   1.655   2.111   1.630
 6117SOL    HW119250   1.585   2.081   1.694
 6117SOL    HW219251   1.671   2.209   1.641
 6118SOL     OW19252   5.737   1.599   2.254
 6118SOL    HW119253   5.745   1.669   2.182
 6118SOL    HW219254   5.711   1.512   2.212
 6119SOL     OW19255   6.384   1.282   7.021
 6119SOL    HW119256   6.456   1.349   7.003
 6119SOL    HW219257   6.298   1.329   0.016
 6120SOL     OW19258   3.113   0.614   4.164
 6120SOL    HW119259   3.128   0.682   4.236
 6120SOL    HW219260   3.109   0.660   4.075
 6121SOL     OW19261   2.007   1.929   5.056
 6121SOL    HW119262   2.081   1.887   5.109
 6121SOL    HW219263   2.047   1.991   4.988
 6122SOL     OW19264   5.294   4.933   5.306
 6122SOL    HW119265   5.352   4.858   5.338
 6122SOL    HW219266   5.328   4.966   5.218
 6123SOL     OW19267   5.871   1.646   5.330
 6123SOL    HW119268   5.937   1.573   5.309
 6123SOL    HW219269   5.790   1.635   5.273
 6124SOL     OW19270   2.492   5.854   4.066
 6124SOL    HW119271   2.568   5.919   4.055
 6124SOL    HW219272   2.491   5.820   4.160
 6125SOL     OW19273   2.806   1.671   6.319
 6125SOL    HW119274   2.873   1.710   6.383
 6125SOL    HW219275   2.832   1.578   6.295
 6126SOL     OW19276   5.903   2.979   6.151
 6126SOL    HW119277   5.875   2.967   6.056
 6126SOL    HW219278   5.901   3.076   6.174
 6127SOL     OW19279   4.994   2.249   2.911
 6127SOL    HW119280   5.057   2.210   2.843
 6127SOL    HW219281   4.958   2.335   2.877
 6128SOL     OW19282   5.841   5.625   6.701
 6128SOL    HW119283   5.876   5.562   6.769
 6128SOL    HW219284   5.884   5.715   6.713
 6129SOL     OW19285   2.507   5.609   2.270
 6129SOL    HW119286   2.597   5.575   2.244
 6129SOL    HW219287   2.511   5.645   2.363
 6130SOL     OW19288   5.819   3.045   0.265
 6130SOL    HW119289   5.747   2.976   0.256
 6130SOL    HW219290   5.822   3.078   0.359
 6131SOL     OW19291   6.467   2.403   2.916
 6131SOL    HW119292   6.396   2.467   2.947
 6131SOL    HW219293   6.424   2.317   2.887
 6132SOL     OW19294   4.219   0.437   6.176
 6132SOL    HW119295   4.255   0.526   6.205
 6132SOL    HW219296   4.192   0.384   6.256
 6133SOL     OW19297   0.233   2.107   3.120
 6133SOL    HW119298   0.159   2.119   3.054
 6133SOL    HW219299   0.221   2.021   3.169
 6134SOL     OW19300   0.460   6.490   5.299
 6134SOL    HW119301   0.512   6.405   5.298
 6134SOL    HW219302   0.491   6.548   5.374
 6135SOL     OW19303   6.929   6.538   0.514
 6135SOL    HW119304   7.009   6.588   0.546
 6135SOL    HW219305   6.871   6.599   0.459
 6136SOL     OW19306   1.077   2.487   3.211
 6136SOL    HW119307   1.154   2.449   3.159
 6136SOL    HW219308   1.112   2.535   3.291
 6137SOL     OW19309   0.160   4.237   1.314
 6137SOL    HW119310   0.109   4.271   1.393
 6137SOL    HW219311   0.167   4.138   1.318
 6138SOL     OW19312   4.580   0.510   2.290
 6138SOL    HW119313   4.663   0.471   2.329
 6138SOL    HW219314   4.548   0.584   2.350
 6139SOL     OW19315   1.450   0.717   5.193
 6139SOL    HW119316   1.405   0.639   5.237
 6139SOL    HW219317   1.383   0.767   5.139
 6140SOL     OW19318   1.343   6.903   3.042
 6140SOL    HW119319   1.431   6.916   2.995
 6140SOL    HW219320   1.302   6.992   3.061
 6141SOL     OW19321   0.902   0.845   6.093
 6141SOL    HW119322   0.926   0.757   6.133
 6141SOL    HW219323   0.843   0.830   6.013
 6142SOL     OW19324   6.549   0.767   1.580
 6142SOL    HW119325   6.589   0.747   1.670
 6142SOL    HW219326   6.615   0.815   1.524
 6143SOL     OW19327   0.046   3.319   5.242
 6143SOL    HW119328   0.017   3.234   5.199
 6143SOL    HW219329   0.054   3.305   5.341
 6144SOL     OW19330   4.051   5.165   2.984
 6144SOL    HW119331   3.961   5.205   2.970
 6144SOL    HW219332   4.113   5.195   2.911
 6145SOL     OW19333   4.977   3.675   3.876
 6145SOL    HW119334   4.939   3.634   3.794
 6145SOL    HW219335   4.950   3.771   3.881
 6146SOL     OW19336   5.721   0.177   5.071
 6146SOL    HW119337   5.728   0.100   5.134
 6146SOL    HW219338   5.738   0.262   5.120
 6147SOL     OW19339   1.217   2.818   5.115
 6147SOL    HW119340   1.197   2.908   5.076
 6147SOL    HW219341   1.175   2.747   5.058
 6148SOL     OW19342   3.658   5.152   6.935
 6148SOL    HW119343   3.672   5.054   6.923
 6148SOL    HW219344   3.591   5.185   6.870
 6149SOL     OW19345   3.640   0.939   1.414
 6149SOL    HW119346   3.569   0.960   1.482
 6149SOL    HW219347   3.605   0.871   1.350
 6150SOL     OW19348   1.039   4.163   5.060
 6150SOL    HW119349   1.073   4.146   5.153
 6150SOL    HW219350   1.115   4.187   5.001
 6151SOL     OW19351   4.390   5.045   3.230
 6151SOL    HW119352   4.361   5.102   3.306
 6151SOL    HW219353   4.481   5.074   3.198
 6152SOL     OW19354   2.000   4.396   3.955
 6152SOL    HW119355   1.984   4.300   3.978
 6152SOL    HW219356   2.038   4.403   3.863
 6153SOL     OW19357   5.135   5.692   1.066
 6153SOL    HW119358   5.210   5.626   1.069
 6153SOL    HW219359   5.085   5.689   1.153
 6154SOL     OW19360   4.989   3.737   2.401
 6154SOL    HW119361   5.061   3.681   2.360
 6154SOL    HW219362   5.001   3.832   2.371
 6155SOL     OW19363   1.844   1.725   3.329
 6155SOL    HW119364   1.909   1.747   3.402
 6155SOL    HW219365   1.880   1.757   3.241
 6156SOL     OW19366   5.458   4.547   1.261
 6156SOL    HW119367   5.412   4.593   1.337
 6156SOL    HW219368   5.548   4.515   1.292
 6157SOL     OW19369   0.486   2.753   1.782
 6157SOL    HW119370   0.520   2.671   1.829
 6157SOL    HW219371   0.492   2.831   1.843
 6158SOL     OW19372   3.046   2.202   4.726
 6158SOL    HW119373   2.968   2.239   4.675
 6158SOL    HW219374   3.077   2.269   4.793
 6159SOL     OW19375   6.249   2.473   0.239
 6159SOL    HW119376   6.162   2.500   0.279
 6159SOL    HW219377   6.265   2.375   0.256
 6160SOL     OW19378   1.019   0.324   1.384
 6160SOL    HW119379   1.112   0.336   1.419
 6160SOL    HW219380   1.022   0.305   1.286
 6161SOL     OW19381   4.372   3.555   6.705
 6161SOL    HW119382   4.365   3.533   6.608
 6161SOL    HW219383   4.348   3.651   6.719
 6162SOL     OW19384   6.024   5.489   1.910
 6162SOL    HW119385   6.110   5.539   1.897
 6162SOL    HW219386   5.996   5.447   1.824
 6163SOL     OW19387   6.181   6.220   2.674
 6163SOL    HW119388   6.158   6.309   2.633
 6163SOL    HW219389   6.253   6.233   2.742
 6164SOL     OW19390   3.051   3.824   4.415
 6164SOL    HW119391   3.044   3.912   4.463
 6164SOL    HW219392   3.137   3.820   4.365
 6165SOL     OW19393   3.431   1.585   0.474
 6165SOL    HW119394   3.420   1.556   0.569
 6165SOL    HW219395   3.527   1.603   0.456
 6166SOL     OW19396   2.390   2.448   6.631
 6166SOL    HW119397   2.392   2.366   6.573
 6166SOL    HW219398   2.342   2.428   6.716
 6167SOL     OW19399   1.693   3.523   2.561
 6167SOL    HW119400   1.737   3.610   2.584
 6167SOL    HW219401   1.732   3.450   2.617
 6168SOL     OW19402   0.218   3.894   3.552
 6168SOL    HW119403   0.142   3.958   3.553
 6168SOL    HW219404   0.197   3.817   3.492
 6169SOL     OW19405   2.127   0.488   6.640
 6169SOL    HW119406   2.220   0.475   6.606
 6169SOL    HW219407   2.126   0.563   6.707
 6170SOL     OW19408   2.727   3.703   1.130
 6170SOL    HW119409   2.734   3.794   1.090
 6170SOL    HW219410   2.715   3.635   1.056
 6171SOL     OW19411   2.011   3.924   2.142
 6171SOL    HW119412   2.029   3.837   2.096
 6171SOL    HW219413   1.987   3.907   2.237
 6172SOL     OW19414   2.768   5.468   2.283
 6172SOL    HW119415   2.779   5.446   2.186
 6172SOL    HW219416   2.770   5.383   2.336
 6173SOL     OW19417   1.400   5.846   2.016
 6173SOL    HW119418   1.447   5.804   2.093
 6173SOL    HW219419   1.467   5.880   1.951
 6174SOL     OW19420   5.818   4.855   2.092
 6174SOL    HW119421   5.851   4.767   2.128
 6174SOL    HW219422   5.719   4.860   2.104
 6175SOL     OW19423   5.037   0.097   3.371
 6175SOL    HW119424   5.067   0.131   3.460
 6175SOL    HW219425   4.974   0.162   3.330
 6176SOL     OW19426   5.856   3.331   6.447
 6176SOL    HW119427   5.868   3.242   6.491
 6176SOL    HW219428   5.933   3.348   6.385
 6177SOL     OW19429   6.941   2.736   1.140
 6177SOL    HW119430   6.925   2.701   1.232
 6177SOL    HW219431   6.868   2.801   1.116
 6178SOL     OW19432   6.117   3.582   1.682
 6178SOL    HW119433   6.039   3.542   1.730
 6178SOL    HW219434   6.113   3.681   1.688
 6179SOL     OW19435   0.712   2.111   5.666
 6179SOL    HW119436   0.749   2.203   5.657
 6179SOL    HW219437   0.787   2.046   5.675
 6180SOL     OW19438   3.321   6.857   6.528
 6180SOL    HW119439   3.377   6.783   6.492
 6180SOL    HW219440   3.263   6.894   6.455
 6181SOL     OW19441   5.075   5.784   0.232
 6181SOL    HW119442   5.145   5.730   0.186
 6181SOL    HW219443   4.993   5.728   0.245
 6182SOL     OW19444   4.703   6.658   6.575
 6182SOL    HW119445   4.788   6.667   6.522
 6182SOL    HW219446   4.704   6.723   6.650
 6183SOL     OW19447   3.133   0.898   3.094
 6183SOL    HW119448   3.050   0.952   3.080
 6183SOL    HW219449   3.203   0.928   3.029
 6184SOL     OW19450   6.185   0.440   6.482
 6184SOL    HW119451   6.203   0.415   6.387
 6184SOL    HW219452   6.129   0.523   6.485
 6185SOL     OW19453   0.804   3.758   6.054
 6185SOL    HW119454   0.762   3.776   5.965
 6185SOL    HW219455   0.900   3.783   6.052
 6186SOL     OW19456   5.676   0.057   4.583
 6186SOL    HW119457   5.677   6.980   4.574
 6186SOL    HW219458   5.699   0.098   4.495
 6187SOL     OW19459   3.282   5.399   4.361
 6187SOL    HW119460   3.332   5.331   4.307
 6187SOL    HW219461   3.348   5.456   4.411
 6188SOL     OW19462   2.453   0.167   1.772
 6188SOL    HW119463   2.470   0.069   1.785
 6188SOL    HW219464   2.540   0.214   1.756
 6189SOL     OW19465   5.760   5.174   3.610
 6189SOL    HW119466   5.845   5.153   3.561
 6189SOL    HW219467   5.705   5.091   3.619
 6190SOL     OW19468   5.097   2.809   6.372
 6190SOL    HW119469   5.132   2.815   6.278
 6190SOL    HW219470   5.122   2.892   6.422
 6191SOL     OW19471   6.660   2.096   6.848
 6191SOL    HW119472   6.700   2.016   6.804
 6191SOL    HW219473   6.728   2.169   6.853
 6192SOL     OW19474   3.144   2.493   0.348
 6192SOL    HW119475   3.159   2.455   0.257
 6192SOL    HW219476   3.232   2.507   0.394
 6193SOL     OW19477   5.759   0.420   0.999
 6193SOL    HW119478   5.771   0.500   0.940
 6193SOL    HW219479   5.848   0.393   1.036
 6194SOL     OW19480   2.215   0.561   0.673
 6194SOL    HW119481   2.287   0.519   0.728
 6194SOL    HW219482   2.170   0.632   0.726
 6195SOL     OW19483   2.787   6.781   6.115
 6195SOL    HW119484   2.728   6.701   6.114
 6195SOL    HW219485   2.827   6.795   6.024
 6196SOL     OW19486   0.343   0.910   6.496
 6196SOL    HW119487   0.377   0.988   6.550
 6196SOL    HW219488   0.418   0.846   6.479
 6197SOL     OW19489   2.235   2.747   0.400
 6197SOL    HW119490   2.151   2.760   0.453
 6197SOL    HW219491   2.215   2.758   0.302
 6198SOL     OW19492   4.068   4.809   2.281
 6198SOL    HW119493   3.989   4.781   2.336
 6198SOL    HW219494   4.041   4.811   2.185
 6199SOL     OW19495   1.316   0.586   6.298
 6199SOL    HW119496   1.408   0.592   6.260
 6199SOL    HW219497   1.304   0.497   6.342
 6200SOL     OW19498   3.392   0.207   5.979
 6200SOL    HW119499   3.328   0.284   5.970
 6200SOL    HW219500   3.484   0.238   5.956
 6201SOL     OW19501   2.342   4.268   4.019
 6201SOL    HW119502   2.299   4.341   3.966
 6201SOL    HW219503   2.322   4.180   3.976
 6202SOL     OW19504   3.253   2.434   1.370
 6202SOL    HW119505   3.203   2.399   1.449
 6202SOL    HW219506   3.306   2.515   1.396
 6203SOL     OW19507   4.710   1.832   5.249
 6203SOL    HW119508   4.634   1.768   5.234
 6203SOL    HW219509   4.738   1.871   5.161
 6204SOL     OW19510   1.594   6.511   5.735
 6204SOL    HW119511   1.494   6.517   5.740
 6204SOL    HW219512   1.620   6.425   5.690
 6205SOL     OW19513   5.430   5.751   0.161
 6205SOL    HW119514   5.505   5.739   0.096
 6205SOL    HW219515   5.387   5.663   0.178
 6206SOL     OW19516   5.028   6.884   3.248
 6206SOL    HW119517   5.124   6.857   3.251
 6206SOL    HW219518   5.017   6.973   3.293
 6207SOL     OW19519   1.746   3.847   4.530
 6207SOL    HW119520   1.797   3.884   4.607
 6207SOL    HW219521   1.786   3.760   4.502
 6208SOL     OW19522   5.259   6.292   6.297
 6208SOL    HW119523   5.247   6.361   6.225
 6208SOL    HW219524   5.177   6.289   6.354
 6209SOL     OW19525   3.260   5.411   0.537
 6209SOL    HW119526   3.315   5.328   0.543
 6209SOL    HW219527   3.227   5.436   0.628
 6210SOL     OW19528   6.033   4.560   3.357
 6210SOL    HW119529   6.119   4.537   3.402
 6210SOL    HW219530   6.030   4.519   3.266
 6211SOL     OW19531   2.266   0.740   4.942
 6211SOL    HW119532   2.214   0.809   4.892
 6211SOL    HW219533   2.304   0.780   5.025
 6212SOL     OW19534   6.657   6.438   3.710
 6212SOL    HW119535   6.699   6.397   3.791
 6212SOL    HW219536   6.728   6.475   3.650
 6213SOL     OW19537   0.134   6.432   6.224
 6213SOL    HW119538   0.130   6.514   6.166
 6213SOL    HW219539   0.224   6.390   6.215
 6214SOL     OW19540   6.367   5.116   2.548
 6214SOL    HW119541   6.288   5.059   2.526
 6214SOL    HW219542   6.338   5.211   2.561
 6215SOL     OW19543   2.763   4.528   1.264
 6215SOL    HW119544   2.856   4.508   1.294
 6215SOL    HW219545   2.750   4.496   1.171
 6216SOL     OW19546   6.359   2.168   2.859
 6216SOL    HW119547   6.421   2.122   2.795
 6216SOL    HW219548   6.266   2.132   2.848
 6217SOL     OW19549   5.414   3.016   2.126
 6217SOL    HW119550   5.477   2.979   2.194
 6217SOL    HW219551   5.441   2.984   2.035
 6218SOL     OW19552   3.561   4.956   4.418
 6218SOL    HW119553   3.600   5.033   4.368
 6218SOL    HW219554   3.612   4.873   4.398
 6219SOL     OW19555   0.951   1.680   4.412
 6219SOL    HW119556   0.910   1.733   4.337
 6219SOL    HW219557   0.897   1.694   4.495
 6220SOL     OW19558   1.419   4.147   5.448
 6220SOL    HW119559   1.497   4.192   5.490
 6220SOL    HW219560   1.435   4.135   5.350
 6221SOL     OW19561   4.350   4.857   4.756
 6221SOL    HW119562   4.441   4.883   4.725
 6221SOL    HW219563   4.292   4.840   4.676
 6222SOL     OW19564   0.097   1.609   1.007
 6222SOL    HW119565   0.136   1.536   1.064
 6222SOL    HW219566   0.106   1.584   0.911
 6223SOL     OW19567   5.317   4.124   4.938
 6223SOL    HW119568   5.380   4.062   4.893
 6223SOL    HW219569   5.233   4.076   4.960
 6224SOL     OW19570   2.663   0.774   5.039
 6224SOL    HW119571   2.714   0.780   5.125
 6224SOL    HW219572   2.567   0.798   5.055
 6225SOL     OW19573   4.654   2.098   6.926
 6225SOL    HW119574   4.716   2.030   6.965
 6225SOL    HW219575   4.708   2.176   6.893
 6226SOL     OW19576   6.370   6.842   4.477
 6226SOL    HW119577   6.372   6.913   4.407
 6226SOL    HW219578   6.461   6.831   4.516
 6227SOL     OW19579   2.858   4.318   6.437
 6227SOL    HW119580   2.933   4.283   6.492
 6227SOL    HW219581   2.855   4.271   6.349
 6228SOL     OW19582   0.133   0.632   2.851
 6228SOL    HW119583   0.044   0.598   2.821
 6228SOL    HW219584   0.122   0.682   2.937
 6229SOL     OW19585   1.784   2.726   1.941
 6229SOL    HW119586   1.746   2.818   1.944
 6229SOL    HW219587   1.873   2.726   1.986
 6230SOL     OW19588   2.255   2.228   3.472
 6230SOL    HW119589   2.185   2.214   3.541
 6230SOL    HW219590   2.262   2.147   3.414
 6231SOL     OW19591   6.968   5.441   1.597
 6231SOL    HW119592   6.910   5.518   1.570
 6231SOL    HW219593   7.014   5.464   1.683
 6232SOL     OW19594   1.261   1.660   6.520
 6232SOL    HW119595   1.218   1.715   6.592
 6232SOL    HW219596   1.212   1.574   6.510
 6233SOL     OW19597   4.636   1.910   0.260
 6233SOL    HW119598   4.567   1.851   0.217
 6233SOL    HW219599   4.595   2.000   0.278
 6234SOL     OW19600   2.259   2.515   3.308
 6234SOL    HW119601   2.289   2.430   3.352
 6234SOL    HW219602   2.309   2.527   3.223
 6235SOL     OW19603   2.460   6.154   3.473
 6235SOL    HW119604   2.371   6.182   3.509
 6235SOL    HW219605   2.505   6.094   3.539
 6236SOL     OW19606   0.056   3.890   0.221
 6236SOL    HW119607   0.131   3.956   0.216
 6236SOL    HW219608   0.041   3.850   0.130
 6237SOL     OW19609   4.225   6.843   0.319
 6237SOL    HW119610   4.288   6.902   0.370
 6237SOL    HW219611   4.195   6.768   0.378
 6238SOL     OW19612   4.820   4.189   1.221
 6238SOL    HW119613   4.853   4.098   1.195
 6238SOL    HW219614   4.722   4.196   1.199
 6239SOL     OW19615   2.403   1.121   3.405
 6239SOL    HW119616   2.305   1.107   3.392
 6239SOL    HW219617   2.450   1.033   3.402
 6240SOL     OW19618   2.365   3.454   0.531
 6240SOL    HW119619   2.269   3.446   0.505
 6240SOL    HW219620   2.395   3.370   0.577
 6241SOL     OW19621   4.456   6.955   1.992
 6241SOL    HW119622   4.450   0.032   1.990
 6241SOL    HW219623   4.469   6.921   1.899
 6242SOL     OW19624   3.628   2.102   3.799
 6242SOL    HW119625   3.531   2.104   3.821
 6242SOL    HW219626   3.682   2.104   3.883
 6243SOL     OW19627   5.596   5.243   3.316
 6243SOL    HW119628   5.614   5.220   3.412
 6243SOL    HW219629   5.597   5.159   3.261
 6244SOL     OW19630   1.895   2.292   1.927
 6244SOL    HW119631   1.796   2.287   1.916
 6244SOL    HW219632   1.917   2.326   2.019
 6245SOL     OW19633   1.915   3.766   0.591
 6245SOL    HW119634   1.988   3.740   0.528
 6245SOL    HW219635   1.870   3.849   0.559
 6246SOL     OW19636   3.495   1.158   6.545
 6246SOL    HW119637   3.423   1.099   6.508
 6246SOL    HW219638   3.505   1.139   6.643
 6247SOL     OW19639   6.556   6.108   2.956
 6247SOL    HW119640   6.624   6.153   3.013
 6247SOL    HW219641   6.503   6.177   2.906
 6248SOL     OW19642   1.005   4.731   1.037
 6248SOL    HW119643   0.912   4.723   1.075
 6248SOL    HW219644   1.037   4.826   1.047
 6249SOL     OW19645   5.316   4.068   6.019
 6249SOL    HW119646   5.325   3.974   6.054
 6249SOL    HW219647   5.233   4.109   6.057
 6250SOL     OW19648   5.334   5.223   6.150
 6250SOL    HW119649   5.362   5.148   6.210
 6250SOL    HW219650   5.343   5.194   6.054
 6251SOL     OW19651   4.618   1.915   0.931
 6251SOL    HW119652   4.669   2.001   0.930
 6251SOL    HW219653   4.603   1.886   1.025
 6252SOL     OW19654   2.180   6.355   5.225
 6252SOL    HW119655   2.209   6.297   5.149
 6252SOL    HW219656   2.256   6.366   5.289
 6253SOL     OW19657   1.746   3.635   1.317
 6253SOL    HW119658   1.805   3.716   1.311
 6253SOL    HW219659   1.695   3.624   1.232
 6254SOL     OW19660   5.135   0.362   0.535
 6254SOL    HW119661   5.084   0.402   0.610
 6254SOL    HW219662   5.227   0.339   0.566
 6255SOL     OW19663   0.183   1.529   2.377
 6255SOL    HW119664   0.275   1.510   2.411
 6255SOL    HW219665   0.187   1.549   2.279
 6256SOL     OW19666   3.001   4.809   3.161
 6256SOL    HW119667   3.007   4.845   3.255
 6256SOL    HW219668   3.084   4.756   3.141
 6257SOL     OW19669   4.291   2.815   6.783
 6257SOL    HW119670   4.292   2.766   6.870
 6257SOL    HW219671   4.237   2.899   6.792
 6258SOL     OW19672   5.182   2.391   3.070
 6258SOL    HW119673   5.200   2.478   3.025
 6258SOL    HW219674   5.132   2.331   3.007
 6259SOL     OW19675   3.013   2.191   1.799
 6259SOL    HW119676   2.974   2.262   1.857
 6259SOL    HW219677   2.953   2.110   1.800
 6260SOL     OW19678   3.488   3.403   0.320
 6260SOL    HW119679   3.570   3.373   0.370
 6260SOL    HW219680   3.515   3.447   0.235
 6261SOL     OW19681   4.464   0.722   0.017
 6261SOL    HW119682   4.491   0.730   6.944
 6261SOL    HW219683   4.458   0.626   0.043
 6262SOL     OW19684   0.377   5.814   5.425
 6262SOL    HW119685   0.380   5.882   5.499
 6262SOL    HW219686   0.294   5.759   5.434
 6263SOL     OW19687   6.146   0.770   1.001
 6263SOL    HW119688   6.184   0.690   0.955
 6263SOL    HW219689   6.173   0.853   0.952
 6264SOL     OW19690   2.236   1.343   6.969
 6264SOL    HW119691   2.295   1.418   6.999
 6264SOL    HW219692   2.232   1.273   0.018
 6265SOL     OW19693   4.431   2.916   1.309
 6265SOL    HW119694   4.475   2.862   1.381
 6265SOL    HW219695   4.496   2.935   1.236
 6266SOL     OW19696   2.282   0.058   2.390
 6266SOL    HW119697   2.342   7.011   2.430
 6266SOL    HW219698   2.336   0.121   2.334
 6267SOL     OW19699   2.402   6.735   7.021
 6267SOL    HW119700   2.304   6.718   0.010
 6267SOL    HW219701   2.432   6.802   0.065
 6268SOL     OW19702   3.190   4.877   2.943
 6268SOL    HW119703   3.112   4.925   2.983
 6268SOL    HW219704   3.162   4.836   2.856
 6269SOL     OW19705   6.309   4.754   0.693
 6269SOL    HW119706   6.360   4.819   0.638
 6269SOL    HW219707   6.212   4.780   0.695
 6270SOL     OW19708   0.433   1.357   4.470
 6270SOL    HW119709   0.452   1.454   4.451
 6270SOL    HW219710   0.444   1.304   4.386
 6271SOL     OW19711   6.070   1.023   0.878
 6271SOL    HW119712   5.971   1.026   0.890
 6271SOL    HW219713   6.094   1.058   0.787
 6272SOL     OW19714   1.488   2.357   3.563
 6272SOL    HW119715   1.538   2.270   3.569
 6272SOL    HW219716   1.519   2.408   3.483
 6273SOL     OW19717   4.215   0.354   1.694
 6273SOL    HW119718   4.162   0.383   1.774
 6273SOL    HW219719   4.201   0.256   1.679
 6274SOL     OW19720   3.292   6.458   6.131
 6274SOL    HW119721   3.274   6.367   6.169
 6274SOL    HW219722   3.213   6.517   6.146
 6275SOL     OW19723   2.289   0.294   4.423
 6275SOL    HW119724   2.382   0.279   4.388
 6275SOL    HW219725   2.223   0.259   4.357
 6276SOL     OW19726   1.608   5.203   4.058
 6276SOL    HW119727   1.584   5.107   4.044
 6276SOL    HW219728   1.677   5.210   4.130
 6277SOL     OW19729   5.398   3.084   3.341
 6277SOL    HW119730   5.376   3.049   3.433
 6277SOL    HW219731   5.428   3.009   3.283
 6278SOL     OW19732   5.474   0.680   4.413
 6278SOL    HW119733   5.474   0.697   4.512
 6278SOL    HW219734   5.477   0.767   4.364
 6279SOL     OW19735   4.773   1.727   6.889
 6279SOL    HW119736   4.690   1.675   6.866
 6279SOL    HW219737   4.791   1.793   6.816
 6280SOL     OW19738   0.621   5.157   5.857
 6280SOL    HW119739   0.619   5.080   5.921
 6280SOL    HW219740   0.581   5.237   5.900
 6281SOL     OW19741   2.964   6.804   5.015
 6281SOL    HW119742   3.024   6.750   4.955
 6281SOL    HW219743   2.872   6.807   4.975
 6282SOL     OW19744   1.850   6.864   3.558
 6282SOL    HW119745   1.908   6.907   3.488
 6282SOL    HW219746   1.774   6.924   3.580
 6283SOL     OW19747   0.026   2.799   5.360
 6283SOL    HW119748   7.013   2.749   5.439
 6283SOL    HW219749   0.086   2.739   5.307
 6284SOL     OW19750   2.564   4.466   6.313
 6284SOL    HW119751   2.496   4.393   6.318
 6284SOL    HW219752   2.571   4.511   6.402
 6285SOL     OW19753   1.746   4.869   2.719
 6285SOL    HW119754   1.799   4.790   2.689
 6285SOL    HW219755   1.650   4.854   2.697
 6286SOL     OW19756   5.694   6.795   4.565
 6286SOL    HW119757   5.767   6.754   4.620
 6286SOL    HW219758   5.714   6.782   4.468
 6287SOL     OW19759   4.654   4.506   1.973
 6287SOL    HW119760   4.658   4.568   2.051
 6287SOL    HW219761   4.593   4.429   1.995
 6288SOL     OW19762   5.068   3.710   1.015
 6288SOL    HW119763   5.008   3.754   1.082
 6288SOL    HW219764   5.110   3.780   0.957
 6289SOL     OW19765   1.361   0.856   2.518
 6289SOL    HW119766   1.266   0.827   2.508
 6289SOL    HW219767   1.419   0.801   2.457
 6290SOL     OW19768   5.988   3.342   3.219
 6290SOL    HW119769   5.977   3.360   3.317
 6290SOL    HW219770   6.056   3.270   3.206
 6291SOL     OW19771   4.064   3.777   3.207
 6291SOL    HW119772   4.023   3.762   3.297
 6291SOL    HW219773   4.160   3.800   3.217
 6292SOL     OW19774   0.261   1.597   2.088
 6292SOL    HW119775   0.284   1.694   2.102
 6292SOL    HW219776   0.344   1.542   2.098
 6293SOL     OW19777   4.932   6.238   0.798
 6293SOL    HW119778   4.916   6.295   0.878
 6293SOL    HW219779   5.028   6.211   0.794
 6294SOL     OW19780   3.981   5.193   2.546
 6294SOL    HW119781   4.026   5.172   2.633
 6294SOL    HW219782   4.033   5.152   2.471
 6295SOL     OW19783   6.356   6.239   5.989
 6295SOL    HW119784   6.291   6.184   6.041
 6295SOL    HW219785   6.351   6.213   5.892
 6296SOL     OW19786   6.485   1.304   2.525
 6296SOL    HW119787   6.453   1.342   2.612
 6296SOL    HW219788   6.494   1.205   2.533
 6297SOL     OW19789   5.521   0.723   5.525
 6297SOL    HW119790   5.463   0.647   5.555
 6297SOL    HW219791   5.471   0.778   5.458
 6298SOL     OW19792   0.737   2.019   4.483
 6298SOL    HW119793   0.827   2.061   4.495
 6298SOL    HW219794   0.705   2.035   4.390
 6299SOL     OW19795   6.477   3.288   0.359
 6299SOL    HW119796   6.465   3.380   0.322
 6299SOL    HW219797   6.559   3.246   0.319
 6300SOL     OW19798   5.037   1.033   4.008
 6300SOL    HW119799   5.121   0.985   4.031
 6300SOL    HW219800   5.053   1.132   4.010
 6301SOL     OW19801   3.265   0.241   0.731
 6301SOL    HW119802   3.218   0.154   0.720
 6301SOL    HW219803   3.338   0.249   0.662
 6302SOL     OW19804   0.346   1.031   3.093
 6302SOL    HW119805   0.292   1.038   3.177
 6302SOL    HW219806   0.320   1.105   3.031
 6303SOL     OW19807   2.338   6.127   5.441
 6303SOL    HW119808   2.356   6.223   5.417
 6303SOL    HW219809   2.301   6.123   5.533
 6304SOL     OW19810   3.395   1.069   5.914
 6304SOL    HW119811   3.403   1.042   6.010
 6304SOL    HW219812   3.448   1.152   5.898
 6305SOL     OW19813   5.668   1.384   2.120
 6305SOL    HW119814   5.732   1.345   2.053
 6305SOL    HW219815   5.588   1.324   2.128
 6306SOL     OW19816   5.877   2.853   4.750
 6306SOL    HW119817   5.838   2.931   4.701
 6306SOL    HW219818   5.843   2.852   4.844
 6307SOL     OW19819   2.719   4.775   0.659
 6307SOL    HW119820   2.756   4.787   0.567
 6307SOL    HW219821   2.791   4.745   0.720
 6308SOL     OW19822   3.145   2.018   5.716
 6308SOL    HW119823   3.119   1.935   5.667
 6308SOL    HW219824   3.155   1.998   5.813
 6309SOL     OW19825   5.642   2.128   4.992
 6309SOL    HW119826   5.570   2.196   5.001
 6309SOL    HW219827   5.606   2.038   5.015
 6310SOL     OW19828   1.206   4.758   4.990
 6310SOL    HW119829   1.145   4.818   4.938
 6310SOL    HW219830   1.295   4.755   4.946
 6311SOL     OW19831   6.275   6.302   4.452
 6311SOL    HW119832   6.247   6.360   4.375
 6311SOL    HW219833   6.214   6.223   4.457
 6312SOL     OW19834   5.066   4.618   5.976
 6312SOL    HW119835   5.119   4.678   5.917
 6312SOL    HW219836   4.981   4.663   6.002
 6313SOL     OW19837   2.346   5.244   3.379
 6313SOL    HW119838   2.254   5.210   3.401
 6313SOL    HW219839   2.411   5.210   3.447
 6314SOL     OW19840   2.956   6.766   3.715
 6314SOL    HW119841   2.885   6.756   3.785
 6314SOL    HW219842   3.043   6.787   3.758
 6315SOL     OW19843   2.132   3.442   0.398
 6315SOL    HW119844   2.033   3.431   0.387
 6315SOL    HW219845   2.175   3.445   0.308
 6316SOL     OW19846   4.851   1.740   5.950
 6316SOL    HW119847   4.854   1.719   5.853
 6316SOL    HW219848   4.923   1.805   5.973
 6317SOL     OW19849   6.237   5.751   3.993
 6317SOL    HW119850   6.258   5.750   4.091
 6317SOL    HW219851   6.223   5.846   3.963
 6318SOL     OW19852   2.181   1.861   4.806
 6318SOL    HW119853   2.151   1.943   4.856
 6318SOL    HW219854   2.224   1.888   4.720
 6319SOL     OW19855   0.431   1.395   2.976
 6319SOL    HW119856   0.440   1.480   2.925
 6319SOL    HW219857   0.363   1.336   2.931
 6320SOL     OW19858   6.919   2.171   3.376
 6320SOL    HW119859   6.837   2.210   3.333
 6320SOL    HW219860   6.947   2.089   3.326
 6321SOL     OW19861   2.566   3.632   6.363
 6321SOL    HW119862   2.540   3.723   6.331
 6321SOL    HW219863   2.663   3.631   6.385
 6322SOL     OW19864   1.029   0.890   6.963
 6322SOL    HW119865   0.979   0.947   0.006
 6322SOL    HW219866   1.120   0.870   6.998
 6323SOL     OW19867   4.103   1.543   1.245
 6323SOL    HW119868   4.056   1.455   1.256
 6323SOL    HW219869   4.195   1.536   1.283
 6324SOL     OW19870   4.324   1.800   6.947
 6324SOL    HW119871   4.300   1.885   6.901
 6324SOL    HW219872   4.243   1.741   6.954
 6325SOL     OW19873   1.160   2.401   2.473
 6325SOL    HW119874   1.133   2.480   2.528
 6325SOL    HW219875   1.235   2.427   2.412
 6326SOL     OW19876   4.841   5.995   1.349
 6326SOL    HW119877   4.842   5.911   1.403
 6326SOL    HW219878   4.892   6.066   1.397
 6327SOL     OW19879   3.993   5.487   5.633
 6327SOL    HW119880   3.911   5.444   5.593
 6327SOL    HW219881   3.977   5.505   5.730
 6328SOL     OW19882   3.084   4.168   6.536
 6328SOL    HW119883   3.123   4.216   6.457
 6328SOL    HW219884   3.151   4.164   6.610
 6329SOL     OW19885   1.248   1.859   2.609
 6329SOL    HW119886   1.332   1.897   2.648
 6329SOL    HW219887   1.240   1.888   2.514
 6330SOL     OW19888   3.380   0.889   0.079
 6330SOL    HW119889   3.324   0.807   0.075
 6330SOL    HW219890   3.462   0.871   0.132
 6331SOL     OW19891   5.762   2.796   2.510
 6331SOL    HW119892   5.823   2.761   2.440
 6331SOL    HW219893   5.815   2.829   2.588
 6332SOL     OW19894   5.342   6.339   2.083
 6332SOL    HW119895   5.370   6.243   2.080
 6332SOL    HW219896   5.246   6.346   2.054
 6333SOL     OW19897   2.246   5.577   2.768
 6333SOL    HW119898   2.162   5.523   2.759
 6333SOL    HW219899   2.312   5.527   2.825
 6334SOL     OW19900   2.752   1.582   2.484
 6334SOL    HW119901   2.671   1.539   2.522
 6334SOL    HW219902   2.748   1.681   2.500
 6335SOL     OW19903   0.313   1.317   6.755
 6335SOL    HW119904   0.372   1.394   6.734
 6335SOL    HW219905   0.364   1.231   6.743
 6336SOL     OW19906   0.324   3.083   5.215
 6336SOL    HW119907   0.373   3.095   5.301
 6336SOL    HW219908   0.228   3.106   5.228
 6337SOL     OW19909   6.898   4.459   5.535
 6337SOL    HW119910   6.886   4.490   5.440
 6337SOL    HW219911   6.969   4.389   5.537
 6338SOL     OW19912   3.434   1.242   4.070
 6338SOL    HW119913   3.459   1.155   4.113
 6338SOL    HW219914   3.487   1.253   3.986
 6339SOL     OW19915   6.982   2.534   4.960
 6339SOL    HW119916   7.022   2.599   4.896
 6339SOL    HW219917   0.032   2.495   5.017
 6340SOL     OW19918   2.442   5.296   4.293
 6340SOL    HW119919   2.426   5.198   4.306
 6340SOL    HW219920   2.369   5.335   4.238
 6341SOL     OW19921   6.548   4.960   2.653
 6341SOL    HW119922   6.517   4.874   2.692
 6341SOL    HW219923   6.470   5.013   2.620
 6342SOL     OW19924   1.640   3.050   1.108
 6342SOL    HW119925   1.728   3.055   1.157
 6342SOL    HW219926   1.594   3.138   1.114
 6343SOL     OW19927   4.013   0.847   0.287
 6343SOL    HW119928   4.095   0.804   0.250
 6343SOL    HW219929   4.028   0.945   0.296
 6344SOL     OW19930   0.153   4.624   4.645
 6344SOL    HW119931   0.200   4.536   4.654
 6344SOL    HW219932   0.108   4.629   4.556
 6345SOL     OW19933   2.712   2.352   2.301
 6345SOL    HW119934   2.639   2.410   2.266
 6345SOL    HW219935   2.785   2.347   2.233
 6346SOL     OW19936   0.605   5.677   4.060
 6346SOL    HW119937   0.610   5.740   3.982
 6346SOL    HW219938   0.654   5.593   4.038
 6347SOL     OW19939   3.338   6.991   1.488
 6347SOL    HW119940   3.289   6.908   1.461
 6347SOL    HW219941   3.313   0.043   1.427
 6348SOL     OW19942   1.173   2.305   5.158
 6348SOL    HW119943   1.209   2.253   5.235
 6348SOL    HW219944   1.136   2.392   5.190
 6349SOL     OW19945   2.454   0.330   0.196
 6349SOL    HW119946   2.458   0.358   0.292
 6349SOL    HW219947   2.377   0.268   0.182
 6350SOL     OW19948   1.214   6.035   2.691
 6350SOL    HW119949   1.220   5.939   2.719
 6350SOL    HW219950   1.121   6.056   2.660
 6351SOL     OW19951   0.175   1.372   3.204
 6351SOL    HW119952   0.086   1.330   3.185
 6351SOL    HW219953   0.186   1.453   3.147
 6352SOL     OW19954   0.139   6.243   2.525
 6352SOL    HW119955   0.111   6.159   2.571
 6352SOL    HW219956   0.229   6.272   2.559
 6353SOL     OW19957   6.974   6.540   2.066
 6353SOL    HW119958   6.955   6.575   2.158
 6353SOL    HW219959   0.049   6.524   2.056
 6354SOL     OW19960   0.235   6.705   4.291
 6354SOL    HW119961   0.213   6.671   4.199
 6354SOL    HW219962   0.218   6.633   4.358
 6355SOL     OW19963   1.022   2.229   1.963
 6355SOL    HW119964   1.026   2.153   2.028
 6355SOL    HW219965   1.105   2.229   1.907
 6356SOL     OW19966   2.922   2.901   0.854
 6356SOL    HW119967   2.833   2.944   0.864
 6356SOL    HW219968   2.973   2.910   0.939
 6357SOL     OW19969   4.519   2.074   0.672
 6357SOL    HW119970   4.498   2.097   0.766
 6357SOL    HW219971   4.532   1.975   0.664
 6358SOL     OW19972   0.866   2.610   4.185
 6358SOL    HW119973   0.799   2.684   4.178
 6358SOL    HW219974   0.865   2.555   4.102
 6359SOL     OW19975   6.913   0.823   6.755
 6359SOL    HW119976   6.886   0.860   6.666
 6359SOL    HW219977   6.847   0.753   6.784
 6360SOL     OW19978   3.091   6.016   4.161
 6360SOL    HW119979   3.000   6.016   4.120
 6360SOL    HW219980   3.158   5.984   4.093
 6361SOL     OW19981   3.844   5.992   5.991
 6361SOL    HW119982   3.748   6.018   6.005
 6361SOL    HW219983   3.898   6.018   6.071
 6362SOL     OW19984   6.325   5.376   6.223
 6362SOL    HW119985   6.324   5.325   6.137
 6362SOL    HW219986   6.418   5.405   6.244
 6363SOL     OW19987   0.900   5.813   4.049
 6363SOL    HW119988   0.878   5.716   4.055
 6363SOL    HW219989   0.834   5.866   4.102
 6364SOL     OW19990   2.073   2.781   6.092
 6364SOL    HW119991   2.126   2.735   6.164
 6364SOL    HW219992   1.993   2.825   6.133
 6365SOL     OW19993   4.885   5.516   2.556
 6365SOL    HW119994   4.894   5.433   2.500
 6365SOL    HW219995   4.788   5.534   2.573
 6366SOL     OW19996   0.145   4.458   5.887
 6366SOL    HW119997   0.190   4.467   5.798
 6366SOL    HW219998   0.137   4.548   5.929
 6367SOL     OW19999   6.028   5.684   2.480
 6367SOL    HW120000   6.044   5.594   2.520
 6367SOL    HW220001   5.935   5.688   2.443
 6368SOL     OW20002   3.224   0.456   3.505
 6368SOL    HW120003   3.161   0.531   3.526
 6368SOL    HW220004   3.186   0.370   3.540
 6369SOL     OW20005   2.386   5.159   5.549
 6369SOL    HW120006   2.400   5.152   5.450
 6369SOL    HW220007   2.375   5.255   5.574
 6370SOL     OW20008   5.887   2.733   2.284
 6370SOL    HW120009   5.881   2.824   2.243
 6370SOL    HW220010   5.951   2.677   2.232
 6371SOL     OW20011   4.761   2.137   3.470
 6371SOL    HW120012   4.821   2.149   3.390
 6371SOL    HW220013   4.805   2.179   3.550
 6372SOL     OW20014   2.931   6.144   2.179
 6372SOL    HW120015   2.987   6.063   2.191
 6372SOL    HW220016   2.980   6.224   2.214
 6373SOL     OW20017   3.734   4.542   0.022
 6373SOL    HW120018   3.669   4.489   0.078
 6373SOL    HW220019   3.762   4.624   0.073
 6374SOL     OW20020   2.904   3.736   2.683
 6374SOL    HW120021   2.987   3.767   2.637
 6374SOL    HW220022   2.914   3.640   2.710
 6375SOL     OW20023   1.719   6.289   2.641
 6375SOL    HW120024   1.776   6.353   2.693
 6375SOL    HW220025   1.625   6.323   2.637
 6376SOL     OW20026   0.474   2.611   5.660
 6376SOL    HW120027   0.382   2.619   5.698
 6376SOL    HW220028   0.492   2.516   5.637
 6377SOL     OW20029   0.554   1.391   4.056
 6377SOL    HW120030   0.606   1.343   3.985
 6377SOL    HW220031   0.615   1.418   4.130
 6378SOL     OW20032   4.590   4.872   3.862
 6378SOL    HW120033   4.618   4.946   3.922
 6378SOL    HW220034   4.519   4.818   3.907
 6379SOL     OW20035   2.397   4.924   2.467
 6379SOL    HW120036   2.399   4.835   2.422
 6379SOL    HW220037   2.437   4.993   2.407
 6380SOL     OW20038   0.794   0.776   5.830
 6380SOL    HW120039   0.768   0.846   5.764
 6380SOL    HW220040   0.751   0.689   5.806
 6381SOL     OW20041   2.804   3.207   1.844
 6381SOL    HW120042   2.788   3.117   1.886
 6381SOL    HW220043   2.866   3.196   1.767
 6382SOL     OW20044   1.400   4.392   4.703
 6382SOL    HW120045   1.485   4.363   4.747
 6382SOL    HW220046   1.377   4.485   4.732
 6383SOL     OW20047   4.198   1.198   3.918
 6383SOL    HW120048   4.176   1.126   3.852
 6383SOL    HW220049   4.292   1.187   3.950
 6384SOL     OW20050   6.141   4.517   2.411
 6384SOL    HW120051   6.150   4.543   2.507
 6384SOL    HW220052   6.232   4.511   2.370
 6385SOL     OW20053   0.494   6.296   4.514
 6385SOL    HW120054   0.489   6.225   4.584
 6385SOL    HW220055   0.578   6.348   4.525
 6386SOL     OW20056   2.802   5.547   1.789
 6386SOL    HW120057   2.805   5.641   1.823
 6386SOL    HW220058   2.706   5.519   1.777
 6387SOL     OW20059   6.818   1.870   5.206
 6387SOL    HW120060   6.834   1.903   5.299
 6387SOL    HW220061   6.906   1.848   5.163
 6388SOL     OW20062   2.022   4.909   3.188
 6388SOL    HW120063   2.098   4.847   3.204
 6388SOL    HW220064   2.005   4.916   3.090
 6389SOL     OW20065   0.792   4.531   1.571
 6389SOL    HW120066   0.739   4.614   1.554
 6389SOL    HW220067   0.851   4.512   1.492
 6390SOL     OW20068   0.285   3.815   4.208
 6390SOL    HW120069   0.266   3.718   4.196
 6390SOL    HW220070   0.218   3.869   4.158
 6391SOL     OW20071   3.798   0.890   6.723
 6391SOL    HW120072   3.762   0.810   6.675
 6391SOL    HW220073   3.727   0.959   6.731
 6392SOL     OW20074   1.536   6.508   4.068
 6392SOL    HW120075   1.575   6.594   4.036
 6392SOL    HW220076   1.529   6.509   4.168
 6393SOL     OW20077   5.218   1.248   0.808
 6393SOL    HW120078   5.269   1.304   0.874
 6393SOL    HW220079   5.204   1.300   0.724
 6394SOL     OW20080   3.246   5.022   1.647
 6394SOL    HW120081   3.288   4.947   1.698
 6394SOL    HW220082   3.158   5.046   1.688
 6395SOL     OW20083   5.797   1.413   0.974
 6395SOL    HW120084   5.844   1.482   0.920
 6395SOL    HW220085   5.739   1.458   1.042
 6396SOL     OW20086   5.690   3.792   5.617
 6396SOL    HW120087   5.752   3.742   5.557
 6396SOL    HW220088   5.600   3.800   5.572
 6397SOL     OW20089   0.152   0.541   6.958
 6397SOL    HW120090   0.134   0.539   6.860
 6397SOL    HW220091   0.212   0.619   6.979
 6398SOL     OW20092   4.052   0.626   1.317
 6398SOL    HW120093   4.088   0.533   1.312
 6398SOL    HW220094   3.960   0.628   1.278
 6399SOL     OW20095   2.457   5.853   6.670
 6399SOL    HW120096   2.359   5.872   6.668
 6399SOL    HW220097   2.472   5.757   6.648
 6400SOL     OW20098   2.866   5.251   4.084
 6400SOL    HW120099   2.790   5.304   4.122
 6400SOL    HW220100   2.831   5.167   4.043
 6401SOL     OW20101   1.374   4.405   4.375
 6401SOL    HW120102   1.422   4.346   4.439
 6401SOL    HW220103   1.334   4.350   4.301
 6402SOL     OW20104   1.988   2.398   3.364
 6402SOL    HW120105   2.057   2.441   3.306
 6402SOL    HW220106   1.956   2.464   3.432
 6403SOL     OW20107   0.861   5.812   1.611
 6403SOL    HW120108   0.864   5.891   1.672
 6403SOL    HW220109   0.953   5.786   1.583
 6404SOL     OW20110   5.154   1.114   3.392
 6404SOL    HW120111   5.137   1.160   3.479
 6404SOL    HW220112   5.120   1.170   3.317
 6405SOL     OW20113   2.660   1.184   1.849
 6405SOL    HW120114   2.655   1.272   1.896
 6405SOL    HW220115   2.714   1.120   1.903
 6406SOL     OW20116   3.043   2.241   3.340
 6406SOL    HW120117   2.953   2.198   3.352
 6406SOL    HW220118   3.045   2.289   3.253
 6407SOL     OW20119   4.439   5.223   6.178
 6407SOL    HW120120   4.526   5.232   6.130
 6407SOL    HW220121   4.385   5.306   6.166
 6408SOL     OW20122   6.411   1.585   0.484
 6408SOL    HW120123   6.365   1.582   0.395
 6408SOL    HW220124   6.482   1.654   0.483
 6409SOL     OW20125   1.347   4.169   2.049
 6409SOL    HW120126   1.388   4.195   1.962
 6409SOL    HW220127   1.419   4.146   2.115
 6410SOL     OW20128   1.338   1.201   1.817
 6410SOL    HW120129   1.407   1.209   1.744
 6410SOL    HW220130   1.384   1.201   1.906
 6411SOL     OW20131   2.154   0.999   3.486
 6411SOL    HW120132   2.078   1.043   3.534
 6411SOL    HW220133   2.118   0.927   3.426
 6412SOL     OW20134   0.073   1.937   4.793
 6412SOL    HW120135   0.088   2.036   4.782
 6412SOL    HW220136   0.093   1.891   4.706
 6413SOL     OW20137   0.372   4.640   0.481
 6413SOL    HW120138   0.407   4.674   0.568
 6413SOL    HW220139   0.414   4.552   0.459
 6414SOL     OW20140   6.507   6.498   2.625
 6414SOL    HW120141   6.587   6.558   2.633
 6414SOL    HW220142   6.531   6.418   2.569
 6415SOL     OW20143   1.838   1.563   2.094
 6415SOL    HW120144   1.782   1.489   2.058
 6415SOL    HW220145   1.822   1.572   2.192
 6416SOL     OW20146   2.302   6.365   6.258
 6416SOL    HW120147   2.264   6.456   6.278
 6416SOL    HW220148   2.241   6.317   6.196
 6417SOL     OW20149   0.176   6.849   3.142
 6417SOL    HW120150   0.144   6.839   3.236
 6417SOL    HW220151   0.276   6.846   3.140
 6418SOL     OW20152   6.665   5.944   2.541
 6418SOL    HW120153   6.584   5.991   2.507
 6418SOL    HW220154   6.651   5.916   2.636
 6419SOL     OW20155   2.664   3.776   1.393
 6419SOL    HW120156   2.665   3.750   1.296
 6419SOL    HW220157   2.654   3.875   1.400
 6420SOL     OW20158   0.689   3.346   6.946
 6420SOL    HW120159   0.667   3.252   6.922
 6420SOL    HW220160   0.780   3.369   6.910
 6421SOL     OW20161   5.836   2.065   1.303
 6421SOL    HW120162   5.900   2.127   1.258
 6421SOL    HW220163   5.884   1.982   1.331
 6422SOL     OW20164   6.076   2.019   3.597
 6422SOL    HW120165   6.088   1.926   3.562
 6422SOL    HW220166   6.005   2.066   3.545
 6423SOL     OW20167   4.832   3.922   0.968
 6423SOL    HW120168   4.921   3.935   0.925
 6423SOL    HW220169   4.765   3.983   0.926
 6424SOL     OW20170   6.415   4.685   4.992
 6424SOL    HW120171   6.454   4.627   5.063
 6424SOL    HW220172   6.485   4.747   4.957
 6425SOL     OW20173   0.578   4.925   1.150
 6425SOL    HW120174   0.608   5.013   1.112
 6425SOL    HW220175   0.638   4.852   1.118
 6426SOL     OW20176   6.753   2.621   3.812
 6426SOL    HW120177   6.847   2.604   3.841
 6426SOL    HW220178   6.712   2.536   3.779
 6427SOL     OW20179   1.285   3.164   5.955
 6427SOL    HW120180   1.224   3.089   5.929
 6427SOL    HW220181   1.264   3.244   5.899
 6428SOL     OW20182   6.797   3.218   3.587
 6428SOL    HW120183   6.804   3.316   3.603
 6428SOL    HW220184   6.738   3.177   3.657
 6429SOL     OW20185   0.752   0.938   4.502
 6429SOL    HW120186   0.800   1.026   4.508
 6429SOL    HW220187   0.817   0.867   4.476
 6430SOL     OW20188   6.049   3.605   0.026
 6430SOL    HW120189   6.007   3.656   0.102
 6430SOL    HW220190   6.096   3.525   0.061
 6431SOL     OW20191   5.520   0.852   3.462
 6431SOL    HW120192   5.510   0.944   3.425
 6431SOL    HW220193   5.596   0.806   3.415
 6432SOL     OW20194   5.924   3.397   0.269
 6432SOL    HW120195   5.881   3.373   0.182
 6432SOL    HW220196   5.888   3.338   0.342
 6433SOL     OW20197   2.574   3.677   1.685
 6433SOL    HW120198   2.537   3.768   1.665
 6433SOL    HW220199   2.663   3.667   1.641
 6434SOL     OW20200   2.127   5.408   0.341
 6434SOL    HW120201   2.151   5.473   0.268
 6434SOL    HW220202   2.031   5.420   0.365
 6435SOL     OW20203   4.386   4.163   0.369
 6435SOL    HW120204   4.338   4.119   0.446
 6435SOL    HW220205   4.453   4.099   0.331
 6436SOL     OW20206   1.441   2.695   2.525
 6436SOL    HW120207   1.497   2.722   2.446
 6436SOL    HW220208   1.494   2.633   2.583
 6437SOL     OW20209   0.364   0.684   6.763
 6437SOL    HW120210   0.270   0.663   6.736
 6437SOL    HW220211   0.419   0.698   6.681
 6438SOL     OW20212   1.032   3.746   3.879
 6438SOL    HW120213   1.061   3.664   3.830
 6438SOL    HW220214   0.988   3.720   3.965
 6439SOL     OW20215   0.084   6.354   1.778
 6439SOL    HW120216   0.150   6.341   1.852
 6439SOL    HW220217   0.074   6.452   1.759
 6440SOL     OW20218   0.563   0.864   1.975
 6440SOL    HW120219   0.466   0.866   1.999
 6440SOL    HW220220   0.599   0.772   1.988
 6441SOL     OW20221   3.865   1.468   3.189
 6441SOL    HW120222   3.924   1.464   3.269
 6441SOL    HW220223   3.901   1.534   3.123
 6442SOL     OW20224   3.850   0.323   3.451
 6442SOL    HW120225   3.911   0.402   3.446
 6442SOL    HW220226   3.898   0.243   3.415
 6443SOL     OW20227   2.368   0.932   0.087
 6443SOL    HW120228   2.345   0.837   0.107
 6443SOL    HW220229   2.356   0.949   7.012
 6444SOL     OW20230   0.712   0.678   3.550
 6444SOL    HW120231   0.620   0.638   3.542
 6444SOL    HW220232   0.744   0.705   3.459
 6445SOL     OW20233   3.791   3.706   5.497
 6445SOL    HW120234   3.735   3.630   5.464
 6445SOL    HW220235   3.799   3.700   5.596
 6446SOL     OW20236   6.748   1.965   1.111
 6446SOL    HW120237   6.688   2.033   1.068
 6446SOL    HW220238   6.816   2.011   1.168
 6447SOL     OW20239   1.669   6.869   2.991
 6447SOL    HW120240   1.626   6.878   2.901
 6447SOL    HW220241   1.648   6.950   3.046
 6448SOL     OW20242   6.725   2.315   2.280
 6448SOL    HW120243   6.672   2.331   2.197
 6448SOL    HW220244   6.682   2.243   2.335
 6449SOL     OW20245   3.450   2.672   1.245
 6449SOL    HW120246   3.548   2.693   1.244
 6449SOL    HW220247   3.416   2.680   1.339
 6450SOL     OW20248   6.695   3.319   6.479
 6450SOL    HW120249   6.681   3.375   6.398
 6450SOL    HW220250   6.716   3.225   6.453
 6451SOL     OW20251   2.124   6.819   4.066
 6451SOL    HW120252   2.217   6.824   4.102
 6451SOL    HW220253   2.059   6.822   4.142
 6452SOL     OW20254   3.920   6.297   3.475
 6452SOL    HW120255   4.007   6.314   3.429
 6452SOL    HW220256   3.859   6.374   3.458
 6453SOL     OW20257   2.173   4.358   6.378
 6453SOL    HW120258   2.152   4.454   6.397
 6453SOL    HW220259   2.099   4.300   6.414
 6454SOL     OW20260   3.039   1.595   5.024
 6454SOL    HW120261   2.955   1.559   5.065
 6454SOL    HW220262   3.118   1.554   5.068
 6455SOL     OW20263   6.081   2.568   5.736
 6455SOL    HW120264   6.166   2.590   5.784
 6455SOL    HW220265   6.083   2.607   5.644
 6456SOL     OW20266   6.677   0.594   4.760
 6456SOL    HW120267   6.589   0.577   4.716
 6456SOL    HW220268   6.742   0.628   4.692
 6457SOL     OW20269   6.448   3.178   2.720
 6457SOL    HW120270   6.424   3.100   2.663
 6457SOL    HW220271   6.482   3.252   2.662
 6458SOL     OW20272   1.327   6.294   3.180
 6458SOL    HW120273   1.409   6.281   3.235
 6458SOL    HW220274   1.327   6.228   3.105
 6459SOL     OW20275   5.553   4.936   0.385
 6459SOL    HW120276   5.613   4.895   0.316
 6459SOL    HW220277   5.493   4.865   0.423
 6460SOL     OW20278   2.860   4.885   0.406
 6460SOL    HW120279   2.942   4.871   0.350
 6460SOL    HW220280   2.855   4.981   0.434
 6461SOL     OW20281   3.857   5.808   4.896
 6461SOL    HW120282   3.824   5.744   4.966
 6461SOL    HW220283   3.806   5.893   4.903
 6462SOL     OW20284   2.086   2.871   3.294
 6462SOL    HW120285   2.084   2.812   3.375
 6462SOL    HW220286   2.093   2.967   3.323
 6463SOL     OW20287   1.127   4.779   5.382
 6463SOL    HW120288   1.112   4.695   5.331
 6463SOL    HW220289   1.045   4.801   5.435
 6464SOL     OW20290   1.257   5.422   2.462
 6464SOL    HW120291   1.269   5.347   2.397
 6464SOL    HW220292   1.330   5.419   2.530
 6465SOL     OW20293   6.584   1.127   2.930
 6465SOL    HW120294   6.574   1.137   3.029
 6465SOL    HW220295   6.670   1.080   2.910
 6466SOL     OW20296   0.589   3.203   5.504
 6466SOL    HW120297   0.502   3.155   5.507
 6466SOL    HW220298   0.646   3.166   5.431
 6467SOL     OW20299   2.565   1.203   6.235
 6467SOL    HW120300   2.608   1.113   6.225
 6467SOL    HW220301   2.473   1.192   6.272
 6468SOL     OW20302   4.695   4.120   0.835
 6468SOL    HW120303   4.759   4.178   0.785
 6468SOL    HW220304   4.612   4.173   0.856
 6469SOL     OW20305   6.368   1.187   6.048
 6469SOL    HW120306   6.360   1.235   6.135
 6469SOL    HW220307   6.277   1.161   6.016
 6470SOL     OW20308   6.554   6.053   5.202
 6470SOL    HW120309   6.527   6.148   5.184
 6470SOL    HW220310   6.649   6.052   5.234
 6471SOL     OW20311   5.574   5.536   5.621
 6471SOL    HW120312   5.510   5.466   5.656
 6471SOL    HW220313   5.524   5.622   5.608
 6472SOL     OW20314   1.557   5.642   0.976
 6472SOL    HW120315   1.608   5.723   0.946
 6472SOL    HW220316   1.475   5.632   0.921
 6473SOL     OW20317   2.700   1.246   5.324
 6473SOL    HW120318   2.616   1.207   5.288
 6473SOL    HW220319   2.678   1.322   5.386
 6474SOL     OW20320   2.633   3.621   5.549
 6474SOL    HW120321   2.615   3.638   5.452
 6474SOL    HW220322   2.662   3.706   5.593
 6475SOL     OW20323   4.495   5.949   3.959
 6475SOL    HW120324   4.562   5.978   4.027
 6475SOL    HW220325   4.521   5.983   3.869
 6476SOL     OW20326   5.007   4.781   2.566
 6476SOL    HW120327   5.107   4.773   2.568
 6476SOL    HW220328   4.979   4.851   2.631
 6477SOL     OW20329   6.762   6.720   6.870
 6477SOL    HW120330   6.774   6.819   6.864
 6477SOL    HW220331   6.672   6.700   6.910
 6478SOL     OW20332   4.844   6.442   0.946
 6478SOL    HW120333   4.837   6.536   0.912
 6478SOL    HW220334   4.872   6.443   1.042
 6479SOL     OW20335   4.167   5.927   2.598
 6479SOL    HW120336   4.070   5.900   2.603
 6479SOL    HW220337   4.198   5.954   2.689
 6480SOL     OW20338   2.575   1.143   0.832
 6480SOL    HW120339   2.487   1.096   0.824
 6480SOL    HW220340   2.558   1.239   0.857
 6481SOL     OW20341   4.663   0.613   1.642
 6481SOL    HW120342   4.708   0.691   1.685
 6481SOL    HW220343   4.701   0.528   1.679
 6482SOL     OW20344   0.496   0.399   6.621
 6482SOL    HW120345   0.415   0.417   6.678
 6482SOL    HW220346   0.577   0.394   6.680
 6483SOL     OW20347   2.183   5.821   1.990
 6483SOL    HW120348   2.169   5.903   2.046
 6483SOL    HW220349   2.116   5.819   1.916
 6484SOL     OW20350   5.531   5.948   3.334
 6484SOL    HW120351   5.496   5.993   3.251
 6484SOL    HW220352   5.576   6.016   3.392
 6485SOL     OW20353   0.815   3.161   3.314
 6485SOL    HW120354   0.727   3.207   3.322
 6485SOL    HW220355   0.829   3.102   3.394
 6486SOL     OW20356   2.117   3.324   3.035
 6486SOL    HW120357   2.073   3.272   3.108
 6486SOL    HW220358   2.111   3.422   3.055
 6487SOL     OW20359   5.717   5.556   3.049
 6487SOL    HW120360   5.635   5.611   3.065
 6487SOL    HW220361   5.737   5.502   3.131
 6488SOL     OW20362   3.441   5.123   5.679
 6488SOL    HW120363   3.390   5.174   5.749
 6488SOL    HW220364   3.417   5.159   5.589
 6489SOL     OW20365   2.485   1.862   5.496
 6489SOL    HW120366   2.457   1.929   5.565
 6489SOL    HW220367   2.554   1.902   5.437
 6490SOL     OW20368   4.378   1.360   0.748
 6490SOL    HW120369   4.324   1.368   0.663
 6490SOL    HW220370   4.442   1.284   0.740
 6491SOL     OW20371   4.020   1.244   6.109
 6491SOL    HW120372   4.077   1.208   6.182
 6491SOL    HW220373   4.030   1.343   6.105
 6492SOL     OW20374   5.664   6.050   6.626
 6492SOL    HW120375   5.610   5.984   6.679
 6492SOL    HW220376   5.759   6.019   6.622
 6493SOL     OW20377   1.345   5.890   5.531
 6493SOL    HW120378   1.316   5.981   5.560
 6493SOL    HW220379   1.271   5.824   5.548
 6494SOL     OW20380   1.520   0.029   3.581
 6494SOL    HW120381   1.505   0.102   3.514
 6494SOL    HW220382   1.558   0.068   3.665
 6495SOL     OW20383   5.236   5.226   2.424
 6495SOL    HW120384   5.227   5.207   2.522
 6495SOL    HW220385   5.152   5.199   2.377
 6496SOL     OW20386   1.153   6.894   2.818
 6496SOL    HW120387   1.238   6.909   2.868
 6496SOL    HW220388   1.106   6.814   2.855
 6497SOL     OW20389   0.237   5.527   7.018
 6497SOL    HW120390   0.183   5.455   6.975
 6497SOL    HW220391   0.209   5.616   6.982
 6498SOL     OW20392   1.625   4.149   3.767
 6498SOL    HW120393   1.531   4.140   3.799
 6498SOL    HW220394   1.638   4.239   3.726
 6499SOL     OW20395   5.972   0.976   4.233
 6499SOL    HW120396   5.912   0.970   4.153
 6499SOL    HW220397   5.930   0.927   4.309
 6500SOL     OW20398   5.242   4.792   3.592
 6500SOL    HW120399   5.248   4.701   3.632
 6500SOL    HW220400   5.334   4.827   3.574
 6501SOL     OW20401   0.117   3.508   0.795
 6501SOL    HW120402   0.058   3.433   0.763
 6501SOL    HW220403   0.201   3.469   0.834
 6502SOL     OW20404   1.170   4.669   2.184
 6502SOL    HW120405   1.116   4.585   2.189
 6502SOL    HW220406   1.263   4.648   2.152
 6503SOL     OW20407   4.545   0.520   4.437
 6503SOL    HW120408   4.628   0.561   4.474
 6503SOL    HW220409   4.553   0.421   4.439
 6504SOL     OW20410   2.049   1.327   0.299
 6504SOL    HW120411   1.964   1.274   0.307
 6504SOL    HW220412   2.124   1.266   0.272
 6505SOL     OW20413   5.288   5.411   0.925
 6505SOL    HW120414   5.371   5.461   0.952
 6505SOL    HW220415   5.245   5.373   1.007
 6506SOL     OW20416   1.760   2.054   0.706
 6506SOL    HW120417   1.777   2.001   0.622
 6506SOL    HW220418   1.779   2.151   0.688
 6507SOL     OW20419   3.386   0.636   2.262
 6507SOL    HW120420   3.331   0.708   2.220
 6507SOL    HW220421   3.393   0.653   2.360
 6508SOL     OW20422   2.631   1.360   2.067
 6508SOL    HW120423   2.586   1.447   2.048
 6508SOL    HW220424   2.708   1.375   2.128
 6509SOL     OW20425   0.962   2.628   4.459
 6509SOL    HW120426   0.886   2.675   4.505
 6509SOL    HW220427   0.978   2.671   4.370
 6510SOL     OW20428   5.599   5.320   6.692
 6510SOL    HW120429   5.514   5.341   6.740
 6510SOL    HW220430   5.622   5.395   6.630
 6511SOL     OW20431   6.069   5.928   5.354
 6511SOL    HW120432   6.050   5.848   5.410
 6511SOL    HW220433   5.999   5.997   5.369
 6512SOL     OW20434   5.185   6.558   3.678
 6512SOL    HW120435   5.275   6.562   3.636
 6512SOL    HW220436   5.151   6.464   3.677
 6513SOL     OW20437   2.528   6.937   2.893
 6513SOL    HW120438   2.627   6.940   2.881
 6513SOL    HW220439   2.483   6.944   2.804
 6514SOL     OW20440   3.231   6.810   3.367
 6514SOL    HW120441   3.206   6.719   3.400
 6514SOL    HW220442   3.220   6.877   3.440
 6515SOL     OW20443   0.564   0.802   4.349
 6515SOL    HW120444   0.624   0.865   4.398
 6515SOL    HW220445   0.523   0.737   4.413
 6516SOL     OW20446   1.749   1.504   5.772
 6516SOL    HW120447   1.729   1.504   5.674
 6516SOL    HW220448   1.663   1.500   5.824
 6517SOL     OW20449   1.389   2.082   0.182
 6517SOL    HW120450   1.423   2.076   0.088
 6517SOL    HW220451   1.292   2.107   0.180
 6518SOL     OW20452   5.886   6.258   0.161
 6518SOL    HW120453   5.974   6.293   0.130
 6518SOL    HW220454   5.823   6.251   0.083
 6519SOL     OW20455   1.622   1.866   3.216
 6519SOL    HW120456   1.593   1.952   3.257
 6519SOL    HW220457   1.688   1.821   3.276
 6520SOL     OW20458   6.171   5.117   1.630
 6520SOL    HW120459   6.193   5.136   1.534
 6520SOL    HW220460   6.234   5.168   1.689
 6521SOL     OW20461   1.393   1.838   5.407
 6521SOL    HW120462   1.402   1.801   5.499
 6521SOL    HW220463   1.476   1.889   5.383
 6522SOL     OW20464   2.551   5.827   4.632
 6522SOL    HW120465   2.501   5.910   4.658
 6522SOL    HW220466   2.582   5.779   4.714
 6523SOL     OW20467   1.694   2.131   6.792
 6523SOL    HW120468   1.684   2.113   6.890
 6523SOL    HW220469   1.784   2.100   6.762
 6524SOL     OW20470   3.629   4.163   4.692
 6524SOL    HW120471   3.593   4.109   4.616
 6524SOL    HW220472   3.630   4.260   4.666
 6525SOL     OW20473   0.448   2.504   4.588
 6525SOL    HW120474   0.479   2.584   4.537
 6525SOL    HW220475   0.422   2.432   4.524
 6526SOL     OW20476   1.850   5.843   4.446
 6526SOL    HW120477   1.855   5.878   4.353
 6526SOL    HW220478   1.916   5.769   4.457
 6527SOL     OW20479   2.321   1.043   3.941
 6527SOL    HW120480   2.383   1.050   4.019
 6527SOL    HW220481   2.369   1.000   3.864
 6528SOL     OW20482   7.007   6.882   3.419
 6528SOL    HW120483   6.936   6.862   3.351
 6528SOL    HW220484   6.980   6.961   3.474
 6529SOL     OW20485   6.446   2.629   1.474
 6529SOL    HW120486   6.475   2.718   1.508
 6529SOL    HW220487   6.527   2.573   1.454
 6530SOL     OW20488   0.163   2.108   0.337
 6530SOL    HW120489   0.145   2.040   0.408
 6530SOL    HW220490   0.100   2.185   0.348
 6531SOL     OW20491   5.108   2.956   4.339
 6531SOL    HW120492   5.135   3.008   4.420
 6531SOL    HW220493   5.009   2.957   4.330
 6532SOL     OW20494   1.305   2.418   6.651
 6532SOL    HW120495   1.230   2.418   6.585
 6532SOL    HW220496   1.378   2.359   6.618
 6533SOL     OW20497   4.596   0.875   1.171
 6533SOL    HW120498   4.527   0.802   1.173
 6533SOL    HW220499   4.640   0.883   1.260
 6534SOL     OW20500   1.784   3.002   0.305
 6534SOL    HW120501   1.806   2.979   0.400
 6534SOL    HW220502   1.837   3.082   0.276
 6535SOL     OW20503   2.155   3.324   5.496
 6535SOL    HW120504   2.102   3.316   5.412
 6535SOL    HW220505   2.138   3.414   5.538
 6536SOL     OW20506   6.759   2.554   7.001
 6536SOL    HW120507   6.769   2.606   0.063
 6536SOL    HW220508   6.794   2.608   6.925
 6537SOL     OW20509   1.137   0.066   0.040
 6537SOL    HW120510   1.149   0.144   7.000
 6537SOL    HW220511   1.129   7.005   7.010
 6538SOL     OW20512   2.249   3.332   6.442
 6538SOL    HW120513   2.196   3.250   6.418
 6538SOL    HW220514   2.337   3.330   6.395
 6539SOL     OW20515   2.378   1.463   6.687
 6539SOL    HW120516   2.393   1.538   6.622
 6539SOL    HW220517   2.291   1.418   6.666
 6540SOL     OW20518   3.065   1.962   3.985
 6540SOL    HW120519   3.030   2.028   4.051
 6540SOL    HW220520   3.077   1.873   4.031
 6541SOL     OW20521   2.933   2.586   5.336
 6541SOL    HW120522   2.981   2.527   5.400
 6541SOL    HW220523   2.981   2.673   5.327
 6542SOL     OW20524   6.286   4.472   3.524
 6542SOL    HW120525   6.220   4.464   3.599
 6542SOL    HW220526   6.337   4.387   3.515
 6543SOL     OW20527   0.776   5.424   6.773
 6543SOL    HW120528   0.765   5.522   6.755
 6543SOL    HW220529   0.716   5.372   6.712
 6544SOL     OW20530   6.505   5.881   3.355
 6544SOL    HW120531   6.499   5.818   3.278
 6544SOL    HW220532   6.416   5.887   3.400
 6545SOL     OW20533   5.157   2.967   6.009
 6545SOL    HW120534   5.152   2.956   5.910
 6545SOL    HW220535   5.210   2.892   6.048
 6546SOL     OW20536   3.631   4.766   5.813
 6546SOL    HW120537   3.643   4.716   5.728
 6546SOL    HW220538   3.693   4.730   5.883
 6547SOL     OW20539   5.097   1.252   6.941
 6547SOL    HW120540   5.168   1.230   6.874
 6547SOL    HW220541   5.013   1.204   6.917
 6548SOL     OW20542   6.356   4.527   5.274
 6548SOL    HW120543   6.302   4.452   5.235
 6548SOL    HW220544   6.297   4.606   5.290
 6549SOL     OW20545   3.139   1.059   2.224
 6549SOL    HW120546   3.200   1.121   2.174
 6549SOL    HW220547   3.143   1.080   2.321
 6550SOL     OW20548   0.969   5.545   3.532
 6550SOL    HW120549   0.995   5.457   3.572
 6550SOL    HW220550   0.934   5.605   3.604
 6551SOL     OW20551   2.549   5.010   1.858
 6551SOL    HW120552   2.620   4.940   1.860
 6551SOL    HW220553   2.460   4.968   1.875
 6552SOL     OW20554   4.608   5.204   6.723
 6552SOL    HW120555   4.527   5.228   6.669
 6552SOL    HW220556   4.595   5.233   6.818
 6553SOL     OW20557   6.871   3.125   2.764
 6553SOL    HW120558   6.802   3.197   2.762
 6553SOL    HW220559   6.836   3.046   2.815
 6554SOL     OW20560   0.104   3.714   5.244
 6554SOL    HW120561   0.025   3.687   5.299
 6554SOL    HW220562   0.167   3.636   5.236
 6555SOL     OW20563   0.521   1.286   1.821
 6555SOL    HW120564   0.511   1.385   1.828
 6555SOL    HW220565   0.432   1.242   1.834
 6556SOL     OW20566   3.317   0.454   3.833
 6556SOL    HW120567   3.219   0.469   3.825
 6556SOL    HW220568   3.355   0.433   3.743
 6557SOL     OW20569   5.851   6.333   1.100
 6557SOL    HW120570   5.937   6.341   1.150
 6557SOL    HW220571   5.785   6.281   1.154
 6558SOL     OW20572   0.102   6.043   6.286
 6558SOL    HW120573   0.016   6.085   6.315
 6558SOL    HW220574   0.121   5.964   6.344
 6559SOL     OW20575   3.318   2.854   1.031
 6559SOL    HW120576   3.283   2.772   0.985
 6559SOL    HW220577   3.317   2.838   1.130
 6560SOL     OW20578   3.701   1.757   0.867
 6560SOL    HW120579   3.691   1.660   0.842
 6560SOL    HW220580   3.653   1.774   0.953
 6561SOL     OW20581   3.843   4.024   4.174
 6561SOL    HW120582   3.888   3.957   4.114
 6561SOL    HW220583   3.862   4.002   4.269
 6562SOL     OW20584   5.832   3.710   5.383
 6562SOL    HW120585   5.776   3.760   5.317
 6562SOL    HW220586   5.807   3.613   5.381
 6563SOL     OW20587   1.388   5.183   2.821
 6563SOL    HW120588   1.396   5.281   2.838
 6563SOL    HW220589   1.403   5.165   2.724
 6564SOL     OW20590   1.232   6.529   3.276
 6564SOL    HW120591   1.191   6.522   3.367
 6564SOL    HW220592   1.268   6.440   3.249
 6565SOL     OW20593   6.480   3.760   5.355
 6565SOL    HW120594   6.566   3.795   5.316
 6565SOL    HW220595   6.500   3.707   5.437
 6566SOL     OW20596   3.744   6.632   0.839
 6566SOL    HW120597   3.809   6.662   0.908
 6566SOL    HW220598   3.679   6.567   0.878
 6567SOL     OW20599   6.375   3.360   1.334
 6567SOL    HW120600   6.430   3.347   1.416
 6567SOL    HW220601   6.315   3.439   1.346
 6568SOL     OW20602   4.004   3.961   1.198
 6568SOL    HW120603   4.048   3.887   1.248
 6568SOL    HW220604   4.067   4.038   1.190
 6569SOL     OW20605   0.513   4.625   6.589
 6569SOL    HW120606   0.581   4.698   6.579
 6569SOL    HW220607   0.428   4.653   6.544
 6570SOL     OW20608   6.036   3.371   1.510
 6570SOL    HW120609   6.033   3.394   1.413
 6570SOL    HW220610   6.058   3.454   1.563
 6571SOL     OW20611   2.721   6.411   3.845
 6571SOL    HW120612   2.640   6.462   3.816
 6571SOL    HW220613   2.759   6.361   3.768
 6572SOL     OW20614   1.135   4.248   6.701
 6572SOL    HW120615   1.125   4.152   6.724
 6572SOL    HW220616   1.216   4.285   6.746
 6573SOL     OW20617   1.779   1.902   2.048
 6573SOL    HW120618   1.790   1.808   2.083
 6573SOL    HW220619   1.683   1.927   2.050
 6574SOL     OW20620   1.769   4.932   3.786
 6574SOL    HW120621   1.819   4.876   3.853
 6574SOL    HW220622   1.829   5.003   3.751
 6575SOL     OW20623   2.038   0.838   2.263
 6575SOL    HW120624   2.089   0.886   2.334
 6575SOL    HW220625   1.940   0.845   2.281
 6576SOL     OW20626   1.434   6.543   4.352
 6576SOL    HW120627   1.456   6.468   4.414
 6576SOL    HW220628   1.411   6.625   4.404
 6577SOL     OW20629   6.604   2.738   4.749
 6577SOL    HW120630   6.537   2.750   4.677
 6577SOL    HW220631   6.640   2.827   4.776
 6578SOL     OW20632   6.827   5.245   3.155
 6578SOL    HW120633   6.743   5.206   3.116
 6578SOL    HW220634   6.855   5.324   3.101
 6579SOL     OW20635   0.897   3.999   2.716
 6579SOL    HW120636   0.872   4.061   2.642
 6579SOL    HW220637   0.961   4.046   2.778
 6580SOL     OW20638   5.851   2.653   1.560
 6580SOL    HW120639   5.809   2.598   1.488
 6580SOL    HW220640   5.833   2.611   1.649
 6581SOL     OW20641   2.460   2.481   5.531
 6581SOL    HW120642   2.382   2.489   5.470
 6581SOL    HW220643   2.531   2.547   5.503
 6582SOL     OW20644   0.004   0.357   2.262
 6582SOL    HW120645   0.052   0.274   2.232
 6582SOL    HW220646   0.023   0.374   2.358
 6583SOL     OW20647   5.204   2.159   5.331
 6583SOL    HW120648   5.286   2.154   5.275
 6583SOL    HW220649   5.158   2.070   5.332
 6584SOL     OW20650   5.709   2.051   6.815
 6584SOL    HW120651   5.671   2.030   6.725
 6584SOL    HW220652   5.636   2.046   6.883
 6585SOL     OW20653   2.099   0.804   0.804
 6585SOL    HW120654   2.044   0.827   0.884
 6585SOL    HW220655   2.196   0.816   0.826
 6586SOL     OW20656   0.042   1.233   6.837
 6586SOL    HW120657   0.124   1.290   6.834
 6586SOL    HW220658   0.068   1.137   6.848
 6587SOL     OW20659   2.021   6.940   2.557
 6587SOL    HW120660   1.999   7.007   2.628
 6587SOL    HW220661   2.063   6.986   2.479
 6588SOL     OW20662   2.110   2.767   0.138
 6588SOL    HW120663   2.089   2.851   0.088
 6588SOL    HW220664   2.085   2.688   0.082
 6589SOL     OW20665   5.075   1.549   5.598
 6589SOL    HW120666   5.109   1.491   5.672
 6589SOL    HW220667   5.038   1.491   5.525
 6590SOL     OW20668   6.372   1.099   5.645
 6590SOL    HW120669   6.352   1.124   5.550
 6590SOL    HW220670   6.419   1.174   5.690
 6591SOL     OW20671   5.192   0.992   2.680
 6591SOL    HW120672   5.280   0.992   2.727
 6591SOL    HW220673   5.127   1.050   2.729
 6592SOL     OW20674   5.430   5.760   4.580
 6592SOL    HW120675   5.497   5.703   4.533
 6592SOL    HW220676   5.362   5.702   4.624
 6593SOL     OW20677   4.353   0.921   2.849
 6593SOL    HW120678   4.294   1.001   2.845
 6593SOL    HW220679   4.422   0.927   2.777
 6594SOL     OW20680   5.875   1.082   6.734
 6594SOL    HW120681   5.901   0.985   6.726
 6594SOL    HW220682   5.957   1.138   6.734
 6595SOL     OW20683   1.450   3.746   0.182
 6595SOL    HW120684   1.429   3.789   0.270
 6595SOL    HW220685   1.521   3.677   0.194
 6596SOL     OW20686   3.506   6.487   5.130
 6596SOL    HW120687   3.575   6.511   5.198
 6596SOL    HW220688   3.421   6.462   5.176
 6597SOL     OW20689   6.717   4.540   6.719
 6597SOL    HW120690   6.697   4.442   6.717
 6597SOL    HW220691   6.769   4.565   6.638
 6598SOL     OW20692   2.191   5.665   5.021
 6598SOL    HW120693   2.119   5.700   5.080
 6598SOL    HW220694   2.235   5.741   4.973
 6599SOL     OW20695   4.786   3.558   5.533
 6599SOL    HW120696   4.741   3.469   5.532
 6599SOL    HW220697   4.884   3.545   5.547
 6600SOL     OW20698   4.342   5.572   4.276
 6600SOL    HW120699   4.289   5.530   4.350
 6600SOL    HW220700   4.287   5.576   4.193
 6601SOL     OW20701   0.777   0.178   1.363
 6601SOL    HW120702   0.688   0.224   1.357
 6601SOL    HW220703   0.842   0.236   1.412
 6602SOL     OW20704   6.135   1.514   1.867
 6602SOL    HW120705   6.205   1.490   1.934
 6602SOL    HW220706   6.178   1.534   1.779
 6603SOL     OW20707   2.579   2.006   2.634
 6603SOL    HW120708   2.582   2.076   2.563
 6603SOL    HW220709   2.592   2.049   2.724
 6604SOL     OW20710   3.911   5.906   3.257
 6604SOL    HW120711   3.979   5.964   3.213
 6604SOL    HW220712   3.943   5.880   3.348
 6605SOL     OW20713   5.914   6.580   0.025
 6605SOL    HW120714   5.915   6.525   6.964
 6605SOL    HW220715   5.987   6.648   0.021
 6606SOL     OW20716   6.208   1.700   2.709
 6606SOL    HW120717   6.159   1.655   2.635
 6606SOL    HW220718   6.165   1.676   2.797
 6607SOL     OW20719   1.111   1.998   3.262
 6607SOL    HW120720   1.036   1.933   3.250
 6607SOL    HW220721   1.178   1.960   3.325
 6608SOL     OW20722   5.780   4.367   4.987
 6608SOL    HW120723   5.688   4.370   5.028
 6608SOL    HW220724   5.848   4.354   5.059
 6609SOL     OW20725   5.619   1.124   6.896
 6609SOL    HW120726   5.697   1.123   6.834
 6609SOL    HW220727   5.592   1.219   6.914
 6610SOL     OW20728   2.940   0.826   0.541
 6610SOL    HW120729   2.846   0.855   0.527
 6610SOL    HW220730   2.994   0.902   0.578
 6611SOL     OW20731   5.319   3.160   2.973
 6611SOL    HW120732   5.404   3.121   3.009
 6611SOL    HW220733   5.308   3.253   3.008
 6612SOL     OW20734   1.209   5.727   6.210
 6612SOL    HW120735   1.124   5.681   6.182
 6612SOL    HW220736   1.197   5.826   6.204
 6613SOL     OW20737   5.001   4.832   1.077
 6613SOL    HW120738   5.029   4.919   1.118
 6613SOL    HW220739   5.062   4.759   1.110
 6614SOL     OW20740   4.942   5.462   5.849
 6614SOL    HW120741   4.897   5.518   5.780
 6614SOL    HW220742   4.932   5.506   5.939
 6615SOL     OW20743   0.892   4.607   5.219
 6615SOL    HW120744   0.947   4.580   5.140
 6615SOL    HW220745   0.872   4.705   5.213
 6616SOL     OW20746   4.797   0.637   4.513
 6616SOL    HW120747   4.857   0.631   4.434
 6616SOL    HW220748   4.741   0.719   4.507
 6617SOL     OW20749   4.711   6.839   5.081
 6617SOL    HW120750   4.663   6.877   5.160
 6617SOL    HW220751   4.802   6.808   5.109
 6618SOL     OW20752   0.645   5.290   1.237
 6618SOL    HW120753   0.604   5.239   1.312
 6618SOL    HW220754   0.596   5.376   1.225
 6619SOL     OW20755   6.546   6.303   1.719
 6619SOL    HW120756   6.587   6.212   1.718
 6619SOL    HW220757   6.446   6.294   1.713
 6620SOL     OW20758   4.037   3.182   5.633
 6620SOL    HW120759   3.991   3.221   5.713
 6620SOL    HW220760   3.988   3.099   5.604
 6621SOL     OW20761   2.430   3.758   0.275
 6621SOL    HW120762   2.495   3.833   0.279
 6621SOL    HW220763   2.479   3.671   0.265
 6622SOL     OW20764   6.131   6.604   0.808
 6622SOL    HW120765   6.065   6.550   0.757
 6622SOL    HW220766   6.212   6.549   0.827
 6623SOL     OW20767   3.510   3.786   2.364
 6623SOL    HW120768   3.592   3.805   2.417
 6623SOL    HW220769   3.522   3.818   2.270
 6624SOL     OW20770   4.602   5.291   3.782
 6624SOL    HW120771   4.545   5.324   3.857
 6624SOL    HW220772   4.695   5.329   3.791
 6625SOL     OW20773   5.544   0.394   6.858
 6625SOL    HW120774   5.541   0.349   6.769
 6625SOL    HW220775   5.561   0.492   6.846
 6626SOL     OW20776   3.101   5.383   3.611
 6626SOL    HW120777   3.033   5.366   3.682
 6626SOL    HW220778   3.063   5.445   3.542
 6627SOL     OW20779   1.995   6.107   1.674
 6627SOL    HW120780   1.994   6.148   1.765
 6627SOL    HW220781   2.086   6.118   1.633
 6628SOL     OW20782   3.846   6.059   3.571
 6628SOL    HW120783   3.880   6.145   3.535
 6628SOL    HW220784   3.762   6.033   3.524
 6629SOL     OW20785   3.582   3.663   0.499
 6629SOL    HW120786   3.654   3.733   0.498
 6629SOL    HW220787   3.619   3.578   0.462
 6630SOL     OW20788   2.832   1.893   6.074
 6630SOL    HW120789   2.923   1.878   6.112
 6630SOL    HW220790   2.788   1.970   6.121
 6631SOL     OW20791   4.350   0.600   1.888
 6631SOL    HW120792   4.391   0.668   1.949
 6631SOL    HW220793   4.335   0.641   1.798
 6632SOL     OW20794   6.632   2.906   2.412
 6632SOL    HW120795   6.726   2.921   2.443
 6632SOL    HW220796   6.569   2.921   2.487
 6633SOL     OW20797   0.194   0.363   1.350
 6633SOL    HW120798   0.173   0.284   1.408
 6633SOL    HW220799   0.250   0.428   1.401
 6634SOL     OW20800   6.671   2.801   5.760
 6634SOL    HW120801   6.679   2.885   5.813
 6634SOL    HW220802   6.669   2.723   5.822
 6635SOL     OW20803   4.442   4.531   2.892
 6635SOL    HW120804   4.522   4.580   2.927
 6635SOL    HW220805   4.388   4.592   2.835
 6636SOL     OW20806   1.895   2.863   3.636
 6636SOL    HW120807   1.856   2.826   3.721
 6636SOL    HW220808   1.981   2.816   3.616
 6637SOL     OW20809   6.552   1.448   1.729
 6637SOL    HW120810   6.528   1.427   1.824
 6637SOL    HW220811   6.639   1.406   1.706
 6638SOL     OW20812   2.599   6.526   6.127
 6638SOL    HW120813   2.639   6.436   6.146
 6638SOL    HW220814   2.526   6.516   6.060
 6639SOL     OW20815   5.278   5.689   6.515
 6639SOL    HW120816   5.328   5.684   6.601
 6639SOL    HW220817   5.193   5.637   6.523
 6640SOL     OW20818   5.802   2.850   3.923
 6640SOL    HW120819   5.739   2.793   3.976
 6640SOL    HW220820   5.755   2.888   3.843
 6641SOL     OW20821   2.099   4.702   0.020
 6641SOL    HW120822   2.090   4.690   0.119
 6641SOL    HW220823   2.043   4.634   6.996
 6642SOL     OW20824   6.559   6.879   0.400
 6642SOL    HW120825   6.592   6.971   0.424
 6642SOL    HW220826   6.573   6.818   0.477
 6643SOL     OW20827   4.008   5.916   0.027
 6643SOL    HW120828   3.990   5.883   6.957
 6643SOL    HW220829   4.025   6.014   0.026
 6644SOL     OW20830   2.357   4.546   1.943
 6644SOL    HW120831   2.359   4.546   1.843
 6644SOL    HW220832   2.428   4.607   1.978
 6645SOL     OW20833   6.975   4.626   5.047
 6645SOL    HW120834   7.006   4.649   4.954
 6645SOL    HW220835   0.007   4.678   5.113
 6646SOL     OW20836   1.754   6.342   3.652
 6646SOL    HW120837   1.767   6.264   3.590
 6646SOL    HW220838   1.695   6.410   3.609
 6647SOL     OW20839   4.068   1.928   2.411
 6647SOL    HW120840   4.046   2.021   2.381
 6647SOL    HW220841   4.092   1.872   2.331
 6648SOL     OW20842   4.583   5.913   1.757
 6648SOL    HW120843   4.683   5.916   1.768
 6648SOL    HW220844   4.543   5.865   1.835
 6649SOL     OW20845   3.927   2.110   6.654
 6649SOL    HW120846   3.956   2.016   6.638
 6649SOL    HW220847   3.898   2.120   6.749
 6650SOL     OW20848   2.906   1.990   3.147
 6650SOL    HW120849   2.937   1.903   3.185
 6650SOL    HW220850   2.886   2.053   3.222
 6651SOL     OW20851   1.633   2.404   0.059
 6651SOL    HW120852   1.559   2.367   0.004
 6651SOL    HW220853   1.637   2.504   0.047
 6652SOL     OW20854   0.703   5.771   3.316
 6652SOL    HW120855   0.673   5.833   3.388
 6652SOL    HW220856   0.712   5.678   3.354
 6653SOL     OW20857   3.402   3.464   3.555
 6653SOL    HW120858   3.335   3.421   3.616
 6653SOL    HW220859   3.368   3.554   3.528
 6654SOL     OW20860   2.124   3.338   1.771
 6654SOL    HW120861   2.063   3.348   1.849
 6654SOL    HW220862   2.219   3.352   1.800
 6655SOL     OW20863   2.072   0.252   0.609
 6655SOL    HW120864   2.041   0.286   0.698
 6655SOL    HW220865   2.021   0.169   0.586
 6656SOL     OW20866   6.901   2.173   1.307
 6656SOL    HW120867   6.861   2.224   1.231
 6656SOL    HW220868   6.860   2.204   1.393
 6657SOL     OW20869   3.053   5.047   6.072
 6657SOL    HW120870   3.091   4.959   6.100
 6657SOL    HW220871   3.053   5.053   5.972
 6658SOL     OW20872   5.340   0.319   5.736
 6658SOL    HW120873   5.291   0.387   5.681
 6658SOL    HW220874   5.366   0.242   5.678
 6659SOL     OW20875   1.724   3.025   6.681
 6659SOL    HW120876   1.627   3.035   6.658
 6659SOL    HW220877   1.751   2.929   6.668
 6660SOL     OW20878   0.597   0.156   2.754
 6660SOL    HW120879   0.619   0.190   2.662
 6660SOL    HW220880   0.630   0.062   2.763
 6661SOL     OW20881   0.170   5.822   3.438
 6661SOL    HW120882   0.167   5.844   3.340
 6661SOL    HW220883   0.228   5.742   3.453
 6662SOL     OW20884   1.064   3.863   5.965
 6662SOL    HW120885   1.041   3.819   5.878
 6662SOL    HW220886   1.134   3.808   6.012
 6663SOL     OW20887   0.175   5.075   2.261
 6663SOL    HW120888   0.265   5.032   2.255
 6663SOL    HW220889   0.114   5.033   2.194
 6664SOL     OW20890   0.422   1.984   3.635
 6664SOL    HW120891   0.369   1.903   3.611
 6664SOL    HW220892   0.512   1.980   3.592
 6665SOL     OW20893   2.774   6.661   2.459
 6665SOL    HW120894   2.858   6.642   2.511
 6665SOL    HW220895   2.708   6.588   2.475
 6666SOL     OW20896   6.071   0.324   0.588
 6666SOL    HW120897   6.111   0.333   0.496
 6666SOL    HW220898   6.132   0.369   0.654
 6667SOL     OW20899   6.802   4.986   4.331
 6667SOL    HW120900   6.867   5.038   4.276
 6667SOL    HW220901   6.839   4.973   4.423
 6668SOL     OW20902   0.426   6.547   1.444
 6668SOL    HW120903   0.462   6.597   1.522
 6668SOL    HW220904   0.408   6.453   1.470
 6669SOL     OW20905   1.644   5.459   2.911
 6669SOL    HW120906   1.723   5.517   2.933
 6669SOL    HW220907   1.661   5.411   2.825
 6670SOL     OW20908   3.404   4.718   0.387
 6670SOL    HW120909   3.342   4.649   0.425
 6670SOL    HW220910   3.410   4.707   0.288
 6671SOL     OW20911   0.488   2.778   5.439
 6671SOL    HW120912   0.488   2.729   5.527
 6671SOL    HW220913   0.560   2.740   5.381
 6672SOL     OW20914   0.956   0.577   5.683
 6672SOL    HW120915   0.895   0.652   5.657
 6672SOL    HW220916   1.037   0.614   5.729
 6673SOL     OW20917   5.410   5.161   1.594
 6673SOL    HW120918   5.369   5.186   1.682
 6673SOL    HW220919   5.404   5.061   1.583
 6674SOL     OW20920   0.798   0.260   4.662
 6674SOL    HW120921   0.764   0.314   4.739
 6674SOL    HW220922   0.840   0.320   4.595
 6675SOL     OW20923   0.090   5.896   0.519
 6675SOL    HW120924   7.018   5.864   0.520
 6675SOL    HW220925   0.124   5.896   0.425
 6676SOL     OW20926   0.912   2.170   0.002
 6676SOL    HW120927   0.925   2.264   6.994
 6676SOL    HW220928   0.918   2.108   6.946
 6677SOL     OW20929   6.753   3.984   0.156
 6677SOL    HW120930   6.763   3.886   0.173
 6677SOL    HW220931   6.823   4.013   0.090
 6678SOL     OW20932   0.793   2.864   4.526
 6678SOL    HW120933   0.800   2.869   4.626
 6678SOL    HW220934   0.782   2.956   4.488
 6679SOL     OW20935   1.719   1.296   4.158
 6679SOL    HW120936   1.673   1.350   4.229
 6679SOL    HW220937   1.693   1.200   4.169
 6680SOL     OW20938   2.050   6.666   5.887
 6680SOL    HW120939   2.056   6.566   5.893
 6680SOL    HW220940   2.107   6.707   5.959
 6681SOL     OW20941   5.926   5.488   0.354
 6681SOL    HW120942   5.998   5.440   0.304
 6681SOL    HW220943   5.886   5.559   0.296
 6682SOL     OW20944   0.174   5.588   2.529
 6682SOL    HW120945   0.260   5.611   2.576
 6682SOL    HW220946   0.166   5.489   2.520
 6683SOL     OW20947   5.401   1.663   4.071
 6683SOL    HW120948   5.347   1.617   4.000
 6683SOL    HW220949   5.495   1.675   4.040
 6684SOL     OW20950   2.094   0.546   2.217
 6684SOL    HW120951   2.030   0.511   2.285
 6684SOL    HW220952   2.078   0.644   2.203
 6685SOL     OW20953   5.323   3.794   6.223
 6685SOL    HW120954   5.383   3.749   6.289
 6685SOL    HW220955   5.278   3.872   6.267
 6686SOL     OW20956   5.344   3.932   4.029
 6686SOL    HW120957   5.290   3.852   4.003
 6686SOL    HW220958   5.433   3.929   3.984
 6687SOL     OW20959   1.251   1.215   0.115
 6687SOL    HW120960   1.309   1.141   0.150
 6687SOL    HW220961   1.243   1.206   0.016
 6688SOL     OW20962   0.777   5.162   3.548
 6688SOL    HW120963   0.838   5.213   3.489
 6688SOL    HW220964   0.826   5.086   3.590
 6689SOL     OW20965   4.440   4.965   0.219
 6689SOL    HW120966   4.390   4.918   0.291
 6689SOL    HW220967   4.378   5.029   0.172
 6690SOL     OW20968   1.149   2.055   0.439
 6690SOL    HW120969   1.241   2.022   0.419
 6690SOL    HW220970   1.155   2.142   0.488
 6691SOL     OW20971   1.738   5.453   0.961
 6691SOL    HW120972   1.829   5.477   0.927
 6691SOL    HW220973   1.675   5.529   0.946
 6692SOL     OW20974   3.428   4.211   6.115
 6692SOL    HW120975   3.404   4.114   6.121
 6692SOL    HW220976   3.509   4.228   6.171
 6693SOL     OW20977   4.073   3.705   4.786
 6693SOL    HW120978   4.098   3.608   4.791
 6693SOL    HW220979   4.155   3.760   4.798
 6694SOL     OW20980   3.036   6.114   0.201
 6694SOL    HW120981   3.008   6.199   0.158
 6694SOL    HW220982   2.976   6.094   0.278
 6695SOL     OW20983   1.523   1.609   6.607
 6695SOL    HW120984   1.425   1.624   6.596
 6695SOL    HW220985   1.552   1.639   6.698
 6696SOL     OW20986   1.996   3.319   2.069
 6696SOL    HW120987   2.079   3.368   2.046
 6696SOL    HW220988   2.015   3.252   2.141
 6697SOL     OW20989   5.528   2.011   3.372
 6697SOL    HW120990   5.600   2.078   3.355
 6697SOL    HW220991   5.454   2.024   3.305
 6698SOL     OW20992   3.377   4.175   0.455
 6698SOL    HW120993   3.413   4.187   0.547
 6698SOL    HW220994   3.277   4.176   0.457
 6699SOL     OW20995   1.470   3.377   6.515
 6699SOL    HW120996   1.382   3.329   6.525
 6699SOL    HW220997   1.454   3.476   6.515
 6700SOL     OW20998   6.398   6.525   6.733
 6700SOL    HW120999   6.412   6.426   6.734
 6700SOL    HW221000   6.430   6.562   6.646
 6701SOL     OW21001   0.693   2.264   0.862
 6701SOL    HW121002   0.680   2.266   0.961
 6701SOL    HW221003   0.611   2.299   0.817
 6702SOL     OW21004   1.670   2.815   0.954
 6702SOL    HW121005   1.673   2.908   0.991
 6702SOL    HW221006   1.711   2.752   1.019
 6703SOL     OW21007   0.215   2.240   6.710
 6703SOL    HW121008   0.309   2.268   6.693
 6703SOL    HW221009   0.199   2.149   6.672
 6704SOL     OW21010   5.115   1.908   3.214
 6704SOL    HW121011   5.121   1.885   3.311
 6704SOL    HW221012   5.037   1.969   3.199
 6705SOL     OW21013   6.406   0.861   0.441
 6705SOL    HW121014   6.323   0.899   0.401
 6705SOL    HW221015   6.382   0.801   0.518
 6706SOL     OW21016   1.042   5.243   6.817
 6706SOL    HW121017   0.979   5.311   6.854
 6706SOL    HW221018   1.130   5.287   6.798
 6707SOL     OW21019   1.078   5.601   2.552
 6707SOL    HW121020   1.073   5.686   2.501
 6707SOL    HW221021   1.136   5.536   2.503
 6708SOL     OW21022   2.635   5.909   1.483
 6708SOL    HW121023   2.560   5.844   1.496
 6708SOL    HW221024   2.703   5.869   1.421
 6709SOL     OW21025   5.826   1.797   2.885
 6709SOL    HW121026   5.811   1.860   2.808
 6709SOL    HW221027   5.915   1.752   2.874
 6710SOL     OW21028   2.175   2.012   0.968
 6710SOL    HW121029   2.131   1.943   1.026
 6710SOL    HW221030   2.149   1.996   0.873
 6711SOL     OW21031   4.212   3.498   0.407
 6711SOL    HW121032   4.246   3.571   0.467
 6711SOL    HW221033   4.216   3.530   0.312
 6712SOL     OW21034   3.141   6.284   1.090
 6712SOL    HW121035   3.136   6.382   1.073
 6712SOL    HW221036   3.162   6.236   1.005
 6713SOL     OW21037   1.777   1.597   2.348
 6713SOL    HW121038   1.829   1.659   2.406
 6713SOL    HW221039   1.813   1.504   2.358
 6714SOL     OW21040   6.721   0.528   3.436
 6714SOL    HW121041   6.723   0.559   3.341
 6714SOL    HW221042   6.814   0.511   3.468
 6715SOL     OW21043   0.238   1.843   0.800
 6715SOL    HW121044   0.220   1.758   0.751
 6715SOL    HW221045   0.219   1.921   0.741
 6716SOL     OW21046   2.740   5.582   0.171
 6716SOL    HW121047   2.781   5.591   0.081
 6716SOL    HW221048   2.652   5.629   0.172
 6717SOL     OW21049   3.896   1.608   6.442
 6717SOL    HW121050   3.890   1.654   6.354
 6717SOL    HW221051   3.875   1.674   6.515
 6718SOL     OW21052   3.390   6.806   6.981
 6718SOL    HW121053   3.315   6.769   6.927
 6718SOL    HW221054   3.354   6.839   0.046
 6719SOL     OW21055   0.435   0.361   5.772
 6719SOL    HW121056   0.447   0.311   5.858
 6719SOL    HW221057   0.383   0.305   5.708
 6720SOL     OW21058   1.816   4.429   1.518
 6720SOL    HW121059   1.852   4.420   1.425
 6720SOL    HW221060   1.810   4.525   1.543
 6721SOL     OW21061   6.279   6.211   3.198
 6721SOL    HW121062   6.195   6.237   3.244
 6721SOL    HW221063   6.316   6.289   3.148
 6722SOL     OW21064   5.016   4.487   6.794
 6722SOL    HW121065   5.070   4.405   6.775
 6722SOL    HW221066   4.929   4.460   6.837
 6723SOL     OW21067   4.477   0.406   2.932
 6723SOL    HW121068   4.547   0.335   2.934
 6723SOL    HW221069   4.519   0.493   2.904
 6724SOL     OW21070   3.374   4.820   5.563
 6724SOL    HW121071   3.410   4.911   5.583
 6724SOL    HW221072   3.415   4.787   5.478
 6725SOL     OW21073   0.036   5.078   1.890
 6725SOL    HW121074   0.035   5.013   1.966
 6725SOL    HW221075   0.092   5.041   1.816
 6726SOL     OW21076   2.471   2.596   1.954
 6726SOL    HW121077   2.424   2.514   1.919
 6726SOL    HW221078   2.404   2.668   1.969
 6727SOL     OW21079   3.765   3.834   0.377
 6727SOL    HW121080   3.713   3.918   0.362
 6727SOL    HW221081   3.838   3.827   0.309
 6728SOL     OW21082   4.784   1.568   4.340
 6728SOL    HW121083   4.801   1.501   4.267
 6728SOL    HW221084   4.706   1.625   4.315
 6729SOL     OW21085   5.653   6.049   2.795
 6729SOL    HW121086   5.683   5.968   2.744
 6729SOL    HW221087   5.732   6.093   2.838
 6730SOL     OW21088   1.217   0.225   1.840
 6730SOL    HW121089   1.230   0.321   1.864
 6730SOL    HW221090   1.130   0.214   1.793
 6731SOL     OW21091   2.417   4.273   1.919
 6731SOL    HW121092   2.406   4.367   1.952
 6731SOL    HW221093   2.416   4.210   1.996
 6732SOL     OW21094   1.891   4.825   0.861
 6732SOL    HW121095   1.906   4.870   0.949
 6732SOL    HW221096   1.974   4.776   0.834
 6733SOL     OW21097   6.237   5.805   4.612
 6733SOL    HW121098   6.221   5.709   4.587
 6733SOL    HW221099   6.258   5.811   4.709
 6734SOL     OW21100   2.807   3.525   5.274
 6734SOL    HW121101   2.748   3.444   5.272
 6734SOL    HW221102   2.753   3.605   5.299
 6735SOL     OW21103   7.022   5.566   6.305
 6735SOL    HW121104   0.053   5.521   6.234
 6735SOL    HW221105   0.008   5.515   6.391
 6736SOL     OW21106   2.134   3.812   2.849
 6736SOL    HW121107   2.165   3.907   2.849
 6736SOL    HW221108   2.176   3.763   2.772
 6737SOL     OW21109   1.926   0.084   1.236
 6737SOL    HW121110   2.001   0.026   1.204
 6737SOL    HW221111   1.876   0.037   1.308
 6738SOL     OW21112   4.107   1.229   1.640
 6738SOL    HW121113   4.036   1.278   1.589
 6738SOL    HW221114   4.082   1.226   1.737
 6739SOL     OW21115   4.656   0.469   4.795
 6739SOL    HW121116   4.632   0.386   4.746
 6739SOL    HW221117   4.752   0.491   4.779
 6740SOL     OW21118   5.963   3.321   5.434
 6740SOL    HW121119   5.919   3.345   5.521
 6740SOL    HW221120   5.908   3.251   5.388
 6741SOL     OW21121   6.861   6.960   5.777
 6741SOL    HW121122   6.881   0.016   5.719
 6741SOL    HW221123   6.904   6.878   5.739
 6742SOL     OW21124   6.211   5.839   4.913
 6742SOL    HW121125   6.231   5.872   5.006
 6742SOL    HW221126   6.122   5.873   4.885
 6743SOL     OW21127   5.235   2.374   0.967
 6743SOL    HW121128   5.333   2.387   0.983
 6743SOL    HW221129   5.195   2.460   0.936
 6744SOL     OW21130   5.241   5.447   5.140
 6744SOL    HW121131   5.328   5.409   5.172
 6744SOL    HW221132   5.175   5.445   5.215
 6745SOL     OW21133   0.860   3.721   3.054
 6745SOL    HW121134   0.932   3.697   2.989
 6745SOL    HW221135   0.810   3.638   3.080
 6746SOL     OW21136   6.787   1.018   0.999
 6746SOL    HW121137   6.733   1.068   0.931
 6746SOL    HW221138   6.747   0.928   1.014
 6747SOL     OW21139   4.821   6.535   6.898
 6747SOL    HW121140   4.899   6.552   6.838
 6747SOL    HW221141   4.848   6.473   6.972
 6748SOL     OW21142   0.384   6.582   1.872
 6748SOL    HW121143   0.451   6.653   1.853
 6748SOL    HW221144   0.425   6.492   1.855
 6749SOL     OW21145   3.457   6.069   0.929
 6749SOL    HW121146   3.371   6.073   0.878
 6749SOL    HW221147   3.523   6.012   0.878
 6750SOL     OW21148   2.440   3.136   5.445
 6750SOL    HW121149   2.345   3.166   5.448
 6750SOL    HW221150   2.464   3.110   5.351
 6751SOL     OW21151   3.227   2.022   5.990
 6751SOL    HW121152   3.184   1.935   6.014
 6751SOL    HW221153   3.161   2.097   6.002
 6752SOL     OW21154   6.003   2.129   0.856
 6752SOL    HW121155   5.930   2.098   0.795
 6752SOL    HW221156   6.085   2.074   0.840
 6753SOL     OW21157   5.795   1.579   6.433
 6753SOL    HW121158   5.795   1.555   6.335
 6753SOL    HW221159   5.705   1.560   6.471
 6754SOL     OW21160   4.841   1.512   0.028
 6754SOL    HW121161   4.915   1.526   0.094
 6754SOL    HW221162   4.830   1.594   6.996
 6755SOL     OW21163   5.063   1.871   3.493
 6755SOL    HW121164   5.047   1.965   3.521
 6755SOL    HW221165   5.086   1.815   3.574
 6756SOL     OW21166   5.013   4.411   3.727
 6756SOL    HW121167   4.948   4.368   3.790
 6756SOL    HW221168   4.963   4.445   3.647
 6757SOL     OW21169   5.899   5.105   1.749
 6757SOL    HW121170   5.822   5.045   1.728
 6757SOL    HW221171   5.977   5.080   1.691
 6758SOL     OW21172   6.053   1.556   2.902
 6758SOL    HW121173   6.117   1.505   2.845
 6758SOL    HW221174   5.984   1.494   2.939
 6759SOL     OW21175   1.159   4.330   3.700
 6759SOL    HW121176   1.123   4.418   3.731
 6759SOL    HW221177   1.209   4.342   3.615
 6760SOL     OW21178   0.610   4.094   5.631
 6760SOL    HW121179   0.590   4.008   5.678
 6760SOL    HW221180   0.708   4.102   5.616
 6761SOL     OW21181   6.144   3.319   6.247
 6761SOL    HW121182   6.133   3.416   6.265
 6761SOL    HW221183   6.233   3.288   6.282
 6762SOL     OW21184   6.416   4.349   3.054
 6762SOL    HW121185   6.412   4.299   2.967
 6762SOL    HW221186   6.334   4.329   3.108
 6763SOL     OW21187   6.618   6.546   5.027
 6763SOL    HW121188   6.528   6.565   4.987
 6763SOL    HW221189   6.684   6.613   4.994
 6764SOL     OW21190   1.865   3.134   6.900
 6764SOL    HW121191   1.899   3.217   6.856
 6764SOL    HW221192   1.797   3.090   6.840
 6765SOL     OW21193   4.976   4.989   2.750
 6765SOL    HW121194   4.895   5.046   2.762
 6765SOL    HW221195   5.055   5.047   2.729
 6766SOL     OW21196   1.823   1.931   5.658
 6766SOL    HW121197   1.910   1.979   5.655
 6766SOL    HW221198   1.839   1.833   5.648
 6767SOL     OW21199   0.821   2.662   5.901
 6767SOL    HW121200   0.783   2.702   5.818
 6767SOL    HW221201   0.844   2.734   5.966
 6768SOL     OW21202   6.791   1.355   5.818
 6768SOL    HW121203   6.722   1.355   5.891
 6768SOL    HW221204   6.854   1.432   5.831
 6769SOL     OW21205   0.970   2.395   6.878
 6769SOL    HW121206   1.040   2.465   6.867
 6769SOL    HW221207   0.965   2.339   6.796
 6770SOL     OW21208   6.655   1.368   4.782
 6770SOL    HW121209   6.642   1.431   4.706
 6770SOL    HW221210   6.683   1.419   4.864
 6771SOL     OW21211   5.149   1.806   2.508
 6771SOL    HW121212   5.089   1.727   2.494
 6771SOL    HW221213   5.225   1.803   2.444
 6772SOL     OW21214   1.083   0.696   1.507
 6772SOL    HW121215   1.055   0.775   1.560
 6772SOL    HW221216   1.179   0.675   1.526
 6773SOL     OW21217   1.534   0.462   2.039
 6773SOL    HW121218   1.483   0.494   2.119
 6773SOL    HW221219   1.473   0.458   1.960
 6774SOL     OW21220   3.531   1.457   6.017
 6774SOL    HW121221   3.481   1.495   5.939
 6774SOL    HW221222   3.591   1.383   5.985
 6775SOL     OW21223   1.244   2.887   4.740
 6775SOL    HW121224   1.191   2.813   4.782
 6775SOL    HW221225   1.341   2.870   4.754
 6776SOL     OW21226   2.964   3.560   3.973
 6776SOL    HW121227   3.048   3.598   3.934
 6776SOL    HW221228   2.928   3.623   4.042
 6777SOL     OW21229   0.525   6.975   6.123
 6777SOL    HW121230   0.618   6.975   6.086
 6777SOL    HW221231   0.525   6.934   6.214
 6778SOL     OW21232   6.886   6.224   2.461
 6778SOL    HW121233   6.880   6.145   2.523
 6778SOL    HW221234   6.968   6.277   2.483
 6779SOL     OW21235   4.180   4.700   6.801
 6779SOL    HW121236   4.248   4.695   6.874
 6779SOL    HW221237   4.109   4.765   6.826
 6780SOL     OW21238   4.221   0.320   2.905
 6780SOL    HW121239   4.187   0.300   2.997
 6780SOL    HW221240   4.309   0.367   2.912
 6781SOL     OW21241   6.489   3.191   3.290
 6781SOL    HW121242   6.492   3.245   3.374
 6781SOL    HW221243   6.523   3.098   3.308
 6782SOL     OW21244   0.611   1.374   3.721
 6782SOL    HW121245   0.592   1.472   3.719
 6782SOL    HW221246   0.679   1.352   3.651
 6783SOL     OW21247   0.724   6.330   6.127
 6783SOL    HW121248   0.755   6.291   6.214
 6783SOL    HW221249   0.783   6.296   6.053
 6784SOL     OW21250   1.522   4.644   0.670
 6784SOL    HW121251   1.609   4.627   0.624
 6784SOL    HW221252   1.539   4.675   0.763
 6785SOL     OW21253   5.423   4.543   2.317
 6785SOL    HW121254   5.387   4.500   2.235
 6785SOL    HW221255   5.351   4.549   2.386
 6786SOL     OW21256   6.421   1.958   5.405
 6786SOL    HW121257   6.331   1.956   5.361
 6786SOL    HW221258   6.485   2.009   5.348
 6787SOL     OW21259   3.199   1.208   0.779
 6787SOL    HW121260   3.116   1.238   0.731
 6787SOL    HW221261   3.197   1.242   0.872
 6788SOL     OW21262   0.784   4.074   1.561
 6788SOL    HW121263   0.750   4.165   1.534
 6788SOL    HW221264   0.816   4.025   1.480
 6789SOL     OW21265   5.670   4.105   2.470
 6789SOL    HW121266   5.629   4.182   2.518
 6789SOL    HW221267   5.600   4.059   2.415
 6790SOL     OW21268   0.937   5.746   0.798
 6790SOL    HW121269   0.866   5.805   0.838
 6790SOL    HW221270   0.994   5.800   0.736
 6791SOL     OW21271   2.760   6.441   4.132
 6791SOL    HW121272   2.735   6.419   4.038
 6791SOL    HW221273   2.762   6.540   4.143
 6792SOL     OW21274   3.402   6.123   6.453
 6792SOL    HW121275   3.419   6.147   6.549
 6792SOL    HW221276   3.488   6.099   6.409
 6793SOL     OW21277   3.059   3.794   6.766
 6793SOL    HW121278   3.037   3.815   6.861
 6793SOL    HW221279   2.997   3.844   6.705
 6794SOL     OW21280   5.201   2.723   4.205
 6794SOL    HW121281   5.241   2.671   4.281
 6794SOL    HW221282   5.159   2.806   4.241
 6795SOL     OW21283   0.646   0.764   1.618
 6795SOL    HW121284   0.723   0.756   1.681
 6795SOL    HW221285   0.568   0.713   1.653
 6796SOL     OW21286   6.613   2.681   2.260
 6796SOL    HW121287   6.704   2.658   2.224
 6796SOL    HW221288   6.618   2.769   2.308
 6797SOL     OW21289   2.121   3.410   1.325
 6797SOL    HW121290   2.120   3.500   1.369
 6797SOL    HW221291   2.035   3.396   1.277
 6798SOL     OW21292   5.061   0.913   2.168
 6798SOL    HW121293   5.041   0.895   2.072
 6798SOL    HW221294   4.998   0.862   2.226
 6799SOL     OW21295   5.992   7.018   2.624
 6799SOL    HW121296   5.922   6.947   2.633
 6799SOL    HW221297   5.994   0.027   2.529
 6800SOL     OW21298   6.863   3.056   2.491
 6800SOL    HW121299   6.837   3.086   2.583
 6800SOL    HW221300   6.862   3.134   2.429
 6801SOL     OW21301   1.773   4.868   5.324
 6801SOL    HW121302   1.823   4.829   5.402
 6801SOL    HW221303   1.728   4.794   5.274
 6802SOL     OW21304   2.722   4.792   1.828
 6802SOL    HW121305   2.796   4.859   1.817
 6802SOL    HW221306   2.752   4.721   1.892
 6803SOL     OW21307   5.379   5.367   6.848
 6803SOL    HW121308   5.291   5.319   6.853
 6803SOL    HW221309   5.412   5.385   6.941
 6804SOL     OW21310   3.205   5.324   1.727
 6804SOL    HW121311   3.263   5.310   1.807
 6804SOL    HW221312   3.208   5.420   1.700
 6805SOL     OW21313   0.756   4.741   3.765
 6805SOL    HW121314   0.704   4.826   3.761
 6805SOL    HW221315   0.761   4.700   3.674
 6806SOL     OW21316   5.545   3.710   2.743
 6806SOL    HW121317   5.599   3.708   2.659
 6806SOL    HW221318   5.566   3.630   2.798
 6807SOL     OW21319   3.186   3.938   2.321
 6807SOL    HW121320   3.213   3.845   2.299
 6807SOL    HW221321   3.103   3.962   2.270
 6808SOL     OW21322   3.388   0.095   2.993
 6808SOL    HW121323   3.422   0.003   2.974
 6808SOL    HW221324   3.352   0.099   3.086
 6809SOL     OW21325   5.755   2.258   1.020
 6809SOL    HW121326   5.742   2.354   0.995
 6809SOL    HW221327   5.850   2.243   1.048
 6810SOL     OW21328   2.540   0.516   4.355
 6810SOL    HW121329   2.444   0.535   4.337
 6810SOL    HW221330   2.559   0.419   4.335
 6811SOL     OW21331   6.467   1.052   0.979
 6811SOL    HW121332   6.446   0.957   0.957
 6811SOL    HW221333   6.389   1.110   0.956
 6812SOL     OW21334   3.342   4.610   5.301
 6812SOL    HW121335   3.256   4.640   5.260
 6812SOL    HW221336   3.323   4.540   5.370
 6813SOL     OW21337   0.278   4.105   1.982
 6813SOL    HW121338   0.362   4.086   2.034
 6813SOL    HW221339   0.222   4.022   1.978
 6814SOL     OW21340   4.798   1.409   1.864
 6814SOL    HW121341   4.849   1.472   1.923
 6814SOL    HW221342   4.728   1.362   1.918
 6815SOL     OW21343   0.605   6.162   6.875
 6815SOL    HW121344   0.590   6.063   6.868
 6815SOL    HW221345   0.641   6.184   6.966
 6816SOL     OW21346   6.333   0.429   3.795
 6816SOL    HW121347   6.240   0.423   3.761
 6816SOL    HW221348   6.367   0.523   3.782
 6817SOL     OW21349   5.319   0.988   1.917
 6817SOL    HW121350   5.359   0.965   1.829
 6817SOL    HW221351   5.362   0.934   1.989
 6818SOL     OW21352   0.670   0.580   5.407
 6818SOL    HW121353   0.583   0.592   5.456
 6818SOL    HW221354   0.693   0.483   5.406
 6819SOL     OW21355   5.088   3.997   1.276
 6819SOL    HW121356   5.120   3.962   1.364
 6819SOL    HW221357   5.119   4.092   1.265
 6820SOL     OW21358   2.639   4.308   1.399
 6820SOL    HW121359   2.586   4.322   1.483
 6820SOL    HW221360   2.675   4.396   1.368
 6821SOL     OW21361   3.228   3.056   6.007
 6821SOL    HW121362   3.132   3.071   5.983
 6821SOL    HW221363   3.240   2.962   6.038
 6822SOL     OW21364   6.063   3.767   5.504
 6822SOL    HW121365   6.048   3.849   5.561
 6822SOL    HW221366   5.976   3.739   5.463
 6823SOL     OW21367   0.194   3.036   5.687
 6823SOL    HW121368   0.170   2.983   5.768
 6823SOL    HW221369   0.118   3.035   5.622
 6824SOL     OW21370   0.984   0.736   4.435
 6824SOL    HW121371   0.936   0.667   4.380
 6824SOL    HW221372   1.056   0.778   4.380
 6825SOL     OW21373   4.189   4.444   1.130
 6825SOL    HW121374   4.255   4.454   1.204
 6825SOL    HW221375   4.096   4.454   1.165
 6826SOL     OW21376   5.447   0.729   3.700
 6826SOL    HW121377   5.514   0.662   3.732
 6826SOL    HW221378   5.484   0.778   3.622
 6827SOL     OW21379   4.736   5.945   5.565
 6827SOL    HW121380   4.824   5.903   5.543
 6827SOL    HW221381   4.664   5.875   5.561
 6828SOL     OW21382   2.824   2.228   2.528
 6828SOL    HW121383   2.849   2.142   2.486
 6828SOL    HW221384   2.805   2.296   2.457
 6829SOL     OW21385   5.323   5.855   4.269
 6829SOL    HW121386   5.415   5.815   4.271
 6829SOL    HW221387   5.331   5.955   4.259
 6830SOL     OW21388   3.880   6.158   2.258
 6830SOL    HW121389   3.947   6.226   2.288
 6830SOL    HW221390   3.925   6.069   2.250
 6831SOL     OW21391   1.424   1.029   6.762
 6831SOL    HW121392   1.392   0.934   6.772
 6831SOL    HW221393   1.506   1.043   6.818
 6832SOL     OW21394   2.623   3.080   0.119
 6832SOL    HW121395   2.616   2.982   0.140
 6832SOL    HW221396   2.717   3.101   0.092
 6833SOL     OW21397   4.688   5.019   0.004
 6833SOL    HW121398   4.719   4.993   6.936
 6833SOL    HW221399   4.640   4.941   0.046
 6834SOL     OW21400   6.116   5.649   5.175
 6834SOL    HW121401   6.153   5.557   5.164
 6834SOL    HW221402   6.191   5.715   5.173
 6835SOL     OW21403   3.607   0.299   3.328
 6835SOL    HW121404   3.694   0.311   3.375
 6835SOL    HW221405   3.552   0.383   3.338
 6836SOL     OW21406   0.298   4.574   6.983
 6836SOL    HW121407   0.253   4.663   6.996
 6836SOL    HW221408   0.232   4.510   6.943
 6837SOL     OW21409   6.445   1.083   1.813
 6837SOL    HW121410   6.369   1.102   1.875
 6837SOL    HW221411   6.528   1.126   1.848
 6838SOL     OW21412   3.103   4.046   5.951
 6838SOL    HW121413   3.045   4.025   5.873
 6838SOL    HW221414   3.136   4.140   5.944
 6839SOL     OW21415   5.827   2.639   5.831
 6839SOL    HW121416   5.914   2.620   5.787
 6839SOL    HW221417   5.755   2.583   5.790
 6840SOL     OW21418   3.144   6.389   4.458
 6840SOL    HW121419   3.160   6.483   4.427
 6840SOL    HW221420   3.085   6.343   4.392
 6841SOL     OW21421   4.572   6.815   0.740
 6841SOL    HW121422   4.623   6.852   0.662
 6841SOL    HW221423   4.476   6.844   0.735
 6842SOL     OW21424   0.490   3.656   3.222
 6842SOL    HW121425   0.451   3.739   3.261
 6842SOL    HW221426   0.453   3.642   3.130
 6843SOL     OW21427   4.842   2.752   2.059
 6843SOL    HW121428   4.813   2.848   2.052
 6843SOL    HW221429   4.811   2.714   2.146
 6844SOL     OW21430   3.646   0.081   4.534
 6844SOL    HW121431   3.698   0.072   4.449
 6844SOL    HW221432   3.685   0.021   4.604
 6845SOL     OW21433   4.123   4.130   0.271
 6845SOL    HW121434   4.135   4.046   0.219
 6845SOL    HW221435   4.212   4.174   0.285
 6846SOL     OW21436   3.975   3.758   3.452
 6846SOL    HW121437   3.962   3.844   3.500
 6846SOL    HW221438   3.950   3.682   3.511
 6847SOL     OW21439   6.435   3.187   2.239
 6847SOL    HW121440   6.434   3.170   2.141
 6847SOL    HW221441   6.503   3.129   2.283
 6848SOL     OW21442   0.484   5.860   4.476
 6848SOL    HW121443   0.464   5.865   4.379
 6848SOL    HW221444   0.467   5.766   4.508
 6849SOL     OW21445   3.462   0.090   5.162
 6849SOL    HW121446   3.467   0.026   5.239
 6849SOL    HW221447   3.367   0.095   5.130
 6850SOL     OW21448   5.603   4.081   1.616
 6850SOL    HW121449   5.621   4.100   1.713
 6850SOL    HW221450   5.547   4.154   1.577
 6851SOL     OW21451   1.639   5.465   5.512
 6851SOL    HW121452   1.722   5.513   5.482
 6851SOL    HW221453   1.593   5.518   5.583
 6852SOL     OW21454   6.548   5.323   2.292
 6852SOL    HW121455   6.583   5.402   2.240
 6852SOL    HW221456   6.464   5.349   2.339
 6853SOL     OW21457   6.502   4.419   4.760
 6853SOL    HW121458   6.488   4.330   4.801
 6853SOL    HW221459   6.431   4.483   4.792
 6854SOL     OW21460   6.337   1.748   6.590
 6854SOL    HW121461   6.400   1.723   6.664
 6854SOL    HW221462   6.339   1.847   6.577
 6855SOL     OW21463   3.184   6.610   2.377
 6855SOL    HW121464   3.282   6.593   2.378
 6855SOL    HW221465   3.155   6.639   2.286
 6856SOL     OW21466   0.697   5.338   5.620
 6856SOL    HW121467   0.633   5.385   5.681
 6856SOL    HW221468   0.741   5.263   5.670
 6857SOL     OW21469   4.501   1.575   6.447
 6857SOL    HW121470   4.464   1.642   6.511
 6857SOL    HW221471   4.429   1.509   6.423
 6858SOL     OW21472   3.754   3.020   6.734
 6858SOL    HW121473   3.688   3.091   6.758
 6858SOL    HW221474   3.713   2.930   6.749
 6859SOL     OW21475   3.163   0.759   0.372
 6859SOL    HW121476   3.118   0.778   0.459
 6859SOL    HW221477   3.142   0.831   0.307
 6860SOL     OW21478   4.428   3.819   6.855
 6860SOL    HW121479   4.439   3.871   6.940
 6860SOL    HW221480   4.460   3.873   6.778
 6861SOL     OW21481   5.254   3.939   0.961
 6861SOL    HW121482   5.189   3.995   0.910
 6861SOL    HW221483   5.254   3.968   1.057
 6862SOL     OW21484   2.776   5.586   4.083
 6862SOL    HW121485   2.735   5.524   4.150
 6862SOL    HW221486   2.753   5.680   4.107
 6863SOL     OW21487   1.328   2.920   3.387
 6863SOL    HW121488   1.281   2.983   3.325
 6863SOL    HW221489   1.392   2.972   3.444
 6864SOL     OW21490   4.386   5.527   6.477
 6864SOL    HW121491   4.331   5.610   6.482
 6864SOL    HW221492   4.445   5.530   6.396
 6865SOL     OW21493   7.006   3.641   4.761
 6865SOL    HW121494   0.032   3.558   4.788
 6865SOL    HW221495   6.911   3.617   4.739
 6866SOL     OW21496   0.852   3.396   2.548
 6866SOL    HW121497   0.951   3.388   2.560
 6866SOL    HW221498   0.817   3.313   2.504
 6867SOL     OW21499   2.081   5.339   3.042
 6867SOL    HW121500   2.171   5.373   3.013
 6867SOL    HW221501   2.036   5.408   3.099
 6868SOL     OW21502   1.945   5.476   4.696
 6868SOL    HW121503   1.946   5.549   4.764
 6868SOL    HW221504   2.015   5.409   4.717
 6869SOL     OW21505   6.892   3.375   4.824
 6869SOL    HW121506   6.848   3.377   4.913
 6869SOL    HW221507   6.962   3.303   4.822
 6870SOL     OW21508   5.706   3.648   2.529
 6870SOL    HW121509   5.800   3.668   2.555
 6870SOL    HW221510   5.695   3.662   2.430
 6871SOL     OW21511   5.017   6.021   2.124
 6871SOL    HW121512   4.926   6.003   2.087
 6871SOL    HW221513   5.033   5.962   2.203
 6872SOL     OW21514   3.379   3.569   0.679
 6872SOL    HW121515   3.289   3.570   0.637
 6872SOL    HW221516   3.449   3.583   0.609
 6873SOL     OW21517   5.696   4.562   5.266
 6873SOL    HW121518   5.644   4.561   5.180
 6873SOL    HW221519   5.670   4.483   5.321
 6874SOL     OW21520   1.450   2.165   5.576
 6874SOL    HW121521   1.513   2.117   5.514
 6874SOL    HW221522   1.503   2.210   5.648
 6875SOL     OW21523   3.821   1.602   4.178
 6875SOL    HW121524   3.765   1.560   4.249
 6875SOL    HW221525   3.766   1.613   4.095
 6876SOL     OW21526   3.971   6.117   4.236
 6876SOL    HW121527   4.055   6.100   4.185
 6876SOL    HW221528   3.958   6.045   4.304
 6877SOL     OW21529   1.733   3.716   5.962
 6877SOL    HW121530   1.719   3.693   6.058
 6877SOL    HW221531   1.755   3.813   5.954
 6878SOL     OW21532   1.591   2.222   4.357
 6878SOL    HW121533   1.628   2.251   4.446
 6878SOL    HW221534   1.504   2.175   4.371
 6879SOL     OW21535   0.340   1.102   5.462
 6879SOL    HW121536   0.365   1.019   5.411
 6879SOL    HW221537   0.405   1.116   5.537
 6880SOL     OW21538   2.147   3.661   4.409
 6880SOL    HW121539   2.232   3.696   4.371
 6880SOL    HW221540   2.070   3.690   4.352
 6881SOL     OW21541   5.522   5.913   1.491
 6881SOL    HW121542   5.566   5.876   1.409
 6881SOL    HW221543   5.468   5.841   1.535
 6882SOL     OW21544   2.544   6.162   5.191
 6882SOL    HW121545   2.560   6.128   5.284
 6882SOL    HW221546   2.608   6.236   5.171
 6883SOL     OW21547   3.197   6.053   1.537
 6883SOL    HW121548   3.106   6.062   1.577
 6883SOL    HW221549   3.209   5.961   1.500
 6884SOL     OW21550   2.337   5.187   2.853
 6884SOL    HW121551   2.338   5.091   2.826
 6884SOL    HW221552   2.371   5.243   2.777
 6885SOL     OW21553   4.305   5.679   4.818
 6885SOL    HW121554   4.247   5.628   4.882
 6885SOL    HW221555   4.249   5.710   4.741
 6886SOL     OW21556   4.953   1.598   2.551
 6886SOL    HW121557   4.855   1.583   2.543
 6886SOL    HW221558   5.002   1.532   2.493
 6887SOL     OW21559   5.214   0.795   5.562
 6887SOL    HW121560   5.242   0.885   5.529
 6887SOL    HW221561   5.244   0.725   5.498
 6888SOL     OW21562   6.408   7.000   4.725
 6888SOL    HW121563   6.322   6.981   4.677
 6888SOL    HW221564   6.448   0.061   4.689
 6889SOL     OW21565   1.462   4.650   5.982
 6889SOL    HW121566   1.392   4.589   5.945
 6889SOL    HW221567   1.474   4.728   5.921
 6890SOL     OW21568   1.982   0.202   1.001
 6890SOL    HW121569   1.909   0.176   0.938
 6890SOL    HW221570   1.955   0.178   1.094
 6891SOL     OW21571   3.232   5.056   5.261
 6891SOL    HW121572   3.197   5.007   5.182
 6891SOL    HW221573   3.330   5.039   5.270
 6892SOL     OW21574   3.221   1.652   4.784
 6892SOL    HW121575   3.184   1.731   4.834
 6892SOL    HW221576   3.310   1.628   4.822
 6893SOL     OW21577   5.725   0.789   1.664
 6893SOL    HW121578   5.694   0.695   1.681
 6893SOL    HW221579   5.681   0.823   1.581
 6894SOL     OW21580   6.028   4.825   6.603
 6894SOL    HW121581   6.055   4.921   6.589
 6894SOL    HW221582   6.094   4.780   6.662
 6895SOL     OW21583   4.440   5.519   6.789
 6895SOL    HW121584   4.472   5.608   6.820
 6895SOL    HW221585   4.399   5.527   6.699
 6896SOL     OW21586   4.440   0.790   3.070
 6896SOL    HW121587   4.384   0.707   3.070
 6896SOL    HW221588   4.403   0.854   3.003
 6897SOL     OW21589   3.556   1.189   1.001
 6897SOL    HW121590   3.482   1.229   1.054
 6897SOL    HW221591   3.544   1.212   0.904
 6898SOL     OW21592   3.703   1.493   2.646
 6898SOL    HW121593   3.689   1.478   2.549
 6898SOL    HW221594   3.763   1.421   2.683
 6899SOL     OW21595   5.584   6.425   6.363
 6899SOL    HW121596   5.495   6.451   6.327
 6899SOL    HW221597   5.650   6.498   6.346
 6900SOL     OW21598   4.158   1.903   6.458
 6900SOL    HW121599   4.256   1.886   6.446
 6900SOL    HW221600   4.127   1.857   6.541
 6901SOL     OW21601   1.258   1.287   0.569
 6901SOL    HW121602   1.347   1.269   0.528
 6901SOL    HW221603   1.219   1.200   0.601
 6902SOL     OW21604   6.297   5.592   1.897
 6902SOL    HW121605   6.339   5.660   1.957
 6902SOL    HW221606   6.367   5.525   1.869
 6903SOL     OW21607   4.559   4.356   0.514
 6903SOL    HW121608   4.510   4.420   0.573
 6903SOL    HW221609   4.498   4.283   0.485
 6904SOL     OW21610   0.706   1.703   2.820
 6904SOL    HW121611   0.750   1.618   2.847
 6904SOL    HW221612   0.765   1.781   2.843
 6905SOL     OW21613   3.888   5.502   1.771
 6905SOL    HW121614   3.861   5.586   1.723
 6905SOL    HW221615   3.973   5.467   1.732
 6906SOL     OW21616   6.042   6.246   3.354
 6906SOL    HW121617   5.946   6.238   3.328
 6906SOL    HW221618   6.053   6.319   3.421
 6907SOL     OW21619   3.584   0.843   1.162
 6907SOL    HW121620   3.616   0.883   1.077
 6907SOL    HW221621   3.534   0.758   1.143
 6908SOL     OW21622   6.018   0.125   0.050
 6908SOL    HW121623   5.928   0.161   0.075
 6908SOL    HW221624   6.006   0.050   7.007
 6909SOL     OW21625   2.962   2.725   6.751
 6909SOL    HW121626   2.917   2.759   6.668
 6909SOL    HW221627   2.941   2.786   6.827
 6910SOL     OW21628   5.662   0.392   1.457
 6910SOL    HW121629   5.624   0.338   1.532
 6910SOL    HW221630   5.607   0.475   1.445
 6911SOL     OW21631   4.098   0.898   4.996
 6911SOL    HW121632   4.002   0.904   4.971
 6911SOL    HW221633   4.136   0.990   5.006
 6912SOL     OW21634   4.260   4.461   1.771
 6912SOL    HW121635   4.314   4.378   1.784
 6912SOL    HW221636   4.253   4.510   1.858
 6913SOL     OW21637   4.437   5.626   5.806
 6913SOL    HW121638   4.509   5.676   5.855
 6913SOL    HW221639   4.352   5.630   5.859
 6914SOL     OW21640   6.469   5.000   6.700
 6914SOL    HW121641   6.551   5.035   6.746
 6914SOL    HW221642   6.388   5.040   6.741
 6915SOL     OW21643   1.233   5.688   0.845
 6915SOL    HW121644   1.140   5.715   0.821
 6915SOL    HW221645   1.248   5.701   0.943
 6916SOL     OW21646   6.193   0.534   5.547
 6916SOL    HW121647   6.280   0.537   5.595
 6916SOL    HW221648   6.140   0.616   5.568
 6917SOL     OW21649   4.193   0.372   6.820
 6917SOL    HW121650   4.153   0.283   6.799
 6917SOL    HW221651   4.201   0.425   6.736
 6918SOL     OW21652   2.378   2.754   3.834
 6918SOL    HW121653   2.333   2.805   3.907
 6918SOL    HW221654   2.463   2.713   3.869
 6919SOL     OW21655   0.674   6.693   3.734
 6919SOL    HW121656   0.641   6.786   3.718
 6919SOL    HW221657   0.681   6.676   3.833
 6920SOL     OW21658   5.169   5.903   4.732
 6920SOL    HW121659   5.105   5.971   4.696
 6920SOL    HW221660   5.199   5.842   4.659
 6921SOL     OW21661   1.567   6.171   3.804
 6921SOL    HW121662   1.634   6.230   3.758
 6921SOL    HW221663   1.506   6.228   3.859
 6922SOL     OW21664   1.931   6.633   0.671
 6922SOL    HW121665   1.959   6.675   0.757
 6922SOL    HW221666   2.013   6.608   0.619
 6923SOL     OW21667   4.638   6.132   4.128
 6923SOL    HW121668   4.555   6.185   4.145
 6923SOL    HW221669   4.673   6.155   4.037
 6924SOL     OW21670   6.645   6.038   1.701
 6924SOL    HW121671   6.572   5.990   1.652
 6924SOL    HW221672   6.697   5.974   1.756
 6925SOL     OW21673   5.754   5.528   2.779
 6925SOL    HW121674   5.665   5.545   2.735
 6925SOL    HW221675   5.744   5.537   2.878
 6926SOL     OW21676   3.140   4.180   5.413
 6926SOL    HW121677   3.124   4.091   5.457
 6926SOL    HW221678   3.062   4.202   5.354
 6927SOL     OW21679   4.042   2.930   0.831
 6927SOL    HW121680   3.961   2.913   0.886
 6927SOL    HW221681   4.099   2.847   0.828
 6928SOL     OW21682   6.674   0.348   6.338
 6928SOL    HW121683   6.669   0.446   6.358
 6928SOL    HW221684   6.690   0.297   6.422
 6929SOL     OW21685   3.049   4.522   1.363
 6929SOL    HW121686   3.055   4.515   1.463
 6929SOL    HW221687   3.088   4.610   1.334
 6930SOL     OW21688   0.928   0.754   3.000
 6930SOL    HW121689   0.948   0.676   3.060
 6930SOL    HW221690   0.836   0.788   3.020
 6931SOL     OW21691   1.936   0.063   0.530
 6931SOL    HW121692   1.923   7.017   0.459
 6931SOL    HW221693   1.876   0.043   0.607
 6932SOL     OW21694   2.748   2.558   0.163
 6932SOL    HW121695   2.780   2.492   0.095
 6932SOL    HW221696   2.676   2.517   0.219
 6933SOL     OW21697   2.701   6.061   5.763
 6933SOL    HW121698   2.640   6.049   5.685
 6933SOL    HW221699   2.708   5.975   5.814
 6934SOL     OW21700   5.473   4.749   6.125
 6934SOL    HW121701   5.569   4.721   6.114
 6934SOL    HW221702   5.459   4.784   6.218
 6935SOL     OW21703   4.306   5.829   3.137
 6935SOL    HW121704   4.274   5.889   3.210
 6935SOL    HW221705   4.229   5.778   3.100
 6936SOL     OW21706   0.542   4.762   0.647
 6936SOL    HW121707   0.630   4.728   0.613
 6936SOL    HW221708   0.540   4.862   0.640
 6937SOL     OW21709   4.358   6.481   5.651
 6937SOL    HW121710   4.294   6.465   5.726
 6937SOL    HW221711   4.452   6.469   5.685
 6938SOL     OW21712   5.547   2.376   5.072
 6938SOL    HW121713   5.561   2.428   5.156
 6938SOL    HW221714   5.566   2.435   4.993
 6939SOL     OW21715   6.829   4.833   2.177
 6939SOL    HW121716   6.773   4.804   2.101
 6939SOL    HW221717   6.772   4.878   2.246
 6940SOL     OW21718   4.189   0.866   4.587
 6940SOL    HW121719   4.192   0.776   4.543
 6940SOL    HW221720   4.177   0.855   4.686
 6941SOL     OW21721   4.120   3.368   4.298
 6941SOL    HW121722   4.183   3.292   4.285
 6941SOL    HW221723   4.069   3.383   4.213
 6942SOL     OW21724   6.771   1.558   6.949
 6942SOL    HW121725   6.759   1.484   6.882
 6942SOL    HW221726   6.831   1.526   0.000
 6943SOL     OW21727   6.562   5.910   0.208
 6943SOL    HW121728   6.659   5.932   0.214
 6943SOL    HW221729   6.508   5.981   0.252
 6944SOL     OW21730   1.370   6.237   6.317
 6944SOL    HW121731   1.351   6.221   6.220
 6944SOL    HW221732   1.306   6.183   6.372
 6945SOL     OW21733   4.483   1.977   5.651
 6945SOL    HW121734   4.482   2.018   5.559
 6945SOL    HW221735   4.548   1.901   5.653
 6946SOL     OW21736   5.919   3.402   3.474
 6946SOL    HW121737   5.961   3.468   3.537
 6946SOL    HW221738   5.862   3.339   3.526
 6947SOL     OW21739   3.323   6.982   2.028
 6947SOL    HW121740   3.226   6.994   2.006
 6947SOL    HW221741   3.332   6.962   2.126
 6948SOL     OW21742   3.780   2.123   4.930
 6948SOL    HW121743   3.787   2.029   4.896
 6948SOL    HW221744   3.862   2.174   4.904
 6949SOL     OW21745   4.946   1.236   2.633
 6949SOL    HW121746   4.854   1.275   2.643
 6949SOL    HW221747   5.012   1.292   2.684
 6950SOL     OW21748   2.721   1.688   3.672
 6950SOL    HW121749   2.631   1.681   3.628
 6950SOL    HW221750   2.710   1.702   3.770
 6951SOL     OW21751   4.699   5.184   5.134
 6951SOL    HW121752   4.628   5.145   5.075
 6951SOL    HW221753   4.786   5.184   5.085
 6952SOL     OW21754   6.960   4.867   5.452
 6952SOL    HW121755   6.988   4.962   5.439
 6952SOL    HW221756   0.005   4.820   5.509
 6953SOL     OW21757   5.419   2.597   5.260
 6953SOL    HW121758   5.468   2.532   5.317
 6953SOL    HW221759   5.352   2.548   5.204
 6954SOL     OW21760   0.853   4.653   2.435
 6954SOL    HW121761   0.776   4.706   2.399
 6954SOL    HW221762   0.938   4.704   2.420
 6955SOL     OW21763   6.708   6.750   2.645
 6955SOL    HW121764   6.728   6.676   2.709
 6955SOL    HW221765   6.793   6.783   2.604
 6956SOL     OW21766   2.960   4.473   0.907
 6956SOL    HW121767   2.866   4.444   0.926
 6956SOL    HW221768   3.015   4.393   0.884
 6957SOL     OW21769   1.034   3.673   0.219
 6957SOL    HW121770   1.127   3.670   0.254
 6957SOL    HW221771   1.024   3.609   0.143
 6958SOL     OW21772   2.161   3.917   6.641
 6958SOL    HW121773   2.102   3.841   6.615
 6958SOL    HW221774   2.163   3.926   6.741
 6959SOL     OW21775   3.700   1.305   3.566
 6959SOL    HW121776   3.654   1.306   3.477
 6959SOL    HW221777   3.788   1.259   3.556
 6960SOL     OW21778   0.669   4.598   0.263
 6960SOL    HW121779   0.693   4.694   0.273
 6960SOL    HW221780   0.668   4.555   0.353
 6961SOL     OW21781   6.844   1.766   3.028
 6961SOL    HW121782   6.804   1.675   3.016
 6961SOL    HW221783   6.907   1.784   2.952
 6962SOL     OW21784   3.424   3.348   0.827
 6962SOL    HW121785   3.421   3.445   0.802
 6962SOL    HW221786   3.502   3.304   0.782
 6963SOL     OW21787   6.131   6.251   2.072
 6963SOL    HW121788   6.228   6.235   2.093
 6963SOL    HW221789   6.095   6.174   2.020
 6964SOL     OW21790   3.804   5.914   5.191
 6964SOL    HW121791   3.773   5.965   5.111
 6964SOL    HW221792   3.821   5.819   5.165
 6965SOL     OW21793   6.338   2.012   5.703
 6965SOL    HW121794   6.383   2.004   5.615
 6965SOL    HW221795   6.260   1.950   5.707
 6966SOL     OW21796   4.887   2.842   4.033
 6966SOL    HW121797   4.877   2.789   4.117
 6966SOL    HW221798   4.924   2.783   3.961
 6967SOL     OW21799   2.238   2.492   6.113
 6967SOL    HW121800   2.321   2.549   6.112
 6967SOL    HW221801   2.248   2.418   6.047
 6968SOL     OW21802   4.174   0.318   3.178
 6968SOL    HW121803   4.082   0.340   3.211
 6968SOL    HW221804   4.240   0.381   3.220
 6969SOL     OW21805   2.988   2.618   1.163
 6969SOL    HW121806   3.054   2.593   1.092
 6969SOL    HW221807   3.030   2.682   1.227
 6970SOL     OW21808   4.241   4.103   0.606
 6970SOL    HW121809   4.268   4.088   0.702
 6970SOL    HW221810   4.189   4.188   0.599
 6971SOL     OW21811   6.277   1.090   2.012
 6971SOL    HW121812   6.350   1.044   2.063
 6971SOL    HW221813   6.202   1.113   2.074
 6972SOL     OW21814   5.612   5.170   4.908
 6972SOL    HW121815   5.532   5.132   4.861
 6972SOL    HW221816   5.629   5.119   4.992
 6973SOL     OW21817   1.660   4.027   3.341
 6973SOL    HW121818   1.635   4.124   3.341
 6973SOL    HW221819   1.760   4.018   3.339
 6974SOL     OW21820   3.367   4.107   4.933
 6974SOL    HW121821   3.283   4.102   4.987
 6974SOL    HW221822   3.347   4.084   4.838
 6975SOL     OW21823   2.981   0.845   6.160
 6975SOL    HW121824   3.056   0.780   6.170
 6975SOL    HW221825   2.986   0.888   6.070
 6976SOL     OW21826   1.531   6.416   0.577
 6976SOL    HW121827   1.598   6.403   0.651
 6976SOL    HW221828   1.462   6.483   0.607
 6977SOL     OW21829   4.642   2.651   2.685
 6977SOL    HW121830   4.629   2.552   2.683
 6977SOL    HW221831   4.649   2.682   2.780
 6978SOL     OW21832   5.304   1.510   3.179
 6978SOL    HW121833   5.274   1.594   3.135
 6978SOL    HW221834   5.286   1.516   3.278
 6979SOL     OW21835   0.518   4.988   3.822
 6979SOL    HW121836   0.511   4.962   3.726
 6979SOL    HW221837   0.446   4.941   3.874
 6980SOL     OW21838   4.077   1.554   4.145
 6980SOL    HW121839   3.985   1.581   4.175
 6980SOL    HW221840   4.086   1.569   4.047
 6981SOL     OW21841   3.291   4.320   6.822
 6981SOL    HW121842   3.228   4.352   6.893
 6981SOL    HW221843   3.313   4.395   6.760
 6982SOL     OW21844   0.613   6.943   4.545
 6982SOL    HW121845   0.528   6.996   4.553
 6982SOL    HW221846   0.687   6.992   4.591
 6983SOL     OW21847   6.557   0.319   3.327
 6983SOL    HW121848   6.606   0.388   3.380
 6983SOL    HW221849   6.577   0.228   3.363
 6984SOL     OW21850   2.422   0.923   5.520
 6984SOL    HW121851   2.512   0.887   5.543
 6984SOL    HW221852   2.370   0.854   5.468
 6985SOL     OW21853   5.439   6.617   3.263
 6985SOL    HW121854   5.339   6.612   3.259
 6985SOL    HW221855   5.477   6.533   3.224
 6986SOL     OW21856   2.045   6.975   5.176
 6986SOL    HW121857   2.043   0.047   5.143
 6986SOL    HW221858   1.955   6.934   5.165
 6987SOL     OW21859   6.478   3.626   6.411
 6987SOL    HW121860   6.560   3.669   6.375
 6987SOL    HW221861   6.410   3.617   6.339
 6988SOL     OW21862   5.517   1.405   5.541
 6988SOL    HW121863   5.594   1.347   5.515
 6988SOL    HW221864   5.441   1.390   5.477
 6989SOL     OW21865   1.755   3.329   3.400
 6989SOL    HW121866   1.782   3.285   3.486
 6989SOL    HW221867   1.668   3.290   3.370
 6990SOL     OW21868   4.268   3.278   0.761
 6990SOL    HW121869   4.296   3.185   0.740
 6990SOL    HW221870   4.209   3.313   0.688
 6991SOL     OW21871   4.382   4.579   5.510
 6991SOL    HW121872   4.449   4.610   5.578
 6991SOL    HW221873   4.299   4.548   5.556
 6992SOL     OW21874   5.875   6.727   5.038
 6992SOL    HW121875   5.786   6.716   5.082
 6992SOL    HW221876   5.943   6.671   5.087
 6993SOL     OW21877   0.399   6.113   3.527
 6993SOL    HW121878   0.370   6.117   3.431
 6993SOL    HW221879   0.333   6.058   3.579
 6994SOL     OW21880   1.505   3.346   0.253
 6994SOL    HW121881   1.561   3.334   0.172
 6994SOL    HW221882   1.408   3.337   0.229
 6995SOL     OW21883   1.076   4.584   3.798
 6995SOL    HW121884   0.983   4.593   3.835
 6995SOL    HW221885   1.124   4.671   3.806
 6996SOL     OW21886   2.114   6.907   6.419
 6996SOL    HW121887   2.020   6.874   6.422
 6996SOL    HW221888   2.141   6.922   6.324
 6997SOL     OW21889   5.094   6.548   4.387
 6997SOL    HW121890   5.140   6.506   4.465
 6997SOL    HW221891   4.996   6.554   4.405
 6998SOL     OW21892   1.990   2.357   2.826
 6998SOL    HW121893   2.060   2.324   2.889
 6998SOL    HW221894   1.995   2.457   2.821
 6999SOL     OW21895   5.132   1.842   0.036
 6999SOL    HW121896   5.044   1.812   0.072
 6999SOL    HW221897   5.141   1.816   6.963
 7000SOL     OW21898   6.448   6.924   1.027
 7000SOL    HW121899   6.501   6.937   0.943
 7000SOL    HW221900   6.499   6.961   1.105
 7001SOL     OW21901   2.672   1.679   5.982
 7001SOL    HW121902   2.746   1.727   6.030
 7001SOL    HW221903   2.605   1.645   6.048
 7002SOL     OW21904   2.115   4.897   2.193
 7002SOL    HW121905   2.018   4.919   2.180
 7002SOL    HW221906   2.137   4.814   2.141
 7003SOL     OW21907   1.642   6.311   6.065
 7003SOL    HW121908   1.718   6.373   6.048
 7003SOL    HW221909   1.581   6.309   5.985
 7004SOL     OW21910   1.496   4.136   7.008
 7004SOL    HW121911   1.527   4.042   6.995
 7004SOL    HW221912   1.400   4.136   0.014
 7005SOL     OW21913   5.958   6.676   6.184
 7005SOL    HW121914   5.954   6.670   6.284
 7005SOL    HW221915   6.015   6.602   6.149
 7006SOL     OW21916   4.940   5.319   4.332
 7006SOL    HW121917   4.976   5.226   4.340
 7006SOL    HW221918   4.996   5.381   4.387
 7007SOL     OW21919   4.707   5.053   2.534
 7007SOL    HW121920   4.762   4.971   2.521
 7007SOL    HW221921   4.691   5.067   2.632
 7008SOL     OW21922   1.212   4.623   4.496
 7008SOL    HW121923   1.141   4.556   4.516
 7008SOL    HW221924   1.298   4.576   4.475
 7009SOL     OW21925   0.442   4.303   2.669
 7009SOL    HW121926   0.421   4.395   2.638
 7009SOL    HW221927   0.488   4.306   2.758
 7010SOL     OW21928   4.300   4.764   6.573
 7010SOL    HW121929   4.229   4.749   6.641
 7010SOL    HW221930   4.315   4.863   6.562
 7011SOL     OW21931   1.192   1.355   5.484
 7011SOL    HW121932   1.136   1.387   5.408
 7011SOL    HW221933   1.288   1.357   5.458
 7012SOL     OW21934   1.465   1.583   1.486
 7012SOL    HW121935   1.370   1.616   1.490
 7012SOL    HW221936   1.467   1.485   1.507
 7013SOL     OW21937   6.989   1.380   1.543
 7013SOL    HW121938   6.904   1.351   1.588
 7013SOL    HW221939   6.967   1.436   1.464
 7014SOL     OW21940   2.166   4.928   0.273
 7014SOL    HW121941   2.260   4.959   0.258
 7014SOL    HW221942   2.162   4.829   0.260
 7015SOL     OW21943   5.628   2.172   2.639
 7015SOL    HW121944   5.528   2.180   2.634
 7015SOL    HW221945   5.667   2.258   2.670
 7016SOL     OW21946   3.893   4.277   1.440
 7016SOL    HW121947   3.810   4.221   1.439
 7016SOL    HW221948   3.971   4.219   1.463
 7017SOL     OW21949   4.854   2.145   4.605
 7017SOL    HW121950   4.850   2.108   4.512
 7017SOL    HW221951   4.927   2.099   4.656
 7018SOL     OW21952   0.319   4.168   3.357
 7018SOL    HW121953   0.341   4.102   3.284
 7018SOL    HW221954   0.220   4.169   3.371
 7019SOL     OW21955   1.797   5.935   1.041
 7019SOL    HW121956   1.853   5.940   1.123
 7019SOL    HW221957   1.704   5.966   1.062
 7020SOL     OW21958   0.530   6.144   6.113
 7020SOL    HW121959   0.610   6.199   6.137
 7020SOL    HW221960   0.555   6.048   6.111
 7021SOL     OW21961   4.050   6.604   5.556
 7021SOL    HW121962   4.037   6.507   5.577
 7021SOL    HW221963   3.965   6.643   5.523
 7022SOL     OW21964   4.735   5.388   6.343
 7022SOL    HW121965   4.656   5.428   6.299
 7022SOL    HW221966   4.761   5.443   6.422
 7023SOL     OW21967   5.750   3.912   2.642
 7023SOL    HW121968   5.708   3.981   2.583
 7023SOL    HW221969   5.678   3.864   2.692
 7024SOL     OW21970   0.335   6.312   1.577
 7024SOL    HW121971   0.309   6.216   1.583
 7024SOL    HW221972   0.271   6.367   1.631
 7025SOL     OW21973   2.281   0.071   6.896
 7025SOL    HW121974   2.231   0.085   6.810
 7025SOL    HW221975   2.371   0.113   6.888
 7026SOL     OW21976   3.531   1.480   1.110
 7026SOL    HW121977   3.618   1.439   1.138
 7026SOL    HW221978   3.546   1.577   1.090
 7027SOL     OW21979   4.731   6.401   4.198
 7027SOL    HW121980   4.678   6.328   4.155
 7027SOL    HW221981   4.789   6.362   4.270
 7028SOL     OW21982   2.793   0.257   4.321
 7028SOL    HW121983   2.871   0.237   4.380
 7028SOL    HW221984   2.791   0.355   4.302
 7029SOL     OW21985   4.101   1.426   4.661
 7029SOL    HW121986   4.032   1.392   4.725
 7029SOL    HW221987   4.080   1.392   4.569
 7030SOL     OW21988   2.088   3.449   3.891
 7030SOL    HW121989   2.090   3.402   3.803
 7030SOL    HW221990   2.123   3.542   3.879
 7031SOL     OW21991   1.490   0.761   4.634
 7031SOL    HW121992   1.468   0.698   4.708
 7031SOL    HW221993   1.450   0.728   4.549
 7032SOL     OW21994   5.779   1.892   3.486
 7032SOL    HW121995   5.799   1.990   3.484
 7032SOL    HW221996   5.788   1.854   3.394
 7033SOL     OW21997   0.065   0.119   4.437
 7033SOL    HW121998   0.040   0.147   4.530
 7033SOL    HW221999   0.031   0.027   4.420
 7034SOL     OW22000   0.367   5.396   2.700
 7034SOL    HW122001   0.411   5.475   2.656
 7034SOL    HW222002   0.436   5.329   2.725
 7035SOL     OW22003   6.740   5.242   2.447
 7035SOL    HW122004   6.819   5.298   2.424
 7035SOL    HW222005   6.660   5.276   2.397
 7036SOL     OW22006   6.706   4.867   0.411
 7036SOL    HW122007   6.764   4.859   0.330
 7036SOL    HW222008   6.763   4.867   0.493
 7037SOL     OW22009   1.048   0.050   6.595
 7037SOL    HW122010   1.111   6.995   6.597
 7037SOL    HW222011   0.954   0.017   6.594
 7038SOL     OW22012   2.169   2.940   4.068
 7038SOL    HW122013   2.185   2.912   4.163
 7038SOL    HW222014   2.071   2.940   4.049
 7039SOL     OW22015   3.641   2.423   5.879
 7039SOL    HW122016   3.673   2.346   5.934
 7039SOL    HW222017   3.548   2.448   5.908
 7040SOL     OW22018   5.559   2.753   6.827
 7040SOL    HW122019   5.564   2.820   6.901
 7040SOL    HW222020   5.648   2.710   6.815
 7041SOL     OW22021   2.827   1.429   3.228
 7041SOL    HW122022   2.734   1.396   3.249
 7041SOL    HW222023   2.857   1.490   3.301
 7042SOL     OW22024   1.777   0.325   6.157
 7042SOL    HW122025   1.773   0.389   6.234
 7042SOL    HW222026   1.684   0.302   6.129
 7043SOL     OW22027   1.140   2.634   2.611
 7043SOL    HW122028   1.231   2.669   2.632
 7043SOL    HW222029   1.097   2.602   2.696
 7044SOL     OW22030   5.101   6.028   1.858
 7044SOL    HW122031   5.114   5.929   1.858
 7044SOL    HW222032   5.073   6.059   1.949
 7045SOL     OW22033   6.887   4.752   0.662
 7045SOL    HW122034   6.904   4.808   0.743
 7045SOL    HW222035   6.827   4.676   0.686
 7046SOL     OW22036   2.670   1.481   4.007
 7046SOL    HW122037   2.625   1.568   3.984
 7046SOL    HW222038   2.757   1.475   3.958
 7047SOL     OW22039   1.381   1.220   2.791
 7047SOL    HW122040   1.434   1.282   2.733
 7047SOL    HW222041   1.348   1.270   2.871
 7048SOL     OW22042   7.019   5.626   0.744
 7048SOL    HW122043   6.934   5.645   0.791
 7048SOL    HW222044   7.018   5.532   0.710
 7049SOL     OW22045   1.721   0.782   6.912
 7049SOL    HW122046   1.766   0.699   6.943
 7049SOL    HW222047   1.716   0.782   6.812
 7050SOL     OW22048   3.869   3.786   4.616
 7050SOL    HW122049   3.946   3.789   4.679
 7050SOL    HW222050   3.841   3.691   4.602
 7051SOL     OW22051   0.082   6.503   3.088
 7051SOL    HW122052   0.171   6.548   3.093
 7051SOL    HW222053   0.077   6.431   3.157
 7052SOL     OW22054   6.772   0.926   3.986
 7052SOL    HW122055   6.847   0.897   3.927
 7052SOL    HW222056   6.685   0.896   3.947
 7053SOL     OW22057   6.722   4.210   6.027
 7053SOL    HW122058   6.676   4.191   5.940
 7053SOL    HW222059   6.797   4.274   6.012
 7054SOL     OW22060   6.515   1.125   1.544
 7054SOL    HW122061   6.508   1.054   1.475
 7054SOL    HW222062   6.476   1.093   1.630
 7055SOL     OW22063   4.085   1.336   4.379
 7055SOL    HW122064   4.073   1.410   4.312
 7055SOL    HW222065   4.183   1.321   4.394
 7056SOL     OW22066   4.184   5.354   3.924
 7056SOL    HW122067   4.184   5.395   3.833
 7056SOL    HW222068   4.215   5.259   3.918
 7057SOL     OW22069   0.323   6.381   3.550
 7057SOL    HW122070   0.349   6.396   3.455
 7057SOL    HW222071   0.340   6.285   3.575
 7058SOL     OW22072   0.610   4.199   5.168
 7058SOL    HW122073   0.684   4.142   5.133
 7058SOL    HW222074   0.592   4.273   5.103
 7059SOL     OW22075   2.168   0.232   2.589
 7059SOL    HW122076   2.219   0.212   2.673
 7059SOL    HW222077   2.191   0.164   2.520
 7060SOL     OW22078   2.884   6.849   0.958
 7060SOL    HW122079   2.801   6.889   0.995
 7060SOL    HW222080   2.946   6.922   0.928
 7061SOL     OW22081   7.015   1.052   3.275
 7061SOL    HW122082   0.078   1.020   3.315
 7061SOL    HW222083   6.954   0.974   3.262
 7062SOL     OW22084   6.843   1.219   5.556
 7062SOL    HW122085   6.787   1.252   5.632
 7062SOL    HW222086   6.881   1.297   5.506
 7063SOL     OW22087   2.200   0.031   1.993
 7063SOL    HW122088   2.246   6.978   2.038
 7063SOL    HW222089   2.251   0.116   2.009
 7064SOL     OW22090   4.344   2.140   0.959
 7064SOL    HW122091   4.296   2.054   0.980
 7064SOL    HW222092   4.291   2.192   0.892
 7065SOL     OW22093   3.943   3.793   2.286
 7065SOL    HW122094   3.874   3.850   2.330
 7065SOL    HW222095   3.904   3.703   2.265
 7066SOL     OW22096   2.914   5.699   1.335
 7066SOL    HW122097   2.908   5.614   1.387
 7066SOL    HW222098   2.828   5.713   1.285
 7067SOL     OW22099   0.414   3.875   4.499
 7067SOL    HW122100   0.340   3.856   4.563
 7067SOL    HW222101   0.376   3.886   4.407
 7068SOL     OW22102   1.310   0.567   2.720
 7068SOL    HW122103   1.298   0.649   2.663
 7068SOL    HW222104   1.266   0.582   2.809
 7069SOL     OW22105   1.495   4.444   5.256
 7069SOL    HW122106   1.568   4.422   5.320
 7069SOL    HW222107   1.534   4.483   5.173
 7070SOL     OW22108   5.271   5.413   4.141
 7070SOL    HW122109   5.284   5.450   4.232
 7070SOL    HW222110   5.183   5.444   4.105
 7071SOL     OW22111   1.098   0.040   5.003
 7071SOL    HW122112   1.164   0.111   5.030
 7071SOL    HW222113   1.014   0.053   5.055
 7072SOL     OW22114   0.101   6.188   6.654
 7072SOL    HW122115   0.099   6.251   6.576
 7072SOL    HW222116   0.195   6.177   6.686
 7073SOL     OW22117   1.660   1.774   6.439
 7073SOL    HW122118   1.653   1.733   6.348
 7073SOL    HW222119   1.614   1.716   6.506
 7074SOL     OW22120   2.709   0.915   0.952
 7074SOL    HW122121   2.794   0.930   1.003
 7074SOL    HW222122   2.693   0.992   0.890
 7075SOL     OW22123   1.129   5.773   2.780
 7075SOL    HW122124   1.214   5.735   2.815
 7075SOL    HW222125   1.094   5.715   2.706
 7076SOL     OW22126   3.214   2.175   6.296
 7076SOL    HW122127   3.271   2.206   6.219
 7076SOL    HW222128   3.256   2.203   6.382
 7077SOL     OW22129   1.923   5.084   5.979
 7077SOL    HW122130   1.885   5.175   5.998
 7077SOL    HW222131   2.016   5.079   6.016
 7078SOL     OW22132   6.692   1.113   2.593
 7078SOL    HW122133   6.713   1.018   2.615
 7078SOL    HW222134   6.684   1.124   2.494
 7079SOL     OW22135   5.021   5.872   5.544
 7079SOL    HW122136   5.064   5.880   5.454
 7079SOL    HW222137   5.086   5.900   5.614
 7080SOL     OW22138   5.611   6.864   4.073
 7080SOL    HW122139   5.588   6.961   4.066
 7080SOL    HW222140   5.705   6.850   4.043
 7081SOL     OW22141   4.142   1.066   5.379
 7081SOL    HW122142   4.174   1.146   5.328
 7081SOL    HW222143   4.200   0.987   5.357
 7082SOL     OW22144   4.829   1.534   6.407
 7082SOL    HW122145   4.822   1.512   6.310
 7082SOL    HW222146   4.811   1.452   6.461
 7083SOL     OW22147   3.270   6.989   5.843
 7083SOL    HW122148   3.307   6.957   5.755
 7083SOL    HW222149   3.297   0.062   5.856
 7084SOL     OW22150   6.717   6.346   0.428
 7084SOL    HW122151   6.762   6.432   0.452
 7084SOL    HW222152   6.754   6.272   0.484
 7085SOL     OW22153   3.437   1.865   0.769
 7085SOL    HW122154   3.362   1.856   0.704
 7085SOL    HW222155   3.481   1.775   0.781
 7086SOL     OW22156   0.353   0.980   6.224
 7086SOL    HW122157   0.356   0.980   6.324
 7086SOL    HW222158   0.260   1.003   6.194
 7087SOL     OW22159   2.216   2.529   5.038
 7087SOL    HW122160   2.192   2.462   4.968
 7087SOL    HW222161   2.133   2.563   5.082
 7088SOL     OW22162   0.643   1.695   5.846
 7088SOL    HW122163   0.690   1.628   5.789
 7088SOL    HW222164   0.645   1.784   5.801
 7089SOL     OW22165   2.442   1.130   1.358
 7089SOL    HW122166   2.380   1.122   1.436
 7089SOL    HW222167   2.483   1.041   1.339
 7090SOL     OW22168   2.517   2.554   4.827
 7090SOL    HW122169   2.468   2.586   4.908
 7090SOL    HW222170   2.599   2.504   4.855
 7091SOL     OW22171   6.916   6.568   0.923
 7091SOL    HW122172   6.829   6.575   0.972
 7091SOL    HW222173   6.909   6.498   0.852
 7092SOL     OW22174   3.053   2.941   6.960
 7092SOL    HW122175   3.150   2.964   6.953
 7092SOL    HW222176   3.041   2.864   7.022
 7093SOL     OW22177   4.227   3.046   6.064
 7093SOL    HW122178   4.325   3.061   6.069
 7093SOL    HW222179   4.179   3.133   6.067
 7094SOL     OW22180   6.609   0.633   6.338
 7094SOL    HW122181   6.568   0.647   6.428
 7094SOL    HW222182   6.585   0.710   6.278
 7095SOL     OW22183   0.440   4.343   6.821
 7095SOL    HW122184   0.435   4.436   6.785
 7095SOL    HW222185   0.382   4.283   6.767
 7096SOL     OW22186   5.028   0.612   3.042
 7096SOL    HW122187   5.041   0.578   3.135
 7096SOL    HW222188   5.086   0.692   3.027
 7097SOL     OW22189   1.560   0.933   1.911
 7097SOL    HW122190   1.653   0.939   1.945
 7097SOL    HW222191   1.561   0.902   1.816
 7098SOL     OW22192   1.633   6.987   5.661
 7098SOL    HW122193   1.664   6.892   5.658
 7098SOL    HW222194   1.538   6.992   5.632
 7099SOL     OW22195   0.491   1.228   6.161
 7099SOL    HW122196   0.581   1.195   6.133
 7099SOL    HW222197   0.431   1.150   6.178
 7100SOL     OW22198   5.512   2.086   1.006
 7100SOL    HW122199   5.465   2.055   0.924
 7100SOL    HW222200   5.590   2.144   0.980
 7101SOL     OW22201   1.676   1.013   4.161
 7101SOL    HW122202   1.736   0.972   4.093
 7101SOL    HW222203   1.592   0.959   4.167
 7102SOL     OW22204   4.784   3.300   1.054
 7102SOL    HW122205   4.861   3.362   1.040
 7102SOL    HW222206   4.717   3.314   0.980
 7103SOL     OW22207   2.434   6.618   6.551
 7103SOL    HW122208   2.454   6.521   6.539
 7103SOL    HW222209   2.479   6.652   6.633
 7104SOL     OW22210   0.253   2.002   1.744
 7104SOL    HW122211   0.350   1.989   1.727
 7104SOL    HW222212   0.202   1.924   1.708
 7105SOL     OW22213   2.482   4.213   5.275
 7105SOL    HW122214   2.575   4.227   5.307
 7105SOL    HW222215   2.473   4.122   5.236
 7106SOL     OW22216   3.378   2.482   5.346
 7106SOL    HW122217   3.359   2.580   5.341
 7106SOL    HW222218   3.325   2.434   5.276
 7107SOL     OW22219   2.184   0.684   6.815
 7107SOL    HW122220   2.269   0.730   6.787
 7107SOL    HW222221   2.160   0.714   6.908
 7108SOL     OW22222   4.667   6.474   2.298
 7108SOL    HW122223   4.663   6.381   2.336
 7108SOL    HW222224   4.575   6.504   2.275
 7109SOL     OW22225   3.679   6.343   6.458
 7109SOL    HW122226   3.687   6.251   6.419
 7109SOL    HW222227   3.607   6.343   6.527
 7110SOL     OW22228   3.304   5.231   3.041
 7110SOL    HW122229   3.249   5.228   3.125
 7110SOL    HW222230   3.366   5.153   3.038
 7111SOL     OW22231   1.228   2.032   4.112
 7111SOL    HW122232   1.231   1.934   4.133
 7111SOL    HW222233   1.136   2.057   4.082
 7112SOL     OW22234   1.673   6.595   2.157
 7112SOL    HW122235   1.606   6.526   2.130
 7112SOL    HW222236   1.752   6.551   2.199
 7113SOL     OW22237   3.604   3.996   4.906
 7113SOL    HW122238   3.530   4.025   4.966
 7113SOL    HW222239   3.608   4.055   4.825
 7114SOL     OW22240   4.317   6.927   0.737
 7114SOL    HW122241   4.295   7.014   0.782
 7114SOL    HW222242   4.232   6.877   0.719
 7115SOL     OW22243   4.326   1.574   1.478
 7115SOL    HW122244   4.367   1.646   1.535
 7115SOL    HW222245   4.238   1.548   1.516
 7116SOL     OW22246   6.429   3.889   2.847
 7116SOL    HW122247   6.344   3.922   2.889
 7116SOL    HW222248   6.464   3.959   2.785
 7117SOL     OW22249   6.618   0.009   1.763
 7117SOL    HW122250   6.623   6.932   1.761
 7117SOL    HW222251   6.681   0.044   1.832
 7118SOL     OW22252   6.433   2.884   2.103
 7118SOL    HW122253   6.442   2.816   2.030
 7118SOL    HW222254   6.461   2.842   2.190
 7119SOL     OW22255   0.346   2.187   2.744
 7119SOL    HW122256   0.246   2.186   2.742
 7119SOL    HW222257   0.381   2.117   2.682
 7120SOL     OW22258   4.697   6.484   3.279
 7120SOL    HW122259   4.736   6.494   3.188
 7120SOL    HW222260   4.740   6.551   3.341
 7121SOL     OW22261   3.638   6.763   2.107
 7121SOL    HW122262   3.666   6.790   2.014
 7121SOL    HW222263   3.634   6.663   2.112
 7122SOL     OW22264   6.604   0.034   6.838
 7122SOL    HW122265   6.621   0.018   6.741
 7122SOL    HW222266   6.671   0.099   6.873
 7123SOL     OW22267   2.325   5.304   0.501
 7123SOL    HW122268   2.245   5.308   0.441
 7123SOL    HW222269   2.338   5.392   0.545
 7124SOL     OW22270   0.840   5.516   1.575
 7124SOL    HW122271   0.859   5.549   1.483
 7124SOL    HW222272   0.771   5.575   1.618
 7125SOL     OW22273   0.110   6.286   2.892
 7125SOL    HW122274   0.077   6.346   2.965
 7125SOL    HW222275   0.032   6.240   2.850
 7126SOL     OW22276   1.220   4.389   0.640
 7126SOL    HW122277   1.313   4.388   0.676
 7126SOL    HW222278   1.222   4.381   0.540
 7127SOL     OW22279   3.129   0.207   4.690
 7127SOL    HW122280   3.086   0.117   4.693
 7127SOL    HW222281   3.063   0.274   4.657
 7128SOL     OW22282   3.314   4.404   1.603
 7128SOL    HW122283   3.220   4.425   1.628
 7128SOL    HW222284   3.317   4.366   1.510
 7129SOL     OW22285   2.568   1.454   1.695
 7129SOL    HW122286   2.506   1.413   1.761
 7129SOL    HW222287   2.549   1.417   1.604
 7130SOL     OW22288   2.520   6.495   2.098
 7130SOL    HW122289   2.580   6.435   2.046
 7130SOL    HW222290   2.482   6.445   2.176
 7131SOL     OW22291   3.001   1.263   3.711
 7131SOL    HW122292   3.094   1.283   3.741
 7131SOL    HW222293   2.936   1.295   3.781
 7132SOL     OW22294   3.590   3.941   3.210
 7132SOL    HW122295   3.506   3.895   3.180
 7132SOL    HW222296   3.615   4.011   3.143
 7133SOL     OW22297   5.567   4.791   2.187
 7133SOL    HW122298   5.537   4.701   2.218
 7133SOL    HW222299   5.522   4.861   2.242
 7134SOL     OW22300   5.303   4.535   3.400
 7134SOL    HW122301   5.389   4.493   3.371
 7134SOL    HW222302   5.302   4.544   3.499
 7135SOL     OW22303   1.280   2.157   5.358
 7135SOL    HW122304   1.338   2.168   5.439
 7135SOL    HW222305   1.196   2.109   5.382
 7136SOL     OW22306   2.217   2.064   6.844
 7136SOL    HW122307   2.297   2.014   6.811
 7136SOL    HW222308   2.188   2.026   6.931
 7137SOL     OW22309   4.025   1.668   4.857
 7137SOL    HW122310   4.058   1.585   4.811
 7137SOL    HW222311   4.008   1.739   4.789
 7138SOL     OW22312   2.391   4.008   6.506
 7138SOL    HW122313   2.309   3.972   6.549
 7138SOL    HW222314   2.422   3.945   6.434
 7139SOL     OW22315   3.093   1.939   0.138
 7139SOL    HW122316   3.127   1.999   0.210
 7139SOL    HW222317   2.993   1.941   0.137
 7140SOL     OW22318   6.168   3.603   5.289
 7140SOL    HW122319   6.131   3.673   5.351
 7140SOL    HW222320   6.097   3.537   5.268
 7141SOL     OW22321   1.677   6.810   1.188
 7141SOL    HW122322   1.671   6.857   1.099
 7141SOL    HW222323   1.586   6.780   1.216
 7142SOL     OW22324   4.057   6.792   3.901
 7142SOL    HW122325   3.985   6.858   3.920
 7142SOL    HW222326   4.022   6.720   3.841
 7143SOL     OW22327   2.057   2.569   4.020
 7143SOL    HW122328   2.025   2.486   4.064
 7143SOL    HW222329   2.118   2.619   4.083
 7144SOL     OW22330   1.105   3.056   3.609
 7144SOL    HW122331   1.171   2.986   3.637
 7144SOL    HW222332   1.143   3.108   3.533
 7145SOL     OW22333   4.324   6.669   6.189
 7145SOL    HW122334   4.369   6.678   6.100
 7145SOL    HW222335   4.326   6.757   6.237
 7146SOL     OW22336   2.917   4.771   1.497
 7146SOL    HW122337   2.900   4.867   1.517
 7146SOL    HW222338   2.956   4.763   1.405
 7147SOL     OW22339   0.608   0.937   3.930
 7147SOL    HW122340   0.561   0.997   3.866
 7147SOL    HW222341   0.690   0.899   3.887
 7148SOL     OW22342   0.640   1.620   0.509
 7148SOL    HW122343   0.650   1.544   0.573
 7148SOL    HW222344   0.717   1.621   0.445
 7149SOL     OW22345   6.569   0.794   3.810
 7149SOL    HW122346   6.584   0.880   3.762
 7149SOL    HW222347   6.512   0.733   3.754
 7150SOL     OW22348   5.883   3.865   0.043
 7150SOL    HW122349   5.976   3.889   0.014
 7150SOL    HW222350   5.884   3.840   0.139
 7151SOL     OW22351   1.802   6.221   1.279
 7151SOL    HW122352   1.715   6.258   1.246
 7151SOL    HW222353   1.789   6.178   1.368
 7152SOL     OW22354   1.415   2.247   4.080
 7152SOL    HW122355   1.329   2.201   4.060
 7152SOL    HW222356   1.412   2.286   4.172
 7153SOL     OW22357   3.356   1.770   3.117
 7153SOL    HW122358   3.298   1.819   3.182
 7153SOL    HW222359   3.451   1.774   3.147
 7154SOL     OW22360   4.590   6.140   4.458
 7154SOL    HW122361   4.509   6.145   4.400
 7154SOL    HW222362   4.615   6.044   4.471
 7155SOL     OW22363   1.741   0.466   2.744
 7155SOL    HW122364   1.642   0.462   2.726
 7155SOL    HW222365   1.780   0.375   2.731
 7156SOL     OW22366   1.247   5.822   4.771
 7156SOL    HW122367   1.259   5.848   4.867
 7156SOL    HW222368   1.150   5.830   4.746
 7157SOL     OW22369   5.203   4.246   1.241
 7157SOL    HW122370   5.167   4.329   1.283
 7157SOL    HW222371   5.183   4.247   1.143
 7158SOL     OW22372   4.882   6.937   4.405
 7158SOL    HW122373   4.887   7.016   4.465
 7158SOL    HW222374   4.954   6.943   4.336
 7159SOL     OW22375   1.164   5.282   0.205
 7159SOL    HW122376   1.071   5.252   0.188
 7159SOL    HW222377   1.167   5.336   0.289
 7160SOL     OW22378   6.523   1.261   2.187
 7160SOL    HW122379   6.482   1.323   2.254
 7160SOL    HW222380   6.461   1.249   2.110
 7161SOL     OW22381   3.569   4.050   4.123
 7161SOL    HW122382   3.633   4.080   4.194
 7161SOL    HW222383   3.589   3.956   4.098
 7162SOL     OW22384   2.818   4.751   3.452
 7162SOL    HW122385   2.803   4.709   3.542
 7162SOL    HW222386   2.910   4.790   3.449
 7163SOL     OW22387   2.534   6.623   3.170
 7163SOL    HW122388   2.556   6.530   3.200
 7163SOL    HW222389   2.599   6.651   3.100
 7164SOL     OW22390   2.662   1.782   3.933
 7164SOL    HW122391   2.626   1.836   3.858
 7164SOL    HW222392   2.723   1.838   3.989
 7165SOL     OW22393   5.149   6.782   2.379
 7165SOL    HW122394   5.119   6.691   2.410
 7165SOL    HW222395   5.072   6.832   2.341
 7166SOL     OW22396   5.332   5.206   1.854
 7166SOL    HW122397   5.369   5.247   1.937
 7166SOL    HW222398   5.251   5.151   1.878
 7167SOL     OW22399   4.931   3.133   5.479
 7167SOL    HW122400   5.000   3.202   5.498
 7167SOL    HW222401   4.864   3.132   5.553
 7168SOL     OW22402   0.959   1.752   4.855
 7168SOL    HW122403   0.884   1.748   4.789
 7168SOL    HW222404   1.034   1.806   4.816
 7169SOL     OW22405   1.596   2.483   6.452
 7169SOL    HW122406   1.612   2.410   6.519
 7169SOL    HW222407   1.684   2.519   6.421
 7170SOL     OW22408   6.010   5.165   3.776
 7170SOL    HW122409   5.970   5.074   3.785
 7170SOL    HW222410   6.043   5.178   3.683
 7171SOL     OW22411   4.503   2.617   5.984
 7171SOL    HW122412   4.425   2.568   6.024
 7171SOL    HW222413   4.515   2.588   5.889
 7172SOL     OW22414   0.869   6.991   1.170
 7172SOL    HW122415   0.786   6.990   1.115
 7172SOL    HW222416   0.867   0.048   1.231
 7173SOL     OW22417   6.332   6.257   5.307
 7173SOL    HW122418   6.330   6.357   5.315
 7173SOL    HW222419   6.264   6.218   5.369
 7174SOL     OW22420   0.716   5.369   0.019
 7174SOL    HW122421   0.792   5.433   0.008
 7174SOL    HW222422   0.694   5.327   6.953
 7175SOL     OW22423   6.092   2.680   5.488
 7175SOL    HW122424   6.145   2.647   5.410
 7175SOL    HW222425   6.094   2.780   5.490
 7176SOL     OW22426   6.749   3.629   1.303
 7176SOL    HW122427   6.823   3.639   1.370
 7176SOL    HW222428   6.778   3.567   1.230
 7177SOL     OW22429   1.015   5.290   2.586
 7177SOL    HW122430   0.997   5.281   2.684
 7177SOL    HW222431   1.098   5.345   2.573
 7178SOL     OW22432   7.002   1.835   6.436
 7178SOL    HW122433   6.912   1.794   6.453
 7178SOL    HW222434   0.051   1.768   6.454
 7179SOL     OW22435   1.995   4.626   6.153
 7179SOL    HW122436   1.988   4.624   6.054
 7179SOL    HW222437   2.024   4.717   6.183
 7180SOL     OW22438   0.836   6.932   3.211
 7180SOL    HW122439   0.893   7.011   3.190
 7180SOL    HW222440   0.891   6.863   3.258
 7181SOL     OW22441   5.784   6.803   2.676
 7181SOL    HW122442   5.713   6.779   2.743
 7181SOL    HW222443   5.755   6.775   2.585
 7182SOL     OW22444   3.589   3.511   5.755
 7182SOL    HW122445   3.639   3.465   5.682
 7182SOL    HW222446   3.496   3.475   5.759
 7183SOL     OW22447   1.309   4.702   3.196
 7183SOL    HW122448   1.210   4.687   3.198
 7183SOL    HW222449   1.341   4.726   3.288
 7184SOL     OW22450   2.474   5.980   2.703
 7184SOL    HW122451   2.400   5.916   2.727
 7184SOL    HW222452   2.517   6.013   2.787
 7185SOL     OW22453   4.405   2.397   6.834
 7185SOL    HW122454   4.431   2.410   6.739
 7185SOL    HW222455   4.487   2.396   6.891
 7186SOL     OW22456   0.689   0.235   4.008
 7186SOL    HW122457   0.699   0.322   3.959
 7186SOL    HW222458   0.596   0.227   4.044
 7187SOL     OW22459   2.151   5.327   1.468
 7187SOL    HW122460   2.156   5.395   1.541
 7187SOL    HW222461   2.178   5.237   1.505
 7188SOL     OW22462   5.082   0.446   1.468
 7188SOL    HW122463   5.079   0.438   1.568
 7188SOL    HW222464   5.008   0.504   1.436
 7189SOL     OW22465   0.030   0.303   5.032
 7189SOL    HW122466   0.100   0.270   5.096
 7189SOL    HW222467   0.041   0.257   4.944
 7190SOL     OW22468   4.695   4.894   3.432
 7190SOL    HW122469   4.786   4.852   3.426
 7190SOL    HW222470   4.651   4.891   3.342
 7191SOL     OW22471   0.555   3.079   1.702
 7191SOL    HW122472   0.537   3.099   1.798
 7191SOL    HW222473   0.652   3.057   1.690
 7192SOL     OW22474   4.048   5.494   6.256
 7192SOL    HW122475   3.967   5.508   6.200
 7192SOL    HW222476   4.029   5.522   6.350
 7193SOL     OW22477   5.327   1.557   3.824
 7193SOL    HW122478   5.391   1.480   3.817
 7193SOL    HW222479   5.373   1.641   3.795
 7194SOL     OW22480   3.404   1.172   1.319
 7194SOL    HW122481   3.503   1.183   1.310
 7194SOL    HW222482   3.361   1.262   1.321
 7195SOL     OW22483   0.262   6.232   1.944
 7195SOL    HW122484   0.245   6.140   1.911
 7195SOL    HW222485   0.252   6.234   2.044
 7196SOL     OW22486   3.784   2.612   1.732
 7196SOL    HW122487   3.754   2.529   1.779
 7196SOL    HW222488   3.819   2.588   1.642
 7197SOL     OW22489   0.912   1.898   4.269
 7197SOL    HW122490   0.889   1.968   4.201
 7197SOL    HW222491   0.957   1.941   4.347
 7198SOL     OW22492   0.466   6.336   6.491
 7198SOL    HW122493   0.404   6.320   6.414
 7198SOL    HW222494   0.549   6.282   6.479
 7199SOL     OW22495   5.605   6.759   3.034
 7199SOL    HW122496   5.575   6.747   3.129
 7199SOL    HW222497   5.691   6.810   3.033
 7200SOL     OW22498   1.954   2.016   1.872
 7200SOL    HW122499   1.943   2.115   1.877
 7200SOL    HW222500   1.889   1.972   1.934
 7201SOL     OW22501   2.078   5.162   3.239
 7201SOL    HW122502   2.055   5.066   3.219
 7201SOL    HW222503   2.104   5.209   3.155
 7202SOL     OW22504   3.433   6.908   5.627
 7202SOL    HW122505   3.401   7.000   5.603
 7202SOL    HW222506   3.507   6.914   5.693
 7203SOL     OW22507   5.958   0.236   6.485
 7203SOL    HW122508   6.001   0.324   6.506
 7203SOL    HW222509   6.018   0.182   6.427
 7204SOL     OW22510   6.031   1.919   2.564
 7204SOL    HW122511   6.088   1.847   2.524
 7204SOL    HW222512   6.025   1.996   2.500
 7205SOL     OW22513   1.659   4.930   1.459
 7205SOL    HW122514   1.603   4.953   1.538
 7205SOL    HW222515   1.607   4.868   1.399
 7206SOL     OW22516   5.502   1.719   1.444
 7206SOL    HW122517   5.509   1.818   1.442
 7206SOL    HW222518   5.583   1.680   1.487
 7207SOL     OW22519   4.084   6.363   2.347
 7207SOL    HW122520   4.141   6.374   2.266
 7207SOL    HW222521   4.139   6.326   2.422
 7208SOL     OW22522   3.134   0.252   5.048
 7208SOL    HW122523   3.104   0.303   5.128
 7208SOL    HW222524   3.076   0.172   5.035
 7209SOL     OW22525   3.870   3.000   4.566
 7209SOL    HW122526   3.774   2.989   4.541
 7209SOL    HW222527   3.907   2.912   4.597
 7210SOL     OW22528   4.778   0.526   4.179
 7210SOL    HW122529   4.858   0.563   4.131
 7210SOL    HW222530   4.798   0.434   4.213
 7211SOL     OW22531   1.469   5.025   2.520
 7211SOL    HW122532   1.565   5.043   2.497
 7211SOL    HW222533   1.463   4.947   2.581
 7212SOL     OW22534   4.718   6.949   3.494
 7212SOL    HW122535   4.783   6.880   3.462
 7212SOL    HW222536   4.765   7.015   3.552
 7213SOL     OW22537   5.421   6.901   5.484
 7213SOL    HW122538   5.333   6.870   5.448
 7213SOL    HW222539   5.495   6.850   5.441
 7214SOL     OW22540   0.382   4.944   5.585
 7214SOL    HW122541   0.352   4.895   5.503
 7214SOL    HW222542   0.475   4.977   5.571
 7215SOL     OW22543   0.796   3.355   2.832
 7215SOL    HW122544   0.752   3.265   2.838
 7215SOL    HW222545   0.807   3.381   2.736
 7216SOL     OW22546   2.366   1.358   1.850
 7216SOL    HW122547   2.318   1.444   1.868
 7216SOL    HW222548   2.306   1.281   1.868
 7217SOL     OW22549   1.325   2.960   1.991
 7217SOL    HW122550   1.242   2.998   2.032
 7217SOL    HW222551   1.321   2.860   1.997
 7218SOL     OW22552   6.760   2.312   5.994
 7218SOL    HW122553   6.836   2.271   6.045
 7218SOL    HW222554   6.797   2.366   5.919
 7219SOL     OW22555   3.473   0.608   1.085
 7219SOL    HW122556   3.460   0.549   1.005
 7219SOL    HW222557   3.397   0.594   1.149
 7220SOL     OW22558   0.235   0.938   3.369
 7220SOL    HW122559   0.261   0.854   3.320
 7220SOL    HW222560   0.317   0.979   3.409
 7221SOL     OW22561   6.048   4.963   5.561
 7221SOL    HW122562   6.000   4.895   5.617
 7221SOL    HW222563   6.147   4.946   5.565
 7222SOL     OW22564   5.852   6.559   3.173
 7222SOL    HW122565   5.943   6.568   3.134
 7222SOL    HW222566   5.796   6.499   3.115
 7223SOL     OW22567   4.546   1.088   4.920
 7223SOL    HW122568   4.597   1.167   4.888
 7223SOL    HW222569   4.590   1.004   4.887
 7224SOL     OW22570   5.591   1.081   4.766
 7224SOL    HW122571   5.562   1.047   4.677
 7224SOL    HW222572   5.521   1.142   4.803
 7225SOL     OW22573   2.214   0.532   1.070
 7225SOL    HW122574   2.160   0.493   0.996
 7225SOL    HW222575   2.311   0.514   1.054
 7226SOL     OW22576   5.765   6.562   6.526
 7226SOL    HW122577   5.774   6.548   6.625
 7226SOL    HW222578   5.855   6.584   6.487
 7227SOL     OW22579   0.045   2.104   6.356
 7227SOL    HW122580   7.002   2.161   6.406
 7227SOL    HW222581   0.036   2.009   6.384
 7228SOL     OW22582   2.243   0.732   2.871
 7228SOL    HW122583   2.290   0.667   2.811
 7228SOL    HW222584   2.150   0.699   2.888
 7229SOL     OW22585   0.130   0.277   3.476
 7229SOL    HW122586   0.182   0.241   3.554
 7229SOL    HW222587   0.185   0.345   3.428
 7230SOL     OW22588   6.302   5.431   1.520
 7230SOL    HW122589   6.293   5.529   1.534
 7230SOL    HW222590   6.270   5.407   1.429
 7231SOL     OW22591   5.953   0.831   6.670
 7231SOL    HW122592   6.029   0.860   6.612
 7231SOL    HW222593   5.986   0.763   6.736
 7232SOL     OW22594   3.650   3.921   0.723
 7232SOL    HW122595   3.618   3.879   0.639
 7232SOL    HW222596   3.750   3.930   0.720
 7233SOL     OW22597   0.429   2.286   5.916
 7233SOL    HW122598   0.457   2.328   5.829
 7233SOL    HW222599   0.511   2.266   5.970
 7234SOL     OW22600   5.179   1.700   3.010
 7234SOL    HW122601   5.106   1.739   3.067
 7234SOL    HW222602   5.240   1.773   2.980
 7235SOL     OW22603   6.062   3.022   4.537
 7235SOL    HW122604   5.996   2.955   4.502
 7235SOL    HW222605   6.126   3.047   4.464
 7236SOL     OW22606   2.043   1.416   3.441
 7236SOL    HW122607   2.039   1.516   3.442
 7236SOL    HW222608   2.073   1.385   3.351
 7237SOL     OW22609   6.062   5.183   5.075
 7237SOL    HW122610   6.050   5.158   5.171
 7237SOL    HW222611   6.072   5.283   5.068
 7238SOL     OW22612   1.230   0.992   1.651
 7238SOL    HW122613   1.207   1.035   1.564
 7238SOL    HW222614   1.248   1.063   1.719
 7239SOL     OW22615   4.401   1.156   2.226
 7239SOL    HW122616   4.354   1.142   2.139
 7239SOL    HW222617   4.353   1.226   2.279
 7240SOL     OW22618   3.205   3.169   1.458
 7240SOL    HW122619   3.239   3.090   1.510
 7240SOL    HW222620   3.268   3.189   1.383
 7241SOL     OW22621   5.233   7.007   4.552
 7241SOL    HW122622   5.297   6.982   4.480
 7241SOL    HW222623   5.211   6.927   4.607
 7242SOL     OW22624   5.677   4.902   0.668
 7242SOL    HW122625   5.612   4.836   0.708
 7242SOL    HW222626   5.642   4.933   0.580
 7243SOL     OW22627   0.658   5.764   0.395
 7243SOL    HW122628   0.596   5.715   0.457
 7243SOL    HW222629   0.736   5.705   0.374
 7244SOL     OW22630   5.816   2.016   0.684
 7244SOL    HW122631   5.748   2.077   0.644
 7244SOL    HW222632   5.777   1.968   0.762
 7245SOL     OW22633   6.573   1.925   4.543
 7245SOL    HW122634   6.651   1.874   4.578
 7245SOL    HW222635   6.541   1.989   4.612
 7246SOL     OW22636   1.262   5.355   5.174
 7246SOL    HW122637   1.355   5.318   5.173
 7246SOL    HW222638   1.257   5.430   5.240
 7247SOL     OW22639   3.883   5.635   3.605
 7247SOL    HW122640   3.862   5.576   3.528
 7247SOL    HW222641   3.797   5.670   3.644
 7248SOL     OW22642   3.176   0.753   4.626
 7248SOL    HW122643   3.101   0.740   4.690
 7248SOL    HW222644   3.191   0.668   4.575
 7249SOL     OW22645   4.989   3.790   5.881
 7249SOL    HW122646   4.959   3.697   5.859
 7249SOL    HW222647   4.977   3.849   5.800
 7250SOL     OW22648   3.239   3.340   0.372
 7250SOL    HW122649   3.335   3.331   0.345
 7250SOL    HW222650   3.221   3.280   0.450
 7251SOL     OW22651   5.801   1.271   4.696
 7251SOL    HW122652   5.754   1.189   4.666
 7251SOL    HW222653   5.753   1.310   4.774
 7252SOL     OW22654   4.260   3.556   5.105
 7252SOL    HW122655   4.334   3.594   5.162
 7252SOL    HW222656   4.296   3.532   5.015
 7253SOL     OW22657   5.313   4.973   0.989
 7253SOL    HW122658   5.269   5.008   0.906
 7253SOL    HW222659   5.251   4.986   1.067
 7254SOL     OW22660   5.594   6.406   5.361
 7254SOL    HW122661   5.569   6.447   5.273
 7254SOL    HW222662   5.557   6.462   5.435
 7255SOL     OW22663   4.138   3.624   2.368
 7255SOL    HW122664   4.114   3.607   2.463
 7255SOL    HW222665   4.090   3.706   2.336
 7256SOL     OW22666   3.747   4.905   3.731
 7256SOL    HW122667   3.768   4.996   3.766
 7256SOL    HW222668   3.653   4.881   3.755
 7257SOL     OW22669   6.152   4.061   3.152
 7257SOL    HW122670   6.068   4.019   3.186
 7257SOL    HW222671   6.146   4.161   3.162
 7258SOL     OW22672   2.641   0.326   5.713
 7258SOL    HW122673   2.695   0.361   5.790
 7258SOL    HW222674   2.691   0.252   5.668
 7259SOL     OW22675   2.708   5.140   6.368
 7259SOL    HW122676   2.705   5.120   6.270
 7259SOL    HW222677   2.792   5.190   6.389
 7260SOL     OW22678   4.718   1.455   2.766
 7260SOL    HW122679   4.687   1.459   2.671
 7260SOL    HW222680   4.722   1.547   2.804
 7261SOL     OW22681   1.590   5.005   1.070
 7261SOL    HW122682   1.681   5.017   1.112
 7261SOL    HW222683   1.548   5.095   1.056
 7262SOL     OW22684   6.116   0.877   5.345
 7262SOL    HW122685   6.089   0.931   5.425
 7262SOL    HW222686   6.211   0.847   5.356
 7263SOL     OW22687   5.241   6.191   1.689
 7263SOL    HW122688   5.275   6.272   1.736
 7263SOL    HW222689   5.199   6.129   1.755
 7264SOL     OW22690   1.641   6.989   4.699
 7264SOL    HW122691   1.628   6.994   4.600
 7264SOL    HW222692   1.553   7.006   4.745
 7265SOL     OW22693   4.331   3.355   6.231
 7265SOL    HW122694   4.350   3.261   6.259
 7265SOL    HW222695   4.411   3.394   6.187
 7266SOL     OW22696   3.752   1.631   1.989
 7266SOL    HW122697   3.663   1.665   1.960
 7266SOL    HW222698   3.786   1.687   2.065
 7267SOL     OW22699   6.321   3.259   4.749
 7267SOL    HW122700   6.365   3.321   4.814
 7267SOL    HW222701   6.296   3.174   4.795
 7268SOL     OW22702   3.690   0.597   0.288
 7268SOL    HW122703   3.617   0.552   0.338
 7268SOL    HW222704   3.777   0.552   0.308
 7269SOL     OW22705   1.439   0.199   1.665
 7269SOL    HW122706   1.353   0.161   1.698
 7269SOL    HW222707   1.513   0.176   1.728
 7270SOL     OW22708   3.231   1.438   2.468
 7270SOL    HW122709   3.182   1.521   2.494
 7270SOL    HW222710   3.291   1.457   2.390
 7271SOL     OW22711   6.041   5.308   3.479
 7271SOL    HW122712   6.048   5.357   3.392
 7271SOL    HW222713   6.071   5.213   3.466
 7272SOL     OW22714   6.612   2.094   0.906
 7272SOL    HW122715   6.619   2.006   0.859
 7272SOL    HW222716   6.566   2.160   0.847
 7273SOL     OW22717   5.506   5.775   5.534
 7273SOL    HW122718   5.463   5.814   5.453
 7273SOL    HW222719   5.477   5.827   5.615
 7274SOL     OW22720   6.161   4.701   4.229
 7274SOL    HW122721   6.116   4.757   4.299
 7274SOL    HW222722   6.130   4.730   4.138
 7275SOL     OW22723   5.173   6.461   1.404
 7275SOL    HW122724   5.203   6.396   1.474
 7275SOL    HW222725   5.218   6.549   1.418
 7276SOL     OW22726   2.814   2.258   3.918
 7276SOL    HW122727   2.896   2.255   3.975
 7276SOL    HW222728   2.744   2.311   3.964
 7277SOL     OW22729   6.045   1.383   3.973
 7277SOL    HW122730   6.054   1.334   4.060
 7277SOL    HW222731   5.952   1.417   3.963
 7278SOL     OW22732   2.662   2.049   3.820
 7278SOL    HW122733   2.703   2.122   3.875
 7278SOL    HW222734   2.562   2.055   3.827
 7279SOL     OW22735   4.064   3.712   1.318
 7279SOL    HW122736   4.089   3.636   1.379
 7279SOL    HW222737   3.965   3.713   1.306
 7280SOL     OW22738   6.805   2.147   5.504
 7280SOL    HW122739   6.765   2.167   5.593
 7280SOL    HW222740   6.799   2.049   5.486
 7281SOL     OW22741   3.838   6.548   2.146
 7281SOL    HW122742   3.849   6.564   2.245
 7281SOL    HW222743   3.812   6.453   2.130
 7282SOL     OW22744   0.433   3.652   1.454
 7282SOL    HW122745   0.417   3.593   1.375
 7282SOL    HW222746   0.524   3.635   1.491
 7283SOL     OW22747   3.780   6.126   2.930
 7283SOL    HW122748   3.736   6.192   2.991
 7283SOL    HW222749   3.744   6.034   2.948
 7284SOL     OW22750   0.647   1.244   2.948
 7284SOL    HW122751   0.632   1.147   2.968
 7284SOL    HW222752   0.560   1.293   2.953
 7285SOL     OW22753   5.179   2.835   2.154
 7285SOL    HW122754   5.252   2.900   2.131
 7285SOL    HW222755   5.142   2.796   2.070
 7286SOL     OW22756   6.306   1.476   3.952
 7286SOL    HW122757   6.213   1.443   3.972
 7286SOL    HW222758   6.316   1.489   3.854
 7287SOL     OW22759   3.322   0.910   4.007
 7287SOL    HW122760   3.271   0.825   4.018
 7287SOL    HW222761   3.278   0.966   3.936
 7288SOL     OW22762   3.408   1.543   2.180
 7288SOL    HW122763   3.382   1.638   2.163
 7288SOL    HW222764   3.493   1.522   2.131
 7289SOL     OW22765   6.115   2.650   2.138
 7289SOL    HW122766   6.122   2.670   2.041
 7289SOL    HW222767   6.206   2.625   2.173
 7290SOL     OW22768   4.019   1.829   4.633
 7290SOL    HW122769   4.014   1.924   4.663
 7290SOL    HW222770   3.969   1.818   4.547
 7291SOL     OW22771   1.576   1.100   0.643
 7291SOL    HW122772   1.490   1.072   0.684
 7291SOL    HW222773   1.649   1.096   0.711
 7292SOL     OW22774   3.232   0.984   2.841
 7292SOL    HW122775   3.331   0.989   2.860
 7292SOL    HW222776   3.217   0.933   2.756
 7293SOL     OW22777   6.403   1.179   3.652
 7293SOL    HW122778   6.331   1.241   3.622
 7293SOL    HW222779   6.394   1.092   3.604
 7294SOL     OW22780   3.863   0.447   2.674
 7294SOL    HW122781   3.787   0.444   2.608
 7294SOL    HW222782   3.921   0.527   2.654
 7295SOL     OW22783   5.260   3.648   1.212
 7295SOL    HW122784   5.201   3.660   1.132
 7295SOL    HW222785   5.207   3.609   1.287
 7296SOL     OW22786   3.713   6.266   2.058
 7296SOL    HW122787   3.656   6.202   2.006
 7296SOL    HW222788   3.759   6.216   2.131
 7297SOL     OW22789   3.896   6.782   0.186
 7297SOL    HW122790   3.893   6.778   0.285
 7297SOL    HW222791   3.859   6.698   0.147
 7298SOL     OW22792   4.242   5.233   1.385
 7298SOL    HW122793   4.143   5.245   1.389
 7298SOL    HW222794   4.286   5.303   1.443
 7299SOL     OW22795   0.210   3.623   5.891
 7299SOL    HW122796   0.234   3.718   5.871
 7299SOL    HW222797   0.111   3.614   5.892
 7300SOL     OW22798   0.766   4.370   2.348
 7300SOL    HW122799   0.822   4.371   2.265
 7300SOL    HW222800   0.777   4.458   2.396
 7301SOL     OW22801   4.379   2.066   6.820
 7301SOL    HW122802   4.476   2.081   6.838
 7301SOL    HW222803   4.358   2.090   6.726
 7302SOL     OW22804   5.230   2.505   6.542
 7302SOL    HW122805   5.188   2.490   6.453
 7302SOL    HW222806   5.159   2.512   6.612
 7303SOL     OW22807   2.808   1.815   1.548
 7303SOL    HW122808   2.843   1.883   1.612
 7303SOL    HW222809   2.709   1.809   1.556
 7304SOL     OW22810   2.151   6.528   0.569
 7304SOL    HW122811   2.230   6.547   0.512
 7304SOL    HW222812   2.178   6.471   0.647
 7305SOL     OW22813   6.162   0.316   6.212
 7305SOL    HW122814   6.250   0.358   6.193
 7305SOL    HW222815   6.090   0.364   6.162
 7306SOL     OW22816   1.120   3.185   1.370
 7306SOL    HW122817   1.184   3.125   1.418
 7306SOL    HW222818   1.048   3.215   1.432
 7307SOL     OW22819   2.984   0.493   2.069
 7307SOL    HW122820   3.052   0.435   2.114
 7307SOL    HW222821   3.006   0.500   1.972
 7308SOL     OW22822   3.623   1.343   3.313
 7308SOL    HW122823   3.678   1.417   3.275
 7308SOL    HW222824   3.592   1.283   3.239
 7309SOL     OW22825   2.256   5.706   3.725
 7309SOL    HW122826   2.268   5.715   3.626
 7309SOL    HW222827   2.160   5.725   3.749
 7310SOL     OW22828   2.360   2.690   0.067
 7310SOL    HW122829   2.390   2.755   7.020
 7310SOL    HW222830   2.264   2.708   0.090
 7311SOL     OW22831   0.334   6.459   5.955
 7311SOL    HW122832   0.254   6.518   5.962
 7311SOL    HW222833   0.414   6.508   5.990
 7312SOL     OW22834   6.187   2.159   4.939
 7312SOL    HW122835   6.099   2.204   4.920
 7312SOL    HW222836   6.191   2.072   4.890
 7313SOL     OW22837   3.369   0.878   2.601
 7313SOL    HW122838   3.449   0.904   2.655
 7313SOL    HW222839   3.371   0.780   2.584
 7314SOL     OW22840   2.189   4.927   5.387
 7314SOL    HW122841   2.101   4.959   5.420
 7314SOL    HW222842   2.262   4.971   5.438
 7315SOL     OW22843   3.181   4.849   2.460
 7315SOL    HW122844   3.197   4.751   2.475
 7315SOL    HW222845   3.228   4.901   2.531
 7316SOL     OW22846   3.624   1.285   1.592
 7316SOL    HW122847   3.538   1.321   1.555
 7316SOL    HW222848   3.658   1.346   1.662
 7317SOL     OW22849   4.918   1.816   0.760
 7317SOL    HW122850   4.861   1.816   0.678
 7317SOL    HW222851   4.874   1.759   0.830
 7318SOL     OW22852   4.890   0.017   1.096
 7318SOL    HW122853   4.799   7.000   1.103
 7318SOL    HW222854   4.905   0.079   1.173
 7319SOL     OW22855   5.250   6.062   6.735
 7319SOL    HW122856   5.167   6.072   6.789
 7319SOL    HW222857   5.275   6.151   6.696
 7320SOL     OW22858   0.274   2.898   7.014
 7320SOL    HW122859   0.333   2.819   6.994
 7320SOL    HW222860   0.332   2.977   0.013
 7321SOL     OW22861   2.304   2.322   5.889
 7321SOL    HW122862   2.213   2.300   5.855
 7321SOL    HW222863   2.360   2.239   5.892
 7322SOL     OW22864   1.148   2.130   3.658
 7322SOL    HW122865   1.145   2.230   3.663
 7322SOL    HW222866   1.055   2.094   3.669
 7323SOL     OW22867   1.404   2.187   0.585
 7323SOL    HW122868   1.315   2.232   0.596
 7323SOL    HW222869   1.392   2.088   0.593
 7324SOL     OW22870   5.124   4.026   4.362
 7324SOL    HW122871   5.143   4.052   4.457
 7324SOL    HW222872   5.028   4.044   4.341
 7325SOL     OW22873   3.874   1.716   6.196
 7325SOL    HW122874   3.842   1.698   6.103
 7325SOL    HW222875   3.944   1.787   6.194
 7326SOL     OW22876   4.060   6.640   0.418
 7326SOL    HW122877   4.063   6.540   0.419
 7326SOL    HW222878   3.986   6.672   0.478
 7327SOL     OW22879   1.733   4.365   3.629
 7327SOL    HW122880   1.758   4.444   3.572
 7327SOL    HW222881   1.813   4.307   3.643
 7328SOL     OW22882   4.652   5.264   6.001
 7328SOL    HW122883   4.732   5.228   5.951
 7328SOL    HW222884   4.662   5.362   6.014
 7329SOL     OW22885   2.616   3.461   0.971
 7329SOL    HW122886   2.690   3.412   1.016
 7329SOL    HW222887   2.619   3.443   0.873
 7330SOL     OW22888   2.691   3.221   0.707
 7330SOL    HW122889   2.788   3.196   0.707
 7330SOL    HW222890   2.682   3.319   0.690
 7331SOL     OW22891   5.140   2.455   2.586
 7331SOL    HW122892   5.047   2.435   2.553
 7331SOL    HW222893   5.186   2.369   2.609
 7332SOL     OW22894   2.838   6.526   5.322
 7332SOL    HW122895   2.891   6.609   5.306
 7332SOL    HW222896   2.866   6.485   5.408
 7333SOL     OW22897   6.230   0.863   1.239
 7333SOL    HW122898   6.210   0.838   1.144
 7333SOL    HW222899   6.147   0.853   1.294
 7334SOL     OW22900   1.625   4.350   4.868
 7334SOL    HW122901   1.620   4.406   4.951
 7334SOL    HW222902   1.646   4.256   4.893
 7335SOL     OW22903   1.098   3.773   2.516
 7335SOL    HW122904   1.012   3.752   2.563
 7335SOL    HW222905   1.118   3.699   2.451
 7336SOL     OW22906   2.348   6.757   1.054
 7336SOL    HW122907   2.331   6.662   1.025
 7336SOL    HW222908   2.412   6.757   1.131
 7337SOL     OW22909   3.234   1.663   3.824
 7337SOL    HW122910   3.275   1.705   3.743
 7337SOL    HW222911   3.135   1.676   3.821
 7338SOL     OW22912   4.883   3.811   1.211
 7338SOL    HW122913   4.850   3.859   1.130
 7338SOL    HW222914   4.953   3.866   1.257
 7339SOL     OW22915   0.360   6.331   4.946
 7339SOL    HW122916   0.446   6.365   4.907
 7339SOL    HW222917   0.365   6.232   4.955
 7340SOL     OW22918   2.601   5.817   6.910
 7340SOL    HW122919   2.548   5.843   6.829
 7340SOL    HW222920   2.558   5.854   6.992
 7341SOL     OW22921   6.304   5.321   3.845
 7341SOL    HW122922   6.276   5.376   3.766
 7341SOL    HW222923   6.367   5.249   3.814
 7342SOL     OW22924   1.177   5.357   0.769
 7342SOL    HW122925   1.270   5.388   0.785
 7342SOL    HW222926   1.160   5.272   0.819
 7343SOL     OW22927   6.631   2.487   3.263
 7343SOL    HW122928   6.660   2.574   3.300
 7343SOL    HW222929   6.532   2.479   3.268
 7344SOL     OW22930   2.249   1.020   6.571
 7344SOL    HW122931   2.204   0.932   6.554
 7344SOL    HW222932   2.277   1.060   6.484
 7345SOL     OW22933   2.409   6.363   6.656
 7345SOL    HW122934   2.500   6.387   6.689
 7345SOL    HW222935   2.343   6.370   6.731
 7346SOL     OW22936   3.843   4.867   2.437
 7346SOL    HW122937   3.886   4.869   2.527
 7346SOL    HW222938   3.744   4.863   2.448
 7347SOL     OW22939   6.548   3.084   3.029
 7347SOL    HW122940   6.555   3.132   3.116
 7347SOL    HW222941   6.573   3.147   2.955
 7348SOL     OW22942   6.604   1.303   6.030
 7348SOL    HW122943   6.527   1.242   6.049
 7348SOL    HW222944   6.657   1.317   6.113
 7349SOL     OW22945   3.802   1.663   1.129
 7349SOL    HW122946   3.777   1.566   1.130
 7349SOL    HW222947   3.871   1.679   1.058
 7350SOL     OW22948   2.464   1.104   3.119
 7350SOL    HW122949   2.524   1.175   3.083
 7350SOL    HW222950   2.443   1.123   3.215
 7351SOL     OW22951   4.433   4.447   0.781
 7351SOL    HW122952   4.405   4.537   0.812
 7351SOL    HW222953   4.353   4.398   0.744
 7352SOL     OW22954   6.639   0.592   2.948
 7352SOL    HW122955   6.590   0.673   2.915
 7352SOL    HW222956   6.585   0.511   2.931
 7353SOL     OW22957   5.672   1.410   4.915
 7353SOL    HW122958   5.700   1.505   4.899
 7353SOL    HW222959   5.575   1.407   4.936
 7354SOL     OW22960   5.943   4.629   4.932
 7354SOL    HW122961   5.928   4.699   5.001
 7354SOL    HW222962   5.876   4.555   4.946
 7355SOL     OW22963   0.350   5.796   1.366
 7355SOL    HW122964   0.406   5.839   1.295
 7355SOL    HW222965   0.296   5.866   1.412
 7356SOL     OW22966   0.224   2.442   6.026
 7356SOL    HW122967   0.202   2.422   6.122
 7356SOL    HW222968   0.275   2.366   5.987
 7357SOL     OW22969   0.934   1.554   6.983
 7357SOL    HW122970   0.950   1.527   6.888
 7357SOL    HW222971   0.836   1.561   7.000
 7358SOL     OW22972   2.960   0.985   3.905
 7358SOL    HW122973   2.885   1.048   3.883
 7358SOL    HW222974   3.038   1.037   3.940
 7359SOL     OW22975   3.436   2.931   3.344
 7359SOL    HW122976   3.445   2.884   3.257
 7359SOL    HW222977   3.342   2.965   3.354
 7360SOL     OW22978   0.163   4.516   6.388
 7360SOL    HW122979   0.177   4.485   6.482
 7360SOL    HW222980   0.155   4.616   6.387
 7361SOL     OW22981   4.468   6.530   1.564
 7361SOL    HW122982   4.438   6.592   1.492
 7361SOL    HW222983   4.548   6.479   1.533
 7362SOL     OW22984   2.014   6.405   6.475
 7362SOL    HW122985   2.083   6.465   6.435
 7362SOL    HW222986   1.925   6.422   6.432
 7363SOL     OW22987   4.661   2.914   6.852
 7363SOL    HW122988   4.726   2.942   6.922
 7363SOL    HW222989   4.594   2.851   6.892
 7364SOL     OW22990   4.662   0.372   1.437
 7364SOL    HW122991   4.591   0.367   1.507
 7364SOL    HW222992   4.686   0.279   1.407
 7365SOL     OW22993   4.480   0.356   1.644
 7365SOL    HW122994   4.384   0.371   1.667
 7365SOL    HW222995   4.522   0.296   1.712
 7366SOL     OW22996   1.086   6.688   0.335
 7366SOL    HW122997   1.183   6.697   0.311
 7366SOL    HW222998   1.051   6.777   0.365
 7367SOL     OW22999   4.766   2.651   0.100
 7367SOL    HW123000   4.716   2.714   0.160
 7367SOL    HW223001   4.863   2.675   0.101
 7368SOL     OW23002   3.192   3.028   3.845
 7368SOL    HW123003   3.268   2.966   3.824
 7368SOL    HW223004   3.170   3.021   3.942
 7369SOL     OW23005   5.133   1.180   6.020
 7369SOL    HW123006   5.130   1.250   6.091
 7369SOL    HW223007   5.060   1.113   6.035
 7370SOL     OW23008   1.312   5.786   1.106
 7370SOL    HW123009   1.410   5.804   1.111
 7370SOL    HW223010   1.277   5.767   1.198
 7371SOL     OW23011   1.815   4.946   4.181
 7371SOL    HW123012   1.852   4.997   4.259
 7371SOL    HW223013   1.844   4.990   4.096
 7372SOL     OW23014   3.145   0.075   5.281
 7372SOL    HW123015   3.142   0.171   5.311
 7372SOL    HW223016   3.061   0.054   5.231
 7373SOL     OW23017   3.901   0.030   0.821
 7373SOL    HW123018   3.833   0.099   0.798
 7373SOL    HW223019   3.922   0.034   0.918
 7374SOL     OW23020   2.278   3.437   6.780
 7374SOL    HW123021   2.239   3.348   6.757
 7374SOL    HW223022   2.378   3.431   6.776
 7375SOL     OW23023   2.920   6.394   2.926
 7375SOL    HW123024   3.001   6.424   2.876
 7375SOL    HW223025   2.911   6.446   3.010
 7376SOL     OW23026   3.473   4.162   6.525
 7376SOL    HW123027   3.452   4.119   6.612
 7376SOL    HW223028   3.430   4.111   6.451
 7377SOL     OW23029   5.833   5.790   1.796
 7377SOL    HW123030   5.774   5.868   1.776
 7377SOL    HW223031   5.921   5.822   1.831
 7378SOL     OW23032   0.245   2.629   5.816
 7378SOL    HW123033   0.213   2.551   5.870
 7378SOL    HW223034   0.267   2.705   5.877
 7379SOL     OW23035   4.231   0.820   0.992
 7379SOL    HW123036   4.275   0.766   1.063
 7379SOL    HW223037   4.140   0.848   1.023
 7380SOL     OW23038   6.422   2.750   5.698
 7380SOL    HW123039   6.503   2.802   5.724
 7380SOL    HW223040   6.425   2.729   5.600
 7381SOL     OW23041   4.729   2.202   0.563
 7381SOL    HW123042   4.668   2.140   0.612
 7381SOL    HW223043   4.675   2.273   0.518
 7382SOL     OW23044   1.260   5.702   3.881
 7382SOL    HW123045   1.219   5.794   3.887
 7382SOL    HW223046   1.324   5.690   3.957
 7383SOL     OW23047   1.148   4.584   2.946
 7383SOL    HW123048   1.094   4.608   3.026
 7383SOL    HW223049   1.127   4.490   2.918
 7384SOL     OW23050   6.334   1.719   1.329
 7384SOL    HW123051   6.333   1.632   1.378
 7384SOL    HW223052   6.422   1.731   1.283
 7385SOL     OW23053   5.037   0.808   1.524
 7385SOL    HW123054   5.097   0.818   1.603
 7385SOL    HW223055   5.087   0.762   1.450
 7386SOL     OW23056   0.171   2.428   6.300
 7386SOL    HW123057   0.245   2.452   6.362
 7386SOL    HW223058   0.108   2.364   6.346
 7387SOL     OW23059   5.494   6.543   3.883
 7387SOL    HW123060   5.443   6.612   3.935
 7387SOL    HW223061   5.551   6.588   3.814
 7388SOL     OW23062   5.555   4.594   5.024
 7388SOL    HW123063   5.459   4.612   5.046
 7388SOL    HW223064   5.573   4.621   4.930
 7389SOL     OW23065   0.697   3.614   4.620
 7389SOL    HW123066   0.650   3.671   4.553
 7389SOL    HW223067   0.634   3.593   4.695
 7390SOL     OW23068   3.447   0.471   6.316
 7390SOL    HW123069   3.466   0.472   6.414
 7390SOL    HW223070   3.521   0.423   6.269
 7391SOL     OW23071   0.255   5.050   0.119
 7391SOL    HW123072   0.291   4.990   0.191
 7391SOL    HW223073   0.327   5.112   0.088
 7392SOL     OW23074   2.202   4.707   2.618
 7392SOL    HW123075   2.241   4.798   2.633
 7392SOL    HW223076   2.257   4.639   2.667
 7393SOL     OW23077   0.429   3.938   6.937
 7393SOL    HW123078   0.427   4.029   6.979
 7393SOL    HW223079   0.520   3.920   6.901
 7394SOL     OW23080   2.418   2.695   6.091
 7394SOL    HW123081   2.502   2.657   6.129
 7394SOL    HW223082   2.435   2.729   5.998
 7395SOL     OW23083   2.078   6.967   0.052
 7395SOL    HW123084   2.079   6.868   0.065
 7395SOL    HW223085   2.156   6.994   7.020
 7396SOL     OW23086   6.847   0.322   1.807
 7396SOL    HW123087   6.809   0.323   1.714
 7396SOL    HW223088   6.841   0.230   1.845
 7397SOL     OW23089   6.423   4.454   4.375
 7397SOL    HW123090   6.353   4.425   4.440
 7397SOL    HW223091   6.389   4.533   4.324
 7398SOL     OW23092   4.903   6.851   2.766
 7398SOL    HW123093   4.813   6.877   2.799
 7398SOL    HW223094   4.894   6.792   2.685
 7399SOL     OW23095   5.544   4.659   4.732
 7399SOL    HW123096   5.449   4.658   4.698
 7399SOL    HW223097   5.597   4.591   4.683
 7400SOL     OW23098   2.412   3.722   0.589
 7400SOL    HW123099   2.511   3.738   0.588
 7400SOL    HW223100   2.394   3.625   0.573
 7401SOL     OW23101   5.926   2.169   4.825
 7401SOL    HW123102   5.901   2.227   4.902
 7401SOL    HW223103   5.898   2.074   4.843
 7402SOL     OW23104   2.811   6.089   4.405
 7402SOL    HW123105   2.714   6.104   4.385
 7402SOL    HW223106   2.821   6.056   4.498
 7403SOL     OW23107   2.687   2.628   1.070
 7403SOL    HW123108   2.618   2.629   1.142
 7403SOL    HW223109   2.777   2.610   1.110
 7404SOL     OW23110   1.124   1.861   2.885
 7404SOL    HW123111   1.163   1.951   2.901
 7404SOL    HW223112   1.173   1.817   2.809
 7405SOL     OW23113   4.214   5.050   6.082
 7405SOL    HW123114   4.303   5.066   6.126
 7405SOL    HW223115   4.224   5.060   5.983
 7406SOL     OW23116   0.677   6.604   2.241
 7406SOL    HW123117   0.654   6.694   2.277
 7406SOL    HW223118   0.769   6.606   2.203
 7407SOL     OW23119   2.814   0.422   6.235
 7407SOL    HW123120   2.771   0.360   6.169
 7407SOL    HW223121   2.781   0.402   6.327
 7408SOL     OW23122   0.749   3.529   5.186
 7408SOL    HW123123   0.705   3.607   5.231
 7408SOL    HW223124   0.848   3.534   5.199
 7409SOL     OW23125   2.642   6.770   5.219
 7409SOL    HW123126   2.599   6.822   5.145
 7409SOL    HW223127   2.740   6.761   5.200
 7410SOL     OW23128   5.017   5.549   6.649
 7410SOL    HW123129   4.932   5.576   6.604
 7410SOL    HW223130   5.061   5.477   6.595
 7411SOL     OW23131   5.086   4.861   5.842
 7411SOL    HW123132   5.011   4.920   5.871
 7411SOL    HW223133   5.169   4.885   5.892
 7412SOL     OW23134   1.502   0.910   6.511
 7412SOL    HW123135   1.495   0.982   6.580
 7412SOL    HW223136   1.430   0.842   6.526
 7413SOL     OW23137   6.725   3.624   4.086
 7413SOL    HW123138   6.709   3.719   4.059
 7413SOL    HW223139   6.763   3.621   4.178
 7414SOL     OW23140   0.385   4.933   2.088
 7414SOL    HW123141   0.371   5.017   2.034
 7414SOL    HW223142   0.478   4.901   2.075
 7415SOL     OW23143   3.313   1.787   3.588
 7415SOL    HW123144   3.262   1.787   3.502
 7415SOL    HW223145   3.345   1.879   3.608
 7416SOL     OW23146   6.288   0.100   3.394
 7416SOL    HW123147   6.381   0.094   3.358
 7416SOL    HW223148   6.290   0.090   3.494
 7417SOL     OW23149   0.917   5.497   0.796
 7417SOL    HW123150   1.011   5.463   0.788
 7417SOL    HW223151   0.919   5.596   0.811
 7418SOL     OW23152   0.854   3.665   0.539
 7418SOL    HW123153   0.906   3.665   0.454
 7418SOL    HW223154   0.907   3.712   0.610
 7419SOL     OW23155   5.943   1.872   5.473
 7419SOL    HW123156   5.903   1.952   5.428
 7419SOL    HW223157   5.906   1.789   5.433
 7420SOL     OW23158   6.825   5.804   2.320
 7420SOL    HW123159   6.768   5.861   2.379
 7420SOL    HW223160   6.921   5.812   2.350
 7421SOL     OW23161   4.176   2.052   1.369
 7421SOL    HW123162   4.142   2.145   1.359
 7421SOL    HW223163   4.143   1.996   1.293
 7422SOL     OW23164   0.752   1.838   0.685
 7422SOL    HW123165   0.761   1.739   0.676
 7422SOL    HW223166   0.783   1.882   0.601
 7423SOL     OW23167   2.310   4.641   6.849
 7423SOL    HW123168   2.356   4.722   6.813
 7423SOL    HW223169   2.232   4.669   6.906
 7424SOL     OW23170   5.288   0.240   4.742
 7424SOL    HW123171   5.383   0.236   4.771
 7424SOL    HW223172   5.283   0.228   4.642
 7425SOL     OW23173   3.795   0.725   4.845
 7425SOL    HW123174   3.732   0.706   4.770
 7425SOL    HW223175   3.777   0.817   4.881
 7426SOL     OW23176   0.333   1.680   6.982
 7426SOL    HW123177   0.247   1.673   0.010
 7426SOL    HW223178   0.394   1.746   0.006
 7427SOL     OW23179   5.287   5.959   5.023
 7427SOL    HW123180   5.269   5.862   5.010
 7427SOL    HW223181   5.251   6.011   4.946
 7428SOL     OW23182   3.585   1.265   5.534
 7428SOL    HW123183   3.627   1.313   5.457
 7428SOL    HW223184   3.486   1.277   5.531
 7429SOL     OW23185   6.458   6.531   3.859
 7429SOL    HW123186   6.533   6.527   3.792
 7429SOL    HW223187   6.486   6.587   3.937
 7430SOL     OW23188   0.694   4.282   4.599
 7430SOL    HW123189   0.654   4.191   4.602
 7430SOL    HW223190   0.658   4.331   4.519
 7431SOL     OW23191   0.532   4.238   2.338
 7431SOL    HW123192   0.598   4.310   2.320
 7431SOL    HW223193   0.486   4.256   2.425
 7432SOL     OW23194   1.610   6.637   4.603
 7432SOL    HW123195   1.697   6.687   4.603
 7432SOL    HW223196   1.617   6.558   4.664
 7433SOL     OW23197   0.241   6.224   1.090
 7433SOL    HW123198   0.340   6.218   1.104
 7433SOL    HW223199   0.211   6.318   1.107
 7434SOL     OW23200   4.099   0.057   6.763
 7434SOL    HW123201   4.028   0.031   6.827
 7434SOL    HW223202   4.100   7.016   6.686
 7435SOL     OW23203   1.420   6.053   7.022
 7435SOL    HW123204   1.489   5.982   7.011
 7435SOL    HW223205   1.335   6.024   6.977
 7436SOL     OW23206   4.242   3.470   0.012
 7436SOL    HW123207   4.315   3.403   7.021
 7436SOL    HW223208   4.154   3.423   0.018
 7437SOL     OW23209   0.082   6.358   5.669
 7437SOL    HW123210   0.105   6.268   5.632
 7437SOL    HW223211   0.007   6.349   5.734
 7438SOL     OW23212   5.496   3.832   1.529
 7438SOL    HW123213   5.406   3.863   1.559
 7438SOL    HW223214   5.566   3.895   1.561
 7439SOL     OW23215   0.915   6.516   3.864
 7439SOL    HW123216   0.919   6.466   3.951
 7439SOL    HW223217   0.848   6.473   3.804
 7440SOL     OW23218   0.582   1.634   3.736
 7440SOL    HW123219   0.513   1.638   3.809
 7440SOL    HW223220   0.568   1.711   3.673
 7441SOL     OW23221   6.366   0.084   3.658
 7441SOL    HW123222   6.403   0.170   3.694
 7441SOL    HW223223   6.434   0.012   3.669
 7442SOL     OW23224   1.839   0.397   5.857
 7442SOL    HW123225   1.897   0.478   5.847
 7442SOL    HW223226   1.812   0.387   5.952
 7443SOL     OW23227   6.882   1.816   2.003
 7443SOL    HW123228   6.804   1.880   2.004
 7443SOL    HW223229   6.966   1.867   1.985
 7444SOL     OW23230   0.495   2.328   5.288
 7444SOL    HW123231   0.526   2.254   5.349
 7444SOL    HW223232   0.429   2.386   5.337
 7445SOL     OW23233   6.007   3.107   1.671
 7445SOL    HW123234   6.029   3.117   1.768
 7445SOL    HW223235   6.016   3.196   1.626
 7446SOL     OW23236   6.285   3.343   2.862
 7446SOL    HW123237   6.305   3.279   2.788
 7446SOL    HW223238   6.371   3.369   2.907
 7447SOL     OW23239   6.893   4.168   6.368
 7447SOL    HW123240   6.819   4.124   6.316
 7447SOL    HW223241   6.941   4.233   6.309
 7448SOL     OW23242   0.454   6.565   6.286
 7448SOL    HW123243   0.381   6.503   6.315
 7448SOL    HW223244   0.505   6.523   6.211
 7449SOL     OW23245   4.369   0.217   1.311
 7449SOL    HW123246   4.421   0.284   1.258
 7449SOL    HW223247   4.287   0.261   1.347
 7450SOL     OW23248   3.805   0.568   1.872
 7450SOL    HW123249   3.809   0.618   1.958
 7450SOL    HW223250   3.762   0.625   1.802
 7451SOL     OW23251   1.548   0.471   2.390
 7451SOL    HW123252   1.486   0.400   2.355
 7451SOL    HW223253   1.514   0.561   2.364
 7452SOL     OW23254   1.756   6.623   3.411
 7452SOL    HW123255   1.841   6.674   3.428
 7452SOL    HW223256   1.679   6.672   3.451
 7453SOL     OW23257   6.016   5.284   5.607
 7453SOL    HW123258   5.946   5.342   5.648
 7453SOL    HW223259   5.998   5.188   5.626
 7454SOL     OW23260   0.763   3.111   6.502
 7454SOL    HW123261   0.673   3.153   6.516
 7454SOL    HW223262   0.776   3.039   6.571
 7455SOL     OW23263   4.924   1.093   1.029
 7455SOL    HW123264   4.901   1.174   1.084
 7455SOL    HW223265   4.840   1.048   1.001
 7456SOL     OW23266   0.814   3.551   5.526
 7456SOL    HW123267   0.807   3.468   5.470
 7456SOL    HW223268   0.724   3.592   5.535
 7457SOL     OW23269   6.371   6.789   5.915
 7457SOL    HW123270   6.325   6.876   5.932
 7457SOL    HW223271   6.414   6.791   5.824
 7458SOL     OW23272   2.302   0.145   1.212
 7458SOL    HW123273   2.244   0.222   1.237
 7458SOL    HW223274   2.304   0.080   1.288
 7459SOL     OW23275   4.506   6.917   4.353
 7459SOL    HW123276   4.544   6.845   4.411
 7459SOL    HW223277   4.553   6.917   4.265
 7460SOL     OW23278   1.274   5.471   6.783
 7460SOL    HW123279   1.265   5.570   6.771
 7460SOL    HW223280   1.291   5.451   6.880
 7461SOL     OW23281   4.103   0.918   4.081
 7461SOL    HW123282   4.045   0.909   4.162
 7461SOL    HW223283   4.130   1.014   4.070
 7462SOL     OW23284   1.992   0.667   3.029
 7462SOL    HW123285   1.912   0.674   2.970
 7462SOL    HW223286   1.986   0.736   3.102
 7463SOL     OW23287   3.501   3.877   2.101
 7463SOL    HW123288   3.552   3.961   2.120
 7463SOL    HW223289   3.546   3.827   2.027
 7464SOL     OW23290   4.900   0.030   0.519
 7464SOL    HW123291   4.810   7.018   0.493
 7464SOL    HW223292   4.891   0.092   0.597
 7465SOL     OW23293   3.736   0.710   2.590
 7465SOL    HW123294   3.774   0.674   2.505
 7465SOL    HW223295   3.796   0.780   2.627
 7466SOL     OW23296   6.485   0.356   6.969
 7466SOL    HW123297   6.565   0.372   0.004
 7466SOL    HW223298   6.455   0.261   6.979
 7467SOL     OW23299   4.805   1.624   0.922
 7467SOL    HW123300   4.746   1.566   0.867
 7467SOL    HW223301   4.773   1.622   1.017
 7468SOL     OW23302   6.282   3.829   4.447
 7468SOL    HW123303   6.220   3.751   4.444
 7468SOL    HW223304   6.302   3.852   4.542
 7469SOL     OW23305   5.835   1.130   2.244
 7469SOL    HW123306   5.831   1.198   2.171
 7469SOL    HW223307   5.744   1.121   2.286
 7470SOL     OW23308   0.200   3.767   2.809
 7470SOL    HW123309   0.286   3.773   2.861
 7470SOL    HW223310   0.152   3.854   2.816
 7471SOL     OW23311   6.070   4.746   6.013
 7471SOL    HW123312   6.109   4.759   6.104
 7471SOL    HW223313   6.139   4.706   5.953
 7472SOL     OW23314   4.149   4.963   3.126
 7472SOL    HW123315   4.227   5.001   3.176
 7472SOL    HW223316   4.119   5.029   3.057
 7473SOL     OW23317   0.371   3.255   5.012
 7473SOL    HW123318   0.357   3.179   5.076
 7473SOL    HW223319   0.442   3.230   4.946
 7474SOL     OW23320   3.272   1.888   2.887
 7474SOL    HW123321   3.296   1.841   2.972
 7474SOL    HW223322   3.316   1.978   2.884
 7475SOL     OW23323   4.326   1.389   6.388
 7475SOL    HW123324   4.394   1.385   6.315
 7475SOL    HW223325   4.277   1.303   6.392
 7476SOL     OW23326   2.735   0.379   4.754
 7476SOL    HW123327   2.729   0.428   4.841
 7476SOL    HW223328   2.644   0.365   4.717
 7477SOL     OW23329   4.934   3.954   3.904
 7477SOL    HW123330   4.982   4.024   3.956
 7477SOL    HW223331   4.873   3.998   3.837
 7478SOL     OW23332   1.560   4.393   1.642
 7478SOL    HW123333   1.657   4.395   1.620
 7478SOL    HW223334   1.507   4.419   1.561
 7479SOL     OW23335   4.329   0.696   5.498
 7479SOL    HW123336   4.342   0.770   5.432
 7479SOL    HW223337   4.325   0.608   5.450
 7480SOL     OW23338   6.476   5.290   0.845
 7480SOL    HW123339   6.531   5.213   0.878
 7480SOL    HW223340   6.452   5.349   0.922
 7481SOL     OW23341   6.374   6.378   0.458
 7481SOL    HW123342   6.473   6.376   0.467
 7481SOL    HW223343   6.346   6.319   0.382
 7482SOL     OW23344   5.371   6.948   3.788
 7482SOL    HW123345   5.369   6.880   3.861
 7482SOL    HW223346   5.447   6.928   3.726
 7483SOL     OW23347   3.271   0.456   5.942
 7483SOL    HW123348   3.333   0.497   5.875
 7483SOL    HW223349   3.177   0.482   5.920
 7484SOL     OW23350   3.818   0.559   2.341
 7484SOL    HW123351   3.744   0.515   2.290
 7484SOL    HW223352   3.905   0.517   2.315
 7485SOL     OW23353   1.229   6.905   5.253
 7485SOL    HW123354   1.277   6.977   5.203
 7485SOL    HW223355   1.133   6.904   5.225
 7486SOL     OW23356   1.051   1.620   5.078
 7486SOL    HW123357   1.023   1.692   5.142
 7486SOL    HW223358   1.006   1.633   4.990
 7487SOL     OW23359   3.729   5.525   3.092
 7487SOL    HW123360   3.652   5.498   3.035
 7487SOL    HW223361   3.697   5.577   3.171
 7488SOL     OW23362   3.708   1.018   5.608
 7488SOL    HW123363   3.805   1.035   5.597
 7488SOL    HW223364   3.656   1.093   5.567
 7489SOL     OW23365   0.035   4.152   3.401
 7489SOL    HW123366   7.018   4.115   3.484
 7489SOL    HW223367   7.023   4.244   3.384
 7490SOL     OW23368   5.862   1.132   3.346
 7490SOL    HW123369   5.790   1.150   3.279
 7490SOL    HW223370   5.915   1.052   3.316
 7491SOL     OW23371   6.981   6.606   6.987
 7491SOL    HW123372   6.905   6.640   6.932
 7491SOL    HW223373   0.042   6.653   6.962
 7492SOL     OW23374   2.158   2.365   3.849
 7492SOL    HW123375   2.135   2.411   3.934
 7492SOL    HW223376   2.255   2.340   3.849
 7493SOL     OW23377   5.215   4.974   6.888
 7493SOL    HW123378   5.147   4.904   6.869
 7493SOL    HW223379   5.292   4.934   6.937
 7494SOL     OW23380   5.192   2.031   1.115
 7494SOL    HW123381   5.162   1.954   1.059
 7494SOL    HW223382   5.289   2.048   1.098
 7495SOL     OW23383   0.784   1.602   2.459
 7495SOL    HW123384   0.871   1.604   2.410
 7495SOL    HW223385   0.728   1.679   2.429
 7496SOL     OW23386   0.224   5.678   5.938
 7496SOL    HW123387   0.256   5.769   5.912
 7496SOL    HW223388   0.237   5.665   6.036
 7497SOL     OW23389   2.091   5.179   2.306
 7497SOL    HW123390   2.106   5.082   2.285
 7497SOL    HW223391   2.036   5.187   2.390
 7498SOL     OW23392   5.605   1.979   4.489
 7498SOL    HW123393   5.515   1.941   4.468
 7498SOL    HW223394   5.598   2.038   4.569
 7499SOL     OW23395   4.018   4.824   3.825
 7499SOL    HW123396   4.066   4.777   3.751
 7499SOL    HW223397   3.931   4.859   3.791
 7500SOL     OW23398   4.757   4.188   1.868
 7500SOL    HW123399   4.749   4.093   1.898
 7500SOL    HW223400   4.691   4.244   1.917
 7501SOL     OW23401   0.394   4.770   4.033
 7501SOL    HW123402   0.420   4.681   3.996
 7501SOL    HW223403   0.424   4.778   4.128
 7502SOL     OW23404   1.728   2.346   4.599
 7502SOL    HW123405   1.758   2.418   4.661
 7502SOL    HW223406   1.713   2.262   4.651
 7503SOL     OW23407   2.205   2.968   6.594
 7503SOL    HW123408   2.290   2.925   6.565
 7503SOL    HW223409   2.132   2.899   6.594
 7504SOL     OW23410   3.685   5.337   3.769
 7504SOL    HW123411   3.658   5.272   3.698
 7504SOL    HW223412   3.612   5.343   3.838
 7505SOL     OW23413   1.575   1.397   4.355
 7505SOL    HW123414   1.535   1.354   4.436
 7505SOL    HW223415   1.505   1.453   4.309
 7506SOL     OW23416   3.329   1.327   3.382
 7506SOL    HW123417   3.292   1.403   3.329
 7506SOL    HW223418   3.427   1.319   3.365
 7507SOL     OW23419   1.721   6.273   5.643
 7507SOL    HW123420   1.780   6.352   5.659
 7507SOL    HW223421   1.744   6.230   5.556
 7508SOL     OW23422   4.844   5.527   4.120
 7508SOL    HW123423   4.803   5.612   4.155
 7508SOL    HW223424   4.896   5.483   4.193
 7509SOL     OW23425   4.152   3.715   6.365
 7509SOL    HW123426   4.244   3.753   6.374
 7509SOL    HW223427   4.139   3.681   6.271
 7510SOL     OW23428   3.414   3.929   4.711
 7510SOL    HW123429   3.505   3.924   4.752
 7510SOL    HW223430   3.379   3.836   4.698
 7511SOL     OW23431   1.151   0.469   2.366
 7511SOL    HW123432   1.203   0.490   2.283
 7511SOL    HW223433   1.103   0.382   2.354
 7512SOL     OW23434   2.036   2.848   1.704
 7512SOL    HW123435   1.969   2.863   1.631
 7512SOL    HW223436   2.119   2.809   1.665
 7513SOL     OW23437   1.211   3.538   6.222
 7513SOL    HW123438   1.117   3.558   6.196
 7513SOL    HW223439   1.215   3.449   6.268
 7514SOL     OW23440   3.027   5.564   3.332
 7514SOL    HW123441   3.061   5.624   3.404
 7514SOL    HW223442   3.103   5.512   3.293
 7515SOL     OW23443   0.482   5.193   2.954
 7515SOL    HW123444   0.538   5.138   3.015
 7515SOL    HW223445   0.533   5.213   2.870
 7516SOL     OW23446   1.227   1.825   2.134
 7516SOL    HW123447   1.202   1.783   2.222
 7516SOL    HW223448   1.215   1.758   2.061
 7517SOL     OW23449   0.582   5.235   0.969
 7517SOL    HW123450   0.544   5.319   0.931
 7517SOL    HW223451   0.593   5.245   1.068
 7518SOL     OW23452   5.102   5.038   3.726
 7518SOL    HW123453   5.157   4.961   3.692
 7518SOL    HW223454   5.021   5.049   3.668
 7519SOL     OW23455   1.277   0.175   3.997
 7519SOL    HW123456   1.328   0.095   4.028
 7519SOL    HW223457   1.181   0.150   3.982
 7520SOL     OW23458   2.666   0.139   3.879
 7520SOL    HW123459   2.726   0.132   3.958
 7520SOL    HW223460   2.701   0.083   3.804
 7521SOL     OW23461   4.367   3.359   5.442
 7521SOL    HW123462   4.357   3.278   5.383
 7521SOL    HW223463   4.329   3.339   5.532
 7522SOL     OW23464   1.801   0.065   2.670
 7522SOL    HW123465   1.758   0.085   2.582
 7522SOL    HW223466   1.741   0.007   2.724
 7523SOL     OW23467   6.231   6.746   6.734
 7523SOL    HW123468   6.254   6.827   6.788
 7523SOL    HW223469   6.289   6.670   6.762
 7524SOL     OW23470   6.230   1.008   4.540
 7524SOL    HW123471   6.301   0.980   4.605
 7524SOL    HW223472   6.168   1.073   4.585
 7525SOL     OW23473   1.003   6.229   0.556
 7525SOL    HW123474   0.918   6.203   0.511
 7525SOL    HW223475   1.078   6.227   0.490
 7526SOL     OW23476   3.696   3.482   4.806
 7526SOL    HW123477   3.699   3.481   4.707
 7526SOL    HW223478   3.609   3.522   4.836
 7527SOL     OW23479   4.592   5.753   1.978
 7527SOL    HW123480   4.654   5.682   2.013
 7527SOL    HW223481   4.506   5.750   2.028
 7528SOL     OW23482   5.746   3.582   6.265
 7528SOL    HW123483   5.722   3.523   6.342
 7528SOL    HW223484   5.759   3.676   6.298
 7529SOL     OW23485   2.946   0.369   4.564
 7529SOL    HW123486   2.916   0.426   4.487
 7529SOL    HW223487   2.886   0.383   4.642
 7530SOL     OW23488   6.802   2.907   3.640
 7530SOL    HW123489   6.724   2.859   3.599
 7530SOL    HW223490   6.797   3.004   3.617
 7531SOL     OW23491   2.617   1.532   4.683
 7531SOL    HW123492   2.567   1.543   4.597
 7531SOL    HW223493   2.707   1.493   4.664
 7532SOL     OW23494   4.749   4.732   2.156
 7532SOL    HW123495   4.681   4.799   2.125
 7532SOL    HW223496   4.702   4.659   2.206
 7533SOL     OW23497   3.628   0.660   4.624
 7533SOL    HW123498   3.658   0.565   4.611
 7533SOL    HW223499   3.543   0.660   4.678
 7534SOL     OW23500   5.376   6.767   4.015
 7534SOL    HW123501   5.468   6.796   4.042
 7534SOL    HW223502   5.310   6.795   4.085
 7535SOL     OW23503   3.636   4.491   0.471
 7535SOL    HW123504   3.657   4.488   0.373
 7535SOL    HW223505   3.565   4.560   0.487
 7536SOL     OW23506   3.820   6.176   4.632
 7536SOL    HW123507   3.722   6.189   4.645
 7536SOL    HW223508   3.840   6.078   4.633
 7537SOL     OW23509   2.205   4.555   5.495
 7537SOL    HW123510   2.219   4.637   5.549
 7537SOL    HW223511   2.289   4.534   5.444
 7538SOL     OW23512   3.094   3.070   3.210
 7538SOL    HW123513   3.066   3.055   3.305
 7538SOL    HW223514   3.152   3.151   3.205
 7539SOL     OW23515   1.757   2.492   4.834
 7539SOL    HW123516   1.812   2.574   4.848
 7539SOL    HW223517   1.660   2.515   4.845
 7540SOL     OW23518   2.090   0.767   0.025
 7540SOL    HW123519   2.131   0.751   0.115
 7540SOL    HW223520   2.036   0.851   0.027
 7541SOL     OW23521   6.859   2.423   5.769
 7541SOL    HW123522   6.923   2.387   5.701
 7541SOL    HW223523   6.777   2.458   5.723
 7542SOL     OW23524   1.894   0.116   5.715
 7542SOL    HW123525   1.804   0.078   5.698
 7542SOL    HW223526   1.885   0.207   5.755
 7543SOL     OW23527   3.580   2.681   7.011
 7543SOL    HW123528   3.519   2.689   0.067
 7543SOL    HW223529   3.660   2.739   0.002
 7544SOL     OW23530   1.055   2.134   2.432
 7544SOL    HW123531   1.074   2.229   2.456
 7544SOL    HW223532   0.958   2.114   2.448
 7545SOL     OW23533   5.026   0.525   3.295
 7545SOL    HW123534   5.116   0.559   3.321
 7545SOL    HW223535   4.955   0.574   3.346
 7546SOL     OW23536   5.116   6.906   6.050
 7546SOL    HW123537   5.017   6.897   6.051
 7546SOL    HW223538   5.155   6.860   6.130
 7547SOL     OW23539   2.872   0.037   0.426
 7547SOL    HW123540   2.877   0.103   0.500
 7547SOL    HW223541   2.909   6.972   0.457
 7548SOL     OW23542   1.222   3.378   1.190
 7548SOL    HW123543   1.193   3.308   1.255
 7548SOL    HW223544   1.202   3.347   1.097
 7549SOL     OW23545   5.781   2.254   1.994
 7549SOL    HW123546   5.743   2.301   2.073
 7549SOL    HW223547   5.758   2.304   1.910
 7550SOL     OW23548   1.049   4.850   1.648
 7550SOL    HW123549   0.956   4.874   1.675
 7550SOL    HW223550   1.092   4.795   1.720
 7551SOL     OW23551   5.183   4.251   6.764
 7551SOL    HW123552   5.159   4.154   6.750
 7551SOL    HW223553   5.280   4.258   6.787
 7552SOL     OW23554   3.519   5.542   3.842
 7552SOL    HW123555   3.564   5.609   3.782
 7552SOL    HW223556   3.423   5.533   3.815
 7553SOL     OW23557   4.363   3.651   5.721
 7553SOL    HW123558   4.460   3.666   5.739
 7553SOL    HW223559   4.331   3.715   5.652
 7554SOL     OW23560   6.906   1.383   0.620
 7554SOL    HW123561   6.903   1.284   0.612
 7554SOL    HW223562   6.998   1.411   0.649
 7555SOL     OW23563   1.764   5.860   5.609
 7555SOL    HW123564   1.855   5.886   5.576
 7555SOL    HW223565   1.709   5.829   5.531
 7556SOL     OW23566   6.866   3.446   3.933
 7556SOL    HW123567   6.804   3.514   3.973
 7556SOL    HW223568   6.850   3.442   3.834
 7557SOL     OW23569   3.691   3.263   0.746
 7557SOL    HW123570   3.760   3.268   0.818
 7557SOL    HW223571   3.670   3.168   0.726
 7558SOL     OW23572   1.740   2.336   2.922
 7558SOL    HW123573   1.809   2.358   2.853
 7558SOL    HW223574   1.729   2.237   2.927
 7559SOL     OW23575   1.284   4.307   0.387
 7559SOL    HW123576   1.223   4.241   0.345
 7559SOL    HW223577   1.376   4.267   0.394
 7560SOL     OW23578   4.434   0.172   5.336
 7560SOL    HW123579   4.409   0.229   5.257
 7560SOL    HW223580   4.444   0.077   5.307
 7561SOL     OW23581   0.002   3.362   7.013
 7561SOL    HW123582   6.945   3.304   7.002
 7561SOL    HW223583   0.051   3.369   6.927
 7562SOL     OW23584   4.558   6.518   5.035
 7562SOL    HW123585   4.582   6.614   5.054
 7562SOL    HW223586   4.606   6.459   5.100
 7563SOL     OW23587   2.636   1.568   2.793
 7563SOL    HW123588   2.719   1.615   2.823
 7563SOL    HW223589   2.650   1.469   2.798
 7564SOL     OW23590   4.729   6.371   3.889
 7564SOL    HW123591   4.753   6.274   3.889
 7564SOL    HW223592   4.807   6.424   3.924
 7565SOL     OW23593   4.897   5.179   6.789
 7565SOL    HW123594   4.807   5.188   6.747
 7565SOL    HW223595   4.907   5.087   6.827
 7566SOL     OW23596   1.751   5.842   4.806
 7566SOL    HW123597   1.725   5.910   4.737
 7566SOL    HW223598   1.670   5.807   4.851
 7567SOL     OW23599   2.502   2.868   0.425
 7567SOL    HW123600   2.409   2.844   0.398
 7567SOL    HW223601   2.567   2.831   0.359
 7568SOL     OW23602   4.476   4.708   2.650
 7568SOL    HW123603   4.381   4.708   2.619
 7568SOL    HW223604   4.519   4.621   2.624
 7569SOL     OW23605   3.912   0.022   1.098
 7569SOL    HW123606   3.946   0.116   1.101
 7569SOL    HW223607   3.860   0.003   1.181
 7570SOL     OW23608   5.795   5.584   4.828
 7570SOL    HW123609   5.825   5.492   4.802
 7570SOL    HW223610   5.867   5.629   4.881
 7571SOL     OW23611   5.451   4.310   1.522
 7571SOL    HW123612   5.362   4.341   1.554
 7571SOL    HW223613   5.440   4.232   1.460
 7572SOL     OW23614   0.770   1.050   3.552
 7572SOL    HW123615   0.855   1.001   3.532
 7572SOL    HW223616   0.783   1.148   3.533
 7573SOL     OW23617   2.966   5.370   5.407
 7573SOL    HW123618   2.880   5.398   5.449
 7573SOL    HW223619   3.013   5.305   5.466
 7574SOL     OW23620   5.233   6.205   2.329
 7574SOL    HW123621   5.272   6.182   2.240
 7574SOL    HW223622   5.228   6.305   2.339
 7575SOL     OW23623   4.682   2.851   4.683
 7575SOL    HW123624   4.618   2.928   4.687
 7575SOL    HW223625   4.714   2.830   4.776
 7576SOL     OW23626   6.694   3.622   1.654
 7576SOL    HW123627   6.769   3.605   1.591
 7576SOL    HW223628   6.627   3.548   1.647
 7577SOL     OW23629   4.569   0.746   4.860
 7577SOL    HW123630   4.561   0.647   4.848
 7577SOL    HW223631   4.513   0.792   4.791
 7578SOL     OW23632   2.822   5.316   4.632
 7578SOL    HW123633   2.833   5.245   4.564
 7578SOL    HW223634   2.862   5.402   4.598
 7579SOL     OW23635   4.617   2.512   3.852
 7579SOL    HW123636   4.574   2.486   3.938
 7579SOL    HW223637   4.667   2.598   3.864
 7580SOL     OW23638   2.152   3.566   2.576
 7580SOL    HW123639   2.156   3.543   2.478
 7580SOL    HW223640   2.118   3.487   2.627
 7581SOL     OW23641   5.580   0.992   1.164
 7581SOL    HW123642   5.566   1.091   1.165
 7581SOL    HW223643   5.496   0.947   1.135
 7582SOL     OW23644   2.879   1.760   0.884
 7582SOL    HW123645   2.785   1.734   0.906
 7582SOL    HW223646   2.879   1.852   0.845
 7583SOL     OW23647   6.823   3.826   2.716
 7583SOL    HW123648   6.871   3.900   2.764
 7583SOL    HW223649   6.730   3.855   2.696
 7584SOL     OW23650   1.833   1.924   1.341
 7584SOL    HW123651   1.821   1.826   1.354
 7584SOL    HW223652   1.863   1.966   1.426
 7585SOL     OW23653   1.878   5.280   6.328
 7585SOL    HW123654   1.837   5.260   6.416
 7585SOL    HW223655   1.877   5.379   6.313
 7586SOL     OW23656   2.389   0.966   2.119
 7586SOL    HW123657   2.379   0.910   2.202
 7586SOL    HW223658   2.420   1.057   2.145
 7587SOL     OW23659   2.144   0.568   6.024
 7587SOL    HW123660   2.173   0.654   5.983
 7587SOL    HW223661   2.047   0.554   6.008
 7588SOL     OW23662   1.204   4.045   1.806
 7588SOL    HW123663   1.300   4.066   1.791
 7588SOL    HW223664   1.155   4.127   1.834
 7589SOL     OW23665   5.366   6.263   6.560
 7589SOL    HW123666   5.349   6.265   6.461
 7589SOL    HW223667   5.455   6.304   6.579
 7590SOL     OW23668   1.558   0.187   6.659
 7590SOL    HW123669   1.569   0.194   6.560
 7590SOL    HW223670   1.636   0.138   6.699
 7591SOL     OW23671   6.693   5.582   0.011
 7591SOL    HW123672   6.715   5.577   6.936
 7591SOL    HW223673   6.714   5.495   0.054
 7592SOL     OW23674   4.871   5.564   6.113
 7592SOL    HW123675   4.810   5.615   6.173
 7592SOL    HW223676   4.924   5.499   6.168
 7593SOL     OW23677   6.449   3.741   0.657
 7593SOL    HW123678   6.530   3.695   0.692
 7593SOL    HW223679   6.384   3.673   0.623
 7594SOL     OW23680   0.779   6.626   3.504
 7594SOL    HW123681   0.874   6.653   3.491
 7594SOL    HW223682   0.754   6.637   3.600
 7595SOL     OW23683   6.610   2.232   0.109
 7595SOL    HW123684   6.681   2.245   0.039
 7595SOL    HW223685   6.537   2.174   0.073
 7596SOL     OW23686   4.913   4.445   1.910
 7596SOL    HW123687   4.962   4.408   1.988
 7596SOL    HW223688   4.814   4.445   1.928
 7597SOL     OW23689   2.794   5.810   1.845
 7597SOL    HW123690   2.697   5.816   1.869
 7597SOL    HW223691   2.815   5.878   1.775
 7598SOL     OW23692   6.969   0.710   2.599
 7598SOL    HW123693   6.971   0.624   2.651
 7598SOL    HW223694   6.983   0.787   2.661
 7599SOL     OW23695   6.452   2.703   1.889
 7599SOL    HW123696   6.505   2.622   1.863
 7599SOL    HW223697   6.364   2.701   1.842
 7600SOL     OW23698   2.140   1.594   2.112
 7600SOL    HW123699   2.052   1.567   2.151
 7600SOL    HW223700   2.177   1.671   2.165
 7601SOL     OW23701   1.570   0.306   5.032
 7601SOL    HW123702   1.620   0.221   5.017
 7601SOL    HW223703   1.525   0.333   4.947
 7602SOL     OW23704   2.237   3.425   5.193
 7602SOL    HW123705   2.328   3.442   5.231
 7602SOL    HW223706   2.218   3.327   5.194
 7603SOL     OW23707   0.245   1.176   1.832
 7603SOL    HW123708   0.242   1.081   1.863
 7603SOL    HW223709   0.170   1.227   1.873
 7604SOL     OW23710   4.691   5.797   6.700
 7604SOL    HW123711   4.642   5.817   6.785
 7604SOL    HW223712   4.775   5.849   6.697
 7605SOL     OW23713   5.612   3.976   5.880
 7605SOL    HW123714   5.656   3.986   5.969
 7605SOL    HW223715   5.631   3.885   5.844
 7606SOL     OW23716   5.904   2.175   2.945
 7606SOL    HW123717   5.821   2.135   2.985
 7606SOL    HW223718   5.966   2.204   3.019
 7607SOL     OW23719   5.107   0.122   5.899
 7607SOL    HW123720   5.111   0.034   5.946
 7607SOL    HW223721   5.167   0.187   5.946
 7608SOL     OW23722   3.691   2.908   3.488
 7608SOL    HW123723   3.595   2.918   3.461
 7608SOL    HW223724   3.749   2.955   3.422
 7609SOL     OW23725   1.588   2.691   4.469
 7609SOL    HW123726   1.530   2.746   4.409
 7609SOL    HW223727   1.642   2.752   4.527
 7610SOL     OW23728   5.645   1.095   1.956
 7610SOL    HW123729   5.621   1.156   1.881
 7610SOL    HW223730   5.721   1.036   1.927
 7611SOL     OW23731   1.788   1.755   1.559
 7611SOL    HW123732   1.747   1.701   1.486
 7611SOL    HW223733   1.869   1.708   1.594
 7612SOL     OW23734   4.541   1.732   2.772
 7612SOL    HW123735   4.600   1.732   2.852
 7612SOL    HW223736   4.533   1.825   2.736
 7613SOL     OW23737   5.200   0.806   3.059
 7613SOL    HW123738   5.199   0.906   3.052
 7613SOL    HW223739   5.294   0.774   3.047
 7614SOL     OW23740   3.972   1.133   0.238
 7614SOL    HW123741   3.932   1.073   0.168
 7614SOL    HW223742   3.905   1.148   0.310
 7615SOL     OW23743   3.819   4.643   5.998
 7615SOL    HW123744   3.785   4.548   5.995
 7615SOL    HW223745   3.918   4.643   5.989
 7616SOL     OW23746   6.669   4.906   3.525
 7616SOL    HW123747   6.667   4.858   3.438
 7616SOL    HW223748   6.740   4.866   3.584
 7617SOL     OW23749   3.495   6.241   2.332
 7617SOL    HW123750   3.498   6.147   2.298
 7617SOL    HW223751   3.578   6.260   2.385
 7618SOL     OW23752   1.877   2.439   0.899
 7618SOL    HW123753   1.960   2.389   0.920
 7618SOL    HW223754   1.806   2.417   0.966
 7619SOL     OW23755   5.597   3.349   5.817
 7619SOL    HW123756   5.557   3.263   5.849
 7619SOL    HW223757   5.641   3.395   5.893
 7620SOL     OW23758   2.910   6.067   1.658
 7620SOL    HW123759   2.948   6.142   1.713
 7620SOL    HW223760   2.829   6.100   1.610
 7621SOL     OW23761   2.452   1.870   1.175
 7621SOL    HW123762   2.469   1.937   1.103
 7621SOL    HW223763   2.526   1.875   1.243
 7622SOL     OW23764   5.297   1.682   1.268
 7622SOL    HW123765   5.362   1.708   1.340
 7622SOL    HW223766   5.222   1.629   1.308
 7623SOL     OW23767   5.443   0.044   5.045
 7623SOL    HW123768   5.400   6.991   4.996
 7623SOL    HW223769   5.535   0.059   5.009
 7624SOL     OW23770   6.591   0.879   4.462
 7624SOL    HW123771   6.625   0.796   4.418
 7624SOL    HW223772   6.658   0.953   4.450
 7625SOL     OW23773   4.066   6.356   0.501
 7625SOL    HW123774   4.141   6.384   0.561
 7625SOL    HW223775   3.989   6.322   0.556
 7626SOL     OW23776   2.528   4.542   4.657
 7626SOL    HW123777   2.483   4.456   4.632
 7626SOL    HW223778   2.573   4.532   4.745
 7627SOL     OW23779   0.102   1.734   0.138
 7627SOL    HW123780   0.006   1.709   0.126
 7627SOL    HW223781   0.114   1.831   0.119
 7628SOL     OW23782   4.166   1.914   1.036
 7628SOL    HW123783   4.083   1.922   0.980
 7628SOL    HW223784   4.203   1.821   1.028
 7629SOL     OW23785   6.041   5.461   3.239
 7629SOL    HW123786   6.084   5.547   3.268
 7629SOL    HW223787   5.944   5.462   3.266
 7630SOL     OW23788   6.916   1.487   2.288
 7630SOL    HW123789   7.011   1.503   2.315
 7630SOL    HW223790   6.856   1.537   2.350
 7631SOL     OW23791   1.397   1.537   3.546
 7631SOL    HW123792   1.482   1.558   3.498
 7631SOL    HW223793   1.378   1.610   3.612
 7632SOL     OW23794   4.472   1.044   6.210
 7632SOL    HW123795   4.461   0.993   6.294
 7632SOL    HW223796   4.569   1.067   6.196
 7633SOL     OW23797   5.414   4.931   6.590
 7633SOL    HW123798   5.317   4.952   6.586
 7633SOL    HW223799   5.447   4.940   6.684
 7634SOL     OW23800   0.757   2.095   1.899
 7634SOL    HW123801   0.850   2.128   1.883
 7634SOL    HW223802   0.717   2.065   1.813
 7635SOL     OW23803   2.784   5.072   6.114
 7635SOL    HW123804   2.783   5.155   6.058
 7635SOL    HW223805   2.877   5.037   6.119
 7636SOL     OW23806   2.089   0.505   3.529
 7636SOL    HW123807   1.993   0.506   3.556
 7636SOL    HW223808   2.124   0.411   3.530
 7637SOL     OW23809   2.327   6.269   4.157
 7637SOL    HW123810   2.398   6.340   4.156
 7637SOL    HW223811   2.253   6.298   4.217
 7638SOL     OW23812   4.167   4.232   1.493
 7638SOL    HW123813   4.213   4.157   1.541
 7638SOL    HW223814   4.217   4.317   1.507
 7639SOL     OW23815   6.816   2.588   4.685
 7639SOL    HW123816   6.800   2.495   4.717
 7639SOL    HW223817   6.735   2.644   4.703
 7640SOL     OW23818   2.216   3.189   5.730
 7640SOL    HW123819   2.286   3.252   5.765
 7640SOL    HW223820   2.171   3.230   5.651
 7641SOL     OW23821   6.360   2.757   3.437
 7641SOL    HW123822   6.311   2.748   3.350
 7641SOL    HW223823   6.301   2.727   3.512
 7642SOL     OW23824   2.151   1.027   2.861
 7642SOL    HW123825   2.214   0.949   2.862
 7642SOL    HW223826   2.200   1.110   2.889
 7643SOL     OW23827   5.701   3.016   3.200
 7643SOL    HW123828   5.734   3.111   3.198
 7643SOL    HW223829   5.651   2.997   3.115
 7644SOL     OW23830   6.548   4.011   3.583
 7644SOL    HW123831   6.511   3.919   3.570
 7644SOL    HW223832   6.474   4.077   3.584
 7645SOL     OW23833   4.357   3.023   0.279
 7645SOL    HW123834   4.320   2.968   0.354
 7645SOL    HW223835   4.287   3.085   0.244
 7646SOL     OW23836   0.500   1.331   1.388
 7646SOL    HW123837   0.482   1.234   1.372
 7646SOL    HW223838   0.590   1.355   1.353
 7647SOL     OW23839   2.431   5.127   0.994
 7647SOL    HW123840   2.417   5.096   1.088
 7647SOL    HW223841   2.529   5.132   0.974
 7648SOL     OW23842   3.737   0.248   3.849
 7648SOL    HW123843   3.678   0.256   3.769
 7648SOL    HW223844   3.831   0.270   3.822
 7649SOL     OW23845   2.979   1.288   1.963
 7649SOL    HW123846   3.012   1.357   2.027
 7649SOL    HW223847   2.983   1.323   1.870
 7650SOL     OW23848   6.071   4.283   0.959
 7650SOL    HW123849   6.079   4.186   0.941
 7650SOL    HW223850   5.993   4.299   1.020
 7651SOL     OW23851   4.194   2.196   6.575
 7651SOL    HW123852   4.222   2.159   6.486
 7651SOL    HW223853   4.100   2.168   6.595
 7652SOL     OW23854   1.689   3.365   3.034
 7652SOL    HW123855   1.591   3.382   3.019
 7652SOL    HW223856   1.704   3.269   3.055
 7653SOL     OW23857   3.745   1.823   1.514
 7653SOL    HW123858   3.822   1.792   1.458
 7653SOL    HW223859   3.772   1.903   1.567
 7654SOL     OW23860   4.901   3.718   4.158
 7654SOL    HW123861   4.864   3.806   4.187
 7654SOL    HW223862   4.901   3.713   4.058
 7655SOL     OW23863   4.501   6.292   5.265
 7655SOL    HW123864   4.443   6.230   5.211
 7655SOL    HW223865   4.512   6.254   5.357
 7656SOL     OW23866   1.136   6.527   4.355
 7656SOL    HW123867   1.114   6.584   4.277
 7656SOL    HW223868   1.234   6.533   4.375
 7657SOL     OW23869   4.582   1.710   4.177
 7657SOL    HW123870   4.499   1.663   4.207
 7657SOL    HW223871   4.565   1.808   4.172
 7658SOL     OW23872   4.145   0.304   6.402
 7658SOL    HW123873   4.234   0.259   6.410
 7658SOL    HW223874   4.076   0.237   6.374
 7659SOL     OW23875   5.560   6.669   0.148
 7659SOL    HW123876   5.513   6.608   0.085
 7659SOL    HW223877   5.580   6.620   0.233
 7660SOL     OW23878   5.995   4.543   4.690
 7660SOL    HW123879   5.979   4.612   4.620
 7660SOL    HW223880   5.968   4.579   4.779
 7661SOL     OW23881   5.449   3.215   3.920
 7661SOL    HW123882   5.515   3.235   3.992
 7661SOL    HW223883   5.433   3.116   3.916
 7662SOL     OW23884   6.556   5.643   2.899
 7662SOL    HW123885   6.505   5.574   2.847
 7662SOL    HW223886   6.541   5.733   2.858
 7663SOL     OW23887   6.283   5.763   6.973
 7663SOL    HW123888   6.302   5.683   0.007
 7663SOL    HW223889   6.193   5.800   6.995
 7664SOL     OW23890   2.769   5.730   5.100
 7664SOL    HW123891   2.865   5.749   5.078
 7664SOL    HW223892   2.759   5.635   5.128
 7665SOL     OW23893   2.286   5.464   4.128
 7665SOL    HW123894   2.261   5.412   4.045
 7665SOL    HW223895   2.225   5.542   4.138
 7666SOL     OW23896   2.240   1.088   0.773
 7666SOL    HW123897   2.210   1.024   0.703
 7666SOL    HW223898   2.242   1.181   0.734
 7667SOL     OW23899   4.410   6.305   6.483
 7667SOL    HW123900   4.411   6.258   6.571
 7667SOL    HW223901   4.490   6.276   6.429
 7668SOL     OW23902   2.622   3.965   1.681
 7668SOL    HW123903   2.629   4.064   1.669
 7668SOL    HW223904   2.713   3.925   1.689
 7669SOL     OW23905   4.518   6.366   4.827
 7669SOL    HW123906   4.557   6.420   4.902
 7669SOL    HW223907   4.429   6.403   4.802
 7670SOL     OW23908   1.685   5.252   0.709
 7670SOL    HW123909   1.751   5.305   0.655
 7670SOL    HW223910   1.690   5.156   0.683
 7671SOL     OW23911   5.337   2.716   4.950
 7671SOL    HW123912   5.432   2.684   4.946
 7671SOL    HW223913   5.281   2.647   4.996
 7672SOL     OW23914   6.266   0.292   2.159
 7672SOL    HW123915   6.241   0.388   2.161
 7672SOL    HW223916   6.361   0.282   2.128
 7673SOL     OW23917   0.106   4.369   6.941
 7673SOL    HW123918   0.010   4.363   6.967
 7673SOL    HW223919   0.153   4.285   6.969
 7674SOL     OW23920   6.269   1.504   5.290
 7674SOL    HW123921   6.241   1.565   5.216
 7674SOL    HW223922   6.336   1.550   5.348
 7675SOL     OW23923   4.653   6.975   3.129
 7675SOL    HW123924   4.744   6.952   3.165
 7675SOL    HW223925   4.585   6.914   3.168
 7676SOL     OW23926   1.279   0.401   1.419
 7676SOL    HW123927   1.332   0.368   1.497
 7676SOL    HW223928   1.330   0.475   1.374
 7677SOL     OW23929   1.688   2.196   2.668
 7677SOL    HW123930   1.763   2.132   2.686
 7677SOL    HW223931   1.603   2.145   2.655
 7678SOL     OW23932   5.137   6.586   6.072
 7678SOL    HW123933   5.162   6.641   5.992
 7678SOL    HW223934   5.145   6.641   6.155
 7679SOL     OW23935   1.590   5.078   5.471
 7679SOL    HW123936   1.589   4.987   5.428
 7679SOL    HW223937   1.676   5.124   5.450
 7680SOL     OW23938   4.620   1.368   6.581
 7680SOL    HW123939   4.608   1.442   6.514
 7680SOL    HW223940   4.661   1.405   6.664
 7681SOL     OW23941   2.492   2.109   6.258
 7681SOL    HW123942   2.588   2.111   6.230
 7681SOL    HW223943   2.452   2.021   6.235
 7682SOL     OW23944   2.607   0.215   1.221
 7682SOL    HW123945   2.508   0.222   1.210
 7682SOL    HW223946   2.628   0.142   1.287
 7683SOL     OW23947   6.120   2.017   2.817
 7683SOL    HW123948   6.095   1.975   2.730
 7683SOL    HW223949   6.045   2.075   2.848
 7684SOL     OW23950   4.422   2.090   6.272
 7684SOL    HW123951   4.386   2.112   6.181
 7684SOL    HW223952   4.441   1.993   6.278
 7685SOL     OW23953   4.296   3.722   0.570
 7685SOL    HW123954   4.347   3.711   0.655
 7685SOL    HW223955   4.299   3.817   0.541
 7686SOL     OW23956   3.092   0.736   3.910
 7686SOL    HW123957   3.078   0.670   3.837
 7686SOL    HW223958   3.024   0.808   3.904
 7687SOL     OW23959   4.064   4.615   5.827
 7687SOL    HW123960   4.062   4.571   5.737
 7687SOL    HW223961   4.115   4.700   5.821
 7688SOL     OW23962   6.698   0.168   3.506
 7688SOL    HW123963   6.637   0.207   3.575
 7688SOL    HW223964   6.782   0.136   3.549
 7689SOL     OW23965   3.806   0.167   4.808
 7689SOL    HW123966   3.880   0.170   4.875
 7689SOL    HW223967   3.783   0.072   4.787
 7690SOL     OW23968   0.862   5.281   2.929
 7690SOL    HW123969   0.948   5.235   2.905
 7690SOL    HW223970   0.844   5.270   3.026
 7691SOL     OW23971   5.537   4.180   5.605
 7691SOL    HW123972   5.480   4.099   5.620
 7691SOL    HW223973   5.592   4.198   5.686
 7692SOL     OW23974   1.979   6.336   1.462
 7692SOL    HW123975   1.918   6.315   1.387
 7692SOL    HW223976   1.988   6.256   1.522
 7693SOL     OW23977   5.362   1.007   0.674
 7693SOL    HW123978   5.383   1.095   0.716
 7693SOL    HW223979   5.433   0.984   0.608
 7694SOL     OW23980   6.425   4.721   4.273
 7694SOL    HW123981   6.327   4.709   4.258
 7694SOL    HW223982   6.442   4.812   4.312
 7695SOL     OW23983   3.819   0.326   6.114
 7695SOL    HW123984   3.740   0.308   6.172
 7695SOL    HW223985   3.842   0.423   6.116
 7696SOL     OW23986   0.933   4.127   5.845
 7696SOL    HW123987   0.890   4.108   5.756
 7696SOL    HW223988   0.941   4.042   5.897
 7697SOL     OW23989   4.025   1.894   1.954
 7697SOL    HW123990   4.081   1.865   1.876
 7697SOL    HW223991   3.928   1.893   1.927
 7698SOL     OW23992   0.338   3.190   5.879
 7698SOL    HW123993   0.394   3.266   5.845
 7698SOL    HW223994   0.318   3.127   5.804
 7699SOL     OW23995   2.397   4.428   0.517
 7699SOL    HW123996   2.412   4.427   0.418
 7699SOL    HW223997   2.401   4.334   0.551
 7700SOL     OW23998   5.606   6.789   5.322
 7700SOL    HW123999   5.586   6.749   5.232
 7700SOL    HW224000   5.665   6.869   5.310
 7701SOL     OW24001   5.975   2.386   5.327
 7701SOL    HW124002   6.063   2.338   5.329
 7701SOL    HW224003   5.976   2.456   5.256
 7702SOL     OW24004   2.574   5.995   5.529
 7702SOL    HW124005   2.490   6.039   5.498
 7702SOL    HW224006   2.587   5.910   5.479
 7703SOL     OW24007   0.952   1.959   5.747
 7703SOL    HW124008   1.011   1.882   5.720
 7703SOL    HW224009   0.954   1.968   5.847
 7704SOL     OW24010   3.120   4.274   0.787
 7704SOL    HW124011   3.137   4.293   0.691
 7704SOL    HW224012   3.085   4.181   0.797
 7705SOL     OW24013   3.859   4.807   5.380
 7705SOL    HW124014   3.861   4.806   5.480
 7705SOL    HW224015   3.891   4.719   5.346
 7706SOL     OW24016   6.452   0.208   4.970
 7706SOL    HW124017   6.358   0.196   4.938
 7706SOL    HW224018   6.450   0.243   5.064
 7707SOL     OW24019   0.125   5.451   6.091
 7707SOL    HW124020   0.214   5.423   6.128
 7707SOL    HW224021   0.140   5.499   6.004
 7708SOL     OW24022   4.935   0.443   4.657
 7708SOL    HW124023   4.953   0.378   4.583
 7708SOL    HW224024   4.883   0.521   4.620
 7709SOL     OW24025   3.605   2.187   1.652
 7709SOL    HW124026   3.647   2.224   1.735
 7709SOL    HW224027   3.672   2.184   1.579
 7710SOL     OW24028   2.643   2.568   6.142
 7710SOL    HW124029   2.656   2.513   6.059
 7710SOL    HW224030   2.649   2.508   6.222
 7711SOL     OW24031   5.224   6.638   5.387
 7711SOL    HW124032   5.149   6.655   5.452
 7711SOL    HW224033   5.308   6.620   5.438
 7712SOL     OW24034   5.186   5.040   0.765
 7712SOL    HW124035   5.093   5.076   0.779
 7712SOL    HW224036   5.181   4.955   0.712
 7713SOL     OW24037   1.214   5.179   6.219
 7713SOL    HW124038   1.230   5.110   6.148
 7713SOL    HW224039   1.164   5.138   6.295
 7714SOL     OW24040   5.735   4.033   4.183
 7714SOL    HW124041   5.761   4.066   4.274
 7714SOL    HW224042   5.702   3.939   4.191
 7715SOL     OW24043   4.443   2.221   1.549
 7715SOL    HW124044   4.449   2.202   1.451
 7715SOL    HW224045   4.470   2.316   1.566
 7716SOL     OW24046   4.717   2.868   3.825
 7716SOL    HW124047   4.698   2.963   3.800
 7716SOL    HW224048   4.771   2.866   3.909
 7717SOL     OW24049   3.195   0.289   6.720
 7717SOL    HW124050   3.207   0.194   6.750
 7717SOL    HW224051   3.134   0.291   6.641
 7718SOL     OW24052   3.107   6.304   4.055
 7718SOL    HW124053   3.053   6.274   4.134
 7718SOL    HW224054   3.066   6.270   3.971
 7719SOL     OW24055   5.762   2.837   5.456
 7719SOL    HW124056   5.702   2.862   5.531
 7719SOL    HW224057   5.841   2.787   5.492
 7720SOL     OW24058   5.456   6.168   1.525
 7720SOL    HW124059   5.460   6.077   1.484
 7720SOL    HW224060   5.372   6.178   1.578
 7721SOL     OW24061   1.350   4.432   3.064
 7721SOL    HW124062   1.281   4.412   2.994
 7721SOL    HW224063   1.330   4.521   3.105
 7722SOL     OW24064   0.891   6.366   4.096
 7722SOL    HW124065   0.950   6.309   4.039
 7722SOL    HW224066   0.810   6.314   4.122
 7723SOL     OW24067   6.390   2.538   0.662
 7723SOL    HW124068   6.345   2.605   0.603
 7723SOL    HW224069   6.390   2.571   0.757
 7724SOL     OW24070   1.846   5.461   0.574
 7724SOL    HW124071   1.801   5.406   0.503
 7724SOL    HW224072   1.907   5.528   0.531
 7725SOL     OW24073   5.299   3.883   4.531
 7725SOL    HW124074   5.368   3.953   4.548
 7725SOL    HW224075   5.273   3.885   4.434
 7726SOL     OW24076   5.745   4.111   3.676
 7726SOL    HW124077   5.661   4.059   3.659
 7726SOL    HW224078   5.810   4.054   3.725
 7727SOL     OW24079   6.157   3.276   1.948
 7727SOL    HW124080   6.167   3.207   2.020
 7727SOL    HW224081   6.163   3.367   1.988
 7728SOL     OW24082   2.195   2.205   2.357
 7728SOL    HW124083   2.152   2.147   2.427
 7728SOL    HW224084   2.153   2.295   2.359
 7729SOL     OW24085   5.134   2.597   0.773
 7729SOL    HW124086   5.042   2.565   0.794
 7729SOL    HW224087   5.144   2.692   0.805
 7730SOL     OW24088   4.725   0.247   2.051
 7730SOL    HW124089   4.641   0.300   2.061
 7730SOL    HW224090   4.802   0.308   2.037
 7731SOL     OW24091   7.018   1.313   4.909
 7731SOL    HW124092   6.938   1.291   4.965
 7731SOL    HW224093   0.027   1.405   4.932
 7732SOL     OW24094   4.469   4.747   0.658
 7732SOL    HW124095   4.535   4.820   0.642
 7732SOL    HW224096   4.390   4.785   0.707
 7733SOL     OW24097   2.906   6.357   0.850
 7733SOL    HW124098   2.924   6.312   0.762
 7733SOL    HW224099   2.991   6.388   0.890
 7734SOL     OW24100   1.407   1.848   3.027
 7734SOL    HW124101   1.473   1.825   3.099
 7734SOL    HW224102   1.348   1.769   3.009
 7735SOL     OW24103   5.328   4.010   0.677
 7735SOL    HW124104   5.368   4.024   0.768
 7735SOL    HW224105   5.266   3.931   0.680
 7736SOL     OW24106   5.808   4.480   6.241
 7736SOL    HW124107   5.721   4.442   6.272
 7736SOL    HW224108   5.875   4.473   6.314
 7737SOL     OW24109   4.780   2.146   0.906
 7737SOL    HW124110   4.848   2.134   0.833
 7737SOL    HW224111   4.777   2.241   0.935
 7738SOL     OW24112   2.178   4.651   0.284
 7738SOL    HW124113   2.247   4.594   0.240
 7738SOL    HW224114   2.195   4.654   0.382
 7739SOL     OW24115   5.783   3.363   2.226
 7739SOL    HW124116   5.767   3.365   2.128
 7739SOL    HW224117   5.775   3.456   2.263
 7740SOL     OW24118   0.458   6.371   3.779
 7740SOL    HW124119   0.403   6.391   3.698
 7740SOL    HW224120   0.408   6.309   3.839
 7741SOL     OW24121   3.194   5.974   4.411
 7741SOL    HW124122   3.195   5.876   4.428
 7741SOL    HW224123   3.146   5.993   4.325
 7742SOL     OW24124   6.622   1.222   4.336
 7742SOL    HW124125   6.654   1.204   4.243
 7742SOL    HW224126   6.699   1.218   4.400
 7743SOL     OW24127   4.824   2.961   2.835
 7743SOL    HW124128   4.795   2.992   2.744
 7743SOL    HW224129   4.890   3.025   2.873
 7744SOL     OW24130   0.669   0.081   5.062
 7744SOL    HW124131   0.646   0.101   4.967
 7744SOL    HW224132   0.704   7.011   5.069
 7745SOL     OW24133   4.779   3.360   5.259
 7745SOL    HW124134   4.724   3.430   5.213
 7745SOL    HW224135   4.816   3.397   5.344
 7746SOL     OW24136   1.569   0.350   6.990
 7746SOL    HW124137   1.538   0.351   0.062
 7746SOL    HW224138   1.665   0.376   6.986
 7747SOL     OW24139   5.213   5.389   1.429
 7747SOL    HW124140   5.235   5.292   1.433
 7747SOL    HW224141   5.296   5.442   1.448
 7748SOL     OW24142   2.893   3.948   6.591
 7748SOL    HW124143   2.952   4.026   6.572
 7748SOL    HW224144   2.803   3.981   6.619
 7749SOL     OW24145   5.589   4.282   6.267
 7749SOL    HW124146   5.526   4.288   6.344
 7749SOL    HW224147   5.540   4.255   6.185
 7750SOL     OW24148   5.714   5.155   2.944
 7750SOL    HW124149   5.778   5.200   2.882
 7750SOL    HW224150   5.654   5.094   2.893
 7751SOL     OW24151   0.464   2.431   1.136
 7751SOL    HW124152   0.563   2.422   1.146
 7751SOL    HW224153   0.443   2.510   1.078
 7752SOL     OW24154   4.360   1.188   3.191
 7752SOL    HW124155   4.402   1.106   3.230
 7752SOL    HW224156   4.263   1.191   3.214
 7753SOL     OW24157   3.435   1.837   5.088
 7753SOL    HW124158   3.488   1.922   5.085
 7753SOL    HW224159   3.339   1.857   5.071
 7754SOL     OW24160   5.706   5.521   1.683
 7754SOL    HW124161   5.716   5.448   1.751
 7754SOL    HW224162   5.796   5.548   1.650
 7755SOL     OW24163   0.656   5.088   4.647
 7755SOL    HW124164   0.700   4.998   4.645
 7755SOL    HW224165   0.629   5.114   4.554
 7756SOL     OW24166   2.393   4.780   2.237
 7756SOL    HW124167   2.349   4.855   2.187
 7756SOL    HW224168   2.464   4.739   2.180
 7757SOL     OW24169   6.862   4.401   1.564
 7757SOL    HW124170   6.936   4.338   1.588
 7757SOL    HW224171   6.775   4.365   1.597
 7758SOL     OW24172   1.432   2.387   4.729
 7758SOL    HW124173   1.363   2.332   4.776
 7758SOL    HW224174   1.463   2.460   4.789
 7759SOL     OW24175   3.505   1.331   1.892
 7759SOL    HW124176   3.500   1.238   1.930
 7759SOL    HW224177   3.417   1.355   1.851
 7760SOL     OW24178   5.034   3.221   0.398
 7760SOL    HW124179   4.976   3.166   0.459
 7760SOL    HW224180   4.977   3.285   0.346
 7761SOL     OW24181   4.962   4.920   3.032
 7761SOL    HW124182   5.014   4.841   2.998
 7761SOL    HW224183   4.930   4.974   2.955
 7762SOL     OW24184   5.134   1.797   1.712
 7762SOL    HW124185   5.153   1.714   1.660
 7762SOL    HW224186   5.212   1.859   1.705
 7763SOL     OW24187   2.333   0.125   3.984
 7763SOL    HW124188   2.416   0.162   4.026
 7763SOL    HW224189   2.359   0.065   3.908
 7764SOL     OW24190   3.226   4.315   5.954
 7764SOL    HW124191   3.212   4.413   5.971
 7764SOL    HW224192   3.319   4.290   5.982
 7765SOL     OW24193   5.572   4.039   4.492
 7765SOL    HW124194   5.654   4.095   4.478
 7765SOL    HW224195   5.518   4.038   4.409
 7766SOL     OW24196   6.678   3.018   6.474
 7766SOL    HW124197   6.755   3.014   6.538
 7766SOL    HW224198   6.592   3.014   6.525
 7767SOL     OW24199   4.488   0.404   3.625
 7767SOL    HW124200   4.512   0.492   3.584
 7767SOL    HW224201   4.526   0.398   3.717
 7768SOL     OW24202   3.828   5.671   4.294
 7768SOL    HW124203   3.756   5.649   4.228
 7768SOL    HW224204   3.908   5.615   4.275
 7769SOL     OW24205   3.558   2.887   6.328
 7769SOL    HW124206   3.541   2.941   6.245
 7769SOL    HW224207   3.646   2.914   6.368
 7770SOL     OW24208   1.209   3.152   3.871
 7770SOL    HW124209   1.238   3.087   3.941
 7770SOL    HW224210   1.148   3.106   3.806
 7771SOL     OW24211   1.614   3.898   6.150
 7771SOL    HW124212   1.602   3.801   6.171
 7771SOL    HW224213   1.690   3.935   6.203
 7772SOL     OW24214   5.566   6.203   1.886
 7772SOL    HW124215   5.492   6.146   1.922
 7772SOL    HW224216   5.529   6.268   1.819
 7773SOL     OW24217   2.310   6.373   6.906
 7773SOL    HW124218   2.371   6.391   6.983
 7773SOL    HW224219   2.223   6.337   6.939
 7774SOL     OW24220   5.045   1.471   2.786
 7774SOL    HW124221   5.023   1.549   2.729
 7774SOL    HW224222   4.981   1.466   2.863
 7775SOL     OW24223   3.059   1.778   1.403
 7775SOL    HW124224   2.967   1.792   1.441
 7775SOL    HW224225   3.069   1.682   1.375
 7776SOL     OW24226   2.836   0.775   4.394
 7776SOL    HW124227   2.812   0.872   4.393
 7776SOL    HW224228   2.798   0.732   4.476
 7777SOL     OW24229   6.180   5.662   3.355
 7777SOL    HW124230   6.174   5.712   3.269
 7777SOL    HW224231   6.215   5.722   3.426
 7778SOL     OW24232   0.976   4.460   2.658
 7778SOL    HW124233   0.971   4.522   2.736
 7778SOL    HW224234   0.918   4.493   2.584
 7779SOL     OW24235   3.706   6.439   1.579
 7779SOL    HW124236   3.705   6.428   1.679
 7779SOL    HW224237   3.618   6.410   1.542
 7780SOL     OW24238   6.465   5.788   4.425
 7780SOL    HW124239   6.527   5.859   4.459
 7780SOL    HW224240   6.384   5.785   4.483
 7781SOL     OW24241   2.000   3.087   0.969
 7781SOL    HW124242   1.989   3.086   1.068
 7781SOL    HW224243   1.981   2.996   0.932
 7782SOL     OW24244   5.821   3.681   4.814
 7782SOL    HW124245   5.801   3.774   4.782
 7782SOL    HW224246   5.772   3.616   4.756
 7783SOL     OW24247   2.081   6.603   3.899
 7783SOL    HW124248   1.983   6.583   3.896
 7783SOL    HW224249   2.099   6.676   3.966
 7784SOL     OW24250   1.468   2.021   1.815
 7784SOL    HW124251   1.477   2.024   1.915
 7784SOL    HW224252   1.496   1.931   1.782
 7785SOL     OW24253   6.717   5.898   3.100
 7785SOL    HW124254   6.787   5.964   3.126
 7785SOL    HW224255   6.650   5.943   3.040
 7786SOL     OW24256   4.757   1.149   6.476
 7786SOL    HW124257   4.713   1.233   6.510
 7786SOL    HW224258   4.854   1.168   6.459
 7787SOL     OW24259   2.100   2.563   1.393
 7787SOL    HW124260   2.140   2.577   1.302
 7787SOL    HW224261   2.012   2.517   1.384
 7788SOL     OW24262   0.740   3.922   2.004
 7788SOL    HW124263   0.771   3.928   2.099
 7788SOL    HW224264   0.799   3.857   1.955
 7789SOL     OW24265   3.705   1.104   6.393
 7789SOL    HW124266   3.621   1.116   6.446
 7789SOL    HW224267   3.735   1.193   6.357
 7790SOL     OW24268   3.848   5.122   3.872
 7790SOL    HW124269   3.946   5.121   3.850
 7790SOL    HW224270   3.803   5.191   3.815
 7791SOL     OW24271   2.820   5.750   2.294
 7791SOL    HW124272   2.872   5.734   2.210
 7791SOL    HW224273   2.804   5.663   2.341
 7792SOL     OW24274   1.163   1.580   2.584
 7792SOL    HW124275   1.129   1.594   2.491
 7792SOL    HW224276   1.213   1.661   2.614
 7793SOL     OW24277   5.009   1.379   0.938
 7793SOL    HW124278   4.952   1.398   1.018
 7793SOL    HW224279   5.032   1.282   0.936
 7794SOL     OW24280   1.220   0.240   3.032
 7794SOL    HW124281   1.313   0.272   3.050
 7794SOL    HW224282   1.198   0.253   2.936
 7795SOL     OW24283   3.524   4.190   1.023
 7795SOL    HW124284   3.454   4.245   0.978
 7795SOL    HW224285   3.550   4.234   1.109
 7796SOL     OW24286   3.184   1.199   0.371
 7796SOL    HW124287   3.120   1.273   0.392
 7796SOL    HW224288   3.275   1.236   0.356
 7797SOL     OW24289   1.390   5.652   2.904
 7797SOL    HW124290   1.472   5.708   2.917
 7797SOL    HW224291   1.408   5.558   2.934
 7798SOL     OW24292   1.832   3.366   0.659
 7798SOL    HW124293   1.829   3.344   0.561
 7798SOL    HW224294   1.926   3.358   0.692
 7799SOL     OW24295   3.140   6.528   3.764
 7799SOL    HW124296   3.216   6.507   3.824
 7799SOL    HW224297   3.086   6.602   3.804
 7800SOL     OW24298   1.770   0.798   2.411
 7800SOL    HW124299   1.789   0.813   2.508
 7800SOL    HW224300   1.804   0.707   2.384
 7801SOL     OW24301   1.262   2.282   0.897
 7801SOL    HW124302   1.227   2.272   0.990
 7801SOL    HW224303   1.186   2.304   0.835
 7802SOL     OW24304   6.366   4.319   4.014
 7802SOL    HW124305   6.329   4.266   4.090
 7802SOL    HW224306   6.302   4.391   3.988
 7803SOL     OW24307   3.256   2.729   5.680
 7803SOL    HW124308   3.229   2.795   5.610
 7803SOL    HW224309   3.346   2.693   5.658
 7804SOL     OW24310   3.096   1.728   5.734
 7804SOL    HW124311   3.187   1.749   5.769
 7804SOL    HW224312   3.051   1.662   5.795
 7805SOL     OW24313   5.576   3.344   6.460
 7805SOL    HW124314   5.558   3.284   6.538
 7805SOL    HW224315   5.673   3.340   6.436
 7806SOL     OW24316   6.270   1.708   5.558
 7806SOL    HW124317   6.283   1.752   5.469
 7806SOL    HW224318   6.202   1.758   5.611
 7807SOL     OW24319   1.929   5.754   5.187
 7807SOL    HW124320   1.922   5.678   5.251
 7807SOL    HW224321   1.886   5.835   5.226
 7808SOL     OW24322   6.203   3.655   3.906
 7808SOL    HW124323   6.286   3.613   3.944
 7808SOL    HW224324   6.189   3.620   3.813
 7809SOL     OW24325   4.665   6.204   2.325
 7809SOL    HW124326   4.741   6.225   2.265
 7809SOL    HW224327   4.699   6.186   2.418
 7810SOL     OW24328   2.257   6.690   5.225
 7810SOL    HW124329   2.166   6.698   5.267
 7810SOL    HW224330   2.326   6.682   5.297
 7811SOL     OW24331   0.936   6.162   2.763
 7811SOL    HW124332   0.928   6.261   2.750
 7811SOL    HW224333   0.939   6.141   2.861
 7812SOL     OW24334   2.932   0.927   5.426
 7812SOL    HW124335   2.906   0.963   5.336
 7812SOL    HW224336   2.889   0.982   5.498
 7813SOL     OW24337   5.476   0.794   0.818
 7813SOL    HW124338   5.444   0.878   0.773
 7813SOL    HW224339   5.397   0.743   0.851
 7814SOL     OW24340   6.081   2.433   1.854
 7814SOL    HW124341   6.120   2.446   1.945
 7814SOL    HW224342   6.154   2.422   1.787
 7815SOL     OW24343   4.992   5.706   3.699
 7815SOL    HW124344   5.082   5.750   3.708
 7815SOL    HW224345   4.972   5.690   3.602
 7816SOL     OW24346   0.903   1.380   5.404
 7816SOL    HW124347   0.899   1.280   5.406
 7816SOL    HW224348   0.811   1.418   5.413
 7817SOL     OW24349   4.524   1.629   6.861
 7817SOL    HW124350   4.472   1.701   6.907
 7817SOL    HW224351   4.523   1.547   6.918
 7818SOL     OW24352   6.029   1.083   3.048
 7818SOL    HW124353   6.066   1.040   2.966
 7818SOL    HW224354   5.966   1.156   3.022
 7819SOL     OW24355   1.420   3.232   5.069
 7819SOL    HW124356   1.411   3.137   5.099
 7819SOL    HW224357   1.488   3.237   4.996
 7820SOL     OW24358   1.456   1.331   5.377
 7820SOL    HW124359   1.504   1.247   5.353
 7820SOL    HW224360   1.445   1.388   5.296
 7821SOL     OW24361   3.919   5.789   6.786
 7821SOL    HW124362   3.858   5.720   6.825
 7821SOL    HW224363   4.008   5.747   6.767
 7822SOL     OW24364   0.187   1.494   4.558
 7822SOL    HW124365   0.138   1.493   4.471
 7822SOL    HW224366   0.263   1.429   4.554
 7823SOL     OW24367   2.790   3.287   5.781
 7823SOL    HW124368   2.707   3.241   5.748
 7823SOL    HW224369   2.851   3.220   5.824
 7824SOL     OW24370   5.835   3.653   2.958
 7824SOL    HW124371   5.771   3.608   2.895
 7824SOL    HW224372   5.916   3.596   2.970
 7825SOL     OW24373   3.347   3.571   2.874
 7825SOL    HW124374   3.267   3.626   2.853
 7825SOL    HW224375   3.416   3.583   2.803
 7826SOL     OW24376   6.876   6.999   0.455
 7826SOL    HW124377   6.860   6.943   0.374
 7826SOL    HW224378   6.920   0.062   0.428
 7827SOL     OW24379   4.498   3.343   0.397
 7827SOL    HW124380   4.404   3.375   0.389
 7827SOL    HW224381   4.560   3.421   0.397
 7828SOL     OW24382   1.155   6.006   1.332
 7828SOL    HW124383   1.166   6.052   1.244
 7828SOL    HW224384   1.095   5.927   1.320
 7829SOL     OW24385   3.623   3.858   3.676
 7829SOL    HW124386   3.661   3.917   3.746
 7829SOL    HW224387   3.570   3.913   3.611
 7830SOL     OW24388   6.096   4.160   0.181
 7830SOL    HW124389   6.037   4.207   0.117
 7830SOL    HW224390   6.144   4.086   0.134
 7831SOL     OW24391   1.611   2.723   0.256
 7831SOL    HW124392   1.654   2.752   0.341
 7831SOL    HW224393   1.681   2.706   0.186
 7832SOL     OW24394   3.504   2.656   5.584
 7832SOL    HW124395   3.562   2.577   5.602
 7832SOL    HW224396   3.529   2.697   5.497
 7833SOL     OW24397   6.499   6.292   1.388
 7833SOL    HW124398   6.565   6.224   1.354
 7833SOL    HW224399   6.514   6.379   1.341
 7834SOL     OW24400   5.938   0.491   1.442
 7834SOL    HW124401   5.855   0.455   1.484
 7834SOL    HW224402   5.952   0.586   1.470
 7835SOL     OW24403   2.095   1.896   4.360
 7835SOL    HW124404   2.085   1.796   4.355
 7835SOL    HW224405   2.008   1.937   4.387
 7836SOL     OW24406   2.219   0.536   0.367
 7836SOL    HW124407   2.139   0.501   0.320
 7836SOL    HW224408   2.219   0.503   0.462
 7837SOL     OW24409   5.540   6.640   2.603
 7837SOL    HW124410   5.575   6.631   2.510
 7837SOL    HW224411   5.443   6.615   2.604
 7838SOL     OW24412   4.463   6.328   4.202
 7838SOL    HW124413   4.368   6.328   4.168
 7838SOL    HW224414   4.471   6.393   4.278
 7839SOL     OW24415   0.238   4.908   3.642
 7839SOL    HW124416   0.167   4.922   3.711
 7839SOL    HW224417   0.203   4.933   3.552
 7840SOL     OW24418   4.904   3.254   6.327
 7840SOL    HW124419   4.892   3.317   6.250
 7840SOL    HW224420   4.940   3.167   6.293
 7841SOL     OW24421   1.090   1.824   6.382
 7841SOL    HW124422   1.091   1.914   6.426
 7841SOL    HW224423   1.165   1.769   6.418
 7842SOL     OW24424   3.010   6.998   2.253
 7842SOL    HW124425   3.094   6.980   2.304
 7842SOL    HW224426   3.031   7.004   2.155
 7843SOL     OW24427   0.307   2.713   2.120
 7843SOL    HW124428   0.395   2.676   2.089
 7843SOL    HW224429   0.241   2.710   2.045
 7844SOL     OW24430   3.859   1.547   3.599
 7844SOL    HW124431   3.945   1.519   3.556
 7844SOL    HW224432   3.785   1.489   3.567
 7845SOL     OW24433   0.977   1.028   3.898
 7845SOL    HW124434   0.962   0.929   3.899
 7845SOL    HW224435   0.894   1.075   3.927
 7846SOL     OW24436   4.349   6.540   2.270
 7846SOL    HW124437   4.281   6.525   2.199
 7846SOL    HW224438   4.306   6.535   2.360
 7847SOL     OW24439   0.343   6.929   6.883
 7847SOL    HW124440   0.320   6.927   6.786
 7847SOL    HW224441   0.307   6.846   6.928
 7848SOL     OW24442   3.622   4.358   1.211
 7848SOL    HW124443   3.709   4.377   1.165
 7848SOL    HW224444   3.563   4.438   1.203
 7849SOL     OW24445   5.518   4.296   4.725
 7849SOL    HW124446   5.509   4.212   4.671
 7849SOL    HW224447   5.431   4.316   4.770
 7850SOL     OW24448   0.924   2.239   5.044
 7850SOL    HW124449   1.016   2.241   5.085
 7850SOL    HW224450   0.927   2.193   4.956
 7851SOL     OW24451   4.410   6.436   1.246
 7851SOL    HW124452   4.341   6.411   1.315
 7851SOL    HW224453   4.498   6.452   1.291
 7852SOL     OW24454   2.341   6.494   0.373
 7852SOL    HW124455   2.421   6.553   0.371
 7852SOL    HW224456   2.368   6.400   0.350
 7853SOL     OW24457   1.928   2.709   0.457
 7853SOL    HW124458   1.879   2.656   0.526
 7853SOL    HW224459   1.927   2.805   0.482
 7854SOL     OW24460   3.190   4.137   3.421
 7854SOL    HW124461   3.180   4.041   3.394
 7854SOL    HW224462   3.142   4.196   3.356
 7855SOL     OW24463   3.821   0.044   5.089
 7855SOL    HW124464   3.850   6.971   5.087
 7855SOL    HW224465   3.811   0.074   5.183
 7856SOL     OW24466   2.810   3.427   0.029
 7856SOL    HW124467   2.842   3.405   6.960
 7856SOL    HW224468   2.886   3.465   0.083
 7857SOL     OW24469   0.809   3.270   5.634
 7857SOL    HW124470   0.724   3.233   5.597
 7857SOL    HW224471   0.882   3.258   5.567
 7858SOL     OW24472   6.178   3.705   2.926
 7858SOL    HW124473   6.124   3.631   2.966
 7858SOL    HW224474   6.231   3.669   2.849
 7859SOL     OW24475   0.779   6.064   0.421
 7859SOL    HW124476   0.744   5.999   0.353
 7859SOL    HW224477   0.789   6.018   0.509
 7860SOL     OW24478   4.510   6.575   1.931
 7860SOL    HW124479   4.537   6.605   2.023
 7860SOL    HW224480   4.437   6.506   1.938
 7861SOL     OW24481   5.466   3.407   0.578
 7861SOL    HW124482   5.510   3.490   0.611
 7861SOL    HW224483   5.389   3.383   0.638
 7862SOL     OW24484   3.011   4.735   1.746
 7862SOL    HW124485   2.972   4.649   1.778
 7862SOL    HW224486   2.975   4.756   1.655
 7863SOL     OW24487   5.280   5.617   2.291
 7863SOL    HW124488   5.190   5.626   2.247
 7863SOL    HW224489   5.311   5.523   2.284
 7864SOL     OW24490   0.875   6.059   4.291
 7864SOL    HW124491   0.825   6.032   4.374
 7864SOL    HW224492   0.809   6.075   4.218
 7865SOL     OW24493   4.040   0.951   3.373
 7865SOL    HW124494   3.961   0.891   3.383
 7865SOL    HW224495   4.094   0.952   3.458
 7866SOL     OW24496   1.995   2.298   5.082
 7866SOL    HW124497   1.913   2.354   5.092
 7866SOL    HW224498   1.981   2.210   5.126
 7867SOL     OW24499   5.828   4.017   2.039
 7867SOL    HW124500   5.915   3.980   2.005
 7867SOL    HW224501   5.842   4.057   2.129
 7868SOL     OW24502   5.122   6.592   1.033
 7868SOL    HW124503   5.199   6.656   1.035
 7868SOL    HW224504   5.062   6.609   1.110
 7869SOL     OW24505   6.321   1.722   4.116
 7869SOL    HW124506   6.400   1.664   4.095
 7869SOL    HW224507   6.343   1.781   4.194
 7870SOL     OW24508   6.372   6.701   3.058
 7870SOL    HW124509   6.376   6.693   2.958
 7870SOL    HW224510   6.301   6.767   3.083
 7871SOL     OW24511   6.070   3.068   4.229
 7871SOL    HW124512   5.977   3.044   4.200
 7871SOL    HW224513   6.079   3.168   4.234
 7872SOL     OW24514   0.019   4.120   4.717
 7872SOL    HW124515   7.002   4.044   4.664
 7872SOL    HW224516   0.059   4.186   4.654
 7873SOL     OW24517   0.043   5.592   4.618
 7873SOL    HW124518   0.116   5.638   4.669
 7873SOL    HW224519   0.082   5.548   4.537
 7874SOL     OW24520   6.370   0.629   0.635
 7874SOL    HW124521   6.445   0.600   0.694
 7874SOL    HW224522   6.387   0.599   0.541
 7875SOL     OW24523   5.135   3.527   0.573
 7875SOL    HW124524   5.186   3.591   0.515
 7875SOL    HW224525   5.090   3.458   0.516
 7876SOL     OW24526   0.326   0.811   5.302
 7876SOL    HW124527   0.298   0.719   5.275
 7876SOL    HW224528   0.248   0.873   5.296
 7877SOL     OW24529   6.323   2.894   2.977
 7877SOL    HW124530   6.236   2.928   2.942
 7877SOL    HW224531   6.388   2.970   2.984
 7878SOL     OW24532   4.427   3.885   1.616
 7878SOL    HW124533   4.399   3.828   1.539
 7878SOL    HW224534   4.358   3.956   1.632
 7879SOL     OW24535   6.365   0.715   4.885
 7879SOL    HW124536   6.415   0.798   4.905
 7879SOL    HW224537   6.320   0.682   4.968
 7880SOL     OW24538   1.805   6.534   6.114
 7880SOL    HW124539   1.826   6.517   6.210
 7880SOL    HW224540   1.811   6.632   6.095
 7881SOL     OW24541   0.658   5.218   4.392
 7881SOL    HW124542   0.595   5.295   4.403
 7881SOL    HW224543   0.651   5.183   4.298
 7882SOL     OW24544   1.785   4.703   1.586
 7882SOL    HW124545   1.767   4.758   1.504
 7882SOL    HW224546   1.741   4.746   1.665
 7883SOL     OW24547   3.659   2.130   2.957
 7883SOL    HW124548   3.701   2.079   3.032
 7883SOL    HW224549   3.623   2.066   2.889
 7884SOL     OW24550   0.452   3.449   4.306
 7884SOL    HW124551   0.407   3.449   4.396
 7884SOL    HW224552   0.387   3.478   4.236
 7885SOL     OW24553   6.126   5.271   2.064
 7885SOL    HW124554   6.074   5.188   2.048
 7885SOL    HW224555   6.073   5.351   2.035
 7886SOL     OW24556   4.971   4.131   2.670
 7886SOL    HW124557   4.966   4.040   2.629
 7886SOL    HW224558   4.983   4.199   2.598
 7887SOL     OW24559   0.829   3.051   1.683
 7887SOL    HW124560   0.892   2.975   1.669
 7887SOL    HW224561   0.875   3.137   1.662
 7888SOL     OW24562   6.581   0.611   5.098
 7888SOL    HW124563   6.544   0.701   5.074
 7888SOL    HW224564   6.666   0.595   5.048
 7889SOL     OW24565   5.867   5.441   0.607
 7889SOL    HW124566   5.890   5.437   0.510
 7889SOL    HW224567   5.862   5.536   0.637
 7890SOL     OW24568   2.457   2.662   3.558
 7890SOL    HW124569   2.413   2.696   3.641
 7890SOL    HW224570   2.496   2.738   3.507
 7891SOL     OW24571   6.408   1.820   4.359
 7891SOL    HW124572   6.386   1.740   4.414
 7891SOL    HW224573   6.472   1.879   4.409
 7892SOL     OW24574   0.990   1.654   5.391
 7892SOL    HW124575   0.902   1.698   5.375
 7892SOL    HW224576   0.980   1.555   5.383
 7893SOL     OW24577   6.302   6.472   0.989
 7893SOL    HW124578   6.332   6.554   1.037
 7893SOL    HW224579   6.242   6.419   1.048
 7894SOL     OW24580   2.914   0.997   0.054
 7894SOL    HW124581   2.862   0.912   0.053
 7894SOL    HW224582   2.987   0.991   0.123
 7895SOL     OW24583   6.465   5.888   2.774
 7895SOL    HW124584   6.463   5.963   2.840
 7895SOL    HW224585   6.417   5.916   2.691
 7896SOL     OW24586   2.424   1.295   0.369
 7896SOL    HW124587   2.512   1.340   0.351
 7896SOL    HW224588   2.396   1.315   0.463
 7897SOL     OW24589   3.679   2.296   0.834
 7897SOL    HW124590   3.750   2.239   0.793
 7897SOL    HW224591   3.643   2.360   0.766
 7898SOL     OW24592   4.858   6.719   3.394
 7898SOL    HW124593   4.933   6.772   3.354
 7898SOL    HW224594   4.892   6.668   3.473
 7899SOL     OW24595   6.088   4.357   3.763
 7899SOL    HW124596   6.119   4.398   3.849
 7899SOL    HW224597   6.063   4.261   3.779
 7900SOL     OW24598   0.402   3.627   0.247
 7900SOL    HW124599   0.451   3.549   0.207
 7900SOL    HW224600   0.410   3.624   0.347
 7901SOL     OW24601   0.334   2.326   0.026
 7901SOL    HW124602   0.268   2.359   0.094
 7901SOL    HW224603   0.314   2.367   6.960
 7902SOL     OW24604   2.036   6.232   1.914
 7902SOL    HW124605   2.027   6.332   1.920
 7902SOL    HW224606   2.118   6.203   1.964
 7903SOL     OW24607   2.870   2.090   5.508
 7903SOL    HW124608   2.957   2.140   5.503
 7903SOL    HW224609   2.873   2.026   5.585
 7904SOL     OW24610   4.600   2.373   2.709
 7904SOL    HW124611   4.554   2.313   2.775
 7904SOL    HW224612   4.593   2.335   2.617
 7905SOL     OW24613   6.152   2.419   1.357
 7905SOL    HW124614   6.112   2.373   1.436
 7905SOL    HW224615   6.080   2.448   1.294
 7906SOL     OW24616   1.051   5.117   6.415
 7906SOL    HW124617   1.022   5.207   6.448
 7906SOL    HW224618   1.130   5.086   6.469
 7907SOL     OW24619   5.939   6.460   2.359
 7907SOL    HW124620   5.970   6.367   2.341
 7907SOL    HW224621   5.898   6.498   2.277
 7908SOL     OW24622   1.871   6.795   6.695
 7908SOL    HW124623   1.898   6.826   6.786
 7908SOL    HW224624   1.825   6.706   6.702
 7909SOL     OW24625   6.452   3.853   1.504
 7909SOL    HW124626   6.548   3.856   1.531
 7909SOL    HW224627   6.420   3.759   1.502
 7910SOL     OW24628   1.126   4.276   5.858
 7910SOL    HW124629   1.052   4.209   5.851
 7910SOL    HW224630   1.098   4.349   5.920
 7911SOL     OW24631   5.935   4.362   5.993
 7911SOL    HW124632   5.888   4.402   6.071
 7911SOL    HW224633   6.031   4.344   6.018
 7912SOL     OW24634   5.837   5.703   0.725
 7912SOL    HW124635   5.905   5.725   0.655
 7912SOL    HW224636   5.870   5.733   0.814
 7913SOL     OW24637   1.694   4.964   6.477
 7913SOL    HW124638   1.626   5.031   6.448
 7913SOL    HW224639   1.746   4.931   6.398
 7914SOL     OW24640   0.898   6.811   4.769
 7914SOL    HW124641   0.832   6.758   4.716
 7914SOL    HW224642   0.932   6.887   4.713
 7915SOL     OW24643   3.027   4.802   2.713
 7915SOL    HW124644   2.952   4.813   2.780
 7915SOL    HW224645   2.993   4.824   2.622
 7916SOL     OW24646   1.057   0.455   3.957
 7916SOL    HW124647   1.083   0.468   3.861
 7916SOL    HW224648   1.005   0.370   3.966
 7917SOL     OW24649   4.602   1.531   2.095
 7917SOL    HW124650   4.515   1.551   2.139
 7917SOL    HW224651   4.608   1.434   2.074
 7918SOL     OW24652   2.626   2.490   3.394
 7918SOL    HW124653   2.616   2.394   3.420
 7918SOL    HW224654   2.558   2.546   3.443
 7919SOL     OW24655   1.119   6.784   4.918
 7919SOL    HW124656   1.136   6.877   4.949
 7919SOL    HW224657   1.028   6.779   4.876
 7920SOL     OW24658   4.947   0.400   1.147
 7920SOL    HW124659   4.898   0.422   1.232
 7920SOL    HW224660   4.883   0.401   1.070
 7921SOL     OW24661   5.201   2.198   0.732
 7921SOL    HW124662   5.220   2.248   0.816
 7921SOL    HW224663   5.104   2.176   0.728
 7922SOL     OW24664   2.670   0.326   2.175
 7922SOL    HW124665   2.681   0.423   2.194
 7922SOL    HW224666   2.686   0.308   2.078
 7923SOL     OW24667   4.149   1.284   6.766
 7923SOL    HW124668   4.130   1.351   6.694
 7923SOL    HW224669   4.069   1.273   6.824
 7924SOL     OW24670   5.741   5.851   0.332
 7924SOL    HW124671   5.779   5.928   0.383
 7924SOL    HW224672   5.748   5.867   0.234
 7925SOL     OW24673   1.595   5.545   6.560
 7925SOL    HW124674   1.604   5.638   6.596
 7925SOL    HW224675   1.586   5.548   6.460
 7926SOL     OW24676   5.155   5.959   6.479
 7926SOL    HW124677   5.190   5.995   6.565
 7926SOL    HW224678   5.179   5.862   6.471
 7927SOL     OW24679   4.384   0.120   3.140
 7927SOL    HW124680   4.410   0.095   3.234
 7927SOL    HW224681   4.305   0.182   3.144
 7928SOL     OW24682   6.026   2.253   3.216
 7928SOL    HW124683   6.090   2.241   3.292
 7928SOL    HW224684   5.959   2.323   3.239
 7929SOL     OW24685   4.443   4.075   5.953
 7929SOL    HW124686   4.471   4.149   6.014
 7929SOL    HW224687   4.398   4.003   6.006
 7930SOL     OW24688   4.127   6.499   6.223
 7930SOL    HW124689   4.209   6.556   6.227
 7930SOL    HW224690   4.151   6.404   6.238
 7931SOL     OW24691   3.898   1.365   1.473
 7931SOL    HW124692   3.908   1.300   1.398
 7931SOL    HW224693   3.802   1.373   1.498
 7932SOL     OW24694   1.122   3.764   1.731
 7932SOL    HW124695   1.202   3.712   1.762
 7932SOL    HW224696   1.133   3.860   1.757
 7933SOL     OW24697   0.946   1.432   0.293
 7933SOL    HW124698   1.007   1.390   0.226
 7933SOL    HW224699   0.853   1.433   0.258
 7934SOL     OW24700   0.800   5.557   1.108
 7934SOL    HW124701   0.701   5.568   1.111
 7934SOL    HW224702   0.829   5.538   1.014
 7935SOL     OW24703   6.563   2.946   3.339
 7935SOL    HW124704   6.498   2.889   3.390
 7935SOL    HW224705   6.598   2.894   3.261
 7936SOL     OW24706   2.218   5.535   3.463
 7936SOL    HW124707   2.162   5.481   3.401
 7936SOL    HW224708   2.247   5.478   3.540
 7937SOL     OW24709   4.306   0.960   0.739
 7937SOL    HW124710   4.316   0.911   0.825
 7937SOL    HW224711   4.384   1.021   0.726
 7938SOL     OW24712   2.812   6.919   3.398
 7938SOL    HW124713   2.867   6.864   3.335
 7938SOL    HW224714   2.717   6.888   3.396
 7939SOL     OW24715   0.807   0.791   2.757
 7939SOL    HW124716   0.873   0.778   2.830
 7939SOL    HW224717   0.726   0.836   2.792
 7940SOL     OW24718   6.107   1.585   4.240
 7940SOL    HW124719   6.171   1.595   4.164
 7940SOL    HW224720   6.124   1.499   4.287
 7941SOL     OW24721   3.554   6.964   1.162
 7941SOL    HW124722   3.545   6.871   1.194
 7941SOL    HW224723   3.612   7.016   1.225
 7942SOL     OW24724   1.490   4.377   0.702
 7942SOL    HW124725   1.553   4.347   0.630
 7942SOL    HW224726   1.490   4.477   0.707
 7943SOL     OW24727   1.534   5.690   5.656
 7943SOL    HW124728   1.469   5.755   5.616
 7943SOL    HW224729   1.598   5.739   5.715
 7944SOL     OW24730   1.056   2.105   1.524
 7944SOL    HW124731   1.020   2.094   1.431
 7944SOL    HW224732   1.108   2.190   1.530
 7945SOL     OW24733   6.143   3.972   2.900
 7945SOL    HW124734   6.147   4.017   2.989
 7945SOL    HW224735   6.160   3.874   2.911
 7946SOL     OW24736   4.113   1.741   6.749
 7946SOL    HW124737   4.078   1.649   6.733
 7946SOL    HW224738   4.075   1.776   6.836
 7947SOL     OW24739   6.721   3.725   6.302
 7947SOL    HW124740   6.671   3.778   6.232
 7947SOL    HW224741   6.791   3.669   6.258
 7948SOL     OW24742   1.797   5.630   1.782
 7948SOL    HW124743   1.774   5.635   1.879
 7948SOL    HW224744   1.791   5.535   1.751
 7949SOL     OW24745   2.494   5.644   5.802
 7949SOL    HW124746   2.531   5.598   5.882
 7949SOL    HW224747   2.569   5.683   5.748
 7950SOL     OW24748   6.514   4.441   5.737
 7950SOL    HW124749   6.498   4.345   5.761
 7950SOL    HW224750   6.610   4.463   5.752
 7951SOL     OW24751   4.267   6.290   2.536
 7951SOL    HW124752   4.252   6.240   2.621
 7951SOL    HW224753   4.334   6.363   2.550
 7952SOL     OW24754   6.360   3.958   5.481
 7952SOL    HW124755   6.261   3.943   5.476
 7952SOL    HW224756   6.407   3.886   5.431
 7953SOL     OW24757   1.324   6.918   0.164
 7953SOL    HW124758   1.255   6.983   0.132
 7953SOL    HW224759   1.365   6.871   0.086
 7954SOL     OW24760   3.760   3.730   6.888
 7954SOL    HW124761   3.701   3.697   6.814
 7954SOL    HW224762   3.851   3.689   6.878
 7955SOL     OW24763   1.198   0.746   6.480
 7955SOL    HW124764   1.200   0.671   6.546
 7955SOL    HW224765   1.235   0.714   6.392
 7956SOL     OW24766   0.739   6.560   0.565
 7956SOL    HW124767   0.693   6.623   0.503
 7956SOL    HW224768   0.766   6.478   0.515
 7957SOL     OW24769   5.158   1.836   5.958
 7957SOL    HW124770   5.133   1.741   5.942
 7957SOL    HW224771   5.241   1.840   6.013
 7958SOL     OW24772   4.945   2.143   6.987
 7958SOL    HW124773   4.888   2.204   0.019
 7958SOL    HW224774   4.954   2.054   0.010
 7959SOL     OW24775   5.243   2.552   0.192
 7959SOL    HW124776   5.200   2.589   0.274
 7959SOL    HW224777   5.322   2.497   0.218
 7960SOL     OW24778   1.013   1.115   5.435
 7960SOL    HW124779   1.057   1.176   5.500
 7960SOL    HW224780   1.052   1.023   5.443
 7961SOL     OW24781   6.195   6.563   0.369
 7961SOL    HW124782   6.255   6.513   0.431
 7961SOL    HW224783   6.142   6.631   0.420
 7962SOL     OW24784   5.781   7.016   5.280
 7962SOL    HW124785   5.737   0.004   5.369
 7962SOL    HW224786   5.880   7.018   5.292
 7963SOL     OW24787   6.387   6.120   3.470
 7963SOL    HW124788   6.456   6.192   3.472
 7963SOL    HW224789   6.330   6.131   3.389
 7964SOL     OW24790   5.873   3.882   1.727
 7964SOL    HW124791   5.799   3.900   1.791
 7964SOL    HW224792   5.842   3.902   1.634
 7965SOL     OW24793   5.168   2.040   6.625
 7965SOL    HW124794   5.087   2.097   6.634
 7965SOL    HW224795   5.178   2.011   6.530
 7966SOL     OW24796   5.417   3.999   5.305
 7966SOL    HW124797   5.448   4.077   5.251
 7966SOL    HW224798   5.391   3.925   5.244
 7967SOL     OW24799   1.096   5.075   0.387
 7967SOL    HW124800   1.098   4.980   0.354
 7967SOL    HW224801   1.111   5.137   0.310
 7968SOL     OW24802   1.402   2.731   4.050
 7968SOL    HW124803   1.479   2.683   4.009
 7968SOL    HW224804   1.358   2.789   3.981
 7969SOL     OW24805   3.490   4.812   6.931
 7969SOL    HW124806   3.481   4.736   6.867
 7969SOL    HW224807   3.577   4.860   6.913
 7970SOL     OW24808   6.208   2.840   4.161
 7970SOL    HW124809   6.235   2.842   4.065
 7970SOL    HW224810   6.177   2.931   4.189
 7971SOL     OW24811   3.026   1.172   6.786
 7971SOL    HW124812   3.043   1.090   6.841
 7971SOL    HW224813   2.931   1.173   6.757
 7972SOL     OW24814   3.332   4.067   4.483
 7972SOL    HW124815   3.425   4.076   4.445
 7972SOL    HW224816   3.336   4.017   4.569
 7973SOL     OW24817   6.056   4.568   1.738
 7973SOL    HW124818   6.148   4.565   1.699
 7973SOL    HW224819   5.990   4.589   1.667
 7974SOL     OW24820   0.347   2.620   5.007
 7974SOL    HW124821   0.285   2.546   5.033
 7974SOL    HW224822   0.329   2.700   5.065
 7975SOL     OW24823   4.887   0.571   0.720
 7975SOL    HW124824   4.815   0.581   0.790
 7975SOL    HW224825   4.845   0.577   0.629
 7976SOL     OW24826   0.959   0.283   0.457
 7976SOL    HW124827   0.995   0.357   0.400
 7976SOL    HW224828   0.879   0.316   0.507
 7977SOL     OW24829   5.437   5.463   3.360
 7977SOL    HW124830   5.486   5.384   3.324
 7977SOL    HW224831   5.362   5.487   3.297
 7978SOL     OW24832   0.521   4.261   1.540
 7978SOL    HW124833   0.555   4.349   1.507
 7978SOL    HW224834   0.433   4.275   1.586
 7979SOL     OW24835   2.692   2.033   5.270
 7979SOL    HW124836   2.662   2.123   5.239
 7979SOL    HW224837   2.760   2.043   5.342
 7980SOL     OW24838   3.485   5.574   1.229
 7980SOL    HW124839   3.413   5.631   1.190
 7980SOL    HW224840   3.533   5.624   1.300
 7981SOL     OW24841   1.586   3.491   3.911
 7981SOL    HW124842   1.569   3.585   3.881
 7981SOL    HW224843   1.528   3.470   3.990
 7982SOL     OW24844   6.904   0.898   6.052
 7982SOL    HW124845   6.879   0.853   5.966
 7982SOL    HW224846   6.898   0.997   6.041
 7983SOL     OW24847   4.425   0.817   2.034
 7983SOL    HW124848   4.521   0.833   2.059
 7983SOL    HW224849   4.404   0.867   1.950
 7984SOL     OW24850   0.230   2.934   2.783
 7984SOL    HW124851   0.286   3.016   2.793
 7984SOL    HW224852   0.138   2.952   2.819
 7985SOL     OW24853   3.223   2.904   5.467
 7985SOL    HW124854   3.125   2.920   5.460
 7985SOL    HW224855   3.257   2.864   5.381
 7986SOL     OW24856   3.699   0.999   3.848
 7986SOL    HW124857   3.760   1.056   3.903
 7986SOL    HW224858   3.680   0.914   3.897
 7987SOL     OW24859   0.929   3.319   6.447
 7987SOL    HW124860   0.869   3.239   6.458
 7987SOL    HW224861   0.874   3.401   6.432
 7988SOL     OW24862   6.760   0.922   1.383
 7988SOL    HW124863   6.669   0.919   1.341
 7988SOL    HW224864   6.807   1.006   1.355
 7989SOL     OW24865   0.430   4.311   0.952
 7989SOL    HW124866   0.512   4.335   1.005
 7989SOL    HW224867   0.349   4.342   1.001
 7990SOL     OW24868   4.941   5.475   5.029
 7990SOL    HW124869   4.993   5.402   5.074
 7990SOL    HW224870   4.896   5.439   4.947
 7991SOL     OW24871   6.035   0.902   4.848
 7991SOL    HW124872   6.120   0.954   4.862
 7991SOL    HW224873   6.057   0.812   4.811
 7992SOL     OW24874   2.245   6.796   0.420
 7992SOL    HW124875   2.178   6.871   0.412
 7992SOL    HW224876   2.219   6.722   0.358
 7993SOL     OW24877   6.355   5.995   0.406
 7993SOL    HW124878   6.422   5.980   0.479
 7993SOL    HW224879   6.266   5.958   0.434
 7994SOL     OW24880   6.712   0.449   4.059
 7994SOL    HW124881   6.635   0.511   4.040
 7994SOL    HW224882   6.772   0.445   3.980
 7995SOL     OW24883   0.947   5.569   1.330
 7995SOL    HW124884   0.907   5.566   1.239
 7995SOL    HW224885   0.985   5.479   1.353
 7996SOL     OW24886   2.458   0.293   3.341
 7996SOL    HW124887   2.448   0.391   3.358
 7996SOL    HW224888   2.462   0.277   3.242
 7997SOL     OW24889   2.343   2.028   5.667
 7997SOL    HW124890   2.255   2.023   5.620
 7997SOL    HW224891   2.381   2.120   5.658
 7998SOL     OW24892   2.292   0.990   0.509
 7998SOL    HW124893   2.358   0.916   0.524
 7998SOL    HW224894   2.340   1.077   0.501
 7999SOL     OW24895   1.007   0.036   3.762
 7999SOL    HW124896   1.014   0.091   3.845
 7999SOL    HW224897   0.950   0.084   3.695
 8000SOL     OW24898   4.304   5.672   1.008
 8000SOL    HW124899   4.384   5.679   0.947
 8000SOL    HW224900   4.256   5.759   1.010
 8001SOL     OW24901   4.359   4.478   1.335
 8001SOL    HW124902   4.410   4.428   1.405
 8001SOL    HW224903   4.353   4.574   1.360
 8002SOL     OW24904   0.905   0.015   4.612
 8002SOL    HW124905   0.893   0.023   4.513
 8002SOL    HW224906   0.884   0.102   4.655
 8003SOL     OW24907   3.034   5.600   2.533
 8003SOL    HW124908   2.940   5.617   2.562
 8003SOL    HW224909   3.094   5.672   2.568
 8004SOL     OW24910   1.440   3.496   4.160
 8004SOL    HW124911   1.344   3.523   4.152
 8004SOL    HW224912   1.474   3.523   4.249
 8005SOL     OW24913   1.835   0.861   3.238
 8005SOL    HW124914   1.919   0.912   3.221
 8005SOL    HW224915   1.761   0.924   3.258
 8006SOL     OW24916   4.158   5.255   5.580
 8006SOL    HW124917   4.226   5.247   5.653
 8006SOL    HW224918   4.093   5.328   5.602
 8007SOL     OW24919   0.019   0.622   0.984
 8007SOL    HW124920   6.944   0.618   1.004
 8007SOL    HW224921   0.064   0.682   1.051
 8008SOL     OW24922   4.857   4.928   0.412
 8008SOL    HW124923   4.951   4.912   0.383
 8008SOL    HW224924   4.817   5.001   0.357
 8009SOL     OW24925   6.329   1.189   0.401
 8009SOL    HW124926   6.298   1.279   0.372
 8009SOL    HW224927   6.321   1.124   0.326
 8010SOL     OW24928   3.344   0.135   5.555
 8010SOL    HW124929   3.357   0.170   5.462
 8010SOL    HW224930   3.266   0.181   5.597
 8011SOL     OW24931   3.921   1.992   2.659
 8011SOL    HW124932   3.978   1.997   2.577
 8011SOL    HW224933   3.864   1.910   2.656
 8012SOL     OW24934   6.326   1.298   4.278
 8012SOL    HW124935   6.356   1.209   4.241
 8012SOL    HW224936   6.405   1.358   4.287
 8013SOL     OW24937   3.662   0.923   3.241
 8013SOL    HW124938   3.614   0.916   3.154
 8013SOL    HW224939   3.603   0.970   3.307
 8014SOL     OW24940   2.628   2.482   2.936
 8014SOL    HW124941   2.679   2.410   2.889
 8014SOL    HW224942   2.597   2.550   2.868
 8015SOL     OW24943   3.903   0.407   4.368
 8015SOL    HW124944   3.891   0.331   4.304
 8015SOL    HW224945   3.841   0.396   4.446
 8016SOL     OW24946   3.793   2.282   5.300
 8016SOL    HW124947   3.836   2.206   5.349
 8016SOL    HW224948   3.693   2.275   5.309
 8017SOL     OW24949   6.073   5.892   1.180
 8017SOL    HW124950   6.161   5.937   1.191
 8017SOL    HW224951   6.016   5.907   1.261
 8018SOL     OW24952   3.436   3.088   0.184
 8018SOL    HW124953   3.453   3.184   0.161
 8018SOL    HW224954   3.485   3.065   0.268
 8019SOL     OW24955   2.517   3.129   0.371
 8019SOL    HW124956   2.569   3.137   0.286
 8019SOL    HW224957   2.509   3.033   0.397
 8020SOL     OW24958   0.259   0.335   6.143
 8020SOL    HW124959   0.187   0.266   6.150
 8020SOL    HW224960   0.225   0.423   6.174
 8021SOL     OW24961   0.886   3.230   0.284
 8021SOL    HW124962   0.964   3.196   0.336
 8021SOL    HW224963   0.813   3.258   0.347
 8022SOL     OW24964   4.102   7.021   2.072
 8022SOL    HW124965   4.146   0.052   2.143
 8022SOL    HW224966   4.003   0.005   2.081
 8023SOL     OW24967   4.122   5.704   1.796
 8023SOL    HW124968   4.187   5.744   1.731
 8023SOL    HW224969   4.077   5.625   1.753
 8024SOL     OW24970   2.578   0.928   0.256
 8024SOL    HW124971   2.617   0.841   0.226
 8024SOL    HW224972   2.482   0.933   0.231
 8025SOL     OW24973   1.158   6.113   2.031
 8025SOL    HW124974   1.144   6.071   1.941
 8025SOL    HW224975   1.204   6.201   2.021
 8026SOL     OW24976   0.854   5.903   6.632
 8026SOL    HW124977   0.761   5.931   6.609
 8026SOL    HW224978   0.887   5.957   6.709
 8027SOL     OW24979   3.720   0.128   6.488
 8027SOL    HW124980   3.633   0.086   6.515
 8027SOL    HW224981   3.737   0.208   6.546
 8028SOL     OW24982   3.985   5.852   5.558
 8028SOL    HW124983   4.047   5.786   5.516
 8028SOL    HW224984   3.899   5.856   5.507
 8029SOL     OW24985   0.870   0.539   1.413
 8029SOL    HW124986   0.915   0.452   1.395
 8029SOL    HW224987   0.937   0.605   1.448
 8030SOL     OW24988   0.868   4.547   1.253
 8030SOL    HW124989   0.926   4.622   1.285
 8030SOL    HW224990   0.925   4.471   1.222
 8031SOL     OW24991   6.642   0.368   2.378
 8031SOL    HW124992   6.716   0.434   2.362
 8031SOL    HW224993   6.681   0.283   2.414
 8032SOL     OW24994   0.049   2.456   0.600
 8032SOL    HW124995   0.000   2.497   0.522
 8032SOL    HW224996   0.001   2.373   0.629
 8033SOL     OW24997   4.221   4.168   1.231
 8033SOL    HW124998   4.216   4.246   1.169
 8033SOL    HW224999   4.195   4.196   1.323
 8034SOL     OW25000   6.893   0.168   5.604
 8034SOL    HW125001   6.970   0.153   5.541
 8034SOL    HW225002   6.808   0.145   5.558
 8035SOL     OW25003   6.277   0.157   4.061
 8035SOL    HW125004   6.228   0.108   3.989
 8035SOL    HW225005   6.244   0.252   4.065
 8036SOL     OW25006   4.849   3.034   4.261
 8036SOL    HW125007   4.831   2.983   4.177
 8036SOL    HW225008   4.893   3.122   4.239
 8037SOL     OW25009   2.192   0.939   6.085
 8037SOL    HW125010   2.252   0.872   6.130
 8037SOL    HW225011   2.229   0.962   5.995
 8038SOL     OW25012   6.587   5.710   1.941
 8038SOL    HW125013   6.636   5.673   1.862
 8038SOL    HW225014   6.626   5.799   1.965
 8039SOL     OW25015   1.774   2.488   5.170
 8039SOL    HW125016   1.682   2.527   5.170
 8039SOL    HW225017   1.795   2.453   5.261
 8040SOL     OW25018   0.819   6.195   5.882
 8040SOL    HW125019   0.866   6.173   5.796
 8040SOL    HW225020   0.720   6.197   5.866
 8041SOL     OW25021   3.006   1.567   3.432
 8041SOL    HW125022   3.015   1.585   3.530
 8041SOL    HW225023   3.084   1.513   3.400
 8042SOL     OW25024   3.927   4.233   5.811
 8042SOL    HW125025   4.021   4.239   5.844
 8042SOL    HW225026   3.864   4.265   5.883
 8043SOL     OW25027   5.065   5.387   0.084
 8043SOL    HW125028   4.996   5.452   0.053
 8043SOL    HW225029   5.103   5.338   0.006
 8044SOL     OW25030   1.942   2.968   1.456
 8044SOL    HW125031   1.932   3.054   1.504
 8044SOL    HW225032   2.038   2.956   1.428
 8045SOL     OW25033   6.303   3.549   4.842
 8045SOL    HW125034   6.350   3.560   4.755
 8045SOL    HW225035   6.337   3.617   4.907
 8046SOL     OW25036   0.052   4.877   1.205
 8046SOL    HW125037   0.137   4.872   1.152
 8046SOL    HW225038   0.038   4.791   1.253
 8047SOL     OW25039   2.580   6.107   6.723
 8047SOL    HW125040   2.549   6.026   6.674
 8047SOL    HW225041   2.541   6.189   6.681
 8048SOL     OW25042   3.961   2.043   5.455
 8048SOL    HW125043   4.021   1.998   5.389
 8048SOL    HW225044   3.874   1.995   5.459
 8049SOL     OW25045   1.609   1.514   0.317
 8049SOL    HW125046   1.511   1.531   0.309
 8049SOL    HW225047   1.626   1.447   0.390
 8050SOL     OW25048   0.656   4.952   6.110
 8050SOL    HW125049   0.598   5.015   6.162
 8050SOL    HW225050   0.605   4.868   6.090
 8051SOL     OW25051   4.585   6.636   3.552
 8051SOL    HW125052   4.649   6.686   3.495
 8051SOL    HW225053   4.603   6.538   3.546
 8052SOL     OW25054   3.010   1.990   2.487
 8052SOL    HW125055   3.002   1.980   2.387
 8052SOL    HW225056   3.094   2.039   2.509
 8053SOL     OW25057   1.697   2.456   6.775
 8053SOL    HW125058   1.693   2.358   6.794
 8053SOL    HW225059   1.659   2.507   6.852
 8054SOL     OW25060   4.953   3.385   4.904
 8054SOL    HW125061   4.913   3.457   4.960
 8054SOL    HW225062   4.924   3.397   4.809
 8055SOL     OW25063   6.453   0.320   6.712
 8055SOL    HW125064   6.486   0.350   6.802
 8055SOL    HW225065   6.366   0.271   6.723
 8056SOL     OW25066   1.875   1.457   3.757
 8056SOL    HW125067   1.909   1.455   3.851
 8056SOL    HW225068   1.952   1.447   3.694
 8057SOL     OW25069   2.977   2.070   2.209
 8057SOL    HW125070   2.921   2.140   2.164
 8057SOL    HW225071   2.948   1.979   2.181
 8058SOL     OW25072   3.615   6.084   1.886
 8058SOL    HW125073   3.709   6.069   1.854
 8058SOL    HW225074   3.550   6.043   1.822
 8059SOL     OW25075   2.869   2.844   5.794
 8059SOL    HW125076   2.798   2.777   5.773
 8059SOL    HW225077   2.880   2.906   5.716
 8060SOL     OW25078   6.452   0.873   5.801
 8060SOL    HW125079   6.386   0.948   5.803
 8060SOL    HW225080   6.523   0.892   5.733
 8061SOL     OW25081   6.843   0.579   2.397
 8061SOL    HW125082   6.916   0.519   2.365
 8061SOL    HW225083   6.875   0.632   2.476
 8062SOL     OW25084   4.478   5.032   5.319
 8062SOL    HW125085   4.411   5.017   5.246
 8062SOL    HW225086   4.463   5.122   5.360
 8063SOL     OW25087   2.738   4.701   2.807
 8063SOL    HW125088   2.745   4.685   2.905
 8063SOL    HW225089   2.725   4.799   2.790
 8064SOL     OW25090   6.852   1.567   0.381
 8064SOL    HW125091   6.857   1.496   0.451
 8064SOL    HW225092   6.817   1.652   0.423
 8065SOL     OW25093   4.461   6.671   6.791
 8065SOL    HW125094   4.435   6.676   6.694
 8065SOL    HW225095   4.508   6.585   6.808
 8066SOL     OW25096   0.551   6.823   6.382
 8066SOL    HW125097   0.528   6.728   6.359
 8066SOL    HW225098   0.481   6.860   6.443
 8067SOL     OW25099   5.834   0.863   4.424
 8067SOL    HW125100   5.831   0.903   4.516
 8067SOL    HW225101   5.842   0.764   4.431
 8068SOL     OW25102   6.731   3.215   1.593
 8068SOL    HW125103   6.802   3.257   1.649
 8068SOL    HW225104   6.773   3.164   1.518
 8069SOL     OW25105   1.415   3.121   2.433
 8069SOL    HW125106   1.430   3.055   2.359
 8069SOL    HW225107   1.477   3.198   2.422
 8070SOL     OW25108   5.068   4.084   0.838
 8070SOL    HW125109   5.106   4.171   0.871
 8070SOL    HW225110   5.060   4.087   0.739
 8071SOL     OW25111   2.662   0.090   6.473
 8071SOL    HW125112   2.602   0.039   6.411
 8071SOL    HW225113   2.757   0.080   6.444
 8072SOL     OW25114   2.487   2.193   4.837
 8072SOL    HW125115   2.500   2.261   4.765
 8072SOL    HW225116   2.568   2.135   4.842
 8073SOL     OW25117   4.731   0.377   6.965
 8073SOL    HW125118   4.760   0.315   0.015
 8073SOL    HW225119   4.810   0.422   6.926
 8074SOL     OW25120   6.751   0.514   6.653
 8074SOL    HW125121   6.652   0.522   6.660
 8074SOL    HW225122   6.776   0.420   6.632
 8075SOL     OW25123   0.554   0.056   0.840
 8075SOL    HW125124   0.505   0.038   0.755
 8075SOL    HW225125   0.653   0.050   0.824
 8076SOL     OW25126   6.882   6.353   0.742
 8076SOL    HW125127   6.935   6.367   0.658
 8076SOL    HW225128   6.920   6.275   0.792
 8077SOL     OW25129   5.451   4.806   0.803
 8077SOL    HW125130   5.439   4.888   0.860
 8077SOL    HW225131   5.469   4.727   0.862
 8078SOL     OW25132   6.876   0.696   1.248
 8078SOL    HW125133   6.967   0.671   1.283
 8078SOL    HW225134   6.835   0.765   1.307
 8079SOL     OW25135   1.031   0.963   6.494
 8079SOL    HW125136   0.955   0.937   6.554
 8079SOL    HW225137   1.103   0.894   6.500
 8080SOL     OW25138   1.165   3.646   3.419
 8080SOL    HW125139   1.165   3.741   3.451
 8080SOL    HW225140   1.201   3.643   3.326
 8081SOL     OW25141   6.500   6.874   4.984
 8081SOL    HW125142   6.512   6.793   4.927
 8081SOL    HW225143   6.486   6.955   4.926
 8082SOL     OW25144   3.515   2.062   4.194
 8082SOL    HW125145   3.450   2.101   4.129
 8082SOL    HW225146   3.471   1.988   4.245
 8083SOL     OW25147   6.629   2.273   4.516
 8083SOL    HW125148   6.679   2.273   4.603
 8083SOL    HW225149   6.694   2.258   4.441
 8084SOL     OW25150   4.117   1.532   5.587
 8084SOL    HW125151   4.166   1.525   5.500
 8084SOL    HW225152   4.095   1.627   5.606
 8085SOL     OW25153   1.918   6.188   4.416
 8085SOL    HW125154   1.831   6.167   4.373
 8085SOL    HW225155   1.902   6.216   4.511
 8086SOL     OW25156   6.683   1.766   2.747
 8086SOL    HW125157   6.646   1.749   2.838
 8086SOL    HW225158   6.614   1.746   2.678
 8087SOL     OW25159   6.871   0.874   6.481
 8087SOL    HW125160   6.797   0.934   6.451
 8087SOL    HW225161   6.959   0.911   6.450
 8088SOL     OW25162   6.863   0.397   5.395
 8088SOL    HW125163   6.960   0.381   5.376
 8088SOL    HW225164   6.808   0.354   5.324
 8089SOL     OW25165   6.409   2.056   0.082
 8089SOL    HW125166   6.350   2.046   0.002
 8089SOL    HW225167   6.441   1.966   0.112
 8090SOL     OW25168   4.520   2.462   5.347
 8090SOL    HW125169   4.503   2.478   5.444
 8090SOL    HW225170   4.603   2.407   5.336
 8091SOL     OW25171   1.036   4.467   4.246
 8091SOL    HW125172   1.097   4.512   4.180
 8091SOL    HW225173   1.019   4.373   4.216
 8092SOL     OW25174   4.969   1.056   5.751
 8092SOL    HW125175   4.882   1.080   5.795
 8092SOL    HW225176   4.953   0.984   5.684
 8093SOL     OW25177   3.058   6.095   3.310
 8093SOL    HW125178   3.050   6.049   3.399
 8093SOL    HW225179   3.150   6.131   3.299
 8094SOL     OW25180   1.938   3.660   4.223
 8094SOL    HW125181   1.861   3.718   4.246
 8094SOL    HW225182   1.918   3.565   4.249
 8095SOL     OW25183   1.453   4.744   4.860
 8095SOL    HW125184   1.447   4.835   4.901
 8095SOL    HW225185   1.528   4.742   4.794
 8096SOL     OW25186   1.096   4.722   0.282
 8096SOL    HW125187   1.061   4.650   0.342
 8096SOL    HW225188   1.025   4.748   0.216
 8097SOL     OW25189   4.819   6.182   0.299
 8097SOL    HW125190   4.728   6.142   0.311
 8097SOL    HW225191   4.854   6.212   0.387
 8098SOL     OW25192   2.235   5.916   5.327
 8098SOL    HW125193   2.185   5.920   5.240
 8098SOL    HW225194   2.261   6.009   5.354
 8099SOL     OW25195   1.618   4.083   2.509
 8099SOL    HW125196   1.634   4.017   2.436
 8099SOL    HW225197   1.675   4.060   2.588
 8100SOL     OW25198   6.684   0.235   6.611
 8100SOL    HW125199   6.603   0.272   6.656
 8100SOL    HW225200   6.751   0.207   6.680
 8101SOL     OW25201   2.931   5.286   0.958
 8101SOL    HW125202   2.836   5.313   0.971
 8101SOL    HW225203   2.965   5.242   1.042
 8102SOL     OW25204   0.747   3.889   4.035
 8102SOL    HW125205   0.812   3.827   4.078
 8102SOL    HW225206   0.657   3.845   4.031
 8103SOL     OW25207   3.801   0.645   1.223
 8103SOL    HW125208   3.728   0.622   1.289
 8103SOL    HW225209   3.799   0.743   1.204
 8104SOL     OW25210   1.841   5.084   0.219
 8104SOL    HW125211   1.826   4.995   0.176
 8104SOL    HW225212   1.936   5.112   0.204
 8105SOL     OW25213   6.889   6.612   3.582
 8105SOL    HW125214   6.921   6.706   3.587
 8105SOL    HW225215   6.933   6.558   3.654
 8106SOL     OW25216   2.453   6.704   6.260
 8106SOL    HW125217   2.443   6.686   6.358
 8106SOL    HW225218   2.522   6.643   6.221
 8107SOL     OW25219   1.641   6.279   6.696
 8107SOL    HW125220   1.553   6.292   6.651
 8107SOL    HW225221   1.708   6.247   6.629
 8108SOL     OW25222   1.151   1.190   6.873
 8108SOL    HW125223   1.180   1.203   6.779
 8108SOL    HW225224   1.077   1.123   6.876
 8109SOL     OW25225   6.508   2.866   1.620
 8109SOL    HW125226   6.443   2.891   1.692
 8109SOL    HW225227   6.591   2.829   1.662
 8110SOL     OW25228   3.910   4.702   1.068
 8110SOL    HW125229   3.939   4.632   1.133
 8110SOL    HW225230   3.960   4.786   1.086
 8111SOL     OW25231   6.508   1.433   2.832
 8111SOL    HW125232   6.526   1.506   2.766
 8111SOL    HW225233   6.418   1.393   2.812
 8112SOL     OW25234   1.715   4.802   6.704
 8112SOL    HW125235   1.698   4.866   6.779
 8112SOL    HW225236   1.717   4.852   6.618
 8113SOL     OW25237   5.302   4.469   6.019
 8113SOL    HW125238   5.220   4.517   5.988
 8113SOL    HW225239   5.379   4.533   6.026
 8114SOL     OW25240   1.661   3.774   2.963
 8114SOL    HW125241   1.632   3.703   3.027
 8114SOL    HW225242   1.679   3.733   2.874
 8115SOL     OW25243   2.281   1.007   5.854
 8115SOL    HW125244   2.228   1.084   5.817
 8115SOL    HW225245   2.372   1.039   5.882
 8116SOL     OW25246   4.066   3.055   1.713
 8116SOL    HW125247   4.066   3.097   1.622
 8116SOL    HW225248   4.141   3.092   1.767
 8117SOL     OW25249   2.584   6.780   4.358
 8117SOL    HW125250   2.530   6.697   4.369
 8117SOL    HW225251   2.657   6.764   4.292
 8118SOL     OW25252   6.389   2.748   6.964
 8118SOL    HW125253   6.434   2.669   6.922
 8118SOL    HW225254   6.291   2.730   6.972
 8119SOL     OW25255   5.800   6.761   6.819
 8119SOL    HW125256   5.795   6.661   6.829
 8119SOL    HW225257   5.774   6.805   6.904
 8120SOL     OW25258   1.967   6.733   2.193
 8120SOL    HW125259   1.940   6.645   2.234
 8120SOL    HW225260   2.065   6.733   2.176
 8121SOL     OW25261   1.180   2.815   2.406
 8121SOL    HW125262   1.164   2.717   2.391
 8121SOL    HW225263   1.268   2.841   2.365
 8122SOL     OW25264   0.226   5.016   1.414
 8122SOL    HW125265   0.273   5.101   1.392
 8122SOL    HW225266   0.153   5.000   1.347
 8123SOL     OW25267   6.459   1.557   0.196
 8123SOL    HW125268   6.486   1.550   0.100
 8123SOL    HW225269   6.521   1.502   0.252
 8124SOL     OW25270   5.805   5.961   4.709
 8124SOL    HW125271   5.816   5.956   4.610
 8124SOL    HW225272   5.715   6.000   4.731
 8125SOL     OW25273   1.517   5.567   2.232
 8125SOL    HW125274   1.545   5.472   2.218
 8125SOL    HW225275   1.417   5.572   2.232
 8126SOL     OW25276   3.950   5.906   4.658
 8126SOL    HW125277   4.044   5.935   4.638
 8126SOL    HW225278   3.940   5.891   4.756
 8127SOL     OW25279   3.351   1.945   6.332
 8127SOL    HW125280   3.296   1.863   6.341
 8127SOL    HW225281   3.292   2.025   6.322
 8128SOL     OW25282   3.257   2.481   1.064
 8128SOL    HW125283   3.333   2.519   1.115
 8128SOL    HW225284   3.226   2.396   1.108
 8129SOL     OW25285   0.628   2.427   2.471
 8129SOL    HW125286   0.535   2.440   2.503
 8129SOL    HW225287   0.690   2.422   2.549
 8130SOL     OW25288   0.452   5.481   6.809
 8130SOL    HW125289   0.380   5.413   6.826
 8130SOL    HW225290   0.498   5.460   6.723
 8131SOL     OW25291   1.723   2.725   6.714
 8131SOL    HW125292   1.712   2.631   6.682
 8131SOL    HW225293   1.803   2.731   6.774
 8132SOL     OW25294   0.269   1.122   5.068
 8132SOL    HW125295   0.211   1.053   5.112
 8132SOL    HW225296   0.358   1.081   5.046
 8133SOL     OW25297   3.765   4.699   0.837
 8133SOL    HW125298   3.779   4.747   0.924
 8133SOL    HW225299   3.676   4.655   0.837
 8134SOL     OW25300   5.482   1.759   5.741
 8134SOL    HW125301   5.581   1.759   5.723
 8134SOL    HW225302   5.466   1.745   5.839
 8135SOL     OW25303   2.529   6.783   2.103
 8135SOL    HW125304   2.533   6.685   2.123
 8135SOL    HW225305   2.601   6.830   2.155
 8136SOL     OW25306   5.020   4.256   2.122
 8136SOL    HW125307   4.980   4.165   2.130
 8136SOL    HW225308   5.113   4.255   2.159
 8137SOL     OW25309   4.569   1.826   5.947
 8137SOL    HW125310   4.593   1.922   5.933
 8137SOL    HW225311   4.651   1.770   5.943
 8138SOL     OW25312   5.235   0.894   2.438
 8138SOL    HW125313   5.229   0.913   2.536
 8138SOL    HW225314   5.195   0.970   2.386
 8139SOL     OW25315   0.240   2.187   3.389
 8139SOL    HW125316   0.205   2.279   3.379
 8139SOL    HW225317   0.250   2.144   3.300
 8140SOL     OW25318   4.542   2.287   3.390
 8140SOL    HW125319   4.621   2.241   3.431
 8140SOL    HW225320   4.458   2.244   3.422
 8141SOL     OW25321   5.527   4.450   4.361
 8141SOL    HW125322   5.431   4.474   4.373
 8141SOL    HW225323   5.539   4.404   4.273
 8142SOL     OW25324   0.592   5.961   6.612
 8142SOL    HW125325   0.530   6.032   6.578
 8142SOL    HW225326   0.578   5.949   6.711
 8143SOL     OW25327   5.994   3.243   5.834
 8143SOL    HW125328   5.996   3.144   5.848
 8143SOL    HW225329   6.079   3.272   5.790
 8144SOL     OW25330   5.092   0.068   0.088
 8144SOL    HW125331   5.077   0.113   0.176
 8144SOL    HW225332   5.181   0.095   0.052
 8145SOL     OW25333   4.970   6.058   2.800
 8145SOL    HW125334   4.947   5.976   2.852
 8145SOL    HW225335   4.943   6.139   2.852
 8146SOL     OW25336   3.734   1.147   4.380
 8146SOL    HW125337   3.670   1.078   4.347
 8146SOL    HW225338   3.742   1.141   4.480
 8147SOL     OW25339   4.776   0.829   3.316
 8147SOL    HW125340   4.872   0.828   3.291
 8147SOL    HW225341   4.766   0.841   3.415
 8148SOL     OW25342   5.791   4.317   3.518
 8148SOL    HW125343   5.844   4.391   3.561
 8148SOL    HW225344   5.774   4.246   3.586
 8149SOL     OW25345   3.923   4.852   3.247
 8149SOL    HW125346   3.844   4.845   3.186
 8149SOL    HW225347   4.007   4.857   3.192
 8150SOL     OW25348   0.924   5.851   1.305
 8150SOL    HW125349   0.959   5.762   1.277
 8150SOL    HW225350   0.840   5.839   1.357
 8151SOL     OW25351   0.669   1.658   4.997
 8151SOL    HW125352   0.709   1.748   4.981
 8151SOL    HW225353   0.726   1.588   4.953
 8152SOL     OW25354   1.497   0.401   2.648
 8152SOL    HW125355   1.504   0.425   2.551
 8152SOL    HW225356   1.424   0.455   2.690
 8153SOL     OW25357   1.594   6.640   0.139
 8153SOL    HW125358   1.668   6.578   0.164
 8153SOL    HW225359   1.620   6.734   0.160
 8154SOL     OW25360   2.346   6.914   3.370
 8154SOL    HW125361   2.275   6.888   3.435
 8154SOL    HW225362   2.307   6.973   3.299
 8155SOL     OW25363   3.234   3.472   4.308
 8155SOL    HW125364   3.256   3.561   4.346
 8155SOL    HW225365   3.273   3.464   4.216
 8156SOL     OW25366   0.150   0.475   5.837
 8156SOL    HW125367   0.075   0.426   5.883
 8156SOL    HW225368   0.234   0.463   5.890
 8157SOL     OW25369   6.417   2.711   6.615
 8157SOL    HW125370   6.453   2.631   6.664
 8157SOL    HW225371   6.319   2.700   6.601
 8158SOL     OW25372   1.935   5.561   2.504
 8158SOL    HW125373   2.015   5.578   2.446
 8158SOL    HW225374   1.857   5.612   2.469
 8159SOL     OW25375   0.670   5.120   1.514
 8159SOL    HW125376   0.639   5.033   1.553
 8159SOL    HW225377   0.617   5.195   1.554
 8160SOL     OW25378   4.761   1.757   2.106
 8160SOL    HW125379   4.845   1.731   2.058
 8160SOL    HW225380   4.699   1.678   2.108
 8161SOL     OW25381   4.258   2.185   1.742
 8161SOL    HW125382   4.166   2.153   1.720
 8161SOL    HW225383   4.311   2.196   1.658
 8162SOL     OW25384   5.986   0.716   1.622
 8162SOL    HW125385   5.903   0.772   1.617
 8162SOL    HW225386   6.063   0.773   1.650
 8163SOL     OW25387   1.853   3.426   4.805
 8163SOL    HW125388   1.862   3.481   4.888
 8163SOL    HW225389   1.756   3.407   4.789
 8164SOL     OW25390   4.856   2.470   2.819
 8164SOL    HW125391   4.863   2.482   2.720
 8164SOL    HW225392   4.808   2.549   2.858
 8165SOL     OW25393   2.406   4.938   1.286
 8165SOL    HW125394   2.368   4.942   1.378
 8165SOL    HW225395   2.466   4.858   1.277
 8166SOL     OW25396   3.462   6.655   1.188
 8166SOL    HW125397   3.387   6.622   1.132
 8166SOL    HW225398   3.539   6.591   1.183
 8167SOL     OW25399   5.487   3.301   3.664
 8167SOL    HW125400   5.455   3.272   3.754
 8167SOL    HW225401   5.542   3.384   3.673
 8168SOL     OW25402   3.336   1.810   2.223
 8168SOL    HW125403   3.289   1.894   2.194
 8168SOL    HW225404   3.412   1.835   2.284
 8169SOL     OW25405   5.188   4.186   5.483
 8169SOL    HW125406   5.214   4.249   5.556
 8169SOL    HW225407   5.270   4.148   5.441
 8170SOL     OW25408   1.549   4.605   4.443
 8170SOL    HW125409   1.488   4.529   4.420
 8170SOL    HW225410   1.616   4.617   4.370
 8171SOL     OW25411   1.643   1.307   6.170
 8171SOL    HW125412   1.692   1.220   6.174
 8171SOL    HW225413   1.546   1.289   6.152
 8172SOL     OW25414   6.978   6.417   1.250
 8172SOL    HW125415   6.949   6.374   1.336
 8172SOL    HW225416   0.055   6.416   1.246
 8173SOL     OW25417   5.834   2.518   6.958
 8173SOL    HW125418   5.878   2.533   6.870
 8173SOL    HW225419   5.884   2.448   7.009
 8174SOL     OW25420   5.422   6.763   1.991
 8174SOL    HW125421   5.370   6.692   2.037
 8174SOL    HW225422   5.520   6.748   2.006
 8175SOL     OW25423   1.515   2.595   4.902
 8175SOL    HW125424   1.492   2.671   4.841
 8175SOL    HW225425   1.478   2.613   4.993
 8176SOL     OW25426   3.966   5.178   3.429
 8176SOL    HW125427   3.874   5.143   3.410
 8176SOL    HW225428   4.014   5.195   3.343
 8177SOL     OW25429   0.815   6.948   5.640
 8177SOL    HW125430   0.890   6.973   5.701
 8177SOL    HW225431   0.821   6.850   5.618
 8178SOL     OW25432   1.842   6.812   6.009
 8178SOL    HW125433   1.900   6.762   5.945
 8178SOL    HW225434   1.873   6.907   6.014
 8179SOL     OW25435   3.132   0.293   0.205
 8179SOL    HW125436   3.146   0.329   0.113
 8179SOL    HW225437   3.104   0.367   0.266
 8180SOL     OW25438   4.689   4.846   5.835
 8180SOL    HW125439   4.592   4.842   5.857
 8180SOL    HW225440   4.701   4.846   5.736
 8181SOL     OW25441   2.520   2.214   2.464
 8181SOL    HW125442   2.603   2.241   2.413
 8181SOL    HW225443   2.456   2.169   2.401
 8182SOL     OW25444   5.187   2.629   5.807
 8182SOL    HW125445   5.151   2.613   5.715
 8182SOL    HW225446   5.218   2.543   5.846
 8183SOL     OW25447   2.108   2.709   3.746
 8183SOL    HW125448   2.196   2.749   3.770
 8183SOL    HW225449   2.080   2.644   3.817
 8184SOL     OW25450   5.798   6.428   4.883
 8184SOL    HW125451   5.833   6.494   4.950
 8184SOL    HW225452   5.871   6.402   4.820
 8185SOL     OW25453   1.679   2.048   3.004
 8185SOL    HW125454   1.707   1.992   2.926
 8185SOL    HW225455   1.622   1.994   3.065
 8186SOL     OW25456   4.123   4.076   6.560
 8186SOL    HW125457   4.095   4.121   6.644
 8186SOL    HW225458   4.133   4.144   6.487
 8187SOL     OW25459   1.828   1.059   5.603
 8187SOL    HW125460   1.849   1.089   5.695
 8187SOL    HW225461   1.732   1.030   5.598
 8188SOL     OW25462   5.557   3.445   2.842
 8188SOL    HW125463   5.513   3.400   2.764
 8188SOL    HW225464   5.495   3.441   2.921
 8189SOL     OW25465   0.119   5.048   2.995
 8189SOL    HW125466   0.097   5.001   2.909
 8189SOL    HW225467   0.061   5.013   3.068
 8190SOL     OW25468   5.717   3.667   2.241
 8190SOL    HW125469   5.642   3.675   2.175
 8190SOL    HW225470   5.804   3.681   2.194
 8191SOL     OW25471   6.877   5.273   1.862
 8191SOL    HW125472   6.794   5.240   1.818
 8191SOL    HW225473   6.939   5.197   1.878
 8192SOL     OW25474   1.357   3.285   0.545
 8192SOL    HW125475   1.415   3.268   0.465
 8192SOL    HW225476   1.305   3.369   0.532
 8193SOL     OW25477   3.817   0.160   5.343
 8193SOL    HW125478   3.781   0.253   5.335
 8193SOL    HW225479   3.783   0.118   5.427
 8194SOL     OW25480   1.694   0.172   1.789
 8194SOL    HW125481   1.787   0.179   1.754
 8194SOL    HW225482   1.668   0.076   1.798
 8195SOL     OW25483   5.173   1.247   1.237
 8195SOL    HW125484   5.127   1.163   1.265
 8195SOL    HW225485   5.118   1.326   1.263
 8196SOL     OW25486   2.211   0.189   0.174
 8196SOL    HW125487   2.207   0.110   0.112
 8196SOL    HW225488   2.206   0.157   0.269
 8197SOL     OW25489   0.605   6.988   1.085
 8197SOL    HW125490   0.527   6.962   1.142
 8197SOL    HW225491   0.571   7.021   0.996
 8198SOL     OW25492   3.462   0.293   2.702
 8198SOL    HW125493   3.424   0.206   2.671
 8198SOL    HW225494   3.400   0.335   2.769
 8199SOL     OW25495   5.835   5.079   0.301
 8199SOL    HW125496   5.928   5.083   0.336
 8199SOL    HW225497   5.771   5.116   0.369
 8200SOL     OW25498   4.135   3.649   2.091
 8200SOL    HW125499   4.189   3.652   2.176
 8200SOL    HW225500   4.143   3.558   2.050
 8201SOL     OW25501   6.418   0.501   4.713
 8201SOL    HW125502   6.387   0.429   4.775
 8201SOL    HW225503   6.394   0.590   4.750
 8202SOL     OW25504   1.698   3.756   4.152
 8202SOL    HW125505   1.678   3.685   4.085
 8202SOL    HW225506   1.657   3.842   4.122
 8203SOL     OW25507   6.326   4.222   0.346
 8203SOL    HW125508   6.257   4.208   0.275
 8203SOL    HW225509   6.344   4.320   0.355
 8204SOL     OW25510   3.592   0.103   0.719
 8204SOL    HW125511   3.590   0.178   0.653
 8204SOL    HW225512   3.543   0.130   0.802
 8205SOL     OW25513   5.241   5.584   3.213
 8205SOL    HW125514   5.198   5.664   3.255
 8205SOL    HW225515   5.174   5.537   3.155
 8206SOL     OW25516   4.288   1.876   4.147
 8206SOL    HW125517   4.328   1.939   4.213
 8206SOL    HW225518   4.313   1.782   4.171
 8207SOL     OW25519   3.120   5.694   6.679
 8207SOL    HW125520   3.186   5.767   6.663
 8207SOL    HW225521   3.043   5.729   6.732
 8208SOL     OW25522   1.558   5.906   0.229
 8208SOL    HW125523   1.614   5.899   0.146
 8208SOL    HW225524   1.618   5.908   0.309
 8209SOL     OW25525   1.454   5.645   4.801
 8209SOL    HW125526   1.384   5.713   4.779
 8209SOL    HW225527   1.472   5.587   4.722
 8210SOL     OW25528   1.985   1.745   0.442
 8210SOL    HW125529   2.020   1.752   0.348
 8210SOL    HW225530   2.046   1.686   0.495
 8211SOL     OW25531   3.793   4.067   3.804
 8211SOL    HW125532   3.786   4.030   3.896
 8211SOL    HW225533   3.706   4.107   3.777
 8212SOL     OW25534   4.332   5.428   0.118
 8212SOL    HW125535   4.410   5.398   0.061
 8212SOL    HW225536   4.252   5.442   0.059
 8213SOL     OW25537   4.492   4.394   1.576
 8213SOL    HW125538   4.460   4.327   1.643
 8213SOL    HW225539   4.505   4.482   1.621
 8214SOL     OW25540   3.861   5.353   2.898
 8214SOL    HW125541   3.843   5.424   2.966
 8214SOL    HW225542   3.783   5.346   2.836
 8215SOL     OW25543   2.525   6.255   6.126
 8215SOL    HW125544   2.545   6.185   6.194
 8215SOL    HW225545   2.441   6.303   6.151
 8216SOL     OW25546   5.211   5.761   1.372
 8216SOL    HW125547   5.247   5.755   1.465
 8216SOL    HW225548   5.218   5.856   1.340
 8217SOL     OW25549   3.238   6.551   4.092
 8217SOL    HW125550   3.324   6.524   4.136
 8217SOL    HW225551   3.180   6.471   4.081
 8218SOL     OW25552   2.310   6.165   5.081
 8218SOL    HW125553   2.270   6.075   5.099
 8218SOL    HW225554   2.396   6.174   5.131
 8219SOL     OW25555   3.936   3.156   2.523
 8219SOL    HW125556   4.018   3.168   2.466
 8219SOL    HW225557   3.863   3.116   2.468
 8220SOL     OW25558   3.775   4.037   5.695
 8220SOL    HW125559   3.749   3.994   5.781
 8220SOL    HW225560   3.826   4.121   5.713
 8221SOL     OW25561   6.443   3.566   4.026
 8221SOL    HW125562   6.503   3.543   4.103
 8221SOL    HW225563   6.497   3.607   3.953
 8222SOL     OW25564   5.934   2.779   0.097
 8222SOL    HW125565   5.930   2.869   0.052
 8222SOL    HW225566   5.843   2.738   0.095
 8223SOL     OW25567   1.985   6.220   5.390
 8223SOL    HW125568   2.038   6.280   5.330
 8223SOL    HW225569   1.888   6.236   5.375
 8224SOL     OW25570   5.449   1.207   6.382
 8224SOL    HW125571   5.491   1.224   6.293
 8224SOL    HW225572   5.488   1.269   6.449
 8225SOL     OW25573   5.687   3.233   0.115
 8225SOL    HW125574   5.625   3.277   0.180
 8225SOL    HW225575   5.723   3.149   0.155
 8226SOL     OW25576   3.951   0.999   6.526
 8226SOL    HW125577   3.925   0.954   6.612
 8226SOL    HW225578   3.869   1.014   6.471
 8227SOL     OW25579   4.517   2.524   3.085
 8227SOL    HW125580   4.523   2.556   3.180
 8227SOL    HW225581   4.576   2.581   3.027
 8228SOL     OW25582   2.995   0.479   5.104
 8228SOL    HW125583   3.006   0.573   5.137
 8228SOL    HW225584   2.912   0.473   5.049
 8229SOL     OW25585   4.676   4.526   0.868
 8229SOL    HW125586   4.587   4.487   0.841
 8229SOL    HW225587   4.664   4.587   0.946
 8230SOL     OW25588   5.966   1.294   5.667
 8230SOL    HW125589   6.043   1.342   5.708
 8230SOL    HW225590   5.921   1.353   5.600
 8231SOL     OW25591   2.907   1.080   2.089
 8231SOL    HW125592   2.995   1.051   2.126
 8231SOL    HW225593   2.918   1.166   2.040
 8232SOL     OW25594   3.623   6.288   3.124
 8232SOL    HW125595   3.640   6.323   3.216
 8232SOL    HW225596   3.597   6.364   3.064
 8233SOL     OW25597   1.816   0.912   6.655
 8233SOL    HW125598   1.914   0.905   6.640
 8233SOL    HW225599   1.771   0.830   6.621
 8234SOL     OW25600   1.141   2.742   0.316
 8234SOL    HW125601   1.213   2.676   0.338
 8234SOL    HW225602   1.061   2.724   0.372
 8235SOL     OW25603   0.959   0.892   1.143
 8235SOL    HW125604   0.960   0.992   1.137
 8235SOL    HW225605   1.052   0.859   1.161
 8236SOL     OW25606   0.356   0.039   1.742
 8236SOL    HW125607   0.365   0.054   1.643
 8236SOL    HW225608   0.314   0.119   1.784
 8237SOL     OW25609   3.888   5.020   5.200
 8237SOL    HW125610   3.865   4.941   5.258
 8237SOL    HW225611   3.939   5.087   5.254
 8238SOL     OW25612   0.304   5.613   0.342
 8238SOL    HW125613   0.355   5.601   0.427
 8238SOL    HW225614   0.360   5.584   0.265
 8239SOL     OW25615   3.419   1.564   5.762
 8239SOL    HW125616   3.331   1.553   5.715
 8239SOL    HW225617   3.483   1.609   5.701
 8240SOL     OW25618   3.577   3.731   5.124
 8240SOL    HW125619   3.512   3.797   5.161
 8240SOL    HW225620   3.601   3.664   5.195
 8241SOL     OW25621   1.287   3.828   5.304
 8241SOL    HW125622   1.363   3.849   5.243
 8241SOL    HW225623   1.288   3.891   5.381
 8242SOL     OW25624   0.380   2.949   2.236
 8242SOL    HW125625   0.358   2.853   2.217
 8242SOL    HW225626   0.334   3.008   2.169
 8243SOL     OW25627   1.319   6.743   3.809
 8243SOL    HW125628   1.304   6.818   3.746
 8243SOL    HW225629   1.413   6.745   3.843
 8244SOL     OW25630   6.646   0.877   3.487
 8244SOL    HW125631   6.605   0.790   3.512
 8244SOL    HW225632   6.634   0.943   3.561
 8245SOL     OW25633   4.679   2.714   2.416
 8245SOL    HW125634   4.667   2.719   2.515
 8245SOL    HW225635   4.681   2.807   2.379
 8246SOL     OW25636   1.706   4.425   6.731
 8246SOL    HW125637   1.634   4.420   6.662
 8246SOL    HW225638   1.665   4.418   6.822
 8247SOL     OW25639   2.565   5.154   3.524
 8247SOL    HW125640   2.585   5.089   3.598
 8247SOL    HW225641   2.581   5.109   3.436
 8248SOL     OW25642   0.072   5.428   2.838
 8248SOL    HW125643   0.002   5.447   2.907
 8248SOL    HW225644   0.094   5.512   2.789
 8249SOL     OW25645   3.268   1.304   6.700
 8249SOL    HW125646   3.171   1.288   6.720
 8249SOL    HW225647   3.280   1.319   6.602
 8250SOL     OW25648   1.495   2.002   6.968
 8250SOL    HW125649   1.580   1.950   6.969
 8250SOL    HW225650   1.420   1.943   6.940
 8251SOL     OW25651   0.910   2.028   6.067
 8251SOL    HW125652   0.944   1.934   6.078
 8251SOL    HW225653   0.965   2.090   6.121
 8252SOL     OW25654   0.899   2.295   6.558
 8252SOL    HW125655   0.853   2.208   6.540
 8252SOL    HW225656   0.960   2.316   6.481
 8253SOL     OW25657   5.739   5.078   6.207
 8253SOL    HW125658   5.827   5.100   6.249
 8253SOL    HW225659   5.754   5.028   6.122
 8254SOL     OW25660   6.109   5.982   0.101
 8254SOL    HW125661   6.045   6.058   0.090
 8254SOL    HW225662   6.203   6.016   0.096
 8255SOL     OW25663   1.093   0.184   5.509
 8255SOL    HW125664   1.056   0.217   5.596
 8255SOL    HW225665   1.062   0.090   5.493
 8256SOL     OW25666   1.351   6.133   4.124
 8256SOL    HW125667   1.346   6.214   4.066
 8256SOL    HW225668   1.262   6.088   4.126
 8257SOL     OW25669   5.035   3.492   3.341
 8257SOL    HW125670   5.122   3.502   3.391
 8257SOL    HW225671   4.969   3.558   3.375
 8258SOL     OW25672   0.644   2.787   3.806
 8258SOL    HW125673   0.702   2.869   3.808
 8258SOL    HW225674   0.688   2.715   3.753
 8259SOL     OW25675   5.840   2.127   4.409
 8259SOL    HW125676   5.864   2.055   4.343
 8259SOL    HW225677   5.746   2.112   4.441
 8260SOL     OW25678   5.047   2.518   6.729
 8260SOL    HW125679   5.060   2.612   6.760
 8260SOL    HW225680   5.115   2.459   6.771
 8261SOL     OW25681   6.264   1.345   2.727
 8261SOL    HW125682   6.203   1.331   2.649
 8261SOL    HW225683   6.248   1.272   2.794
 8262SOL     OW25684   5.189   3.924   2.038
 8262SOL    HW125685   5.206   4.007   1.984
 8262SOL    HW225686   5.275   3.874   2.048
 8263SOL     OW25687   6.796   1.984   6.214
 8263SOL    HW125688   6.841   2.058   6.264
 8263SOL    HW225689   6.854   1.903   6.214
 8264SOL     OW25690   3.174   0.665   1.641
 8264SOL    HW125691   3.176   0.752   1.690
 8264SOL    HW225692   3.097   0.664   1.578
 8265SOL     OW25693   4.237   5.519   0.520
 8265SOL    HW125694   4.279   5.517   0.611
 8265SOL    HW225695   4.307   5.533   0.451
 8266SOL     OW25696   3.231   1.543   3.245
 8266SOL    HW125697   3.194   1.475   3.183
 8266SOL    HW225698   3.267   1.620   3.193
 8267SOL     OW25699   1.848   2.423   3.730
 8267SOL    HW125700   1.941   2.418   3.768
 8267SOL    HW225701   1.795   2.345   3.762
 8268SOL     OW25702   3.111   4.455   6.993
 8268SOL    HW125703   3.128   4.550   6.969
 8268SOL    HW225704   3.040   4.417   6.934
 8269SOL     OW25705   6.613   2.090   5.247
 8269SOL    HW125706   6.667   2.174   5.243
 8269SOL    HW225707   6.660   2.017   5.197
 8270SOL     OW25708   4.116   4.893   0.314
 8270SOL    HW125709   4.021   4.886   0.345
 8270SOL    HW225710   4.170   4.818   0.353
 8271SOL     OW25711   3.539   6.684   5.884
 8271SOL    HW125712   3.529   6.667   5.981
 8271SOL    HW225713   3.548   6.783   5.868
 8272SOL     OW25714   0.269   0.561   2.177
 8272SOL    HW125715   0.233   0.643   2.133
 8272SOL    HW225716   0.193   0.502   2.205
 8273SOL     OW25717   3.607   0.256   6.277
 8273SOL    HW125718   3.525   0.200   6.265
 8273SOL    HW225719   3.657   0.225   6.358
 8274SOL     OW25720   5.209   6.131   5.293
 8274SOL    HW125721   5.183   6.124   5.197
 8274SOL    HW225722   5.131   6.162   5.347
 8275SOL     OW25723   4.890   1.102   4.901
 8275SOL    HW125724   4.889   1.002   4.894
 8275SOL    HW225725   4.929   1.141   4.818
 8276SOL     OW25726   5.588   2.871   0.286
 8276SOL    HW125727   5.507   2.835   0.333
 8276SOL    HW225728   5.624   2.801   0.223
 8277SOL     OW25729   0.956   6.240   1.678
 8277SOL    HW125730   0.940   6.213   1.583
 8277SOL    HW225731   0.939   6.338   1.688
 8278SOL     OW25732   1.467   0.063   1.051
 8278SOL    HW125733   1.439   0.104   1.137
 8278SOL    HW225734   1.418   6.999   1.037
 8279SOL     OW25735   4.917   5.831   5.943
 8279SOL    HW125736   4.913   5.738   5.908
 8279SOL    HW225737   4.990   5.838   6.011
 8280SOL     OW25738   5.339   4.633   6.673
 8280SOL    HW125739   5.367   4.638   6.769
 8280SOL    HW225740   5.391   4.701   6.620
 8281SOL     OW25741   3.138   5.602   6.287
 8281SOL    HW125742   3.133   5.654   6.202
 8281SOL    HW225743   3.096   5.512   6.273
 8282SOL     OW25744   4.043   2.684   1.297
 8282SOL    HW125745   4.116   2.642   1.351
 8282SOL    HW225746   3.975   2.615   1.275
 8283SOL     OW25747   0.601   0.521   3.037
 8283SOL    HW125748   0.630   0.427   3.022
 8283SOL    HW225749   0.606   0.543   3.134
 8284SOL     OW25750   5.283   1.941   2.130
 8284SOL    HW125751   5.324   1.888   2.056
 8284SOL    HW225752   5.307   1.901   2.218
 8285SOL     OW25753   0.721   4.453   0.521
 8285SOL    HW125754   0.633   4.441   0.567
 8285SOL    HW225755   0.740   4.372   0.465
 8286SOL     OW25756   6.195   2.484   6.837
 8286SOL    HW125757   6.178   2.581   6.853
 8286SOL    HW225758   6.289   2.462   6.863
 8287SOL     OW25759   1.781   1.312   3.048
 8287SOL    HW125760   1.777   1.279   3.143
 8287SOL    HW225761   1.762   1.411   3.047
 8288SOL     OW25762   2.005   0.412   2.440
 8288SOL    HW125763   1.946   0.356   2.381
 8288SOL    HW225764   2.061   0.353   2.497
 8289SOL     OW25765   5.670   6.908   0.342
 8289SOL    HW125766   5.618   6.845   0.285
 8289SOL    HW225767   5.699   6.861   0.425
 8290SOL     OW25768   4.935   2.503   1.918
 8290SOL    HW125769   4.898   2.418   1.955
 8290SOL    HW225770   4.915   2.579   1.979
 8291SOL     OW25771   5.040   6.217   6.473
 8291SOL    HW125772   5.068   6.127   6.504
 8291SOL    HW225773   4.984   6.261   6.543
 8292SOL     OW25774   0.200   3.269   5.493
 8292SOL    HW125775   0.150   3.297   5.575
 8292SOL    HW225776   0.257   3.189   5.515
 8293SOL     OW25777   3.064   5.033   4.135
 8293SOL    HW125778   3.080   4.951   4.080
 8293SOL    HW225779   2.989   5.086   4.095
 8294SOL     OW25780   5.889   3.640   5.857
 8294SOL    HW125781   5.802   3.592   5.844
 8294SOL    HW225782   5.952   3.615   5.784
 8295SOL     OW25783   4.737   5.086   2.812
 8295SOL    HW125784   4.705   5.157   2.875
 8295SOL    HW225785   4.703   4.997   2.843
 8296SOL     OW25786   4.028   0.365   2.310
 8296SOL    HW125787   4.062   0.333   2.222
 8296SOL    HW225788   4.106   0.389   2.369
 8297SOL     OW25789   5.741   4.554   1.851
 8297SOL    HW125790   5.743   4.477   1.915
 8297SOL    HW225791   5.720   4.521   1.759
 8298SOL     OW25792   6.612   6.551   0.991
 8298SOL    HW125793   6.526   6.592   1.022
 8298SOL    HW225794   6.595   6.498   0.908
 8299SOL     OW25795   1.386   3.047   6.678
 8299SOL    HW125796   1.352   2.958   6.710
 8299SOL    HW225797   1.363   3.058   6.581
 8300SOL     OW25798   6.015   5.095   4.662
 8300SOL    HW125799   6.098   5.146   4.683
 8300SOL    HW225800   5.980   5.052   4.745
 8301SOL     OW25801   6.877   5.769   0.083
 8301SOL    HW125802   6.902   5.742   0.176
 8301SOL    HW225803   6.811   5.703   0.046
 8302SOL     OW25804   4.023   6.330   5.555
 8302SOL    HW125805   3.954   6.269   5.593
 8302SOL    HW225806   4.114   6.297   5.578
 8303SOL     OW25807   1.296   4.728   4.155
 8303SOL    HW125808   1.395   4.720   4.163
 8303SOL    HW225809   1.260   4.779   4.233
 8304SOL     OW25810   6.586   2.811   3.974
 8304SOL    HW125811   6.620   2.807   3.880
 8304SOL    HW225812   6.486   2.821   3.972
 8305SOL     OW25813   4.317   0.379   5.729
 8305SOL    HW125814   4.395   0.441   5.735
 8305SOL    HW225815   4.344   0.296   5.681
 8306SOL     OW25816   6.146   0.414   4.125
 8306SOL    HW125817   6.055   0.375   4.115
 8306SOL    HW225818   6.143   0.512   4.105
 8307SOL     OW25819   0.929   4.251   3.849
 8307SOL    HW125820   0.989   4.282   3.775
 8307SOL    HW225821   0.972   4.175   3.897
 8308SOL     OW25822   1.542   5.349   0.255
 8308SOL    HW125823   1.447   5.376   0.270
 8308SOL    HW225824   1.545   5.271   0.191
 8309SOL     OW25825   6.316   5.151   3.010
 8309SOL    HW125826   6.244   5.219   3.026
 8309SOL    HW225827   6.354   5.121   3.097
 8310SOL     OW25828   2.452   6.630   2.747
 8310SOL    HW125829   2.392   6.706   2.722
 8310SOL    HW225830   2.521   6.661   2.812
 8311SOL     OW25831   4.461   6.166   2.164
 8311SOL    HW125832   4.508   6.183   2.251
 8311SOL    HW225833   4.431   6.071   2.160
 8312SOL     OW25834   6.674   1.556   0.777
 8312SOL    HW125835   6.591   1.500   0.773
 8312SOL    HW225836   6.751   1.504   0.738
 8313SOL     OW25837   5.451   3.150   6.293
 8313SOL    HW125838   5.431   3.062   6.336
 8313SOL    HW225839   5.508   3.205   6.353
 8314SOL     OW25840   4.313   5.713   3.701
 8314SOL    HW125841   4.230   5.668   3.736
 8314SOL    HW225842   4.392   5.681   3.754
 8315SOL     OW25843   3.157   2.861   6.598
 8315SOL    HW125844   3.203   2.817   6.521
 8315SOL    HW225845   3.109   2.792   6.652
 8316SOL     OW25846   1.712   1.715   5.292
 8316SOL    HW125847   1.743   1.624   5.265
 8316SOL    HW225848   1.690   1.768   5.210
 8317SOL     OW25849   1.264   2.275   4.900
 8317SOL    HW125850   1.209   2.195   4.877
 8317SOL    HW225851   1.248   2.300   4.996
 8318SOL     OW25852   4.470   6.756   5.992
 8318SOL    HW125853   4.462   6.771   5.894
 8318SOL    HW225854   4.432   6.835   6.041
 8319SOL     OW25855   2.279   5.526   0.141
 8319SOL    HW125856   2.287   5.431   0.111
 8319SOL    HW225857   2.369   5.561   0.168
 8320SOL     OW25858   3.817   3.975   5.436
 8320SOL    HW125859   3.820   4.027   5.521
 8320SOL    HW225860   3.794   3.880   5.456
 8321SOL     OW25861   0.378   0.263   0.817
 8321SOL    HW125862   0.449   0.201   0.848
 8321SOL    HW225863   0.317   0.286   0.894
 8322SOL     OW25864   1.128   0.356   0.657
 8322SOL    HW125865   1.044   0.310   0.628
 8322SOL    HW225866   1.139   0.440   0.605
 8323SOL     OW25867   5.561   4.871   6.816
 8323SOL    HW125868   5.648   4.824   6.799
 8323SOL    HW225869   5.536   4.861   6.912
 8324SOL     OW25870   5.231   6.457   6.731
 8324SOL    HW125871   5.296   6.511   6.783
 8324SOL    HW225872   5.279   6.382   6.684
 8325SOL     OW25873   1.656   6.424   4.774
 8325SOL    HW125874   1.602   6.442   4.856
 8325SOL    HW225875   1.742   6.379   4.800
 8326SOL     OW25876   2.200   2.378   6.842
 8326SOL    HW125877   2.241   2.369   6.933
 8326SOL    HW225878   2.192   2.288   6.800
 8327SOL     OW25879   0.861   6.406   5.139
 8327SOL    HW125880   0.810   6.326   5.107
 8327SOL    HW225881   0.914   6.445   5.063
 8328SOL     OW25882   1.131   6.233   1.167
 8328SOL    HW125883   1.215   6.286   1.156
 8328SOL    HW225884   1.128   6.162   1.095
 8329SOL     OW25885   1.544   2.809   5.505
 8329SOL    HW125886   1.470   2.754   5.465
 8329SOL    HW225887   1.629   2.757   5.501
 8330SOL     OW25888   2.552   6.655   0.371
 8330SOL    HW125889   2.516   6.739   0.331
 8330SOL    HW225890   2.577   6.671   0.467
 8331SOL     OW25891   2.356   2.577   5.774
 8331SOL    HW125892   2.342   2.484   5.807
 8331SOL    HW225893   2.396   2.574   5.682
 8332SOL     OW25894   5.903   3.965   1.434
 8332SOL    HW125895   5.955   4.045   1.465
 8332SOL    HW225896   5.817   3.996   1.392
 8333SOL     OW25897   2.311   4.216   6.653
 8333SOL    HW125898   2.313   4.166   6.567
 8333SOL    HW225899   2.323   4.314   6.635
 8334SOL     OW25900   3.531   2.271   5.323
 8334SOL    HW125901   3.477   2.351   5.350
 8334SOL    HW225902   3.503   2.241   5.231
 8335SOL     OW25903   5.013   4.477   5.760
 8335SOL    HW125904   4.954   4.531   5.699
 8335SOL    HW225905   5.030   4.530   5.844
 8336SOL     OW25906   1.438   3.305   3.476
 8336SOL    HW125907   1.482   3.389   3.444
 8336SOL    HW225908   1.415   3.313   3.573
 8337SOL     OW25909   6.851   1.400   4.449
 8337SOL    HW125910   6.828   1.467   4.519
 8337SOL    HW225911   6.922   1.436   4.389
 8338SOL     OW25912   2.648   5.691   1.232
 8338SOL    HW125913   2.632   5.721   1.137
 8338SOL    HW225914   2.562   5.659   1.271
 8339SOL     OW25915   5.986   0.510   1.802
 8339SOL    HW125916   6.035   0.565   1.869
 8339SOL    HW225917   5.975   0.562   1.718
 8340SOL     OW25918   5.939   2.581   6.710
 8340SOL    HW125919   5.996   2.499   6.706
 8340SOL    HW225920   5.996   2.662   6.694
 8341SOL     OW25921   4.235   0.712   0.574
 8341SOL    HW125922   4.154   0.702   0.632
 8341SOL    HW225923   4.238   0.805   0.536
 8342SOL     OW25924   3.625   0.843   0.194
 8342SOL    HW125925   3.715   0.877   0.221
 8342SOL    HW225926   3.625   0.743   0.196
 8343SOL     OW25927   6.241   4.979   2.825
 8343SOL    HW125928   6.144   4.957   2.840
 8343SOL    HW225929   6.268   5.053   2.887
 8344SOL     OW25930   2.630   4.856   6.117
 8344SOL    HW125931   2.674   4.788   6.176
 8344SOL    HW225932   2.691   4.934   6.106
 8345SOL     OW25933   5.847   0.377   4.082
 8345SOL    HW125934   5.824   0.470   4.111
 8345SOL    HW225935   5.767   0.318   4.094
 8346SOL     OW25936   5.692   3.746   4.170
 8346SOL    HW125937   5.750   3.697   4.235
 8346SOL    HW225938   5.603   3.701   4.163
 8347SOL     OW25939   1.527   1.490   5.940
 8347SOL    HW125940   1.578   1.490   6.026
 8347SOL    HW225941   1.434   1.456   5.956
 8348SOL     OW25942   3.126   5.633   1.769
 8348SOL    HW125943   3.035   5.655   1.734
 8348SOL    HW225944   3.118   5.593   1.860
 8349SOL     OW25945   4.866   6.288   1.661
 8349SOL    HW125946   4.851   6.301   1.759
 8349SOL    HW225947   4.782   6.252   1.620
 8350SOL     OW25948   1.243   6.901   0.491
 8350SOL    HW125949   1.161   6.959   0.489
 8350SOL    HW225950   1.271   6.879   0.398
 8351SOL     OW25951   7.004   2.806   2.572
 8351SOL    HW125952   0.077   2.816   2.598
 8351SOL    HW225953   6.972   2.890   2.528
 8352SOL     OW25954   2.820   6.572   6.569
 8352SOL    HW125955   2.820   6.671   6.561
 8352SOL    HW225956   2.867   6.531   6.491
 8353SOL     OW25957   0.661   6.336   2.241
 8353SOL    HW125958   0.723   6.285   2.181
 8353SOL    HW225959   0.676   6.434   2.229
 8354SOL     OW25960   4.436   1.604   3.140
 8354SOL    HW125961   4.414   1.587   3.044
 8354SOL    HW225962   4.364   1.659   3.181
 8355SOL     OW25963   2.976   5.365   6.178
 8355SOL    HW125964   3.062   5.325   6.146
 8355SOL    HW225965   2.910   5.365   6.102
 8356SOL     OW25966   2.759   3.986   1.043
 8356SOL    HW125967   2.767   4.043   0.961
 8356SOL    HW225968   2.844   3.992   1.096
 8357SOL     OW25969   4.219   6.914   4.373
 8357SOL    HW125970   4.318   6.925   4.376
 8357SOL    HW225971   4.178   6.991   4.324
 8358SOL     OW25972   0.666   1.154   5.200
 8358SOL    HW125973   0.633   1.230   5.257
 8358SOL    HW225974   0.598   1.133   5.131
 8359SOL     OW25975   4.368   2.435   5.635
 8359SOL    HW125976   4.278   2.394   5.648
 8359SOL    HW225977   4.427   2.411   5.712
 8360SOL     OW25978   4.140   6.868   1.330
 8360SOL    HW125979   4.122   6.870   1.428
 8360SOL    HW225980   4.103   6.783   1.291
 8361SOL     OW25981   4.558   1.480   0.088
 8361SOL    HW125982   4.507   1.396   0.111
 8361SOL    HW225983   4.653   1.469   0.117
 8362SOL     OW25984   0.071   3.207   1.354
 8362SOL    HW125985   0.125   3.270   1.409
 8362SOL    HW225986   0.087   3.113   1.384
 8363SOL     OW25987   1.224   2.577   1.341
 8363SOL    HW125988   1.284   2.636   1.286
 8363SOL    HW225989   1.252   2.581   1.437
 8364SOL     OW25990   0.684   2.409   4.300
 8364SOL    HW125991   0.720   2.492   4.258
 8364SOL    HW225992   0.702   2.411   4.399
 8365SOL     OW25993   1.224   2.314   1.600
 8365SOL    HW125994   1.145   2.358   1.557
 8365SOL    HW225995   1.284   2.278   1.529
 8366SOL     OW25996   5.192   5.496   1.843
 8366SOL    HW125997   5.278   5.465   1.803
 8366SOL    HW225998   5.169   5.439   1.923
 8367SOL     OW25999   2.121   4.416   3.709
 8367SOL    HW126000   2.221   4.412   3.711
 8367SOL    HW226001   2.092   4.511   3.697
 8368SOL     OW26002   6.304   5.170   6.014
 8368SOL    HW126003   6.263   5.105   6.077
 8368SOL    HW226004   6.245   5.180   5.933
 8369SOL     OW26005   1.618   6.882   0.153
 8369SOL    HW126006   1.672   6.927   0.082
 8369SOL    HW226007   1.592   6.949   0.222
 8370SOL     OW26008   2.840   2.823   0.466
 8370SOL    HW126009   2.866   2.879   0.387
 8370SOL    HW226010   2.747   2.847   0.494
 8371SOL     OW26011   3.237   3.845   6.560
 8371SOL    HW126012   3.177   3.845   6.641
 8371SOL    HW226013   3.322   3.893   6.581
 8372SOL     OW26014   1.606   6.555   1.384
 8372SOL    HW126015   1.692   6.585   1.426
 8372SOL    HW226016   1.548   6.634   1.367
 8373SOL     OW26017   6.360   0.774   4.272
 8373SOL    HW126018   6.438   0.800   4.329
 8373SOL    HW226019   6.303   0.855   4.254
 8374SOL     OW26020   0.872   1.514   3.576
 8374SOL    HW126021   0.875   1.496   3.675
 8374SOL    HW226022   0.943   1.580   3.553
 8375SOL     OW26023   1.508   2.418   5.360
 8375SOL    HW126024   1.433   2.352   5.363
 8375SOL    HW226025   1.519   2.461   5.449
 8376SOL     OW26026   1.301   1.972   3.466
 8376SOL    HW126027   1.344   1.902   3.522
 8376SOL    HW226028   1.274   2.050   3.523
 8377SOL     OW26029   4.009   5.464   0.176
 8377SOL    HW126030   4.016   5.369   0.145
 8377SOL    HW226031   3.923   5.476   0.225
 8378SOL     OW26032   4.545   5.684   4.668
 8378SOL    HW126033   4.468   5.689   4.731
 8378SOL    HW226034   4.613   5.620   4.705
 8379SOL     OW26035   5.990   2.289   1.592
 8379SOL    HW126036   5.916   2.223   1.601
 8379SOL    HW226037   5.976   2.364   1.657
 8380SOL     OW26038   0.552   6.147   2.080
 8380SOL    HW126039   0.551   6.245   2.098
 8380SOL    HW226040   0.595   6.130   1.991
 8381SOL     OW26041   0.970   1.842   2.471
 8381SOL    HW126042   1.029   1.913   2.511
 8381SOL    HW226043   0.875   1.862   2.493
 8382SOL     OW26044   0.968   0.273   1.746
 8382SOL    HW126045   0.908   0.199   1.776
 8382SOL    HW226046   0.915   0.341   1.696
 8383SOL     OW26047   3.007   0.109   5.919
 8383SOL    HW126048   2.946   0.074   5.990
 8383SOL    HW226049   3.078   0.040   5.899
 8384SOL     OW26050   0.430   3.879   2.886
 8384SOL    HW126051   0.529   3.887   2.892
 8384SOL    HW226052   0.397   3.933   2.809
 8385SOL     OW26053   4.346   1.928   2.344
 8385SOL    HW126054   4.253   1.909   2.373
 8385SOL    HW226055   4.351   1.925   2.244
 8386SOL     OW26056   1.758   5.349   1.669
 8386SOL    HW126057   1.717   5.368   1.580
 8386SOL    HW226058   1.816   5.267   1.662
 8387SOL     OW26059   1.119   1.668   3.438
 8387SOL    HW126060   1.167   1.582   3.423
 8387SOL    HW226061   1.185   1.740   3.462
 8388SOL     OW26062   3.703   4.898   1.337
 8388SOL    HW126063   3.721   4.900   1.239
 8388SOL    HW226064   3.788   4.912   1.388
 8389SOL     OW26065   0.745   3.361   3.889
 8389SOL    HW126066   0.690   3.418   3.949
 8389SOL    HW226067   0.782   3.416   3.815
 8390SOL     OW26068   2.996   0.350   6.504
 8390SOL    HW126069   2.997   0.310   6.413
 8390SOL    HW226070   3.032   0.443   6.500
 8391SOL     OW26071   5.136   6.046   0.472
 8391SOL    HW126072   5.166   6.091   0.388
 8391SOL    HW226073   5.178   5.956   0.479
 8392SOL     OW26074   5.035   6.165   6.954
 8392SOL    HW126075   5.034   6.257   6.992
 8392SOL    HW226076   4.976   6.105   7.008
 8393SOL     OW26077   0.650   4.758   2.316
 8393SOL    HW126078   0.577   4.691   2.330
 8393SOL    HW226079   0.656   4.781   2.218
 8394SOL     OW26080   1.786   1.248   2.762
 8394SOL    HW126081   1.788   1.260   2.861
 8394SOL    HW226082   1.692   1.229   2.733
 8395SOL     OW26083   1.163   6.390   5.693
 8395SOL    HW126084   1.137   6.410   5.599
 8395SOL    HW226085   1.246   6.440   5.717
 8396SOL     OW26086   4.479   2.038   1.869
 8396SOL    HW126087   4.436   2.089   1.794
 8396SOL    HW226088   4.539   2.099   1.920
 8397SOL     OW26089   2.213   5.317   3.895
 8397SOL    HW126090   2.312   5.329   3.889
 8397SOL    HW226091   2.173   5.327   3.804
 8398SOL     OW26092   5.981   1.523   0.525
 8398SOL    HW126093   5.997   1.424   0.522
 8398SOL    HW226094   5.917   1.549   0.454
 8399SOL     OW26095   5.356   5.640   6.808
 8399SOL    HW126096   5.337   5.543   6.795
 8399SOL    HW226097   5.434   5.651   6.870
 8400SOL     OW26098   6.467   6.518   4.184
 8400SOL    HW126099   6.516   6.435   4.208
 8400SOL    HW226100   6.369   6.500   4.182
 8401SOL     OW26101   2.886   3.890   5.388
 8401SOL    HW126102   2.981   3.912   5.410
 8401SOL    HW226103   2.829   3.904   5.468
 8402SOL     OW26104   4.597   0.645   5.366
 8402SOL    HW126105   4.634   0.556   5.391
 8402SOL    HW226106   4.596   0.655   5.267
 8403SOL     OW26107   0.718   3.101   5.294
 8403SOL    HW126108   0.677   3.179   5.248
 8403SOL    HW226109   0.742   3.031   5.227
 8404SOL     OW26110   4.262   5.053   5.140
 8404SOL    HW126111   4.222   5.104   5.063
 8404SOL    HW226112   4.245   4.955   5.128
 8405SOL     OW26113   2.017   2.670   5.177
 8405SOL    HW126114   2.022   2.767   5.202
 8405SOL    HW226115   1.924   2.637   5.192
 8406SOL     OW26116   5.217   3.547   1.761
 8406SOL    HW126117   5.224   3.447   1.768
 8406SOL    HW226118   5.146   3.571   1.695
 8407SOL     OW26119   4.871   3.658   2.827
 8407SOL    HW126120   4.828   3.723   2.891
 8407SOL    HW226121   4.959   3.629   2.864
 8408SOL     OW26122   4.873   4.282   4.120
 8408SOL    HW126123   4.958   4.237   4.090
 8408SOL    HW226124   4.868   4.281   4.219
 8409SOL     OW26125   0.443   1.854   4.189
 8409SOL    HW126126   0.528   1.823   4.146
 8409SOL    HW226127   0.378   1.881   4.119
 8410SOL     OW26128   2.277   6.115   2.593
 8410SOL    HW126129   2.252   6.187   2.658
 8410SOL    HW226130   2.363   6.073   2.621
 8411SOL     OW26131   2.001   3.251   3.286
 8411SOL    HW126132   2.069   3.314   3.324
 8411SOL    HW226133   1.912   3.269   3.327
 8412SOL     OW26134   6.844   2.182   2.733
 8412SOL    HW126135   6.784   2.259   2.712
 8412SOL    HW226136   6.931   2.193   2.685
 8413SOL     OW26137   2.302   4.409   1.463
 8413SOL    HW126138   2.212   4.445   1.489
 8413SOL    HW226139   2.291   4.317   1.425
 8414SOL     OW26140   5.923   7.007   3.226
 8414SOL    HW126141   5.920   6.967   3.134
 8414SOL    HW226142   5.961   6.940   3.290
 8415SOL     OW26143   6.567   4.220   2.095
 8415SOL    HW126144   6.647   4.226   2.036
 8415SOL    HW226145   6.494   4.171   2.048
 8416SOL     OW26146   4.605   4.513   2.280
 8416SOL    HW126147   4.692   4.468   2.301
 8416SOL    HW226148   4.532   4.444   2.278
 8417SOL     OW26149   2.108   6.081   6.287
 8417SOL    HW126150   2.135   6.136   6.366
 8417SOL    HW226151   2.128   5.985   6.306
 8418SOL     OW26152   6.413   5.586   2.324
 8418SOL    HW126153   6.438   5.682   2.337
 8418SOL    HW226154   6.432   5.535   2.407
 8419SOL     OW26155   5.289   0.184   3.843
 8419SOL    HW126156   5.352   0.249   3.799
 8419SOL    HW226157   5.321   0.091   3.825
 8420SOL     OW26158   4.097   2.241   5.619
 8420SOL    HW126159   4.025   2.190   5.573
 8420SOL    HW226160   4.062   2.280   5.704
 8421SOL     OW26161   0.205   0.531   0.776
 8421SOL    HW126162   0.185   0.438   0.744
 8421SOL    HW226163   0.148   0.552   0.855
 8422SOL     OW26164   4.192   0.089   1.812
 8422SOL    HW126165   4.209   0.046   1.901
 8422SOL    HW226166   4.107   0.142   1.817
 8423SOL     OW26167   1.952   3.749   1.784
 8423SOL    HW126168   1.897   3.832   1.791
 8423SOL    HW226169   1.913   3.689   1.715
 8424SOL     OW26170   2.676   2.309   1.847
 8424SOL    HW126171   2.771   2.331   1.870
 8424SOL    HW226172   2.616   2.366   1.903
 8425SOL     OW26173   6.223   4.688   6.763
 8425SOL    HW126174   6.302   4.683   6.702
 8425SOL    HW226175   6.254   4.703   6.857
 8426SOL     OW26176   3.422   3.233   2.599
 8426SOL    HW126177   3.405   3.138   2.572
 8426SOL    HW226178   3.488   3.274   2.536
 8427SOL     OW26179   2.000   2.524   6.651
 8427SOL    HW126180   1.908   2.485   6.649
 8427SOL    HW226181   2.060   2.464   6.703
 8428SOL     OW26182   6.401   4.136   1.276
 8428SOL    HW126183   6.353   4.148   1.189
 8428SOL    HW226184   6.489   4.183   1.273
 8429SOL     OW26185   1.882   6.684   3.157
 8429SOL    HW126186   1.845   6.727   3.075
 8429SOL    HW226187   1.808   6.650   3.214
 8430SOL     OW26188   5.486   3.995   2.828
 8430SOL    HW126189   5.536   3.928   2.884
 8430SOL    HW226190   5.395   3.959   2.806
 8431SOL     OW26191   2.780   3.464   1.937
 8431SOL    HW126192   2.758   3.375   1.897
 8431SOL    HW226193   2.701   3.525   1.931
 8432SOL     OW26194   4.947   6.375   0.097
 8432SOL    HW126195   5.030   6.416   0.135
 8432SOL    HW226196   4.911   6.307   0.160
 8433SOL     OW26197   0.490   1.879   4.467
 8433SOL    HW126198   0.577   1.927   4.477
 8433SOL    HW226199   0.471   1.865   4.370
 8434SOL     OW26200   5.416   6.007   6.192
 8434SOL    HW126201   5.387   6.063   6.270
 8434SOL    HW226202   5.406   5.910   6.215
 8435SOL     OW26203   4.869   2.272   2.071
 8435SOL    HW126204   4.921   2.280   2.156
 8435SOL    HW226205   4.908   2.199   2.015
 8436SOL     OW26206   3.032   4.437   1.611
 8436SOL    HW126207   2.982   4.357   1.578
 8436SOL    HW226208   2.991   4.471   1.696
 8437SOL     OW26209   0.120   1.467   0.714
 8437SOL    HW126210   0.178   1.387   0.715
 8437SOL    HW226211   0.151   1.530   0.642
 8438SOL     OW26212   2.090   5.802   0.907
 8438SOL    HW126213   2.072   5.886   0.856
 8438SOL    HW226214   2.006   5.748   0.913
 8439SOL     OW26215   6.226   0.562   2.150
 8439SOL    HW126216   6.232   0.655   2.185
 8439SOL    HW226217   6.217   0.563   2.051
 8440SOL     OW26218   0.526   2.749   4.464
 8440SOL    HW126219   0.618   2.783   4.447
 8440SOL    HW226220   0.460   2.822   4.447
 8441SOL     OW26221   4.575   5.501   2.559
 8441SOL    HW126222   4.545   5.447   2.637
 8441SOL    HW226223   4.557   5.598   2.576
 8442SOL     OW26224   1.923   2.993   0.535
 8442SOL    HW126225   1.904   2.983   0.633
 8442SOL    HW226226   2.009   3.043   0.523
 8443SOL     OW26227   0.463   1.842   1.923
 8443SOL    HW126228   0.424   1.776   1.859
 8443SOL    HW226229   0.493   1.923   1.872
 8444SOL     OW26230   4.476   1.267   2.927
 8444SOL    HW126231   4.569   1.296   2.947
 8444SOL    HW226232   4.433   1.231   3.010
 8445SOL     OW26233   4.532   5.222   2.164
 8445SOL    HW126234   4.450   5.265   2.201
 8445SOL    HW226235   4.549   5.258   2.072
 8446SOL     OW26236   6.998   3.622   2.816
 8446SOL    HW126237   6.944   3.676   2.752
 8446SOL    HW226238   0.072   3.648   2.809
 8447SOL     OW26239   4.437   3.365   1.173
 8447SOL    HW126240   4.483   3.298   1.115
 8447SOL    HW226241   4.426   3.327   1.265
 8448SOL     OW26242   1.559   3.356   5.805
 8448SOL    HW126243   1.630   3.344   5.736
 8448SOL    HW226244   1.598   3.342   5.896
 8449SOL     OW26245   0.723   1.490   4.247
 8449SOL    HW126246   0.734   1.447   4.337
 8449SOL    HW226247   0.804   1.471   4.192
 8450SOL     OW26248   1.805   5.169   1.179
 8450SOL    HW126249   1.840   5.140   1.090
 8450SOL    HW226250   1.737   5.240   1.168
 8451SOL     OW26251   3.769   2.691   0.311
 8451SOL    HW126252   3.726   2.605   0.287
 8451SOL    HW226253   3.818   2.682   0.398
 8452SOL     OW26254   0.339   5.338   1.753
 8452SOL    HW126255   0.250   5.381   1.761
 8452SOL    HW226256   0.341   5.254   1.807
 8453SOL     OW26257   6.366   5.498   5.135
 8453SOL    HW126258   6.396   5.593   5.136
 8453SOL    HW226259   6.446   5.438   5.139
 8454SOL     OW26260   2.236   6.775   4.556
 8454SOL    HW126261   2.163   6.839   4.581
 8454SOL    HW226262   2.247   6.708   4.629
 8455SOL     OW26263   5.920   2.481   0.710
 8455SOL    HW126264   5.983   2.527   0.773
 8455SOL    HW226265   5.872   2.549   0.655
 8456SOL     OW26266   5.050   5.388   3.528
 8456SOL    HW126267   5.125   5.445   3.561
 8456SOL    HW226268   5.026   5.320   3.598
 8457SOL     OW26269   6.555   6.040   6.036
 8457SOL    HW126270   6.493   6.100   5.985
 8457SOL    HW226271   6.640   6.029   5.984
 8458SOL     OW26272   1.537   2.055   1.395
 8458SOL    HW126273   1.574   2.081   1.484
 8458SOL    HW226274   1.611   2.022   1.336
 8459SOL     OW26275   2.258   5.692   3.226
 8459SOL    HW126276   2.304   5.762   3.170
 8459SOL    HW226277   2.279   5.707   3.322
 8460SOL     OW26278   3.967   1.317   0.976
 8460SOL    HW126279   4.066   1.304   0.981
 8460SOL    HW226280   3.922   1.229   0.964
 8461SOL     OW26281   5.193   4.290   3.334
 8461SOL    HW126282   5.207   4.376   3.383
 8461SOL    HW226283   5.274   4.232   3.343
 8462SOL     OW26284   1.995   4.087   1.098
 8462SOL    HW126285   2.074   4.074   1.038
 8462SOL    HW226286   1.989   4.183   1.125
 8463SOL     OW26287   6.643   0.399   0.421
 8463SOL    HW126288   6.633   0.303   0.395
 8463SOL    HW226289   6.732   0.414   0.463
 8464SOL     OW26290   6.363   3.804   6.625
 8464SOL    HW126291   6.307   3.784   6.706
 8464SOL    HW226292   6.366   3.722   6.566
 8465SOL     OW26293   4.616   3.683   0.679
 8465SOL    HW126294   4.678   3.610   0.709
 8465SOL    HW226295   4.551   3.704   0.752
 8466SOL     OW26296   0.641   1.392   5.389
 8466SOL    HW126297   0.571   1.385   5.460
 8466SOL    HW226298   0.605   1.443   5.311
 8467SOL     OW26299   3.113   1.459   0.444
 8467SOL    HW126300   3.195   1.509   0.470
 8467SOL    HW226301   3.038   1.484   0.506
 8468SOL     OW26302   5.713   3.870   0.382
 8468SOL    HW126303   5.676   3.962   0.369
 8468SOL    HW226304   5.697   3.816   0.300
 8469SOL     OW26305   3.724   3.006   5.305
 8469SOL    HW126306   3.823   3.000   5.294
 8469SOL    HW226307   3.701   3.092   5.352
 8470SOL     OW26308   1.613   5.272   1.424
 8470SOL    HW126309   1.660   5.223   1.351
 8470SOL    HW226310   1.538   5.215   1.459
 8471SOL     OW26311   4.233   1.957   4.446
 8471SOL    HW126312   4.156   1.914   4.398
 8471SOL    HW226313   4.213   2.054   4.461
 8472SOL     OW26314   5.992   1.767   6.845
 8472SOL    HW126315   5.981   1.813   6.757
 8472SOL    HW226316   5.924   1.801   6.910
 8473SOL     OW26317   5.016   5.194   5.838
 8473SOL    HW126318   4.956   5.133   5.890
 8473SOL    HW226319   4.998   5.289   5.864
 8474SOL     OW26320   2.957   3.924   4.864
 8474SOL    HW126321   2.973   3.838   4.815
 8474SOL    HW226322   2.868   3.920   4.911
 8475SOL     OW26323   6.637   1.888   3.159
 8475SOL    HW126324   6.551   1.876   3.110
 8475SOL    HW226325   6.709   1.835   3.113
 8476SOL     OW26326   6.044   1.250   1.792
 8476SOL    HW126327   6.054   1.195   1.709
 8476SOL    HW226328   6.077   1.343   1.775
 8477SOL     OW26329   5.521   0.546   1.735
 8477SOL    HW126330   5.469   0.574   1.816
 8477SOL    HW226331   5.603   0.497   1.763
 8478SOL     OW26332   0.377   6.707   5.600
 8478SOL    HW126333   0.349   6.753   5.684
 8478SOL    HW226334   0.411   6.616   5.622
 8479SOL     OW26335   0.567   3.097   0.552
 8479SOL    HW126336   0.612   3.014   0.585
 8479SOL    HW226337   0.468   3.087   0.560
 8480SOL     OW26338   3.486   4.204   0.694
 8480SOL    HW126339   3.582   4.207   0.669
 8480SOL    HW226340   3.466   4.117   0.739
 8481SOL     OW26341   3.953   2.131   2.903
 8481SOL    HW126342   3.855   2.147   2.913
 8481SOL    HW226343   3.968   2.056   2.838
 8482SOL     OW26344   4.403   0.682   6.582
 8482SOL    HW126345   4.322   0.624   6.592
 8482SOL    HW226346   4.401   0.754   6.652
 8483SOL     OW26347   3.753   4.952   3.459
 8483SOL    HW126348   3.768   4.885   3.531
 8483SOL    HW226349   3.812   4.930   3.381
 8484SOL     OW26350   5.968   6.023   4.927
 8484SOL    HW126351   5.917   5.995   4.846
 8484SOL    HW226352   5.960   5.953   4.998
 8485SOL     OW26353   4.173   1.159   6.322
 8485SOL    HW126354   4.243   1.097   6.286
 8485SOL    HW226355   4.131   1.118   6.403
 8486SOL     OW26356   5.782   2.796   5.032
 8486SOL    HW126357   5.807   2.888   5.061
 8486SOL    HW226358   5.732   2.750   5.106
 8487SOL     OW26359   6.644   2.041   6.002
 8487SOL    HW126360   6.675   2.003   5.915
 8487SOL    HW226361   6.704   2.009   6.076
 8488SOL     OW26362   4.752   4.582   3.056
 8488SOL    HW126363   4.798   4.583   2.967
 8488SOL    HW226364   4.775   4.498   3.105
 8489SOL     OW26365   6.267   2.187   1.671
 8489SOL    HW126366   6.310   2.271   1.640
 8489SOL    HW226367   6.179   2.175   1.625
 8490SOL     OW26368   3.006   6.794   0.080
 8490SOL    HW126369   2.960   6.768   0.166
 8490SOL    HW226370   3.023   6.892   0.080
 8491SOL     OW26371   3.015   5.629   2.108
 8491SOL    HW126372   2.953   5.554   2.085
 8491SOL    HW226373   3.108   5.594   2.119
 8492SOL     OW26374   6.672   6.033   4.269
 8492SOL    HW126375   6.741   5.973   4.228
 8492SOL    HW226376   6.591   6.037   4.211
 8493SOL     OW26377   4.726   1.072   5.873
 8493SOL    HW126378   4.638   1.097   5.913
 8493SOL    HW226379   4.723   0.976   5.845
 8494SOL     OW26380   6.925   3.460   2.488
 8494SOL    HW126381   6.959   3.367   2.475
 8494SOL    HW226382   6.994   3.525   2.459
 8495SOL     OW26383   5.925   5.513   6.237
 8495SOL    HW126384   5.839   5.550   6.202
 8495SOL    HW226385   5.988   5.589   6.257
 8496SOL     OW26386   5.171   2.557   2.838
 8496SOL    HW126387   5.172   2.513   2.748
 8496SOL    HW226388   5.081   2.599   2.853
 8497SOL     OW26389   6.901   0.548   2.815
 8497SOL    HW126390   6.853   0.601   2.885
 8497SOL    HW226391   6.859   0.457   2.808
 8498SOL     OW26392   4.909   6.522   4.007
 8498SOL    HW126393   4.958   6.607   3.990
 8498SOL    HW226394   4.866   6.526   4.098
 8499SOL     OW26395   5.766   7.005   5.565
 8499SOL    HW126396   5.788   6.926   5.621
 8499SOL    HW226397   5.700   0.040   5.613
 8500SOL     OW26398   1.024   0.328   6.916
 8500SOL    HW126399   1.112   0.339   6.962
 8500SOL    HW226400   0.949   0.345   6.981
 8501SOL     OW26401   2.300   1.122   6.312
 8501SOL    HW126402   2.254   1.204   6.346
 8501SOL    HW226403   2.264   1.098   6.222
 8502SOL     OW26404   5.943   3.684   6.811
 8502SOL    HW126405   5.856   3.634   6.803
 8502SOL    HW226406   5.993   3.650   6.891
 8503SOL     OW26407   5.083   2.754   5.265
 8503SOL    HW126408   5.094   2.839   5.213
 8503SOL    HW226409   5.049   2.775   5.356
 8504SOL     OW26410   1.003   0.022   2.385
 8504SOL    HW126411   1.069   7.022   2.457
 8504SOL    HW226412   1.041   0.093   2.326
 8505SOL     OW26413   5.728   2.443   2.636
 8505SOL    HW126414   5.645   2.489   2.602
 8505SOL    HW226415   5.786   2.418   2.558
 8506SOL     OW26416   1.248   6.560   6.199
 8506SOL    HW126417   1.167   6.551   6.141
 8506SOL    HW226418   1.228   6.625   6.273
 8507SOL     OW26419   3.636   5.289   5.385
 8507SOL    HW126420   3.562   5.350   5.411
 8507SOL    HW226421   3.706   5.341   5.336
 8508SOL     OW26422   2.584   1.140   6.560
 8508SOL    HW126423   2.500   1.168   6.606
 8508SOL    HW226424   2.649   1.103   6.627
 8509SOL     OW26425   5.254   2.214   2.773
 8509SOL    HW126426   5.234   2.122   2.741
 8509SOL    HW226427   5.331   2.211   2.836
 8510SOL     OW26428   0.935   2.113   4.797
 8510SOL    HW126429   0.948   2.196   4.742
 8510SOL    HW226430   1.022   2.064   4.805
 8511SOL     OW26431   5.861   1.793   3.203
 8511SOL    HW126432   5.874   1.695   3.220
 8511SOL    HW226433   5.950   1.838   3.199
 8512SOL     OW26434   2.357   6.404   5.425
 8512SOL    HW126435   2.385   6.498   5.410
 8512SOL    HW226436   2.275   6.402   5.483
 8513SOL     OW26437   4.918   5.964   6.714
 8513SOL    HW126438   4.950   6.057   6.727
 8513SOL    HW226439   4.982   5.900   6.756
 8514SOL     OW26440   3.790   5.708   3.967
 8514SOL    HW126441   3.767   5.621   4.011
 8514SOL    HW226442   3.889   5.714   3.954
 8515SOL     OW26443   6.378   2.375   1.212
 8515SOL    HW126444   6.292   2.396   1.259
 8515SOL    HW226445   6.361   2.307   1.140
 8516SOL     OW26446   6.941   2.129   2.341
 8516SOL    HW126447   6.870   2.065   2.312
 8516SOL    HW226448   6.906   2.222   2.333
 8517SOL     OW26449   1.651   3.622   6.239
 8517SOL    HW126450   1.598   3.537   6.243
 8517SOL    HW226451   1.731   3.613   6.297
 8518SOL     OW26452   2.752   5.934   0.657
 8518SOL    HW126453   2.827   5.965   0.598
 8518SOL    HW226454   2.776   5.949   0.753
 8519SOL     OW26455   2.940   6.093   3.911
 8519SOL    HW126456   2.934   5.996   3.885
 8519SOL    HW226457   2.928   6.150   3.830
 8520SOL     OW26458   3.658   6.143   6.752
 8520SOL    HW126459   3.713   6.187   6.823
 8520SOL    HW226460   3.575   6.196   6.736
 8521SOL     OW26461   1.542   0.475   1.622
 8521SOL    HW126462   1.638   0.475   1.594
 8521SOL    HW226463   1.512   0.381   1.639
 8522SOL     OW26464   2.538   6.997   4.516
 8522SOL    HW126465   2.449   6.990   4.562
 8522SOL    HW226466   2.548   6.923   4.450
 8523SOL     OW26467   1.753   6.568   6.693
 8523SOL    HW126468   1.658   6.573   6.664
 8523SOL    HW226469   1.768   6.486   6.748
 8524SOL     OW26470   1.569   1.283   6.478
 8524SOL    HW126471   1.559   1.373   6.520
 8524SOL    HW226472   1.559   1.291   6.379
 8525SOL     OW26473   5.551   3.542   3.788
 8525SOL    HW126474   5.452   3.533   3.796
 8525SOL    HW226475   5.574   3.636   3.763
 8526SOL     OW26476   2.119   3.458   2.316
 8526SOL    HW126477   2.020   3.472   2.320
 8526SOL    HW226478   2.147   3.436   2.223
 8527SOL     OW26479   4.509   0.575   4.134
 8527SOL    HW126480   4.453   0.570   4.217
 8527SOL    HW226481   4.604   0.557   4.156
 8528SOL     OW26482   5.818   1.531   6.942
 8528SOL    HW126483   5.737   1.541   6.999
 8528SOL    HW226484   5.900   1.549   6.997
 8529SOL     OW26485   6.729   5.815   5.724
 8529SOL    HW126486   6.685   5.842   5.638
 8529SOL    HW226487   6.675   5.743   5.768
 8530SOL     OW26488   2.186   4.866   5.990
 8530SOL    HW126489   2.141   4.892   6.075
 8530SOL    HW226490   2.282   4.846   6.007
 8531SOL     OW26491   4.149   4.815   1.798
 8531SOL    HW126492   4.099   4.732   1.775
 8531SOL    HW226493   4.095   4.895   1.772
 8532SOL     OW26494   1.574   3.964   1.053
 8532SOL    HW126495   1.512   4.033   1.017
 8532SOL    HW226496   1.644   3.943   0.985
 8533SOL     OW26497   4.329   6.202   5.619
 8533SOL    HW126498   4.365   6.269   5.684
 8533SOL    HW226499   4.401   6.174   5.556
 8534SOL     OW26500   1.785   2.298   1.186
 8534SOL    HW126501   1.688   2.316   1.175
 8534SOL    HW226502   1.810   2.213   1.139
 8535SOL     OW26503   0.187   3.505   5.073
 8535SOL    HW126504   0.120   3.458   5.131
 8535SOL    HW226505   0.273   3.454   5.074
 8536SOL     OW26506   5.727   1.271   5.375
 8536SOL    HW126507   5.819   1.303   5.397
 8536SOL    HW226508   5.717   1.263   5.276
 8537SOL     OW26509   4.578   6.723   2.925
 8537SOL    HW126510   4.480   6.737   2.939
 8537SOL    HW226511   4.626   6.809   2.941
 8538SOL     OW26512   5.302   0.542   5.430
 8538SOL    HW126513   5.280   0.453   5.468
 8538SOL    HW226514   5.354   0.531   5.345
 8539SOL     OW26515   0.698   3.036   2.853
 8539SOL    HW126516   0.710   2.988   2.940
 8539SOL    HW226517   0.765   3.002   2.787
 8540SOL     OW26518   4.061   6.861   6.559
 8540SOL    HW126519   4.151   6.853   6.515
 8540SOL    HW226520   4.025   6.769   6.578
 8541SOL     OW26521   3.064   6.431   5.159
 8541SOL    HW126522   2.969   6.446   5.184
 8541SOL    HW226523   3.087   6.486   5.078
 8542SOL     OW26524   1.296   5.083   5.131
 8542SOL    HW126525   1.302   5.170   5.178
 8542SOL    HW226526   1.356   5.084   5.051
 8543SOL     OW26527   3.117   2.455   5.498
 8543SOL    HW126528   3.170   2.479   5.416
 8543SOL    HW226529   3.093   2.358   5.494
 8544SOL     OW26530   5.269   4.772   5.575
 8544SOL    HW126531   5.286   4.687   5.526
 8544SOL    HW226532   5.210   4.832   5.520
 8545SOL     OW26533   1.869   6.778   6.332
 8545SOL    HW126534   1.817   6.694   6.349
 8545SOL    HW226535   1.848   6.812   6.240
 8546SOL     OW26536   4.484   1.246   3.916
 8546SOL    HW126537   4.498   1.155   3.877
 8546SOL    HW226538   4.519   1.316   3.853
 8547SOL     OW26539   5.481   6.240   5.778
 8547SOL    HW126540   5.545   6.313   5.753
 8547SOL    HW226541   5.503   6.207   5.870
 8548SOL     OW26542   1.235   4.481   4.037
 8548SOL    HW126543   1.277   4.555   4.089
 8548SOL    HW226544   1.181   4.519   3.962
 8549SOL     OW26545   1.869   0.807   4.005
 8549SOL    HW126546   1.791   0.756   4.040
 8549SOL    HW226547   1.917   0.851   4.080
 8550SOL     OW26548   7.001   4.936   5.864
 8550SOL    HW126549   0.026   5.021   5.884
 8550SOL    HW226550   0.018   4.895   5.782
 8551SOL     OW26551   3.720   1.127   4.837
 8551SOL    HW126552   3.727   1.063   4.761
 8551SOL    HW226553   3.756   1.085   4.920
 8552SOL     OW26554   3.398   1.438   1.498
 8552SOL    HW126555   3.346   1.444   1.412
 8552SOL    HW226556   3.473   1.504   1.496
 8553SOL     OW26557   4.502   3.934   0.589
 8553SOL    HW126558   4.534   4.020   0.628
 8553SOL    HW226559   4.552   3.858   0.632
 8554SOL     OW26560   1.649   0.698   6.616
 8554SOL    HW126561   1.595   0.760   6.560
 8554SOL    HW226562   1.592   0.622   6.647
 8555SOL     OW26563   3.491   2.037   3.385
 8555SOL    HW126564   3.504   1.946   3.347
 8555SOL    HW226565   3.569   2.061   3.443
 8556SOL     OW26566   0.417   5.305   5.231
 8556SOL    HW126567   0.489   5.263   5.287
 8556SOL    HW226568   0.349   5.236   5.208
 8557SOL     OW26569   6.633   1.011   6.419
 8557SOL    HW126570   6.597   1.088   6.471
 8557SOL    HW226571   6.567   0.983   6.349
 8558SOL     OW26572   3.286   5.871   4.020
 8558SOL    HW126573   3.250   5.792   4.069
 8558SOL    HW226574   3.384   5.881   4.038
 8559SOL     OW26575   1.754   3.431   2.310
 8559SOL    HW126576   1.727   3.474   2.397
 8559SOL    HW226577   1.715   3.339   2.306
 8560SOL     OW26578   3.418   3.896   1.148
 8560SOL    HW126579   3.348   3.967   1.145
 8560SOL    HW226580   3.389   3.824   1.211
 8561SOL     OW26581   3.518   0.971   2.890
 8561SOL    HW126582   3.550   0.876   2.888
 8561SOL    HW226583   3.574   1.026   2.828
 8562SOL     OW26584   5.507   2.015   7.015
 8562SOL    HW126585   5.426   2.073   0.002
 8562SOL    HW226586   5.482   1.931   6.966
 8563SOL     OW26587   2.479   5.356   2.695
 8563SOL    HW126588   2.578   5.368   2.694
 8563SOL    HW226589   2.443   5.374   2.603
 8564SOL     OW26590   3.676   6.030   0.525
 8564SOL    HW126591   3.582   5.997   0.538
 8564SOL    HW226592   3.731   5.957   0.484
 8565SOL     OW26593   1.285   5.089   1.009
 8565SOL    HW126594   1.191   5.056   1.022
 8565SOL    HW226595   1.349   5.014   1.022
 8566SOL     OW26596   3.239   0.959   3.336
 8566SOL    HW126597   3.206   0.927   3.247
 8566SOL    HW226598   3.192   1.044   3.360
 8567SOL     OW26599   1.640   2.397   1.861
 8567SOL    HW126600   1.642   2.403   1.762
 8567SOL    HW226601   1.685   2.477   1.901
 8568SOL     OW26602   6.064   1.040   5.606
 8568SOL    HW126603   5.987   1.103   5.621
 8568SOL    HW226604   6.148   1.093   5.595
 8569SOL     OW26605   5.147   1.824   0.338
 8569SOL    HW126606   5.067   1.880   0.320
 8569SOL    HW226607   5.202   1.817   0.254
 8570SOL     OW26608   2.163   1.722   2.763
 8570SOL    HW126609   2.258   1.750   2.756
 8570SOL    HW226610   2.113   1.753   2.682
 8571SOL     OW26611   1.489   0.760   3.298
 8571SOL    HW126612   1.526   0.811   3.220
 8571SOL    HW226613   1.541   0.675   3.309
 8572SOL     OW26614   2.964   3.801   6.215
 8572SOL    HW126615   2.957   3.795   6.115
 8572SOL    HW226616   3.047   3.753   6.245
 8573SOL     OW26617   1.887   6.007   6.158
 8573SOL    HW126618   1.960   6.066   6.194
 8573SOL    HW226619   1.856   5.944   6.229
 8574SOL     OW26620   4.894   1.299   5.599
 8574SOL    HW126621   4.834   1.374   5.629
 8574SOL    HW226622   4.921   1.245   5.678
 8575SOL     OW26623   3.096   6.623   4.308
 8575SOL    HW126624   3.128   6.617   4.214
 8575SOL    HW226625   3.150   6.691   4.358
 8576SOL     OW26626   1.733   4.477   3.999
 8576SOL    HW126627   1.683   4.454   3.915
 8576SOL    HW226628   1.824   4.436   3.995
 8577SOL     OW26629   1.927   0.540   0.284
 8577SOL    HW126630   1.915   0.639   0.275
 8577SOL    HW226631   1.864   0.505   0.354
 8578SOL     OW26632   1.052   6.836   6.053
 8578SOL    HW126633   1.134   6.865   6.004
 8578SOL    HW226634   1.066   6.743   6.089
 8579SOL     OW26635   3.390   0.243   2.326
 8579SOL    HW126636   3.454   0.298   2.379
 8579SOL    HW226637   3.333   0.302   2.269
 8580SOL     OW26638   1.729   0.704   2.099
 8580SOL    HW126639   1.684   0.657   2.022
 8580SOL    HW226640   1.743   0.638   2.173
 8581SOL     OW26641   3.939   3.998   2.096
 8581SOL    HW126642   3.973   3.921   2.150
 8581SOL    HW226643   3.989   4.081   2.121
 8582SOL     OW26644   4.039   5.309   5.925
 8582SOL    HW126645   4.103   5.327   6.000
 8582SOL    HW226646   3.945   5.318   5.959
 8583SOL     OW26647   3.213   6.713   2.724
 8583SOL    HW126648   3.295   6.728   2.668
 8583SOL    HW226649   3.154   6.645   2.681
 8584SOL     OW26650   6.524   2.002   4.950
 8584SOL    HW126651   6.486   2.057   4.876
 8584SOL    HW226652   6.624   2.006   4.947
 8585SOL     OW26653   4.965   2.736   2.720
 8585SOL    HW126654   4.892   2.792   2.759
 8585SOL    HW226655   4.978   2.761   2.624
 8586SOL     OW26656   6.013   5.680   5.443
 8586SOL    HW126657   5.916   5.697   5.460
 8586SOL    HW226658   6.023   5.603   5.380
 8587SOL     OW26659   6.358   1.602   6.876
 8587SOL    HW126660   6.293   1.618   6.801
 8587SOL    HW226661   6.451   1.620   6.843
 8588SOL     OW26662   1.823   0.638   5.310
 8588SOL    HW126663   1.764   0.567   5.271
 8588SOL    HW226664   1.913   0.633   5.267
 8589SOL     OW26665   5.407   3.066   0.157
 8589SOL    HW126666   5.459   3.033   0.235
 8589SOL    HW226667   5.391   3.164   0.167
 8590SOL     OW26668   0.811   1.761   3.841
 8590SOL    HW126669   0.785   1.744   3.936
 8590SOL    HW226670   0.738   1.728   3.780
 8591SOL     OW26671   0.086   4.287   5.563
 8591SOL    HW126672   0.105   4.215   5.495
 8591SOL    HW226673   0.162   4.352   5.564
 8592SOL     OW26674   0.014   1.859   4.257
 8592SOL    HW126675   0.025   1.955   4.233
 8592SOL    HW226676   6.940   1.835   4.259
 8593SOL     OW26677   5.929   1.071   0.122
 8593SOL    HW126678   5.889   1.159   0.099
 8593SOL    HW226679   5.878   0.998   0.076
 8594SOL     OW26680   6.077   4.208   6.328
 8594SOL    HW126681   5.997   4.149   6.318
 8594SOL    HW226682   6.129   4.180   6.409
 8595SOL     OW26683   5.158   5.807   3.035
 8595SOL    HW126684   5.158   5.809   3.135
 8595SOL    HW226685   5.237   5.857   3.000
 8596SOL     OW26686   0.792   2.578   4.932
 8596SOL    HW126687   0.709   2.585   4.876
 8596SOL    HW226688   0.767   2.551   5.025
 8597SOL     OW26689   5.799   2.338   6.189
 8597SOL    HW126690   5.838   2.341   6.281
 8597SOL    HW226691   5.868   2.369   6.123
 8598SOL     OW26692   0.205   0.549   5.281
 8598SOL    HW126693   0.184   0.458   5.317
 8598SOL    HW226694   0.137   0.574   5.211
 8599SOL     OW26695   6.101   3.966   5.258
 8599SOL    HW126696   6.010   4.006   5.274
 8599SOL    HW226697   6.107   3.936   5.163
 8600SOL     OW26698   4.660   2.760   1.835
 8600SOL    HW126699   4.744   2.711   1.860
 8600SOL    HW226700   4.672   2.857   1.854
 8601SOL     OW26701   6.336   5.984   3.098
 8601SOL    HW126702   6.304   6.066   3.147
 8601SOL    HW226703   6.418   6.007   3.046
 8602SOL     OW26704   1.995   6.692   5.328
 8602SOL    HW126705   1.904   6.659   5.355
 8602SOL    HW226706   2.041   6.731   5.408
 8603SOL     OW26707   0.545   0.692   6.509
 8603SOL    HW126708   0.572   0.596   6.503
 8603SOL    HW226709   0.601   0.746   6.447
 8604SOL     OW26710   2.142   5.330   5.746
 8604SOL    HW126711   2.150   5.249   5.804
 8604SOL    HW226712   2.054   5.375   5.764
 8605SOL     OW26713   6.775   4.700   3.811
 8605SOL    HW126714   6.781   4.752   3.896
 8605SOL    HW226715   6.862   4.654   3.795
 8606SOL     OW26716   1.389   0.733   6.862
 8606SOL    HW126717   1.354   0.649   6.821
 8606SOL    HW226718   1.350   0.744   6.953
 8607SOL     OW26719   3.096   3.466   1.137
 8607SOL    HW126720   3.078   3.374   1.102
 8607SOL    HW226721   3.192   3.475   1.162
 8608SOL     OW26722   1.719   5.699   2.401
 8608SOL    HW126723   1.671   5.758   2.467
 8608SOL    HW226724   1.655   5.668   2.331
 8609SOL     OW26725   4.830   2.030   4.357
 8609SOL    HW126726   4.754   2.031   4.292
 8609SOL    HW226727   4.904   2.088   4.322
 8610SOL     OW26728   0.036   5.828   2.829
 8610SOL    HW126729   6.991   5.766   2.790
 8610SOL    HW226730   0.124   5.781   2.835
 8611SOL     OW26731   1.931   1.230   5.139
 8611SOL    HW126732   1.914   1.251   5.235
 8611SOL    HW226733   1.970   1.310   5.093
 8612SOL     OW26734   3.421   3.218   4.665
 8612SOL    HW126735   3.462   3.130   4.642
 8612SOL    HW226736   3.372   3.210   4.752
 8613SOL     OW26737   3.969   3.134   3.024
 8613SOL    HW126738   3.932   3.160   2.934
 8613SOL    HW226739   4.069   3.124   3.017
 8614SOL     OW26740   0.806   2.500   3.672
 8614SOL    HW126741   0.798   2.527   3.576
 8614SOL    HW226742   0.762   2.411   3.685
 8615SOL     OW26743   3.320   1.911   5.460
 8615SOL    HW126744   3.317   1.950   5.368
 8615SOL    HW226745   3.369   1.974   5.521
 8616SOL     OW26746   5.992   4.106   4.863
 8616SOL    HW126747   5.942   4.160   4.794
 8616SOL    HW226748   5.950   4.121   4.953
 8617SOL     OW26749   1.371   6.770   3.287
 8617SOL    HW126750   1.358   6.818   3.200
 8617SOL    HW226751   1.306   6.695   3.294
 8618SOL     OW26752   5.738   4.344   0.697
 8618SOL    HW126753   5.796   4.301   0.627
 8618SOL    HW226754   5.696   4.274   0.753
 8619SOL     OW26755   5.428   6.202   0.477
 8619SOL    HW126756   5.348   6.249   0.439
 8619SOL    HW226757   5.432   6.109   0.442
 8620SOL     OW26758   2.020   6.935   3.825
 8620SOL    HW126759   1.949   6.879   3.782
 8620SOL    HW226760   2.048   6.892   3.911
 8621SOL     OW26761   5.701   3.390   1.939
 8621SOL    HW126762   5.627   3.456   1.933
 8621SOL    HW226763   5.779   3.422   1.885
 8622SOL     OW26764   0.650   5.276   2.770
 8622SOL    HW126765   0.741   5.261   2.809
 8622SOL    HW226766   0.631   5.375   2.768
 8623SOL     OW26767   1.614   2.254   3.896
 8623SOL    HW126768   1.613   2.161   3.859
 8623SOL    HW226769   1.547   2.260   3.971
 8624SOL     OW26770   3.391   3.947   5.170
 8624SOL    HW126771   3.447   4.019   5.211
 8624SOL    HW226772   3.321   3.989   5.112
 8625SOL     OW26773   4.493   2.875   6.054
 8625SOL    HW126774   4.419   2.890   5.988
 8625SOL    HW226775   4.497   2.778   6.078
 8626SOL     OW26776   4.659   1.781   1.823
 8626SOL    HW126777   4.589   1.848   1.848
 8626SOL    HW226778   4.737   1.789   1.885
 8627SOL     OW26779   1.797   0.542   2.352
 8627SOL    HW126780   1.864   0.495   2.410
 8627SOL    HW226781   1.705   0.511   2.376
 8628SOL     OW26782   0.832   0.030   0.835
 8628SOL    HW126783   0.895   6.983   0.869
 8628SOL    HW226784   0.868   0.070   0.751
 8629SOL     OW26785   0.380   0.042   4.535
 8629SOL    HW126786   0.324   7.002   4.589
 8629SOL    HW226787   0.325   0.121   4.508
 8630SOL     OW26788   4.894   2.546   2.392
 8630SOL    HW126789   4.829   2.621   2.408
 8630SOL    HW226790   4.860   2.463   2.437
 8631SOL     OW26791   2.405   6.020   5.995
 8631SOL    HW126792   2.445   5.932   6.020
 8631SOL    HW226793   2.470   6.093   6.019
 8632SOL     OW26794   5.847   5.743   4.143
 8632SOL    HW126795   5.835   5.644   4.151
 8632SOL    HW226796   5.758   5.788   4.151
 8633SOL     OW26797   5.512   4.205   5.126
 8633SOL    HW126798   5.431   4.231   5.073
 8633SOL    HW226799   5.579   4.163   5.065
 8634SOL     OW26800   5.212   4.263   6.338
 8634SOL    HW126801   5.156   4.329   6.288
 8634SOL    HW226802   5.283   4.312   6.388
 8635SOL     OW26803   5.315   2.659   6.952
 8635SOL    HW126804   5.410   2.658   6.921
 8635SOL    HW226805   5.292   2.572   6.996
 8636SOL     OW26806   4.297   5.994   1.902
 8636SOL    HW126807   4.230   6.054   1.946
 8636SOL    HW226808   4.363   5.962   1.970
 8637SOL     OW26809   1.797   1.832   6.700
 8637SOL    HW126810   1.768   1.816   6.606
 8637SOL    HW226811   1.860   1.910   6.703
 8638SOL     OW26812   4.879   3.387   3.907
 8638SOL    HW126813   4.865   3.375   4.005
 8638SOL    HW226814   4.883   3.485   3.886
 8639SOL     OW26815   3.159   3.921   0.378
 8639SOL    HW126816   3.255   3.923   0.348
 8639SOL    HW226817   3.131   4.012   0.408
 8640SOL     OW26818   3.978   2.230   0.464
 8640SOL    HW126819   3.930   2.151   0.425
 8640SOL    HW226820   4.027   2.278   0.392
 8641SOL     OW26821   3.746   5.292   2.472
 8641SOL    HW126822   3.834   5.257   2.505
 8641SOL    HW226823   3.728   5.256   2.381
 8642SOL     OW26824   1.613   5.793   2.926
 8642SOL    HW126825   1.701   5.748   2.912
 8642SOL    HW226826   1.628   5.885   2.962
 8643SOL     OW26827   3.741   6.573   1.165
 8643SOL    HW126828   3.700   6.511   1.098
 8643SOL    HW226829   3.794   6.643   1.117
 8644SOL     OW26830   5.969   2.435   6.017
 8644SOL    HW126831   5.909   2.494   5.963
 8644SOL    HW226832   6.055   2.422   5.968
 8645SOL     OW26833   5.420   5.954   2.923
 8645SOL    HW126834   5.509   5.995   2.904
 8645SOL    HW226835   5.364   5.956   2.840
 8646SOL     OW26836   6.831   2.728   5.547
 8646SOL    HW126837   6.781   2.760   5.628
 8646SOL    HW226838   6.918   2.687   5.575
 8647SOL     OW26839   1.912   5.123   1.673
 8647SOL    HW126840   1.966   5.051   1.716
 8647SOL    HW226841   1.917   5.114   1.574
 8648SOL     OW26842   4.738   5.206   0.564
 8648SOL    HW126843   4.703   5.299   0.565
 8648SOL    HW226844   4.714   5.162   0.477
 8649SOL     OW26845   5.549   1.527   0.752
 8649SOL    HW126846   5.526   1.571   0.839
 8649SOL    HW226847   5.465   1.499   0.705
 8650SOL     OW26848   2.041   6.991   5.551
 8650SOL    HW126849   1.986   0.012   5.622
 8650SOL    HW226850   2.024   0.012   5.463
 8651SOL     OW26851   3.858   2.007   1.659
 8651SOL    HW126852   3.817   1.983   1.747
 8651SOL    HW226853   3.869   2.107   1.653
 8652SOL     OW26854   0.934   2.746   3.469
 8652SOL    HW126855   1.027   2.728   3.435
 8652SOL    HW226856   0.924   2.843   3.490
 8653SOL     OW26857   5.838   1.363   6.718
 8653SOL    HW126858   5.845   1.411   6.805
 8653SOL    HW226859   5.929   1.336   6.687
 8654SOL     OW26860   6.791   4.687   2.909
 8654SOL    HW126861   6.756   4.595   2.889
 8654SOL    HW226862   6.809   4.735   2.823
 8655SOL     OW26863   1.168   0.375   5.017
 8655SOL    HW126864   1.204   0.466   5.039
 8655SOL    HW226865   1.069   0.375   5.029
 8656SOL     OW26866   4.522   6.555   0.753
 8656SOL    HW126867   4.529   6.654   0.754
 8656SOL    HW226868   4.548   6.518   0.842
 8657SOL     OW26869   3.042   2.163   2.954
 8657SOL    HW126870   3.139   2.168   2.980
 8657SOL    HW226871   2.999   2.087   3.000
 8658SOL     OW26872   6.114   4.808   1.382
 8658SOL    HW126873   6.191   4.857   1.423
 8658SOL    HW226874   6.149   4.731   1.328
 8659SOL     OW26875   3.894   0.917   2.690
 8659SOL    HW126876   3.884   0.948   2.784
 8659SOL    HW226877   3.925   0.993   2.633
 8660SOL     OW26878   0.318   4.336   1.753
 8660SOL    HW126879   0.363   4.426   1.755
 8660SOL    HW226880   0.363   4.275   1.819
 8661SOL     OW26881   6.878   3.776   1.833
 8661SOL    HW126882   6.882   3.715   1.912
 8661SOL    HW226883   6.804   3.746   1.772
 8662SOL     OW26884   1.369   2.271   2.587
 8662SOL    HW126885   1.285   2.317   2.560
 8662SOL    HW226886   1.444   2.338   2.590
 8663SOL     OW26887   3.972   4.857   2.714
 8663SOL    HW126888   4.054   4.912   2.704
 8663SOL    HW226889   3.997   4.765   2.744
 8664SOL     OW26890   3.948   6.274   3.763
 8664SOL    HW126891   3.928   6.177   3.749
 8664SOL    HW226892   3.942   6.322   3.675
 8665SOL     OW26893   5.517   3.921   6.691
 8665SOL    HW126894   5.422   3.928   6.660
 8665SOL    HW226895   5.572   3.875   6.621
 8666SOL     OW26896   4.644   0.547   2.746
 8666SOL    HW126897   4.697   0.467   2.774
 8666SOL    HW226898   4.679   0.581   2.659
 8667SOL     OW26899   5.172   2.581   2.259
 8667SOL    HW126900   5.161   2.673   2.222
 8667SOL    HW226901   5.087   2.553   2.304
 8668SOL     OW26902   4.873   2.421   4.446
 8668SOL    HW126903   4.876   2.354   4.373
 8668SOL    HW226904   4.788   2.410   4.498
 8669SOL     OW26905   6.890   6.134   6.366
 8669SOL    HW126906   6.871   6.178   6.454
 8669SOL    HW226907   6.809   6.084   6.335
 8670SOL     OW26908   6.731   4.991   5.558
 8670SOL    HW126909   6.800   4.935   5.512
 8670SOL    HW226910   6.647   4.938   5.570
 8671SOL     OW26911   0.092   2.992   3.162
 8671SOL    HW126912   0.065   3.085   3.141
 8671SOL    HW226913   0.042   2.928   3.103
 8672SOL     OW26914   0.053   1.723   2.843
 8672SOL    HW126915   7.017   1.702   2.765
 8672SOL    HW226916   0.140   1.761   2.811
 8673SOL     OW26917   1.252   1.669   1.238
 8673SOL    HW126918   1.261   1.733   1.316
 8673SOL    HW226919   1.343   1.651   1.200
 8674SOL     OW26920   6.994   4.387   2.841
 8674SOL    HW126921   6.957   4.354   2.928
 8674SOL    HW226922   0.055   4.439   2.858
 8675SOL     OW26923   4.259   2.347   4.779
 8675SOL    HW126924   4.253   2.248   4.772
 8675SOL    HW226925   4.226   2.376   4.869
 8676SOL     OW26926   4.795   1.900   1.401
 8676SOL    HW126927   4.777   1.970   1.471
 8676SOL    HW226928   4.804   1.944   1.312
 8677SOL     OW26929   2.516   6.993   6.289
 8677SOL    HW126930   2.538   6.904   6.250
 8677SOL    HW226931   2.418   6.997   6.310
 8678SOL     OW26932   2.791   2.142   0.539
 8678SOL    HW126933   2.783   2.177   0.446
 8678SOL    HW226934   2.705   2.156   0.587
 8679SOL     OW26935   1.447   1.929   6.596
 8679SOL    HW126936   1.537   1.971   6.610
 8679SOL    HW226937   1.422   1.877   6.677
 8680SOL     OW26938   0.252   0.385   0.454
 8680SOL    HW126939   0.246   0.483   0.438
 8680SOL    HW226940   0.344   0.362   0.486
 8681SOL     OW26941   5.115   4.867   1.403
 8681SOL    HW126942   5.200   4.899   1.362
 8681SOL    HW226943   5.048   4.940   1.403
 8682SOL     OW26944   2.724   0.919   2.590
 8682SOL    HW126945   2.790   0.883   2.524
 8682SOL    HW226946   2.756   1.007   2.625
 8683SOL     OW26947   2.471   4.472   4.192
 8683SOL    HW126948   2.455   4.442   4.286
 8683SOL    HW226949   2.444   4.399   4.129
 8684SOL     OW26950   2.608   4.578   3.323
 8684SOL    HW126951   2.530   4.581   3.386
 8684SOL    HW226952   2.677   4.645   3.351
 8685SOL     OW26953   4.893   3.117   4.543
 8685SOL    HW126954   4.834   3.071   4.609
 8685SOL    HW226955   4.863   3.096   4.450
 8686SOL     OW26956   1.347   5.436   3.282
 8686SOL    HW126957   1.331   5.534   3.288
 8686SOL    HW226958   1.385   5.403   3.368
 8687SOL     OW26959   5.943   4.659   5.340
 8687SOL    HW126960   5.982   4.598   5.409
 8687SOL    HW226961   5.859   4.618   5.302
 8688SOL     OW26962   1.527   3.936   5.233
 8688SOL    HW126963   1.558   3.890   5.149
 8688SOL    HW226964   1.567   3.890   5.312
 8689SOL     OW26965   4.304   3.477   0.950
 8689SOL    HW126966   4.332   3.423   1.029
 8689SOL    HW226967   4.278   3.416   0.875
 8690SOL     OW26968   1.509   1.589   2.372
 8690SOL    HW126969   1.453   1.566   2.293
 8690SOL    HW226970   1.605   1.572   2.351
 8691SOL     OW26971   3.416   2.328   6.123
 8691SOL    HW126972   3.494   2.265   6.120
 8691SOL    HW226973   3.450   2.421   6.138
 8692SOL     OW26974   5.196   3.077   4.092
 8692SOL    HW126975   5.286   3.086   4.135
 8692SOL    HW226976   5.130   3.045   4.159
 8693SOL     OW26977   6.699   6.766   5.339
 8693SOL    HW126978   6.682   6.751   5.242
 8693SOL    HW226979   6.638   6.707   5.393
 8694SOL     OW26980   4.627   3.332   5.557
 8694SOL    HW126981   4.543   3.305   5.511
 8694SOL    HW226982   4.671   3.252   5.597
 8695SOL     OW26983   3.128   5.007   0.670
 8695SOL    HW126984   3.160   5.053   0.753
 8695SOL    HW226985   3.028   4.999   0.673
 8696SOL     OW26986   2.524   5.753   6.091
 8696SOL    HW126987   2.528   5.654   6.088
 8696SOL    HW226988   2.457   5.783   6.159
 8697SOL     OW26989   1.010   3.600   5.212
 8697SOL    HW126990   1.093   3.591   5.266
 8697SOL    HW226991   1.011   3.688   5.164
 8698SOL     OW26992   4.405   4.503   6.517
 8698SOL    HW126993   4.483   4.508   6.580
 8698SOL    HW226994   4.366   4.594   6.504
 8699SOL     OW26995   1.833   2.307   0.657
 8699SOL    HW126996   1.755   2.310   0.593
 8699SOL    HW226997   1.808   2.355   0.741
 8700SOL     OW26998   0.676   1.463   4.795
 8700SOL    HW126999   0.648   1.535   4.731
 8700SOL    HW227000   0.600   1.399   4.809
 8701SOL     OW27001   1.847   3.149   6.427
 8701SOL    HW127002   1.800   3.073   6.381
 8701SOL    HW227003   1.820   3.150   6.524
 8702SOL     OW27004   5.841   4.334   1.129
 8702SOL    HW127005   5.770   4.401   1.107
 8702SOL    HW227006   5.800   4.254   1.172
 8703SOL     OW27007   2.431   5.726   1.550
 8703SOL    HW127008   2.465   5.676   1.629
 8703SOL    HW227009   2.411   5.662   1.476
 8704SOL     OW27010   0.329   1.372   5.038
 8704SOL    HW127011   0.265   1.415   4.974
 8704SOL    HW227012   0.300   1.278   5.056
 8705SOL     OW27013   3.724   2.037   0.197
 8705SOL    HW127014   3.744   2.135   0.200
 8705SOL    HW227015   3.703   2.011   0.102
 8706SOL     OW27016   4.989   2.253   6.630
 8706SOL    HW127017   4.953   2.290   6.545
 8706SOL    HW227018   4.993   2.325   6.700
 8707SOL     OW27019   1.202   1.042   4.117
 8707SOL    HW127020   1.125   1.009   4.063
 8707SOL    HW227021   1.206   1.142   4.111
 8708SOL     OW27022   6.032   2.181   1.152
 8708SOL    HW127023   6.125   2.205   1.178
 8708SOL    HW227024   6.031   2.149   1.057
 8709SOL     OW27025   6.442   6.063   4.071
 8709SOL    HW127026   6.489   6.130   4.014
 8709SOL    HW227027   6.371   6.108   4.125
 8710SOL     OW27028   2.063   1.677   3.488
 8710SOL    HW127029   2.028   1.720   3.571
 8710SOL    HW227030   2.153   1.717   3.465
 8711SOL     OW27031   1.456   1.224   2.098
 8711SOL    HW127032   1.418   1.316   2.092
 8711SOL    HW227033   1.469   1.199   2.194
 8712SOL     OW27034   0.744   4.675   4.484
 8712SOL    HW127035   0.789   4.586   4.478
 8712SOL    HW227036   0.663   4.667   4.543
 8713SOL     OW27037   0.341   3.541   2.220
 8713SOL    HW127038   0.303   3.483   2.148
 8713SOL    HW227039   0.372   3.628   2.181
 8714SOL     OW27040   6.131   4.452   6.731
 8714SOL    HW127041   6.099   4.472   6.638
 8714SOL    HW227042   6.176   4.534   6.768
 8715SOL     OW27043   2.205   5.053   1.510
 8715SOL    HW127044   2.118   5.053   1.459
 8715SOL    HW227045   2.211   4.971   1.567
 8716SOL     OW27046   6.487   0.523   1.789
 8716SOL    HW127047   6.416   0.578   1.744
 8716SOL    HW227048   6.457   0.429   1.797
 8717SOL     OW27049   3.412   2.517   0.405
 8717SOL    HW127050   3.450   2.441   0.353
 8717SOL    HW227051   3.434   2.506   0.502
 8718SOL     OW27052   3.141   5.215   6.603
 8718SOL    HW127053   3.173   5.301   6.644
 8718SOL    HW227054   3.219   5.154   6.588
 8719SOL     OW27055   3.267   1.435   5.086
 8719SOL    HW127056   3.301   1.417   4.993
 8719SOL    HW227057   3.343   1.468   5.143
 8720SOL     OW27058   1.406   5.902   4.551
 8720SOL    HW127059   1.362   5.864   4.633
 8720SOL    HW227060   1.381   5.847   4.472
 8721SOL     OW27061   0.989   6.755   1.088
 8721SOL    HW127062   0.984   6.803   1.000
 8721SOL    HW227063   0.936   6.805   1.156
 8722SOL     OW27064   3.112   1.029   0.584
 8722SOL    HW127065   3.146   1.086   0.658
 8722SOL    HW227066   3.121   1.077   0.497
 8723SOL     OW27067   4.143   6.505   2.096
 8723SOL    HW127068   4.158   6.584   2.037
 8723SOL    HW227069   4.046   6.501   2.122
 8724SOL     OW27070   3.481   1.662   4.881
 8724SOL    HW127071   3.457   1.714   4.963
 8724SOL    HW227072   3.510   1.725   4.809
 8725SOL     OW27073   6.498   0.261   3.063
 8725SOL    HW127074   6.434   0.185   3.057
 8725SOL    HW227075   6.516   0.283   3.159
 8726SOL     OW27076   6.131   0.562   0.774
 8726SOL    HW127077   6.177   0.499   0.835
 8726SOL    HW227078   6.196   0.596   0.706
 8727SOL     OW27079   5.462   5.899   6.750
 8727SOL    HW127080   5.391   5.963   6.721
 8727SOL    HW227081   5.419   5.812   6.777
 8728SOL     OW27082   6.158   6.750   4.331
 8728SOL    HW127083   6.119   6.660   4.312
 8728SOL    HW227084   6.232   6.741   4.397
 8729SOL     OW27085   5.629   5.761   5.870
 8729SOL    HW127086   5.654   5.806   5.956
 8729SOL    HW227087   5.680   5.802   5.795
 8730SOL     OW27088   4.029   4.593   1.666
 8730SOL    HW127089   4.093   4.532   1.713
 8730SOL    HW227090   3.942   4.546   1.652
 8731SOL     OW27091   6.960   1.782   3.972
 8731SOL    HW127092   6.914   1.850   3.915
 8731SOL    HW227093   6.972   1.818   4.064
 8732SOL     OW27094   5.094   6.164   5.845
 8732SOL    HW127095   5.143   6.084   5.810
 8732SOL    HW227096   4.996   6.151   5.835
 8733SOL     OW27097   6.401   4.793   2.349
 8733SOL    HW127098   6.347   4.820   2.429
 8733SOL    HW227099   6.388   4.860   2.276
 8734SOL     OW27100   1.416   4.892   0.680
 8734SOL    HW127101   1.484   4.930   0.742
 8734SOL    HW227102   1.427   4.792   0.676
 8735SOL     OW27103   1.591   3.057   5.978
 8735SOL    HW127104   1.494   3.065   6.002
 8735SOL    HW227105   1.603   3.077   5.881
 8736SOL     OW27106   1.655   5.674   3.543
 8736SOL    HW127107   1.565   5.658   3.502
 8736SOL    HW227108   1.708   5.734   3.482
 8737SOL     OW27109   0.321   5.837   6.776
 8737SOL    HW127110   0.233   5.802   6.807
 8737SOL    HW227111   0.351   5.785   6.696
 8738SOL     OW27112   1.948   2.441   2.185
 8738SOL    HW127113   1.989   2.515   2.132
 8738SOL    HW227114   1.992   2.438   2.276
 8739SOL     OW27115   5.537   4.690   3.883
 8739SOL    HW127116   5.624   4.735   3.903
 8739SOL    HW227117   5.554   4.602   3.838
 8740SOL     OW27118   3.211   1.847   3.343
 8740SOL    HW127119   3.138   1.786   3.372
 8740SOL    HW227120   3.172   1.927   3.297
 8741SOL     OW27121   1.052   1.639   2.347
 8741SOL    HW127122   1.014   1.632   2.255
 8741SOL    HW227123   1.006   1.714   2.396
 8742SOL     OW27124   2.673   2.653   1.735
 8742SOL    HW127125   2.611   2.651   1.813
 8742SOL    HW227126   2.711   2.562   1.719
 8743SOL     OW27127   0.637   3.347   0.443
 8743SOL    HW127128   0.633   3.257   0.485
 8743SOL    HW227129   0.678   3.412   0.506
 8744SOL     OW27130   3.665   3.928   5.929
 8744SOL    HW127131   3.678   3.911   6.027
 8744SOL    HW227132   3.573   3.899   5.902
 8745SOL     OW27133   5.859   1.806   6.577
 8745SOL    HW127134   5.909   1.865   6.513
 8745SOL    HW227135   5.860   1.712   6.543
 8746SOL     OW27136   3.951   4.853   4.915
 8746SOL    HW127137   4.038   4.827   4.957
 8746SOL    HW227138   3.879   4.854   4.984
 8747SOL     OW27139   1.136   0.690   2.511
 8747SOL    HW127140   1.165   0.610   2.458
 8747SOL    HW227141   1.041   0.712   2.488
 8748SOL     OW27142   5.378   1.791   4.556
 8748SOL    HW127143   5.333   1.753   4.476
 8748SOL    HW227144   5.434   1.721   4.600
 8749SOL     OW27145   2.699   1.215   4.075
 8749SOL    HW127146   2.612   1.170   4.096
 8749SOL    HW227147   2.681   1.309   4.047
 8750SOL     OW27148   4.160   3.481   1.814
 8750SOL    HW127149   4.126   3.569   1.780
 8750SOL    HW227150   4.091   3.439   1.873
 8751SOL     OW27151   2.465   6.866   0.246
 8751SOL    HW127152   2.377   6.878   0.292
 8751SOL    HW227153   2.526   6.941   0.271
 8752SOL     OW27154   6.679   3.042   5.907
 8752SOL    HW127155   6.654   3.132   5.871
 8752SOL    HW227156   6.693   3.048   6.006
 8753SOL     OW27157   2.115   1.682   0.932
 8753SOL    HW127158   2.128   1.604   0.994
 8753SOL    HW227159   2.021   1.713   0.938
 8754SOL     OW27160   0.986   5.835   6.409
 8754SOL    HW127161   0.938   5.864   6.492
 8754SOL    HW227162   1.064   5.777   6.434
 8755SOL     OW27163   0.201   2.728   1.722
 8755SOL    HW127164   0.300   2.714   1.719
 8755SOL    HW227165   0.159   2.681   1.644
 8756SOL     OW27166   1.368   1.507   2.114
 8756SOL    HW127167   1.394   1.535   2.021
 8756SOL    HW227168   1.268   1.501   2.121
 8757SOL     OW27169   5.444   6.159   5.394
 8757SOL    HW127170   5.498   6.243   5.398
 8757SOL    HW227171   5.369   6.170   5.329
 8758SOL     OW27172   3.966   5.799   5.837
 8758SOL    HW127173   3.963   5.806   5.737
 8758SOL    HW227174   3.933   5.884   5.878
 8759SOL     OW27175   5.920   1.314   2.028
 8759SOL    HW127176   5.959   1.388   2.083
 8759SOL    HW227177   5.945   1.328   1.932
 8760SOL     OW27178   2.367   2.339   4.325
 8760SOL    HW127179   2.328   2.247   4.333
 8760SOL    HW227180   2.395   2.355   4.230
 8761SOL     OW27181   4.709   2.320   3.064
 8761SOL    HW127182   4.631   2.374   3.092
 8761SOL    HW227183   4.768   2.375   3.004
 8762SOL     OW27184   3.992   5.997   2.821
 8762SOL    HW127185   3.919   6.052   2.863
 8762SOL    HW227186   3.951   5.925   2.765
 8763SOL     OW27187   0.009   1.412   5.498
 8763SOL    HW127188   0.064   1.434   5.578
 8763SOL    HW227189   0.063   1.356   5.435
 8764SOL     OW27190   3.455   5.113   6.088
 8764SOL    HW127191   3.450   5.092   6.185
 8764SOL    HW227192   3.484   5.031   6.037
 8765SOL     OW27193   3.913   6.655   3.726
 8765SOL    HW127194   3.873   6.599   3.799
 8765SOL    HW227195   3.874   6.627   3.638
 8766SOL     OW27196   5.273   6.883   4.899
 8766SOL    HW127197   5.223   6.808   4.854
 8766SOL    HW227198   5.218   6.966   4.896
 8767SOL     OW27199   1.239   1.292   4.031
 8767SOL    HW127200   1.176   1.316   3.957
 8767SOL    HW227201   1.326   1.262   3.992
 8768SOL     OW27202   6.827   1.133   0.317
 8768SOL    HW127203   6.754   1.064   0.311
 8768SOL    HW227204   6.849   1.149   0.413
 8769SOL     OW27205   6.155   0.054   6.322
 8769SOL    HW127206   6.119   7.009   6.258
 8769SOL    HW227207   6.168   0.141   6.274
 8770SOL     OW27208   4.937   2.043   0.380
 8770SOL    HW127209   4.987   2.110   0.435
 8770SOL    HW227210   4.844   2.076   0.364
 8771SOL     OW27211   0.879   2.841   6.114
 8771SOL    HW127212   0.931   2.903   6.174
 8771SOL    HW227213   0.788   2.878   6.098
 8772SOL     OW27214   0.262   0.244   3.758
 8772SOL    HW127215   0.192   0.248   3.830
 8772SOL    HW227216   0.329   0.317   3.773
 8773SOL     OW27217   0.298   1.576   3.399
 8773SOL    HW127218   0.381   1.560   3.345
 8773SOL    HW227219   0.222   1.526   3.359
 8774SOL     OW27220   1.353   1.778   6.818
 8774SOL    HW127221   1.259   1.812   6.819
 8774SOL    HW227222   1.356   1.688   6.861
 8775SOL     OW27223   5.375   2.266   3.225
 8775SOL    HW127224   5.382   2.169   3.203
 8775SOL    HW227225   5.299   2.307   3.174
 8776SOL     OW27226   4.963   2.930   1.300
 8776SOL    HW127227   4.960   3.024   1.266
 8776SOL    HW227228   4.913   2.924   1.387
 8777SOL     OW27229   6.677   2.441   3.587
 8777SOL    HW127230   6.750   2.379   3.615
 8777SOL    HW227231   6.688   2.465   3.491
 8778SOL     OW27232   2.930   3.770   0.072
 8778SOL    HW127233   2.863   3.764   7.021
 8778SOL    HW227234   2.952   3.678   0.104
 8779SOL     OW27235   4.047   5.484   2.751
 8779SOL    HW127236   4.019   5.405   2.805
 8779SOL    HW227237   4.014   5.473   2.657
 8780SOL     OW27238   0.736   4.163   4.022
 8780SOL    HW127239   0.797   4.188   3.947
 8780SOL    HW227240   0.738   4.064   4.035
 8781SOL     OW27241   2.579   0.888   1.351
 8781SOL    HW127242   2.679   0.881   1.359
 8781SOL    HW227243   2.539   0.797   1.364
 8782SOL     OW27244   6.186   2.369   0.873
 8782SOL    HW127245   6.145   2.454   0.906
 8782SOL    HW227246   6.115   2.300   0.861
 8783SOL     OW27247   4.743   4.027   5.501
 8783SOL    HW127248   4.704   4.115   5.475
 8783SOL    HW227249   4.671   3.957   5.497
 8784SOL     OW27250   4.609   0.893   6.740
 8784SOL    HW127251   4.517   0.909   6.774
 8784SOL    HW227252   4.636   0.799   6.758
 8785SOL     OW27253   6.921   5.563   5.584
 8785SOL    HW127254   7.001   5.509   5.557
 8785SOL    HW227255   6.847   5.549   5.518
 8786SOL     OW27256   5.587   1.778   3.044
 8786SOL    HW127257   5.664   1.813   2.991
 8786SOL    HW227258   5.621   1.726   3.123
 8787SOL     OW27259   3.597   5.507   1.634
 8787SOL    HW127260   3.676   5.480   1.689
 8787SOL    HW227261   3.578   5.436   1.566
 8788SOL     OW27262   0.354   6.216   4.276
 8788SOL    HW127263   0.380   6.243   4.368
 8788SOL    HW227264   0.293   6.285   4.237
 8789SOL     OW27265   1.382   2.467   6.286
 8789SOL    HW127266   1.334   2.554   6.280
 8789SOL    HW227267   1.465   2.477   6.342
 8790SOL     OW27268   4.438   2.511   4.977
 8790SOL    HW127269   4.343   2.494   4.951
 8790SOL    HW227270   4.499   2.464   4.914
 8791SOL     OW27271   4.048   6.289   4.718
 8791SOL    HW127272   3.953   6.262   4.707
 8791SOL    HW227273   4.105   6.207   4.730
 8792SOL     OW27274   5.706   5.321   1.855
 8792SOL    HW127275   5.654   5.265   1.919
 8792SOL    HW227276   5.792   5.276   1.833
 8793SOL     OW27277   6.546   6.154   5.504
 8793SOL    HW127278   6.632   6.196   5.533
 8793SOL    HW227279   6.511   6.200   5.422
 8794SOL     OW27280   0.197   1.584   3.039
 8794SOL    HW127281   0.130   1.652   3.008
 8794SOL    HW227282   0.289   1.618   3.024
 8795SOL     OW27283   1.108   6.359   6.557
 8795SOL    HW127284   1.053   6.396   6.632
 8795SOL    HW227285   1.139   6.434   6.499
 8796SOL     OW27286   5.704   4.016   4.980
 8796SOL    HW127287   5.673   3.973   5.065
 8796SOL    HW227288   5.752   3.949   4.924
 8797SOL     OW27289   5.000   5.941   4.216
 8797SOL    HW127290   5.025   5.914   4.309
 8797SOL    HW227291   5.033   6.034   4.199
 8798SOL     OW27292   2.155   6.331   5.575
 8798SOL    HW127293   2.085   6.310   5.507
 8798SOL    HW227294   2.129   6.291   5.663
 8799SOL     OW27295   1.455   5.967   1.742
 8799SOL    HW127296   1.390   6.043   1.748
 8799SOL    HW227297   1.433   5.911   1.662
 8800SOL     OW27298   6.593   5.810   3.940
 8800SOL    HW127299   6.617   5.822   3.844
 8800SOL    HW227300   6.502   5.849   3.957
 8801SOL     OW27301   5.354   3.649   5.752
 8801SOL    HW127302   5.447   3.651   5.789
 8801SOL    HW227303   5.288   3.637   5.827
 8802SOL     OW27304   1.601   5.890   6.378
 8802SOL    HW127305   1.546   5.842   6.309
 8802SOL    HW227306   1.573   5.986   6.383
 8803SOL     OW27307   5.902   5.803   5.085
 8803SOL    HW127308   5.980   5.776   5.141
 8803SOL    HW227309   5.820   5.810   5.142
 8804SOL     OW27310   1.172   6.016   2.284
 8804SOL    HW127311   1.152   6.058   2.195
 8804SOL    HW227312   1.270   6.016   2.300
 8805SOL     OW27313   5.033   4.911   3.411
 8805SOL    HW127314   5.062   4.860   3.492
 8805SOL    HW227315   5.032   4.850   3.332
 8806SOL     OW27316   1.180   0.706   2.027
 8806SOL    HW127317   1.132   0.765   1.962
 8806SOL    HW227318   1.260   0.753   2.063
 8807SOL     OW27319   5.487   2.519   1.020
 8807SOL    HW127320   5.443   2.602   1.053
 8807SOL    HW227321   5.513   2.462   1.098
 8808SOL     OW27322   2.188   1.904   0.240
 8808SOL    HW127323   2.200   1.991   0.288
 8808SOL    HW227324   2.214   1.829   0.301
 8809SOL     OW27325   7.015   3.494   3.072
 8809SOL    HW127326   6.989   3.537   2.986
 8809SOL    HW227327   6.979   3.548   3.148
 8810SOL     OW27328   0.341   1.983   5.177
 8810SOL    HW127329   0.351   1.887   5.205
 8810SOL    HW227330   0.266   2.025   5.228
 8811SOL     OW27331   4.252   4.740   2.469
 8811SOL    HW127332   4.313   4.699   2.401
 8811SOL    HW227333   4.164   4.759   2.427
 8812SOL     OW27334   5.247   0.887   0.258
 8812SOL    HW127335   5.207   0.930   0.177
 8812SOL    HW227336   5.303   0.954   0.307
 8813SOL     OW27337   2.032   3.188   2.285
 8813SOL    HW127338   1.985   3.182   2.374
 8813SOL    HW227339   2.101   3.260   2.289
 8814SOL     OW27340   5.607   6.702   5.047
 8814SOL    HW127341   5.557   6.621   5.079
 8814SOL    HW227342   5.576   6.724   4.955
 8815SOL     OW27343   5.011   1.023   1.328
 8815SOL    HW127344   4.994   0.975   1.242
 8815SOL    HW227345   5.043   0.958   1.397
 8816SOL     OW27346   0.530   6.892   3.930
 8816SOL    HW127347   0.536   6.925   4.024
 8816SOL    HW227348   0.591   6.946   3.872
 8817SOL     OW27349   1.506   2.753   3.253
 8817SOL    HW127350   1.590   2.803   3.276
 8817SOL    HW227351   1.428   2.799   3.295
 8818SOL     OW27352   0.798   6.661   5.641
 8818SOL    HW127353   0.768   6.576   5.598
 8818SOL    HW227354   0.790   6.653   5.740
 8819SOL     OW27355   4.902   5.948   6.347
 8819SOL    HW127356   4.983   5.983   6.393
 8819SOL    HW227357   4.842   6.025   6.322
 8820SOL     OW27358   4.247   6.720   5.395
 8820SOL    HW127359   4.175   6.704   5.462
 8820SOL    HW227360   4.291   6.633   5.372
 8821SOL     OW27361   0.905   4.774   6.117
 8821SOL    HW127362   0.936   4.711   6.045
 8821SOL    HW227363   0.806   4.774   6.121
 8822SOL     OW27364   6.219   0.191   4.832
 8822SOL    HW127365   6.125   0.190   4.867
 8822SOL    HW227366   6.235   0.108   4.778
 8823SOL     OW27367   4.064   1.657   2.558
 8823SOL    HW127368   4.149   1.707   2.576
 8823SOL    HW227369   3.987   1.721   2.557
 8824SOL     OW27370   1.827   0.594   3.559
 8824SOL    HW127371   1.740   0.582   3.608
 8824SOL    HW227372   1.811   0.591   3.461
 8825SOL     OW27373   0.270   6.696   6.978
 8825SOL    HW127374   0.277   6.707   0.055
 8825SOL    HW227375   0.258   6.599   6.957
 8826SOL     OW27376   0.277   4.181   0.133
 8826SOL    HW127377   0.359   4.192   0.078
 8826SOL    HW227378   0.297   4.125   0.213
 8827SOL     OW27379   4.452   6.788   3.251
 8827SOL    HW127380   4.473   6.690   3.255
 8827SOL    HW227381   4.414   6.817   3.339
 8828SOL     OW27382   5.202   2.020   6.358
 8828SOL    HW127383   5.169   2.108   6.324
 8828SOL    HW227384   5.294   2.003   6.324
 8829SOL     OW27385   6.826   1.008   2.905
 8829SOL    HW127386   6.894   1.062   2.855
 8829SOL    HW227387   6.775   0.951   2.841
 8830SOL     OW27388   3.143   0.739   3.496
 8830SOL    HW127389   3.056   0.755   3.544
 8830SOL    HW227390   3.165   0.820   3.441
 8831SOL     OW27391   0.166   3.479   2.651
 8831SOL    HW127392   0.204   3.486   2.743
 8831SOL    HW227393   0.095   3.409   2.650
 8832SOL     OW27394   5.156   0.746   5.990
 8832SOL    HW127395   5.107   0.788   5.913
 8832SOL    HW227396   5.148   0.806   6.070
 8833SOL     OW27397   5.105   2.860   0.836
 8833SOL    HW127398   5.009   2.889   0.831
 8833SOL    HW227399   5.161   2.921   0.780
 8834SOL     OW27400   5.537   4.725   6.437
 8834SOL    HW127401   5.502   4.792   6.503
 8834SOL    HW227402   5.636   4.737   6.428
 8835SOL     OW27403   6.858   0.884   5.202
 8835SOL    HW127404   6.841   0.848   5.110
 8835SOL    HW227405   6.848   0.810   5.269
 8836SOL     OW27406   4.227   1.104   1.055
 8836SOL    HW127407   4.251   1.010   1.033
 8836SOL    HW227408   4.156   1.104   1.126
 8837SOL     OW27409   4.521   6.087   0.627
 8837SOL    HW127410   4.536   6.104   0.530
 8837SOL    HW227411   4.599   6.035   0.664
 8838SOL     OW27412   2.179   3.397   3.429
 8838SOL    HW127413   2.124   3.461   3.483
 8838SOL    HW227414   2.265   3.440   3.404
 8839SOL     OW27415   4.685   4.857   1.466
 8839SOL    HW127416   4.652   4.945   1.499
 8839SOL    HW227417   4.774   4.838   1.507
 8840SOL     OW27418   6.840   1.082   0.608
 8840SOL    HW127419   6.792   0.996   0.594
 8840SOL    HW227420   6.775   1.151   0.640
 8841SOL     OW27421   3.461   1.201   0.757
 8841SOL    HW127422   3.362   1.213   0.746
 8841SOL    HW227423   3.489   1.116   0.714
 8842SOL     OW27424   3.552   2.963   4.004
 8842SOL    HW127425   3.648   2.991   4.009
 8842SOL    HW227426   3.497   3.021   4.064
 8843SOL     OW27427   2.781   5.472   5.180
 8843SOL    HW127428   2.684   5.458   5.196
 8843SOL    HW227429   2.834   5.424   5.250
 8844SOL     OW27430   3.272   2.801   6.347
 8844SOL    HW127431   3.301   2.732   6.281
 8844SOL    HW227432   3.348   2.864   6.365
 8845SOL     OW27433   0.585   3.411   2.071
 8845SOL    HW127434   0.663   3.382   2.127
 8845SOL    HW227435   0.508   3.435   2.131
 8846SOL     OW27436   5.910   4.728   4.492
 8846SOL    HW127437   5.974   4.792   4.451
 8846SOL    HW227438   5.830   4.777   4.526
 8847SOL     OW27439   0.979   2.071   4.034
 8847SOL    HW127440   0.977   2.169   4.051
 8847SOL    HW227441   0.931   2.051   3.948
 8848SOL     OW27442   6.437   1.348   0.628
 8848SOL    HW127443   6.427   1.286   0.551
 8848SOL    HW227444   6.402   1.439   0.604
 8849SOL     OW27445   3.612   5.573   4.110
 8849SOL    HW127446   3.570   5.562   4.020
 8849SOL    HW227447   3.546   5.617   4.172
 8850SOL     OW27448   2.533   1.366   1.425
 8850SOL    HW127449   2.493   1.278   1.401
 8850SOL    HW227450   2.577   1.405   1.344
 8851SOL     OW27451   0.267   5.082   2.701
 8851SOL    HW127452   0.194   5.094   2.633
 8851SOL    HW227453   0.356   5.078   2.654
 8852SOL     OW27454   5.158   3.115   4.551
 8852SOL    HW127455   5.205   3.121   4.639
 8852SOL    HW227456   5.059   3.111   4.567
 8853SOL     OW27457   4.863   2.047   5.470
 8853SOL    HW127458   4.773   2.004   5.469
 8853SOL    HW227459   4.933   1.977   5.487
 8854SOL     OW27460   1.812   1.210   5.828
 8854SOL    HW127461   1.715   1.200   5.854
 8854SOL    HW227462   1.866   1.234   5.909
 8855SOL     OW27463   6.382   5.060   6.440
 8855SOL    HW127464   6.438   5.085   6.360
 8855SOL    HW227465   6.440   5.018   6.509
 8856SOL     OW27466   5.261   0.855   5.236
 8856SOL    HW127467   5.225   0.791   5.168
 8856SOL    HW227468   5.361   0.854   5.232
 8857SOL     OW27469   1.114   3.118   4.606
 8857SOL    HW127470   1.188   3.161   4.554
 8857SOL    HW227471   1.152   3.050   4.668
 8858SOL     OW27472   6.942   3.893   5.786
 8858SOL    HW127473   7.006   3.970   5.784
 8858SOL    HW227474   6.871   3.911   5.854
 8859SOL     OW27475   3.065   5.930   5.290
 8859SOL    HW127476   3.072   6.023   5.326
 8859SOL    HW227477   3.040   5.934   5.193
 8860SOL     OW27478   1.495   1.970   0.828
 8860SOL    HW127479   1.482   1.975   0.927
 8860SOL    HW227480   1.568   2.032   0.800
 8861SOL     OW27481   2.423   2.657   1.198
 8861SOL    HW127482   2.390   2.711   1.276
 8861SOL    HW227483   2.462   2.719   1.129
 8862SOL     OW27484   6.261   2.590   5.266
 8862SOL    HW127485   6.253   2.492   5.282
 8862SOL    HW227486   6.225   2.612   5.175
 8863SOL     OW27487   1.147   5.321   4.941
 8863SOL    HW127488   1.197   5.324   5.027
 8863SOL    HW227489   1.071   5.386   4.943
 8864SOL     OW27490   1.274   4.142   6.040
 8864SOL    HW127491   1.364   4.100   6.030
 8864SOL    HW227492   1.248   4.184   5.954
 8865SOL     OW27493   2.758   2.275   5.753
 8865SOL    HW127494   2.849   2.316   5.745
 8865SOL    HW227495   2.767   2.176   5.764
 8866SOL     OW27496   4.916   6.510   5.148
 8866SOL    HW127497   4.996   6.570   5.150
 8866SOL    HW227498   4.844   6.550   5.204
 8867SOL     OW27499   6.491   1.218   3.958
 8867SOL    HW127500   6.436   1.208   3.875
 8867SOL    HW227501   6.453   1.291   4.015
 8868SOL     OW27502   4.876   3.585   0.767
 8868SOL    HW127503   4.935   3.574   0.686
 8868SOL    HW227504   4.929   3.625   0.841
 8869SOL     OW27505   3.688   2.134   3.537
 8869SOL    HW127506   3.742   2.218   3.528
 8869SOL    HW227507   3.669   2.116   3.633
 8870SOL     OW27508   4.650   1.328   2.339
 8870SOL    HW127509   4.556   1.321   2.371
 8870SOL    HW227510   4.653   1.309   2.240
 8871SOL     OW27511   1.670   2.528   4.009
 8871SOL    HW127512   1.619   2.528   4.095
 8871SOL    HW227513   1.650   2.445   3.957
 8872SOL     OW27514   1.587   2.577   2.143
 8872SOL    HW127515   1.523   2.638   2.097
 8872SOL    HW227516   1.668   2.629   2.171
 8873SOL     OW27517   0.046   5.864   4.933
 8873SOL    HW127518   0.056   5.951   4.883
 8873SOL    HW227519   0.088   5.790   4.880
 8874SOL     OW27520   1.068   1.435   6.515
 8874SOL    HW127521   0.992   1.436   6.449
 8874SOL    HW227522   1.033   1.413   6.606
 8875SOL     OW27523   1.481   1.323   4.629
 8875SOL    HW127524   1.440   1.236   4.602
 8875SOL    HW227525   1.554   1.306   4.696
 8876SOL     OW27526   2.484   0.631   4.797
 8876SOL    HW127527   2.467   0.533   4.791
 8876SOL    HW227528   2.437   0.668   4.877
 8877SOL     OW27529   2.902   6.734   4.709
 8877SOL    HW127530   2.826   6.779   4.757
 8877SOL    HW227531   2.867   6.684   4.629
 8878SOL     OW27532   5.592   4.887   5.579
 8878SOL    HW127533   5.534   4.937   5.644
 8878SOL    HW227534   5.674   4.855   5.627
 8879SOL     OW27535   5.098   5.446   4.541
 8879SOL    HW127536   5.020   5.499   4.506
 8879SOL    HW227537   5.132   5.489   4.625
 8880SOL     OW27538   0.238   6.197   5.255
 8880SOL    HW127539   0.194   6.234   5.336
 8880SOL    HW227540   0.193   6.234   5.173
 8881SOL     OW27541   6.667   1.190   1.947
 8881SOL    HW127542   6.746   1.134   1.921
 8881SOL    HW227543   6.698   1.267   2.002
 8882SOL     OW27544   5.490   2.408   6.972
 8882SOL    HW127545   5.494   2.350   0.030
 8882SOL    HW227546   5.582   2.443   6.952
 8883SOL     OW27547   6.745   1.862   5.548
 8883SOL    HW127548   6.706   1.773   5.525
 8883SOL    HW227549   6.736   1.879   5.646
 8884SOL     OW27550   6.448   1.350   5.768
 8884SOL    HW127551   6.506   1.402   5.705
 8884SOL    HW227552   6.487   1.354   5.860
 8885SOL     OW27553   5.509   3.588   1.835
 8885SOL    HW127554   5.567   3.610   1.757
 8885SOL    HW227555   5.430   3.534   1.804
 8886SOL     OW27556   3.063   5.835   6.132
 8886SOL    HW127557   2.974   5.866   6.166
 8886SOL    HW227558   3.101   5.903   6.070
 8887SOL     OW27559   1.748   0.278   1.312
 8887SOL    HW127560   1.829   0.219   1.313
 8887SOL    HW227561   1.672   0.231   1.357
 8888SOL     OW27562   3.376   2.128   2.986
 8888SOL    HW127563   3.469   2.165   2.988
 8888SOL    HW227564   3.346   2.107   3.079
 8889SOL     OW27565   3.349   0.333   4.592
 8889SOL    HW127566   3.411   0.353   4.668
 8889SOL    HW227567   3.264   0.296   4.628
 8890SOL     OW27568   0.400   4.239   3.638
 8890SOL    HW127569   0.392   4.194   3.549
 8890SOL    HW227570   0.496   4.263   3.654
 8891SOL     OW27571   2.257   1.921   6.143
 8891SOL    HW127572   2.314   1.899   6.063
 8891SOL    HW227573   2.212   1.837   6.175
 8892SOL     OW27574   1.204   6.977   2.554
 8892SOL    HW127575   1.298   6.946   2.544
 8892SOL    HW227576   1.164   6.935   2.636
 8893SOL     OW27577   0.550   0.622   0.235
 8893SOL    HW127578   0.529   0.590   0.143
 8893SOL    HW227579   0.466   0.639   0.285
 8894SOL     OW27580   4.285   2.837   6.427
 8894SOL    HW127581   4.372   2.814   6.469
 8894SOL    HW227582   4.242   2.912   6.477
 8895SOL     OW27583   1.781   0.922   2.656
 8895SOL    HW127584   1.684   0.946   2.652
 8895SOL    HW227585   1.836   1.004   2.641
 8896SOL     OW27586   2.350   4.331   4.677
 8896SOL    HW127587   2.343   4.349   4.775
 8896SOL    HW227588   2.290   4.255   4.652
 8897SOL     OW27589   1.168   2.346   1.197
 8897SOL    HW127590   1.237   2.338   1.269
 8897SOL    HW227591   1.161   2.442   1.168
 8898SOL     OW27592   6.728   2.539   5.019
 8898SOL    HW127593   6.669   2.575   4.947
 8898SOL    HW227594   6.823   2.541   4.987
 8899SOL     OW27595   3.458   5.003   1.015
 8899SOL    HW127596   3.368   4.959   1.005
 8899SOL    HW227597   3.445   5.102   1.025
 8900SOL     OW27598   0.379   1.316   3.511
 8900SOL    HW127599   0.333   1.403   3.530
 8900SOL    HW227600   0.335   1.244   3.565
 8901SOL     OW27601   1.975   6.497   1.903
 8901SOL    HW127602   2.060   6.549   1.903
 8901SOL    HW227603   1.898   6.560   1.913
 8902SOL     OW27604   3.362   6.038   4.889
 8902SOL    HW127605   3.351   6.068   4.795
 8902SOL    HW227606   3.276   6.050   4.938
 8903SOL     OW27607   0.738   0.713   3.280
 8903SOL    HW127608   0.807   0.651   3.245
 8903SOL    HW227609   0.762   0.807   3.257
 8904SOL     OW27610   1.187   5.029   3.259
 8904SOL    HW127611   1.250   4.988   3.193
 8904SOL    HW227612   1.221   5.012   3.352
 8905SOL     OW27613   2.255   4.224   4.926
 8905SOL    HW127614   2.156   4.232   4.919
 8905SOL    HW227615   2.278   4.159   4.999
 8906SOL     OW27616   1.330   5.200   4.253
 8906SOL    HW127617   1.399   5.190   4.325
 8906SOL    HW227618   1.328   5.117   4.197
 8907SOL     OW27619   3.888   2.697   6.266
 8907SOL    HW127620   3.877   2.755   6.347
 8907SOL    HW227621   3.936   2.748   6.195
 8908SOL     OW27622   0.273   2.684   2.401
 8908SOL    HW127623   0.291   2.700   2.304
 8908SOL    HW227624   0.335   2.740   2.456
 8909SOL     OW27625   2.770   0.141   5.572
 8909SOL    HW127626   2.791   0.051   5.608
 8909SOL    HW227627   2.726   0.132   5.483
 8910SOL     OW27628   4.038   2.938   0.002
 8910SOL    HW127629   3.948   2.896   7.017
 8910SOL    HW227630   4.108   2.869   7.004
 8911SOL     OW27631   4.813   2.305   3.805
 8911SOL    HW127632   4.766   2.227   3.847
 8911SOL    HW227633   4.747   2.376   3.784
 8912SOL     OW27634   5.444   1.799   6.901
 8912SOL    HW127635   5.510   1.791   6.826
 8912SOL    HW227636   5.362   1.745   6.879
 8913SOL     OW27637   4.282   4.014   0.853
 8913SOL    HW127638   4.337   3.972   0.925
 8913SOL    HW227639   4.219   3.947   0.815
 8914SOL     OW27640   5.069   2.080   3.674
 8914SOL    HW127641   5.145   2.144   3.662
 8914SOL    HW227642   5.048   2.069   3.771
 8915SOL     OW27643   1.254   5.694   2.295
 8915SOL    HW127644   1.275   5.698   2.393
 8915SOL    HW227645   1.243   5.787   2.259
 8916SOL     OW27646   6.149   3.494   2.242
 8916SOL    HW127647   6.215   3.458   2.176
 8916SOL    HW227648   6.196   3.516   2.327
 8917SOL     OW27649   5.684   5.796   5.258
 8917SOL    HW127650   5.586   5.813   5.265
 8917SOL    HW227651   5.706   5.707   5.298
 8918SOL     OW27652   4.642   3.726   6.061
 8918SOL    HW127653   4.556   3.756   6.102
 8918SOL    HW227654   4.635   3.729   5.961
 8919SOL     OW27655   2.488   3.523   1.396
 8919SOL    HW127656   2.452   3.477   1.315
 8919SOL    HW227657   2.479   3.622   1.385
 8920SOL     OW27658   6.874   5.230   5.684
 8920SOL    HW127659   6.807   5.293   5.722
 8920SOL    HW227660   6.828   5.151   5.645
 8921SOL     OW27661   1.300   5.563   3.625
 8921SOL    HW127662   1.270   5.582   3.719
 8921SOL    HW227663   1.224   5.527   3.572
 8922SOL     OW27664   6.469   4.060   6.963
 8922SOL    HW127665   6.497   4.153   6.988
 8922SOL    HW227666   6.551   4.005   6.942
 8923SOL     OW27667   2.099   3.929   4.335
 8923SOL    HW127668   2.123   3.924   4.432
 8923SOL    HW227669   2.119   4.020   4.300
 8924SOL     OW27670   2.497   5.501   5.198
 8924SOL    HW127671   2.442   5.550   5.267
 8924SOL    HW227672   2.436   5.448   5.139
 8925SOL     OW27673   4.643   6.120   1.587
 8925SOL    HW127674   4.549   6.150   1.605
 8925SOL    HW227675   4.660   6.035   1.637
 8926SOL     OW27676   5.160   0.973   0.016
 8926SOL    HW127677   5.089   1.005   6.976
 8926SOL    HW227678   5.248   1.015   7.014
 8927SOL     OW27679   2.528   1.586   4.419
 8927SOL    HW127680   2.594   1.643   4.369
 8927SOL    HW227681   2.435   1.610   4.391
 8928SOL     OW27682   0.538   0.402   4.431
 8928SOL    HW127683   0.452   0.355   4.413
 8928SOL    HW227684   0.613   0.352   4.388
 8929SOL     OW27685   5.300   4.363   4.080
 8929SOL    HW127686   5.329   4.458   4.072
 8929SOL    HW227687   5.380   4.303   4.084
 8930SOL     OW27688   1.022   5.093   5.199
 8930SOL    HW127689   1.122   5.087   5.187
 8930SOL    HW227690   0.999   5.078   5.295
 8931SOL     OW27691   4.861   1.121   2.091
 8931SOL    HW127692   4.850   1.148   2.186
 8931SOL    HW227693   4.952   1.146   2.059
 8932SOL     OW27694   5.865   0.618   0.205
 8932SOL    HW127695   5.828   0.641   0.115
 8932SOL    HW227696   5.795   0.569   0.257
 8933SOL     OW27697   1.307   0.247   5.353
 8933SOL    HW127698   1.386   0.213   5.403
 8933SOL    HW227699   1.223   0.223   5.401
 8934SOL     OW27700   4.337   6.793   3.521
 8934SOL    HW127701   4.256   6.767   3.574
 8934SOL    HW227702   4.419   6.757   3.567
 8935SOL     OW27703   5.554   1.889   2.467
 8935SOL    HW127704   5.489   1.919   2.536
 8935SOL    HW227705   5.614   1.819   2.505
 8936SOL     OW27706   1.762   4.031   2.738
 8936SOL    HW127707   1.743   4.027   2.836
 8936SOL    HW227708   1.841   4.090   2.722
 8937SOL     OW27709   4.239   0.589   5.113
 8937SOL    HW127710   4.268   0.532   5.037
 8937SOL    HW227711   4.164   0.649   5.083
 8938SOL     OW27712   5.642   6.578   1.394
 8938SOL    HW127713   5.658   6.488   1.434
 8938SOL    HW227714   5.719   6.603   1.336
 8939SOL     OW27715   0.334   2.947   4.398
 8939SOL    HW127716   0.398   3.020   4.373
 8939SOL    HW227717   0.241   2.984   4.396
 8940SOL     OW27718   6.526   3.393   1.581
 8940SOL    HW127719   6.603   3.331   1.594
 8940SOL    HW227720   6.464   3.387   1.659
 8941SOL     OW27721   5.555   2.394   2.873
 8941SOL    HW127722   5.575   2.411   2.969
 8941SOL    HW227723   5.622   2.442   2.816
 8942SOL     OW27724   4.773   4.364   3.882
 8942SOL    HW127725   4.714   4.443   3.897
 8942SOL    HW227726   4.816   4.337   3.968
 8943SOL     OW27727   4.824   2.534   0.705
 8943SOL    HW127728   4.779   2.467   0.765
 8943SOL    HW227729   4.788   2.524   0.612
 8944SOL     OW27730   4.419   5.524   5.224
 8944SOL    HW127731   4.345   5.481   5.277
 8944SOL    HW227732   4.394   5.619   5.204
 8945SOL     OW27733   6.263   4.081   2.102
 8945SOL    HW127734   6.184   4.019   2.106
 8945SOL    HW227735   6.233   4.175   2.121
 8946SOL     OW27736   4.500   1.589   4.569
 8946SOL    HW127737   4.422   1.601   4.631
 8946SOL    HW227738   4.581   1.563   4.621
 8947SOL     OW27739   1.923   4.380   0.815
 8947SOL    HW127740   1.942   4.365   0.718
 8947SOL    HW227741   1.824   4.373   0.831
 8948SOL     OW27742   5.663   0.550   2.888
 8948SOL    HW127743   5.750   0.501   2.879
 8948SOL    HW227744   5.651   0.610   2.809
 8949SOL     OW27745   3.236   5.926   0.486
 8949SOL    HW127746   3.279   5.919   0.396
 8949SOL    HW227747   3.285   5.867   0.550
 8950SOL     OW27748   3.341   3.731   2.590
 8950SOL    HW127749   3.363   3.734   2.493
 8950SOL    HW227750   3.424   3.748   2.643
 8951SOL     OW27751   0.428   0.651   4.512
 8951SOL    HW127752   0.469   0.565   4.483
 8951SOL    HW227753   0.329   0.645   4.505
 8952SOL     OW27754   1.860   4.498   4.404
 8952SOL    HW127755   1.933   4.554   4.443
 8952SOL    HW227756   1.822   4.544   4.324
 8953SOL     OW27757   0.842   5.010   1.336
 8953SOL    HW127758   0.870   5.082   1.272
 8953SOL    HW227759   0.777   5.048   1.402
 8954SOL     OW27760   2.007   4.218   5.416
 8954SOL    HW127761   1.975   4.130   5.450
 8954SOL    HW227762   2.027   4.279   5.493
 8955SOL     OW27763   5.590   2.932   5.634
 8955SOL    HW127764   5.545   2.843   5.629
 8955SOL    HW227765   5.521   3.003   5.650
 8956SOL     OW27766   0.854   6.061   1.133
 8956SOL    HW127767   0.853   6.142   1.193
 8956SOL    HW227768   0.913   5.991   1.174
 8957SOL     OW27769   1.467   6.907   2.494
 8957SOL    HW127770   1.517   6.820   2.498
 8957SOL    HW227771   1.517   6.971   2.435
 8958SOL     OW27772   0.390   4.168   4.787
 8958SOL    HW127773   0.450   4.127   4.719
 8958SOL    HW227774   0.388   4.110   4.869
 8959SOL     OW27775   5.626   2.296   4.052
 8959SOL    HW127776   5.708   2.307   4.108
 8959SOL    HW227777   5.586   2.386   4.034
 8960SOL     OW27778   5.443   5.150   2.826
 8960SOL    HW127779   5.509   5.223   2.843
 8960SOL    HW227780   5.481   5.063   2.858
 8961SOL     OW27781   2.764   1.789   5.049
 8961SOL    HW127782   2.840   1.808   5.111
 8961SOL    HW227783   2.758   1.691   5.032
 8962SOL     OW27784   6.354   5.916   2.281
 8962SOL    HW127785   6.406   5.934   2.198
 8962SOL    HW227786   6.272   5.864   2.258
 8963SOL     OW27787   2.971   6.500   5.976
 8963SOL    HW127788   2.908   6.429   6.008
 8963SOL    HW227789   3.048   6.456   5.929
 8964SOL     OW27790   1.797   3.147   3.609
 8964SOL    HW127791   1.787   3.199   3.693
 8964SOL    HW227792   1.828   3.054   3.631
 8965SOL     OW27793   4.046   5.746   0.530
 8965SOL    HW127794   4.127   5.688   0.530
 8965SOL    HW227795   4.029   5.781   0.438
 8966SOL     OW27796   5.470   6.767   5.725
 8966SOL    HW127797   5.468   6.671   5.698
 8966SOL    HW227798   5.484   6.824   5.644
 8967SOL     OW27799   2.942   0.180   3.294
 8967SOL    HW127800   2.925   0.105   3.359
 8967SOL    HW227801   2.862   0.240   3.291
 8968SOL     OW27802   3.553   4.896   2.480
 8968SOL    HW127803   3.454   4.892   2.497
 8968SOL    HW227804   3.569   4.932   2.388
 8969SOL     OW27805   6.776   1.315   2.756
 8969SOL    HW127806   6.753   1.244   2.689
 8969SOL    HW227807   6.692   1.356   2.792
 8970SOL     OW27808   1.767   1.328   3.511
 8970SOL    HW127809   1.788   1.264   3.585
 8970SOL    HW227810   1.850   1.379   3.487
 8971SOL     OW27811   3.025   4.019   0.830
 8971SOL    HW127812   3.040   3.946   0.896
 8971SOL    HW227813   3.024   3.981   0.737
 8972SOL     OW27814   5.303   4.063   6.510
 8972SOL    HW127815   5.245   4.127   6.461
 8972SOL    HW227816   5.257   3.975   6.518
 8973SOL     OW27817   2.581   2.156   2.892
 8973SOL    HW127818   2.664   2.210   2.884
 8973SOL    HW227819   2.505   2.205   2.850
 8974SOL     OW27820   1.951   4.180   4.118
 8974SOL    HW127821   1.886   4.192   4.193
 8974SOL    HW227822   2.044   4.184   4.154
 8975SOL     OW27823   6.911   4.386   5.941
 8975SOL    HW127824   6.854   4.420   5.867
 8975SOL    HW227825   7.008   4.394   5.915
 8976SOL     OW27826   5.734   0.514   1.903
 8976SOL    HW127827   5.820   0.485   1.860
 8976SOL    HW227828   5.731   0.481   1.997
 8977SOL     OW27829   6.909   4.708   6.494
 8977SOL    HW127830   6.840   4.738   6.428
 8977SOL    HW227831   6.907   4.608   6.501
 8978SOL     OW27832   5.950   5.657   5.771
 8978SOL    HW127833   6.050   5.648   5.774
 8978SOL    HW227834   5.910   5.569   5.745
 8979SOL     OW27835   1.917   5.158   3.940
 8979SOL    HW127836   1.864   5.216   3.878
 8979SOL    HW227837   1.912   5.195   4.033
 8980SOL     OW27838   3.721   1.132   0.389
 8980SOL    HW127839   3.719   1.032   0.390
 8980SOL    HW227840   3.636   1.167   0.350
 8981SOL     OW27841   3.840   2.152   6.912
 8981SOL    HW127842   3.752   2.105   6.905
 8981SOL    HW227843   3.826   2.251   6.905
 8982SOL     OW27844   0.033   1.305   1.955
 8982SOL    HW127845   0.006   1.266   2.043
 8982SOL    HW227846   0.006   1.401   1.951
 8983SOL     OW27847   1.809   6.772   1.961
 8983SOL    HW127848   1.866   6.777   2.043
 8983SOL    HW227849   1.824   6.854   1.905
 8984SOL     OW27850   0.009   1.655   4.658
 8984SOL    HW127851   0.072   1.603   4.601
 8984SOL    HW227852   7.023   1.611   4.747
 8985SOL     OW27853   4.904   1.208   2.356
 8985SOL    HW127854   4.828   1.269   2.379
 8985SOL    HW227855   4.953   1.183   2.439
 8986SOL     OW27856   0.211   5.839   0.221
 8986SOL    HW127857   0.256   5.796   0.299
 8986SOL    HW227858   0.149   5.773   0.178
 8987SOL     OW27859   2.607   6.512   1.712
 8987SOL    HW127860   2.616   6.439   1.780
 8987SOL    HW227861   2.662   6.591   1.742
 8988SOL     OW27862   2.607   6.989   1.073
 8988SOL    HW127863   2.609   0.056   1.117
 8988SOL    HW227864   2.561   6.997   0.984
 8989SOL     OW27865   5.790   1.681   2.539
 8989SOL    HW127866   5.820   1.776   2.536
 8989SOL    HW227867   5.770   1.649   2.446
 8990SOL     OW27868   3.494   1.302   3.030
 8990SOL    HW127869   3.398   1.310   3.058
 8990SOL    HW227870   3.504   1.335   2.936
 8991SOL     OW27871   1.152   2.594   0.775
 8991SOL    HW127872   1.220   2.602   0.703
 8991SOL    HW227873   1.064   2.627   0.741
 8992SOL     OW27874   6.366   4.617   6.129
 8992SOL    HW127875   6.421   4.602   6.047
 8992SOL    HW227876   6.294   4.548   6.134
 8993SOL     OW27877   5.383   4.022   4.288
 8993SOL    HW127878   5.288   4.043   4.310
 8993SOL    HW227879   5.388   3.982   4.196
 8994SOL     OW27880   1.473   6.438   2.612
 8994SOL    HW127881   1.487   6.508   2.682
 8994SOL    HW227882   1.389   6.387   2.632
 8995SOL     OW27883   2.165   3.798   4.107
 8995SOL    HW127884   2.114   3.712   4.113
 8995SOL    HW227885   2.151   3.851   4.191
 8996SOL     OW27886   2.127   3.730   1.385
 8996SOL    HW127887   2.056   3.784   1.341
 8996SOL    HW227888   2.106   3.721   1.482
 8997SOL     OW27889   4.361   0.880   5.308
 8997SOL    HW127890   4.434   0.928   5.357
 8997SOL    HW227891   4.376   0.889   5.209
 8998SOL     OW27892   0.802   1.504   6.311
 8998SOL    HW127893   0.817   1.602   6.324
 8998SOL    HW227894   0.708   1.480   6.338
 8999SOL     OW27895   5.231   2.596   5.532
 8999SOL    HW127896   5.302   2.663   5.509
 8999SOL    HW227897   5.167   2.588   5.455
 9000SOL     OW27898   3.817   5.032   0.814
 9000SOL    HW127899   3.788   4.986   0.898
 9000SOL    HW227900   3.781   4.983   0.734
 9001SOL     OW27901   1.768   4.617   3.408
 9001SOL    HW127902   1.753   4.686   3.337
 9001SOL    HW227903   1.864   4.588   3.406
 9002SOL     OW27904   5.182   4.140   5.808
 9002SOL    HW127905   5.261   4.089   5.774
 9002SOL    HW227906   5.208   4.192   5.889
 9003SOL     OW27907   6.260   3.153   6.706
 9003SOL    HW127908   6.203   3.231   6.680
 9003SOL    HW227909   6.295   3.167   6.799
 9004SOL     OW27910   4.554   5.431   1.011
 9004SOL    HW127911   4.529   5.468   1.100
 9004SOL    HW227912   4.644   5.464   0.984
 9005SOL     OW27913   5.336   2.977   3.605
 9005SOL    HW127914   5.280   2.990   3.686
 9005SOL    HW227915   5.425   2.941   3.631
 9006SOL     OW27916   1.803   6.902   0.948
 9006SOL    HW127917   1.881   6.840   0.963
 9006SOL    HW227918   1.814   6.950   0.861
 9007SOL     OW27919   2.138   5.962   5.083
 9007SOL    HW127920   2.171   5.956   4.989
 9007SOL    HW227921   2.038   5.965   5.082
 9008SOL     OW27922   0.719   4.606   2.738
 9008SOL    HW127923   0.725   4.538   2.810
 9008SOL    HW227924   0.746   4.695   2.774
 9009SOL     OW27925   4.077   6.165   0.015
 9009SOL    HW127926   4.057   6.166   6.939
 9009SOL    HW227927   4.159   6.220   0.032
 9010SOL     OW27928   6.945   5.516   4.866
 9010SOL    HW127929   7.001   5.449   4.915
 9010SOL    HW227930   6.974   5.521   4.771
 9011SOL     OW27931   4.333   2.349   2.350
 9011SOL    HW127932   4.405   2.415   2.328
 9011SOL    HW227933   4.272   2.340   2.271
 9012SOL     OW27934   5.443   4.982   2.381
 9012SOL    HW127935   5.396   4.955   2.466
 9012SOL    HW227936   5.525   5.034   2.404
 9013SOL     OW27937   4.651   6.514   2.754
 9013SOL    HW127938   4.630   6.592   2.813
 9013SOL    HW227939   4.709   6.545   2.678
 9014SOL     OW27940   2.156   0.374   1.284
 9014SOL    HW127941   2.152   0.422   1.197
 9014SOL    HW227942   2.102   0.425   1.352
 9015SOL     OW27943   6.215   1.920   4.796
 9015SOL    HW127944   6.278   1.845   4.819
 9015SOL    HW227945   6.230   1.949   4.702
 9016SOL     OW27946   6.833   5.701   6.509
 9016SOL    HW127947   6.898   5.737   6.575
 9016SOL    HW227948   6.876   5.694   6.419
 9017SOL     OW27949   0.094   3.892   3.080
 9017SOL    HW127950   0.186   3.932   3.083
 9017SOL    HW227951   0.026   3.960   3.106
 9018SOL     OW27952   4.084   1.903   6.178
 9018SOL    HW127953   4.165   1.885   6.122
 9018SOL    HW227954   4.107   1.893   6.275
 9019SOL     OW27955   1.494   5.206   7.006
 9019SOL    HW127956   1.527   5.256   6.925
 9019SOL    HW227957   1.411   5.157   6.983
 9020SOL     OW27958   0.929   5.012   3.943
 9020SOL    HW127959   0.972   4.930   3.981
 9020SOL    HW227960   0.838   5.024   3.984
 9021SOL     OW27961   6.027   5.415   5.350
 9021SOL    HW127962   5.982   5.358   5.282
 9021SOL    HW227963   6.028   5.366   5.438
 9022SOL     OW27964   3.014   6.520   6.758
 9022SOL    HW127965   2.939   6.537   6.694
 9022SOL    HW227966   3.054   6.430   6.740
 9023SOL     OW27967   3.256   3.252   3.713
 9023SOL    HW127968   3.222   3.183   3.776
 9023SOL    HW227969   3.341   3.220   3.670
 9024SOL     OW27970   1.271   6.989   6.316
 9024SOL    HW127971   1.192   0.026   6.302
 9024SOL    HW227972   1.336   7.001   6.242
 9025SOL     OW27973   0.259   3.617   7.020
 9025SOL    HW127974   0.313   3.543   6.978
 9025SOL    HW227975   0.298   3.640   0.086
 9026SOL     OW27976   2.912   3.298   5.490
 9026SOL    HW127977   2.963   3.337   5.413
 9026SOL    HW227978   2.925   3.354   5.571
 9027SOL     OW27979   2.361   2.459   2.412
 9027SOL    HW127980   2.399   2.376   2.453
 9027SOL    HW227981   2.425   2.497   2.346
 9028SOL     OW27982   2.547   4.752   4.489
 9028SOL    HW127983   2.642   4.780   4.503
 9028SOL    HW227984   2.525   4.674   4.548
 9029SOL     OW27985   5.847   5.247   2.510
 9029SOL    HW127986   5.846   5.179   2.437
 9029SOL    HW227987   5.775   5.315   2.493
 9030SOL     OW27988   3.782   2.091   2.218
 9030SOL    HW127989   3.742   2.146   2.145
 9030SOL    HW227990   3.876   2.119   2.234
 9031SOL     OW27991   1.980   1.339   1.044
 9031SOL    HW127992   2.048   1.329   1.117
 9031SOL    HW227993   1.977   1.256   0.989
 9032SOL     OW27994   0.879   2.792   2.216
 9032SOL    HW127995   0.821   2.873   2.212
 9032SOL    HW227996   0.824   2.713   2.245
 9033SOL     OW27997   1.301   3.844   2.244
 9033SOL    HW127998   1.387   3.826   2.292
 9033SOL    HW227999   1.260   3.928   2.280
 9034SOL     OW28000   2.075   6.578   6.807
 9034SOL    HW128001   2.057   6.484   6.777
 9034SOL    HW228002   2.059   6.640   6.730
 9035SOL     OW28003   6.893   0.663   4.578
 9035SOL    HW128004   6.956   0.737   4.556
 9035SOL    HW228005   6.889   0.598   4.502
 9036SOL     OW28006   1.018   1.359   3.788
 9036SOL    HW128007   1.096   1.354   3.725
 9036SOL    HW228008   0.986   1.267   3.809
 9037SOL     OW28009   2.836   3.764   5.909
 9037SOL    HW128010   2.741   3.773   5.938
 9037SOL    HW228011   2.844   3.691   5.841
 9038SOL     OW28012   4.600   5.698   4.963
 9038SOL    HW128013   4.524   5.762   4.958
 9038SOL    HW228014   4.656   5.719   5.042
 9039SOL     OW28015   2.344   4.479   6.648
 9039SOL    HW128016   2.290   4.510   6.569
 9039SOL    HW228017   2.346   4.551   6.717
 9040SOL     OW28018   2.676   1.881   2.021
 9040SOL    HW128019   2.632   1.800   1.983
 9040SOL    HW228020   2.737   1.854   2.095
 9041SOL     OW28021   1.928   2.977   6.202
 9041SOL    HW128022   1.991   3.036   6.253
 9041SOL    HW228023   1.945   2.988   6.104
 9042SOL     OW28024   2.020   5.613   3.147
 9042SOL    HW128025   2.111   5.652   3.157
 9042SOL    HW228026   2.006   5.542   3.217
 9043SOL     OW28027   6.981   2.303   0.319
 9043SOL    HW128028   0.017   2.368   0.271
 9043SOL    HW228029   6.905   2.276   0.259
 9044SOL     OW28030   6.835   4.393   0.298
 9044SOL    HW128031   6.814   4.313   0.354
 9044SOL    HW228032   6.928   4.386   0.263
 9045SOL     OW28033   2.512   5.131   4.027
 9045SOL    HW128034   2.486   5.227   4.018
 9045SOL    HW228035   2.457   5.088   4.098
 9046SOL     OW28036   3.695   4.377   5.954
 9046SOL    HW128037   3.603   4.360   5.920
 9046SOL    HW228038   3.698   4.366   6.053
 9047SOL     OW28039   1.000   4.419   4.528
 9047SOL    HW128040   1.025   4.420   4.431
 9047SOL    HW228041   0.954   4.333   4.550
 9048SOL     OW28042   1.811   2.004   5.216
 9048SOL    HW128043   1.739   2.049   5.164
 9048SOL    HW228044   1.877   1.963   5.152
 9049SOL     OW28045   4.943   6.722   6.458
 9049SOL    HW128046   4.990   6.736   6.371
 9049SOL    HW228047   4.887   6.803   6.479
 9050SOL     OW28048   0.069   5.334   5.550
 9050SOL    HW128049   0.146   5.345   5.613
 9050SOL    HW228050   7.010   5.311   5.602
 9051SOL     OW28051   5.565   6.709   6.055
 9051SOL    HW128052   5.575   6.802   6.021
 9051SOL    HW228053   5.550   6.710   6.153
 9052SOL     OW28054   2.976   4.936   4.808
 9052SOL    HW128055   2.902   4.880   4.770
 9052SOL    HW228056   2.946   5.031   4.815
 9053SOL     OW28057   3.143   1.653   2.621
 9053SOL    HW128058   3.088   1.728   2.658
 9053SOL    HW228059   3.239   1.681   2.618
 9054SOL     OW28060   2.124   6.919   1.205
 9054SOL    HW128061   2.095   6.832   1.244
 9054SOL    HW228062   2.194   6.903   1.136
 9055SOL     OW28063   0.685   2.901   4.806
 9055SOL    HW128064   0.663   2.806   4.784
 9055SOL    HW228065   0.611   2.960   4.773
 9056SOL     OW28066   4.542   2.510   2.284
 9056SOL    HW128067   4.580   2.593   2.325
 9056SOL    HW228068   4.567   2.506   2.188
 9057SOL     OW28069   3.464   6.078   0.036
 9057SOL    HW128070   3.509   6.006   7.006
 9057SOL    HW228071   3.499   6.168   0.007
 9058SOL     OW28072   2.531   2.375   4.629
 9058SOL    HW128073   2.534   2.456   4.688
 9058SOL    HW228074   2.493   2.400   4.540
 9059SOL     OW28075   0.128   1.249   2.460
 9059SOL    HW128076   0.128   1.342   2.422
 9059SOL    HW228077   0.221   1.222   2.483
 9060SOL     OW28078   0.374   5.235   1.359
 9060SOL    HW128079   0.316   5.316   1.351
 9060SOL    HW228080   0.445   5.252   1.428
 9061SOL     OW28081   4.954   3.862   2.637
 9061SOL    HW128082   4.983   3.798   2.565
 9061SOL    HW228083   4.900   3.813   2.705
 9062SOL     OW28084   1.127   6.002   3.155
 9062SOL    HW128085   1.032   5.998   3.122
 9062SOL    HW228086   1.127   6.038   3.249
 9063SOL     OW28087   4.927   1.286   1.436
 9063SOL    HW128088   4.997   1.289   1.507
 9063SOL    HW228089   4.914   1.191   1.406
 9064SOL     OW28090   1.431   5.721   3.354
 9064SOL    HW128091   1.341   5.717   3.397
 9064SOL    HW228092   1.424   5.768   3.266
 9065SOL     OW28093   3.809   4.234   6.690
 9065SOL    HW128094   3.799   4.145   6.645
 9065SOL    HW228095   3.889   4.233   6.749
 9066SOL     OW28096   4.465   5.208   4.195
 9066SOL    HW128097   4.560   5.231   4.212
 9066SOL    HW228098   4.427   5.270   4.126
 9067SOL     OW28099   1.964   6.925   4.518
 9067SOL    HW128100   1.916   6.910   4.605
 9067SOL    HW228101   1.967   0.000   4.499
 9068SOL     OW28102   4.150   0.246   5.963
 9068SOL    HW128103   4.232   0.276   5.915
 9068SOL    HW228104   4.125   0.314   6.031
 9069SOL     OW28105   5.333   2.603   1.992
 9069SOL    HW128106   5.354   2.606   2.090
 9069SOL    HW228107   5.355   2.692   1.951
 9070SOL     OW28108   1.563   1.004   5.624
 9070SOL    HW128109   1.532   1.058   5.703
 9070SOL    HW228110   1.547   0.907   5.642
 9071SOL     OW28111   5.500   2.551   6.639
 9071SOL    HW128112   5.488   2.602   6.724
 9071SOL    HW228113   5.410   2.533   6.598
 9072SOL     OW28114   5.885   0.101   2.373
 9072SOL    HW128115   5.931   0.126   2.287
 9072SOL    HW228116   5.837   0.181   2.409
 9073SOL     OW28117   4.323   3.084   5.569
 9073SOL    HW128118   4.234   3.088   5.614
 9073SOL    HW228119   4.387   3.030   5.625
 9074SOL     OW28120   1.990   1.113   2.666
 9074SOL    HW128121   1.924   1.184   2.691
 9074SOL    HW228122   2.027   1.070   2.748
 9075SOL     OW28123   5.477   5.927   0.389
 9075SOL    HW128124   5.564   5.889   0.422
 9075SOL    HW228125   5.452   5.882   0.303
 9076SOL     OW28126   0.852   6.681   2.653
 9076SOL    HW128127   0.910   6.711   2.729
 9076SOL    HW228128   0.840   6.756   2.589
 9077SOL     OW28129   6.209   1.984   6.924
 9077SOL    HW128130   6.180   1.902   6.876
 9077SOL    HW228131   6.136   2.052   6.922
 9078SOL     OW28132   5.353   6.862   0.169
 9078SOL    HW128133   5.359   6.925   0.247
 9078SOL    HW228134   5.425   6.793   0.177
 9079SOL     OW28135   1.095   1.578   6.122
 9079SOL    HW128136   1.009   1.533   6.146
 9079SOL    HW228137   1.079   1.645   6.050
 9080SOL     OW28138   6.100   4.153   2.463
 9080SOL    HW128139   6.104   4.252   2.462
 9080SOL    HW228140   6.182   4.116   2.506
 9081SOL     OW28141   4.982   1.442   0.670
 9081SOL    HW128142   4.983   1.430   0.769
 9081SOL    HW228143   4.893   1.477   0.642
 9082SOL     OW28144   3.562   5.363   6.137
 9082SOL    HW128145   3.554   5.374   6.236
 9082SOL    HW228146   3.517   5.278   6.109
 9083SOL     OW28147   3.548   6.828   0.786
 9083SOL    HW128148   3.616   6.755   0.777
 9083SOL    HW228149   3.594   6.917   0.786
 9084SOL     OW28150   6.849   4.107   5.046
 9084SOL    HW128151   6.945   4.081   5.048
 9084SOL    HW228152   6.827   4.149   4.958
 9085SOL     OW28153   2.976   5.053   0.172
 9085SOL    HW128154   3.019   5.127   0.225
 9085SOL    HW228155   3.045   5.006   0.118
 9086SOL     OW28156   6.801   3.215   0.320
 9086SOL    HW128157   6.853   3.300   0.313
 9086SOL    HW228158   6.805   3.181   0.414
 9087SOL     OW28159   5.291   1.569   1.592
 9087SOL    HW128160   5.289   1.534   1.685
 9087SOL    HW228161   5.383   1.559   1.555
 9088SOL     OW28162   6.081   5.768   0.239
 9088SOL    HW128163   5.994   5.728   0.210
 9088SOL    HW228164   6.086   5.863   0.208
 9089SOL     OW28165   5.211   5.845   3.622
 9089SOL    HW128166   5.279   5.794   3.570
 9089SOL    HW228167   5.232   5.943   3.617
 9090SOL     OW28168   5.152   5.926   5.764
 9090SOL    HW128169   5.250   5.912   5.747
 9090SOL    HW228170   5.128   5.889   5.854
 9091SOL     OW28171   2.793   2.001   1.787
 9091SOL    HW128172   2.730   2.076   1.766
 9091SOL    HW228173   2.767   1.958   1.873
 9092SOL     OW28174   2.260   1.400   5.197
 9092SOL    HW128175   2.169   1.427   5.165
 9092SOL    HW228176   2.251   1.333   5.270
 9093SOL     OW28177   2.372   3.594   1.023
 9093SOL    HW128178   2.450   3.550   0.977
 9093SOL    HW228179   2.386   3.693   1.025
 9094SOL     OW28180   6.644   3.609   0.783
 9094SOL    HW128181   6.582   3.635   0.858
 9094SOL    HW228182   6.664   3.511   0.788
 9095SOL     OW28183   2.070   3.000   0.014
 9095SOL    HW128184   1.987   3.031   6.991
 9095SOL    HW228185   2.150   3.026   6.982
 9096SOL     OW28186   6.027   3.465   2.988
 9096SOL    HW128187   6.082   3.402   2.934
 9096SOL    HW228188   5.999   3.421   3.073
 9097SOL     OW28189   6.265   5.697   5.961
 9097SOL    HW128190   6.290   5.711   6.057
 9097SOL    HW228191   6.236   5.602   5.948
 9098SOL     OW28192   3.608   4.013   4.444
 9098SOL    HW128193   3.693   4.038   4.397
 9098SOL    HW228194   3.599   3.914   4.447
 9099SOL     OW28195   2.095   2.069   0.447
 9099SOL    HW128196   2.153   2.147   0.424
 9099SOL    HW228197   2.011   2.074   0.393
 9100SOL     OW28198   1.345   2.762   7.003
 9100SOL    HW128199   1.306   2.695   0.043
 9100SOL    HW228200   1.338   2.853   0.020
 9101SOL     OW28201   2.092   1.808   0.011
 9101SOL    HW128202   2.132   1.847   0.094
 9101SOL    HW228203   1.994   1.830   0.008
 9102SOL     OW28204   5.272   6.512   2.709
 9102SOL    HW128205   5.214   6.435   2.737
 9102SOL    HW228206   5.282   6.576   2.784
 9103SOL     OW28207   0.372   4.348   6.321
 9103SOL    HW128208   0.452   4.358   6.380
 9103SOL    HW228209   0.312   4.428   6.331
 9104SOL     OW28210   5.004   0.334   2.022
 9104SOL    HW128211   5.020   0.240   2.052
 9104SOL    HW228212   5.056   0.397   2.080
 9105SOL     OW28213   2.665   1.359   5.955
 9105SOL    HW128214   2.595   1.407   6.008
 9105SOL    HW228215   2.685   1.410   5.872
 9106SOL     OW28216   6.607   5.420   1.558
 9106SOL    HW128217   6.642   5.492   1.618
 9106SOL    HW228218   6.508   5.414   1.568
 9107SOL     OW28219   4.710   0.385   0.990
 9107SOL    HW128220   4.694   0.483   0.978
 9107SOL    HW228221   4.676   0.336   0.910
 9108SOL     OW28222   4.169   5.946   6.672
 9108SOL    HW128223   4.233   5.996   6.731
 9108SOL    HW228224   4.075   5.974   6.693
 9109SOL     OW28225   2.844   1.439   4.581
 9109SOL    HW128226   2.921   1.450   4.644
 9109SOL    HW228227   2.871   1.381   4.505
 9110SOL     OW28228   1.380   2.850   3.035
 9110SOL    HW128229   1.423   2.784   3.097
 9110SOL    HW228230   1.296   2.884   3.077
 9111SOL     OW28231   4.254   4.077   1.707
 9111SOL    HW128232   4.159   4.077   1.738
 9111SOL    HW228233   4.309   4.137   1.766
 9112SOL     OW28234   0.641   4.815   2.054
 9112SOL    HW128235   0.704   4.741   2.031
 9112SOL    HW228236   0.688   4.903   2.044
 9113SOL     OW28237   3.284   5.958   0.202
 9113SOL    HW128238   3.351   6.000   0.141
 9113SOL    HW228239   3.201   6.014   0.204
 9114SOL     OW28240   2.614   4.264   1.699
 9114SOL    HW128241   2.536   4.272   1.761
 9114SOL    HW228242   2.656   4.354   1.686
 9115SOL     OW28243   1.745   3.995   3.977
 9115SOL    HW128244   1.791   4.048   4.048
 9115SOL    HW228245   1.724   4.055   3.900
 9116SOL     OW28246   1.982   1.419   5.632
 9116SOL    HW128247   2.049   1.478   5.677
 9116SOL    HW228248   1.934   1.364   5.700
 9117SOL     OW28249   6.530   2.486   6.729
 9117SOL    HW128250   6.553   2.470   6.825
 9117SOL    HW228251   6.586   2.428   6.670
 9118SOL     OW28252   0.115   5.514   1.822
 9118SOL    HW128253   0.051   5.577   1.866
 9118SOL    HW228254   0.152   5.451   1.890
 9119SOL     OW28255   6.110   6.979   1.314
 9119SOL    HW128256   6.066   0.023   1.255
 9119SOL    HW228257   6.164   6.915   1.258
 9120SOL     OW28258   5.775   1.094   6.424
 9120SOL    HW128259   5.829   1.178   6.414
 9120SOL    HW228260   5.787   1.057   6.515
 9121SOL     OW28261   1.922   0.991   6.945
 9121SOL    HW128262   1.939   1.055   6.870
 9121SOL    HW228263   1.841   0.937   6.924
 9122SOL     OW28264   0.606   2.615   0.745
 9122SOL    HW128265   0.564   2.666   0.820
 9122SOL    HW228266   0.578   2.519   0.750
 9123SOL     OW28267   2.855   5.784   6.790
 9123SOL    HW128268   2.762   5.763   6.818
 9123SOL    HW228269   2.873   5.882   6.803
 9124SOL     OW28270   5.811   4.781   5.757
 9124SOL    HW128271   5.848   4.689   5.747
 9124SOL    HW228272   5.831   4.815   5.849
 9125SOL     OW28273   4.628   6.254   2.667
 9125SOL    HW128274   4.614   6.350   2.693
 9125SOL    HW228275   4.619   6.197   2.748
 9126SOL     OW28276   5.944   0.587   2.213
 9126SOL    HW128277   6.040   0.562   2.204
 9126SOL    HW228278   5.886   0.506   2.202
 9127SOL     OW28279   5.115   0.147   6.784
 9127SOL    HW128280   5.139   0.055   6.816
 9127SOL    HW228281   5.164   0.165   6.699
 9128SOL     OW28282   4.697   2.445   4.829
 9128SOL    HW128283   4.753   2.366   4.856
 9128SOL    HW228284   4.746   2.529   4.853
 9129SOL     OW28285   1.950   1.844   6.403
 9129SOL    HW128286   1.970   1.921   6.344
 9129SOL    HW228287   1.852   1.839   6.420
 9130SOL     OW28288   6.131   5.405   0.798
 9130SOL    HW128289   6.226   5.422   0.775
 9130SOL    HW228290   6.072   5.472   0.753
 9131SOL     OW28291   0.462   4.151   3.996
 9131SOL    HW128292   0.476   4.078   3.930
 9131SOL    HW228293   0.546   4.167   4.048
 9132SOL     OW28294   0.851   3.185   4.531
 9132SOL    HW128295   0.851   3.283   4.510
 9132SOL    HW228296   0.943   3.156   4.554
 9133SOL     OW28297   1.464   4.319   1.080
 9133SOL    HW128298   1.419   4.287   1.163
 9133SOL    HW228299   1.560   4.290   1.082
 9134SOL     OW28300   3.272   5.268   5.825
 9134SOL    HW128301   3.261   5.305   5.917
 9134SOL    HW228302   3.192   5.213   5.802
 9135SOL     OW28303   0.028   6.084   4.080
 9135SOL    HW128304   0.073   6.044   4.160
 9135SOL    HW228305   6.973   6.028   4.053
 9136SOL     OW28306   4.432   4.775   5.910
 9136SOL    HW128307   4.350   4.814   5.952
 9136SOL    HW228308   4.409   4.690   5.863
 9137SOL     OW28309   4.025   1.268   2.395
 9137SOL    HW128310   4.006   1.297   2.301
 9137SOL    HW228311   3.966   1.190   2.418
 9138SOL     OW28312   3.927   5.084   0.504
 9138SOL    HW128313   3.857   5.153   0.519
 9138SOL    HW228314   4.006   5.125   0.458
 9139SOL     OW28315   2.822   1.159   5.572
 9139SOL    HW128316   2.788   1.170   5.479
 9139SOL    HW228317   2.903   1.217   5.585
 9140SOL     OW28318   6.901   2.337   3.702
 9140SOL    HW128319   6.964   2.261   3.690
 9140SOL    HW228320   6.931   2.394   3.779
 9141SOL     OW28321   5.788   0.652   5.657
 9141SOL    HW128322   5.755   0.725   5.717
 9141SOL    HW228323   5.737   0.654   5.571
 9142SOL     OW28324   0.496   4.059   6.363
 9142SOL    HW128325   0.397   4.051   6.356
 9142SOL    HW228326   0.520   4.148   6.403
 9143SOL     OW28327   5.164   3.792   0.688
 9143SOL    HW128328   5.206   3.711   0.646
 9143SOL    HW228329   5.084   3.819   0.636
 9144SOL     OW28330   1.960   4.553   5.051
 9144SOL    HW128331   1.980   4.485   5.121
 9144SOL    HW228332   1.969   4.510   4.961
 9145SOL     OW28333   0.197   4.450   6.682
 9145SOL    HW128334   0.171   4.463   6.778
 9145SOL    HW228335   0.207   4.352   6.664
 9146SOL     OW28336   6.592   2.128   1.715
 9146SOL    HW128337   6.674   2.151   1.768
 9146SOL    HW228338   6.617   2.064   1.642
 9147SOL     OW28339   4.429   6.248   5.910
 9147SOL    HW128340   4.332   6.233   5.931
 9147SOL    HW228341   4.476   6.160   5.904
 9148SOL     OW28342   4.056   6.050   3.097
 9148SOL    HW128343   4.078   6.039   3.000
 9148SOL    HW228344   4.141   6.054   3.150
 9149SOL     OW28345   5.758   3.480   3.973
 9149SOL    HW128346   5.690   3.507   3.905
 9149SOL    HW228347   5.814   3.558   3.998
 9150SOL     OW28348   4.995   1.207   3.177
 9150SOL    HW128349   4.924   1.157   3.127
 9150SOL    HW228350   4.990   1.304   3.156
 9151SOL     OW28351   1.463   3.767   2.460
 9151SOL    HW128352   1.440   3.670   2.457
 9151SOL    HW228353   1.561   3.778   2.473
 9152SOL     OW28354   2.569   5.747   2.531
 9152SOL    HW128355   2.602   5.841   2.533
 9152SOL    HW228356   2.471   5.746   2.548
 9153SOL     OW28357   1.699   3.290   6.078
 9153SOL    HW128358   1.654   3.203   6.056
 9153SOL    HW228359   1.648   3.338   6.149
 9154SOL     OW28360   2.262   5.921   0.607
 9154SOL    HW128361   2.324   5.906   0.683
 9154SOL    HW228362   2.207   5.839   0.592
 9155SOL     OW28363   1.537   4.129   0.304
 9155SOL    HW128364   1.522   4.032   0.320
 9155SOL    HW228365   1.518   4.151   0.209
 9156SOL     OW28366   4.921   2.815   1.556
 9156SOL    HW128367   4.906   2.858   1.645
 9156SOL    HW228368   5.009   2.767   1.557
 9157SOL     OW28369   5.444   3.807   5.488
 9157SOL    HW128370   5.381   3.734   5.462
 9157SOL    HW228371   5.420   3.891   5.440
 9158SOL     OW28372   0.716   4.098   3.507
 9158SOL    HW128373   0.801   4.049   3.531
 9158SOL    HW228374   0.637   4.042   3.533
 9159SOL     OW28375   6.909   4.387   3.145
 9159SOL    HW128376   6.891   4.360   3.239
 9159SOL    HW228377   6.970   4.467   3.145
 9160SOL     OW28378   6.638   6.702   6.587
 9160SOL    HW128379   6.651   6.793   6.628
 9160SOL    HW228380   6.678   6.633   6.647
 9161SOL     OW28381   5.151   3.767   4.277
 9161SOL    HW128382   5.066   3.730   4.241
 9161SOL    HW228383   5.135   3.860   4.312
 9162SOL     OW28384   4.895   2.303   2.578
 9162SOL    HW128385   4.866   2.269   2.667
 9162SOL    HW228386   4.822   2.290   2.511
 9163SOL     OW28387   2.925   1.995   3.755
 9163SOL    HW128388   2.833   2.027   3.776
 9163SOL    HW228389   2.979   1.992   3.839
 9164SOL     OW28390   3.175   7.009   0.642
 9164SOL    HW128391   3.176   0.040   0.558
 9164SOL    HW228392   3.206   6.916   0.622
 9165SOL     OW28393   5.599   6.507   0.376
 9165SOL    HW128394   5.590   6.512   0.475
 9165SOL    HW228395   5.696   6.503   0.352
 9166SOL     OW28396   3.077   5.451   1.199
 9166SOL    HW128397   3.135   5.478   1.122
 9166SOL    HW228398   3.014   5.525   1.221
 9167SOL     OW28399   1.258   4.188   4.846
 9167SOL    HW128400   1.258   4.266   4.784
 9167SOL    HW228401   1.341   4.134   4.831
 9168SOL     OW28402   2.396   0.444   6.560
 9168SOL    HW128403   2.467   0.508   6.588
 9168SOL    HW228404   2.411   0.356   6.604
 9169SOL     OW28405   6.971   0.095   3.565
 9169SOL    HW128406   7.003   0.062   3.654
 9169SOL    HW228407   0.006   0.171   3.535
 9170SOL     OW28408   6.423   6.014   6.963
 9170SOL    HW128409   6.388   5.928   7.000
 9170SOL    HW228410   6.515   6.000   6.927
 9171SOL     OW28411   2.453   5.755   6.369
 9171SOL    HW128412   2.545   5.749   6.406
 9171SOL    HW228413   2.431   5.671   6.319
 9172SOL     OW28414   2.785   1.945   4.127
 9172SOL    HW128415   2.704   1.992   4.162
 9172SOL    HW228416   2.860   2.010   4.116
 9173SOL     OW28417   0.530   5.375   4.709
 9173SOL    HW128418   0.615   5.356   4.660
 9173SOL    HW228419   0.548   5.374   4.808
 9174SOL     OW28420   0.610   5.047   0.677
 9174SOL    HW128421   0.704   5.079   0.693
 9174SOL    HW228422   0.556   5.062   0.760
 9175SOL     OW28423   1.460   6.510   5.448
 9175SOL    HW128424   1.374   6.548   5.414
 9175SOL    HW228425   1.467   6.415   5.418
 9176SOL     OW28426   2.345   0.512   5.767
 9176SOL    HW128427   2.399   0.525   5.683
 9176SOL    HW228428   2.404   0.519   5.846
 9177SOL     OW28429   0.816   5.245   4.134
 9177SOL    HW128430   0.897   5.254   4.191
 9177SOL    HW228431   0.792   5.149   4.124
 9178SOL     OW28432   2.647   4.757   0.201
 9178SOL    HW128433   2.635   4.673   0.149
 9178SOL    HW228434   2.706   4.740   0.280
 9179SOL     OW28435   3.297   4.952   4.442
 9179SOL    HW128436   3.390   4.916   4.435
 9179SOL    HW228437   3.285   4.997   4.531
 9180SOL     OW28438   4.882   2.045   3.125
 9180SOL    HW128439   4.948   2.116   3.098
 9180SOL    HW228440   4.795   2.089   3.149
 9181SOL     OW28441   4.274   1.325   2.378
 9181SOL    HW128442   4.312   1.326   2.471
 9181SOL    HW228443   4.185   1.280   2.379
 9182SOL     OW28444   1.325   6.805   1.574
 9182SOL    HW128445   1.379   6.731   1.614
 9182SOL    HW228446   1.311   6.877   1.642
 9183SOL     OW28447   5.243   6.005   0.038
 9183SOL    HW128448   5.170   6.048   7.007
 9183SOL    HW228449   5.208   5.921   0.080
 9184SOL     OW28450   5.073   0.161   0.359
 9184SOL    HW128451   5.087   0.253   0.395
 9184SOL    HW228452   5.013   0.109   0.421
 9185SOL     OW28453   3.938   1.352   5.250
 9185SOL    HW128454   3.986   1.379   5.166
 9185SOL    HW228455   3.950   1.422   5.320
 9186SOL     OW28456   5.512   0.484   6.437
 9186SOL    HW128457   5.492   0.575   6.400
 9186SOL    HW228458   5.609   0.478   6.461
 9187SOL     OW28459   2.295   6.040   2.344
 9187SOL    HW128460   2.209   5.989   2.354
 9187SOL    HW228461   2.310   6.096   2.425
 9188SOL     OW28462   2.431   5.895   1.144
 9188SOL    HW128463   2.518   5.932   1.110
 9188SOL    HW228464   2.383   5.965   1.197
 9189SOL     OW28465   5.425   5.370   2.303
 9189SOL    HW128466   5.362   5.309   2.351
 9189SOL    HW228467   5.502   5.392   2.363
 9190SOL     OW28468   1.769   5.286   0.379
 9190SOL    HW128469   1.699   5.321   0.316
 9190SOL    HW228470   1.806   5.200   0.343
 9191SOL     OW28471   6.996   0.480   6.233
 9191SOL    HW128472   7.018   0.558   6.175
 9191SOL    HW228473   7.005   0.506   6.329
 9192SOL     OW28474   6.890   4.146   4.019
 9192SOL    HW128475   6.902   4.166   4.116
 9192SOL    HW228476   6.914   4.227   3.966
 9193SOL     OW28477   2.705   3.155   6.779
 9193SOL    HW128478   2.681   3.252   6.772
 9193SOL    HW228479   2.802   3.143   6.759
 9194SOL     OW28480   4.027   0.331   3.964
 9194SOL    HW128481   4.095   0.367   3.899
 9194SOL    HW228482   3.971   0.405   3.999
 9195SOL     OW28483   1.755   1.707   3.697
 9195SOL    HW128484   1.709   1.708   3.608
 9195SOL    HW228485   1.786   1.614   3.717
 9196SOL     OW28486   4.936   2.523   5.189
 9196SOL    HW128487   4.890   2.469   5.261
 9196SOL    HW228488   4.983   2.600   5.231
 9197SOL     OW28489   2.245   3.612   1.652
 9197SOL    HW128490   2.256   3.711   1.644
 9197SOL    HW228491   2.201   3.590   1.739
 9198SOL     OW28492   6.984   5.081   4.136
 9198SOL    HW128493   7.020   5.172   4.159
 9198SOL    HW228494   0.019   5.011   4.179
 9199SOL     OW28495   6.236   4.516   4.883
 9199SOL    HW128496   6.270   4.605   4.912
 9199SOL    HW228497   6.144   4.525   4.846
 9200SOL     OW28498   2.676   6.954   0.644
 9200SOL    HW128499   2.678   6.854   0.634
 9200SOL    HW228500   2.767   6.986   0.670
 9201SOL     OW28501   1.636   4.293   0.477
 9201SOL    HW128502   1.587   4.234   0.414
 9201SOL    HW228503   1.701   4.238   0.530
 9202SOL     OW28504   2.250   0.511   3.096
 9202SOL    HW128505   2.158   0.552   3.095
 9202SOL    HW228506   2.276   0.487   3.002
 9203SOL     OW28507   6.964   6.810   0.783
 9203SOL    HW128508   6.865   6.825   0.785
 9203SOL    HW228509   6.986   6.723   0.828
 9204SOL     OW28510   5.224   1.035   5.784
 9204SOL    HW128511   5.130   1.043   5.751
 9204SOL    HW228512   5.232   1.079   5.874
 9205SOL     OW28513   6.990   4.496   1.960
 9205SOL    HW128514   0.057   4.525   1.927
 9205SOL    HW228515   6.919   4.542   1.908
 9206SOL     OW28516   3.518   5.614   0.595
 9206SOL    HW128517   3.499   5.516   0.585
 9206SOL    HW228518   3.612   5.633   0.567
 9207SOL     OW28519   4.771   5.599   6.526
 9207SOL    HW128520   4.746   5.639   6.438
 9207SOL    HW228521   4.723   5.648   6.599
 9208SOL     OW28522   1.161   3.609   2.930
 9208SOL    HW128523   1.199   3.636   3.018
 9208SOL    HW228524   1.189   3.674   2.860
 9209SOL     OW28525   3.072   0.688   6.443
 9209SOL    HW128526   3.116   0.666   6.356
 9209SOL    HW228527   3.084   0.786   6.462
 9210SOL     OW28528   0.075   0.528   3.316
 9210SOL    HW128529   0.036   0.443   3.279
 9210SOL    HW228530   0.108   0.585   3.241
 9211SOL     OW28531   0.795   1.395   2.615
 9211SOL    HW128532   0.798   1.479   2.560
 9211SOL    HW228533   0.844   1.322   2.567
 9212SOL     OW28534   3.313   5.149   4.239
 9212SOL    HW128535   3.231   5.135   4.184
 9212SOL    HW228536   3.313   5.085   4.316
 9213SOL     OW28537   5.846   4.073   6.617
 9213SOL    HW128538   5.923   4.010   6.619
 9213SOL    HW228539   5.785   4.053   6.694
 9214SOL     OW28540   0.181   5.093   0.986
 9214SOL    HW128541   0.225   5.016   1.033
 9214SOL    HW228542   0.124   5.142   1.051
 9215SOL     OW28543   0.766   1.061   0.934
 9215SOL    HW128544   0.723   1.001   1.001
 9215SOL    HW228545   0.805   1.007   0.860
 9216SOL     OW28546   2.357   6.798   3.088
 9216SOL    HW128547   2.403   6.743   3.158
 9216SOL    HW228548   2.423   6.825   3.018
 9217SOL     OW28549   1.119   2.425   6.420
 9217SOL    HW128550   1.191   2.410   6.352
 9217SOL    HW228551   1.129   2.516   6.461
 9218SOL     OW28552   2.682   0.427   0.685
 9218SOL    HW128553   2.629   0.511   0.673
 9218SOL    HW228554   2.667   0.391   0.777
 9219SOL     OW28555   0.291   2.083   0.672
 9219SOL    HW128556   0.333   2.010   0.618
 9219SOL    HW228557   0.290   2.168   0.619
 9220SOL     OW28558   3.374   6.509   1.876
 9220SOL    HW128559   3.366   6.603   1.842
 9220SOL    HW228560   3.390   6.510   1.974
 9221SOL     OW28561   3.038   5.673   3.990
 9221SOL    HW128562   3.101   5.662   4.067
 9221SOL    HW228563   2.948   5.639   4.015
 9222SOL     OW28564   2.617   2.455   5.894
 9222SOL    HW128565   2.521   2.454   5.867
 9222SOL    HW228566   2.663   2.375   5.855
 9223SOL     OW28567   2.776   2.924   5.332
 9223SOL    HW128568   2.728   2.867   5.400
 9223SOL    HW228569   2.709   2.980   5.284
 9224SOL     OW28570   2.451   5.065   5.303
 9224SOL    HW128571   2.456   4.972   5.268
 9224SOL    HW228572   2.439   5.129   5.226
 9225SOL     OW28573   2.057   6.299   6.967
 9225SOL    HW128574   1.975   6.336   7.009
 9225SOL    HW228575   2.034   6.261   6.877
 9226SOL     OW28576   4.057   6.643   1.202
 9226SOL    HW128577   4.127   6.578   1.170
 9226SOL    HW228578   3.992   6.596   1.261
 9227SOL     OW28579   1.675   5.932   2.239
 9227SOL    HW128580   1.697   6.028   2.221
 9227SOL    HW228581   1.736   5.896   2.309
 9228SOL     OW28582   0.823   6.828   6.348
 9228SOL    HW128583   0.723   6.829   6.358
 9228SOL    HW228584   0.855   6.922   6.333
 9229SOL     OW28585   0.660   5.189   5.375
 9229SOL    HW128586   0.654   5.224   5.469
 9229SOL    HW228587   0.742   5.134   5.364
 9230SOL     OW28588   5.579   0.095   4.002
 9230SOL    HW128589   5.580   0.148   3.918
 9230SOL    HW228590   5.600   0.155   4.080
 9231SOL     OW28591   1.843   2.736   3.271
 9231SOL    HW128592   1.934   2.752   3.232
 9231SOL    HW228593   1.784   2.697   3.201
 9232SOL     OW28594   3.936   4.506   1.260
 9232SOL    HW128595   3.916   4.425   1.315
 9232SOL    HW228596   3.978   4.576   1.318
 9233SOL     OW28597   5.038   4.534   0.922
 9233SOL    HW128598   5.040   4.576   0.832
 9233SOL    HW228599   4.954   4.559   0.970
 9234SOL     OW28600   2.523   6.011   3.749
 9234SOL    HW128601   2.434   6.011   3.794
 9234SOL    HW228602   2.594   6.031   3.817
 9235SOL     OW28603   0.743   2.191   3.509
 9235SOL    HW128604   0.662   2.249   3.504
 9235SOL    HW228605   0.798   2.204   3.427
 9236SOL     OW28606   3.722   2.798   5.664
 9236SOL    HW128607   3.645   2.749   5.623
 9236SOL    HW228608   3.728   2.776   5.762
 9237SOL     OW28609   1.810   3.321   3.831
 9237SOL    HW128610   1.745   3.385   3.873
 9237SOL    HW228611   1.893   3.370   3.806
 9238SOL     OW28612   4.374   3.123   6.335
 9238SOL    HW128613   4.395   3.122   6.433
 9238SOL    HW228614   4.393   3.033   6.296
 9239SOL     OW28615   1.831   4.138   0.627
 9239SOL    HW128616   1.849   4.108   0.721
 9239SOL    HW228617   1.913   4.182   0.590
 9240SOL     OW28618   4.628   1.039   2.404
 9240SOL    HW128619   4.721   1.073   2.391
 9240SOL    HW228620   4.570   1.072   2.330
 9241SOL     OW28621   0.560   5.748   6.385
 9241SOL    HW128622   0.601   5.666   6.424
 9241SOL    HW228623   0.632   5.810   6.355
 9242SOL     OW28624   6.834   6.261   1.842
 9242SOL    HW128625   6.922   6.303   1.822
 9242SOL    HW228626   6.801   6.213   1.761
 9243SOL     OW28627   6.167   6.128   4.758
 9243SOL    HW128628   6.136   6.096   4.669
 9243SOL    HW228629   6.109   6.089   4.830
 9244SOL     OW28630   3.811   4.952   6.662
 9244SOL    HW128631   3.831   5.002   6.578
 9244SOL    HW228632   3.758   4.870   6.641
 9245SOL     OW28633   0.540   5.538   1.174
 9245SOL    HW128634   0.447   5.543   1.212
 9245SOL    HW228635   0.538   5.572   1.080
 9246SOL     OW28636   7.005   4.928   4.529
 9246SOL    HW128637   0.023   4.992   4.595
 9246SOL    HW228638   6.961   4.853   4.578
 9247SOL     OW28639   1.878   6.526   2.348
 9247SOL    HW128640   1.920   6.443   2.385
 9247SOL    HW228641   1.877   6.597   2.419
 9248SOL     OW28642   3.069   1.346   6.466
 9248SOL    HW128643   3.123   1.285   6.408
 9248SOL    HW228644   2.976   1.311   6.474
 9249SOL     OW28645   4.816   0.254   3.896
 9249SOL    HW128646   4.720   0.279   3.894
 9249SOL    HW228647   4.866   0.318   3.955
 9250SOL     OW28648   5.245   3.687   3.949
 9250SOL    HW128649   5.149   3.704   3.930
 9250SOL    HW228650   5.257   3.593   3.982
 9251SOL     OW28651   3.246   2.127   2.448
 9251SOL    HW128652   3.294   2.041   2.465
 9251SOL    HW228653   3.235   2.177   2.534
 9252SOL     OW28654   1.402   0.177   4.587
 9252SOL    HW128655   1.415   0.263   4.537
 9252SOL    HW228656   1.391   0.102   4.523
 9253SOL     OW28657   1.339   6.631   5.747
 9253SOL    HW128658   1.363   6.654   5.841
 9253SOL    HW228659   1.341   6.714   5.691
 9254SOL     OW28660   5.636   3.586   1.566
 9254SOL    HW128661   5.645   3.510   1.501
 9254SOL    HW228662   5.570   3.652   1.530
 9255SOL     OW28663   6.214   4.356   0.644
 9255SOL    HW128664   6.129   4.405   0.659
 9255SOL    HW228665   6.196   4.258   0.634
 9256SOL     OW28666   4.389   4.820   1.639
 9256SOL    HW128667   4.465   4.775   1.685
 9256SOL    HW228668   4.302   4.789   1.678
 9257SOL     OW28669   1.136   4.073   1.173
 9257SOL    HW128670   1.037   4.072   1.185
 9257SOL    HW228671   1.160   4.031   1.086
 9258SOL     OW28672   4.057   3.777   3.792
 9258SOL    HW128673   4.006   3.807   3.711
 9258SOL    HW228674   4.151   3.753   3.766
 9259SOL     OW28675   0.767   2.798   6.996
 9259SOL    HW128676   0.791   2.892   7.021
 9259SOL    HW228677   0.837   2.736   0.008
 9260SOL     OW28678   5.400   3.617   6.420
 9260SOL    HW128679   5.436   3.526   6.401
 9260SOL    HW228680   5.322   3.610   6.483
 9261SOL     OW28681   4.653   0.065   6.866
 9261SOL    HW128682   4.640   0.164   6.852
 9261SOL    HW228683   4.744   0.049   6.903
 9262SOL     OW28684   4.524   1.244   5.173
 9262SOL    HW128685   4.504   1.170   5.110
 9262SOL    HW228686   4.615   1.231   5.213
 9263SOL     OW28687   5.286   3.811   1.736
 9263SOL    HW128688   5.284   3.871   1.817
 9263SOL    HW228689   5.268   3.717   1.764
 9264SOL     OW28690   6.481   3.521   0.207
 9264SOL    HW128691   6.494   3.612   0.249
 9264SOL    HW228692   6.564   3.496   0.158
 9265SOL     OW28693   1.895   0.687   5.845
 9265SOL    HW128694   1.822   0.716   5.907
 9265SOL    HW228695   1.974   0.747   5.857
 9266SOL     OW28696   2.013   6.320   2.443
 9266SOL    HW128697   2.105   6.334   2.407
 9266SOL    HW228698   1.996   6.222   2.454
 9267SOL     OW28699   2.419   4.784   5.213
 9267SOL    HW128700   2.440   4.687   5.230
 9267SOL    HW228701   2.370   4.792   5.126
 9268SOL     OW28702   0.057   0.910   2.745
 9268SOL    HW128703   0.095   1.001   2.759
 9268SOL    HW228704   0.090   0.848   2.817
 9269SOL     OW28705   3.642   1.267   5.821
 9269SOL    HW128706   3.723   1.326   5.814
 9269SOL    HW228707   3.599   1.259   5.731
 9270SOL     OW28708   0.250   6.989   5.810
 9270SOL    HW128709   0.233   0.064   5.802
 9270SOL    HW228710   0.342   6.967   5.777
 9271SOL     OW28711   1.228   4.926   0.157
 9271SOL    HW128712   1.318   4.941   0.200
 9271SOL    HW228713   1.184   4.847   0.199
 9272SOL     OW28714   2.654   4.545   6.573
 9272SOL    HW128715   2.583   4.499   6.626
 9272SOL    HW228716   2.647   4.644   6.587
 9273SOL     OW28717   3.759   6.286   5.283
 9273SOL    HW128718   3.820   6.311   5.208
 9273SOL    HW228719   3.805   6.221   5.343
 9274SOL     OW28720   5.978   1.845   0.501
 9274SOL    HW128721   6.069   1.827   0.540
 9274SOL    HW228722   5.917   1.878   0.574
 9275SOL     OW28723   1.308   0.292   6.406
 9275SOL    HW128724   1.386   0.238   6.372
 9275SOL    HW228725   1.297   0.277   6.504
 9276SOL     OW28726   4.234   6.509   4.752
 9276SOL    HW128727   4.192   6.580   4.695
 9276SOL    HW228728   4.184   6.423   4.739
 9277SOL     OW28729   3.393   2.952   0.675
 9277SOL    HW128730   3.444   2.866   0.674
 9277SOL    HW228731   3.300   2.937   0.641
 9278SOL     OW28732   1.290   2.247   1.855
 9278SOL    HW128733   1.358   2.173   1.855
 9278SOL    HW228734   1.262   2.266   1.761
 9279SOL     OW28735   3.279   0.088   1.737
 9279SOL    HW128736   3.296   0.039   1.823
 9279SOL    HW228737   3.323   0.039   1.662
 9280SOL     OW28738   2.152   0.297   3.248
 9280SOL    HW128739   2.179   0.364   3.179
 9280SOL    HW228740   2.192   0.208   3.226
 9281SOL     OW28741   1.904   2.322   0.145
 9281SOL    HW128742   1.805   2.337   0.145
 9281SOL    HW228743   1.923   2.228   0.115
 9282SOL     OW28744   4.817   2.022   6.268
 9282SOL    HW128745   4.720   2.044   6.260
 9282SOL    HW228746   4.828   1.935   6.316
 9283SOL     OW28747   5.720   2.527   2.356
 9283SOL    HW128748   5.620   2.539   2.354
 9283SOL    HW228749   5.764   2.606   2.314
 9284SOL     OW28750   3.009   3.397   1.532
 9284SOL    HW128751   3.059   3.317   1.498
 9284SOL    HW228752   2.944   3.428   1.462
 9285SOL     OW28753   6.063   2.936   6.763
 9285SOL    HW128754   5.988   2.977   6.815
 9285SOL    HW228755   6.142   2.998   6.762
 9286SOL     OW28756   5.423   6.541   5.557
 9286SOL    HW128757   5.347   6.478   5.568
 9286SOL    HW228758   5.502   6.508   5.609
 9287SOL     OW28759   3.213   6.491   1.637
 9287SOL    HW128760   3.261   6.526   1.557
 9287SOL    HW228761   3.278   6.472   1.711
 9288SOL     OW28762   5.043   2.612   6.089
 9288SOL    HW128763   5.115   2.639   6.025
 9288SOL    HW228764   4.965   2.673   6.080
 9289SOL     OW28765   4.872   3.185   3.012
 9289SOL    HW128766   4.891   3.166   3.108
 9289SOL    HW228767   4.774   3.193   2.998
 9290SOL     OW28768   4.762   2.240   5.151
 9290SOL    HW128769   4.757   2.141   5.153
 9290SOL    HW228770   4.825   2.269   5.079
 9291SOL     OW28771   0.805   1.914   5.116
 9291SOL    HW128772   0.828   1.992   5.172
 9291SOL    HW228773   0.766   1.945   5.029
 9292SOL     OW28774   6.852   3.737   6.758
 9292SOL    HW128775   6.766   3.692   6.733
 9292SOL    HW228776   6.919   3.724   6.686
 9293SOL     OW28777   5.461   4.240   6.777
 9293SOL    HW128778   5.515   4.294   6.840
 9293SOL    HW228779   5.509   4.156   6.754
 9294SOL     OW28780   6.140   6.298   0.054
 9294SOL    HW128781   6.140   6.398   0.052
 9294SOL    HW228782   6.217   6.265   0.108
 9295SOL     OW28783   4.715   1.833   3.782
 9295SOL    HW128784   4.644   1.791   3.725
 9295SOL    HW228785   4.680   1.918   3.821
 9296SOL     OW28786   6.065   0.311   5.635
 9296SOL    HW128787   6.135   0.247   5.669
 9296SOL    HW228788   6.109   0.390   5.594
 9297SOL     OW28789   0.710   0.986   0.546
 9297SOL    HW128790   0.780   0.942   0.489
 9297SOL    HW228791   0.652   1.043   0.488
 9298SOL     OW28792   1.055   6.394   4.654
 9298SOL    HW128793   1.125   6.329   4.684
 9298SOL    HW228794   1.039   6.384   4.556
 9299SOL     OW28795   2.198   2.951   4.465
 9299SOL    HW128796   2.207   2.866   4.412
 9299SOL    HW228797   2.243   2.938   4.554
 9300SOL     OW28798   5.681   4.464   4.579
 9300SOL    HW128799   5.658   4.390   4.641
 9300SOL    HW228800   5.635   4.451   4.491
 9301SOL     OW28801   5.466   4.188   2.639
 9301SOL    HW128802   5.501   4.112   2.694
 9301SOL    HW228803   5.435   4.261   2.699
 9302SOL     OW28804   2.240   1.836   2.307
 9302SOL    HW128805   2.317   1.899   2.298
 9302SOL    HW228806   2.155   1.888   2.317
 9303SOL     OW28807   3.680   5.290   0.470
 9303SOL    HW128808   3.696   5.315   0.565
 9303SOL    HW228809   3.585   5.260   0.459
 9304SOL     OW28810   4.105   3.184   1.012
 9304SOL    HW128811   4.109   3.090   1.045
 9304SOL    HW228812   4.173   3.197   0.940
 9305SOL     OW28813   5.558   2.884   2.321
 9305SOL    HW128814   5.512   2.796   2.309
 9305SOL    HW228815   5.643   2.870   2.373
 9306SOL     OW28816   6.816   4.355   3.835
 9306SOL    HW128817   6.733   4.394   3.875
 9306SOL    HW228818   6.795   4.320   3.743
 9307SOL     OW28819   1.884   1.318   6.542
 9307SOL    HW128820   1.940   1.277   6.614
 9307SOL    HW228821   1.868   1.415   6.564
 9308SOL     OW28822   6.647   3.059   1.008
 9308SOL    HW128823   6.694   2.989   1.063
 9308SOL    HW228824   6.618   3.134   1.067
 9309SOL     OW28825   4.487   3.404   6.908
 9309SOL    HW128826   4.443   3.467   6.845
 9309SOL    HW228827   4.565   3.448   6.952
 9310SOL     OW28828   3.897   5.894   0.332
 9310SOL    HW128829   3.940   5.859   0.249
 9310SOL    HW228830   3.911   5.992   0.338
 9311SOL     OW28831   5.985   2.828   0.730
 9311SOL    HW128832   5.974   2.905   0.794
 9311SOL    HW228833   5.982   2.862   0.637
 9312SOL     OW28834   1.129   4.473   6.053
 9312SOL    HW128835   1.181   4.495   6.136
 9312SOL    HW228836   1.047   4.530   6.048
 9313SOL     OW28837   6.360   6.671   2.782
 9313SOL    HW128838   6.338   6.748   2.722
 9313SOL    HW228839   6.391   6.594   2.727
 9314SOL     OW28840   5.138   4.693   0.128
 9314SOL    HW128841   5.135   4.792   0.125
 9314SOL    HW228842   5.045   4.657   0.119
 9315SOL     OW28843   6.850   6.459   6.455
 9315SOL    HW128844   6.773   6.433   6.397
 9315SOL    HW228845   6.817   6.478   6.548
 9316SOL     OW28846   3.567   5.915   4.016
 9316SOL    HW128847   3.611   6.004   4.029
 9316SOL    HW228848   3.638   5.845   4.009
 9317SOL     OW28849   6.247   4.287   4.257
 9317SOL    HW128850   6.161   4.323   4.219
 9317SOL    HW228851   6.277   4.345   4.332
 9318SOL     OW28852   6.664   6.994   6.570
 9318SOL    HW128853   6.666   0.071   6.566
 9318SOL    HW228854   6.695   6.957   6.483
 9319SOL     OW28855   0.053   3.182   4.833
 9319SOL    HW128856   0.049   3.102   4.773
 9319SOL    HW228857   0.068   3.153   4.927
 9320SOL     OW28858   4.848   2.749   6.502
 9320SOL    HW128859   4.803   2.838   6.489
 9320SOL    HW228860   4.943   2.756   6.473
 9321SOL     OW28861   6.793   5.658   3.432
 9321SOL    HW128862   6.693   5.658   3.431
 9321SOL    HW228863   6.826   5.565   3.416
 9322SOL     OW28864   0.761   6.264   0.077
 9322SOL    HW128865   0.796   6.312   0.157
 9322SOL    HW228866   0.803   6.173   0.071
 9323SOL     OW28867   7.002   1.556   5.824
 9323SOL    HW128868   0.033   1.523   5.901
 9323SOL    HW228869   6.944   1.632   5.854
 9324SOL     OW28870   1.646   5.906   6.964
 9324SOL    HW128871   1.688   5.850   6.893
 9324SOL    HW228872   1.677   6.001   6.955
 9325SOL     OW28873   6.534   2.625   0.907
 9325SOL    HW128874   6.548   2.585   0.998
 9325SOL    HW228875   6.459   2.692   0.912
 9326SOL     OW28876   2.456   6.286   1.178
 9326SOL    HW128877   2.515   6.239   1.243
 9326SOL    HW228878   2.428   6.222   1.106
 9327SOL     OW28879   4.057   1.170   3.202
 9327SOL    HW128880   3.978   1.169   3.141
 9327SOL    HW228881   4.049   1.097   3.269
 9328SOL     OW28882   3.202   0.815   2.169
 9328SOL    HW128883   3.115   0.789   2.128
 9328SOL    HW228884   3.195   0.908   2.205
 9329SOL     OW28885   1.407   3.618   1.618
 9329SOL    HW128886   1.452   3.570   1.543
 9329SOL    HW228887   1.468   3.620   1.698
 9330SOL     OW28888   5.647   0.430   0.272
 9330SOL    HW128889   5.680   0.423   0.366
 9330SOL    HW228890   5.559   0.477   0.271
 9331SOL     OW28891   0.865   1.088   6.834
 9331SOL    HW128892   0.913   1.000   6.834
 9331SOL    HW228893   0.790   1.085   6.900
 9332SOL     OW28894   3.560   3.734   4.398
 9332SOL    HW128895   3.510   3.679   4.464
 9332SOL    HW228896   3.615   3.675   4.340
 9333SOL     OW28897   5.769   5.453   0.896
 9333SOL    HW128898   5.729   5.374   0.942
 9333SOL    HW228899   5.823   5.423   0.818
 9334SOL     OW28900   3.125   7.000   4.920
 9334SOL    HW128901   3.055   6.955   4.975
 9334SOL    HW228902   3.097   6.998   4.823
 9335SOL     OW28903   0.961   0.833   0.875
 9335SOL    HW128904   1.050   0.805   0.839
 9335SOL    HW228905   0.969   0.854   0.972
 9336SOL     OW28906   3.628   6.647   5.615
 9336SOL    HW128907   3.592   6.695   5.695
 9336SOL    HW228908   3.715   6.687   5.587
 9337SOL     OW28909   5.064   0.179   2.955
 9337SOL    HW128910   5.137   0.246   2.963
 9337SOL    HW228911   5.101   0.093   2.919
 9338SOL     OW28912   3.806   0.376   1.393
 9338SOL    HW128913   3.835   0.351   1.485
 9338SOL    HW228914   3.756   0.463   1.396
 9339SOL     OW28915   4.438   6.019   1.130
 9339SOL    HW128916   4.463   6.102   1.081
 9339SOL    HW228917   4.517   5.959   1.137
 9340SOL     OW28918   5.799   3.549   0.546
 9340SOL    HW128919   5.876   3.589   0.497
 9340SOL    HW228920   5.795   3.451   0.528
 9341SOL     OW28921   0.018   5.187   5.894
 9341SOL    HW128922   6.995   5.212   5.809
 9341SOL    HW228923   7.016   5.252   5.966
 9342SOL     OW28924   1.154   5.959   5.842
 9342SOL    HW128925   1.094   5.885   5.812
 9342SOL    HW228926   1.148   5.968   5.942
 9343SOL     OW28927   6.500   5.554   4.632
 9343SOL    HW128928   6.582   5.527   4.681
 9343SOL    HW228929   6.524   5.583   4.539
 9344SOL     OW28930   4.901   6.754   1.508
 9344SOL    HW128931   4.880   6.658   1.487
 9344SOL    HW228932   4.821   6.810   1.491
 9345SOL     OW28933   6.857   2.828   0.647
 9345SOL    HW128934   6.788   2.886   0.691
 9345SOL    HW228935   6.910   2.780   0.717
 9346SOL     OW28936   6.059   0.412   0.106
 9346SOL    HW128937   5.992   0.484   0.127
 9346SOL    HW228938   6.014   0.339   0.056
 9347SOL     OW28939   1.562   6.416   1.913
 9347SOL    HW128940   1.625   6.340   1.925
 9347SOL    HW228941   1.613   6.498   1.886
 9348SOL     OW28942   3.052   4.721   6.933
 9348SOL    HW128943   2.960   4.753   6.908
 9348SOL    HW228944   3.109   4.800   6.957
 9349SOL     OW28945   1.952   6.465   2.681
 9349SOL    HW128946   1.897   6.549   2.677
 9349SOL    HW228947   1.944   6.416   2.594
 9350SOL     OW28948   0.660   2.804   5.715
 9350SOL    HW128949   0.633   2.883   5.770
 9350SOL    HW228950   0.582   2.743   5.705
 9351SOL     OW28951   2.770   1.266   6.942
 9351SOL    HW128952   2.736   1.352   6.905
 9351SOL    HW228953   2.816   1.283   0.006
 9352SOL     OW28954   2.686   4.594   5.640
 9352SOL    HW128955   2.611   4.605   5.575
 9352SOL    HW228956   2.662   4.636   5.727
 9353SOL     OW28957   6.265   0.410   0.982
 9353SOL    HW128958   6.270   0.312   0.962
 9353SOL    HW228959   6.356   0.450   0.977
 9354SOL     OW28960   0.863   1.668   6.676
 9354SOL    HW128961   0.781   1.725   6.680
 9354SOL    HW228962   0.869   1.623   6.587
 9355SOL     OW28963   0.524   1.943   5.739
 9355SOL    HW128964   0.596   2.009   5.721
 9355SOL    HW228965   0.532   1.867   5.674
 9356SOL     OW28966   5.353   6.917   3.186
 9356SOL    HW128967   5.323   7.003   3.229
 9356SOL    HW228968   5.340   6.842   3.250
 9357SOL     OW28969   1.077   1.827   6.730
 9357SOL    HW128970   1.006   1.762   6.703
 9357SOL    HW228971   1.041   1.886   6.803
 9358SOL     OW28972   0.428   3.011   1.480
 9358SOL    HW128973   0.480   3.043   1.559
 9358SOL    HW228974   0.487   2.955   1.422
 9359SOL     OW28975   0.925   0.002   5.223
 9359SOL    HW128976   0.876   0.016   5.309
 9359SOL    HW228977   0.863   6.983   5.156
 9360SOL     OW28978   0.998   0.301   5.734
 9360SOL    HW128979   0.970   0.396   5.729
 9360SOL    HW228980   1.004   0.273   5.830
 9361SOL     OW28981   2.321   6.078   3.969
 9361SOL    HW128982   2.304   6.162   4.022
 9361SOL    HW228983   2.332   6.001   4.031
 9362SOL     OW28984   1.968   0.248   1.694
 9362SOL    HW128985   1.969   0.177   1.623
 9362SOL    HW228986   2.061   0.276   1.715
 9363SOL     OW28987   1.813   5.124   2.668
 9363SOL    HW128988   1.805   5.025   2.676
 9363SOL    HW228989   1.854   5.161   2.750
 9364SOL     OW28990   1.432   2.726   1.181
 9364SOL    HW128991   1.416   2.695   1.087
 9364SOL    HW228992   1.450   2.825   1.181
 9365SOL     OW28993   3.124   1.268   4.590
 9365SOL    HW128994   3.066   1.227   4.661
 9365SOL    HW228995   3.195   1.204   4.563
 9366SOL     OW28996   4.351   5.890   2.197
 9366SOL    HW128997   4.310   5.805   2.164
 9366SOL    HW228998   4.280   5.949   2.235
 9367SOL     OW28999   6.888   0.831   1.656
 9367SOL    HW129000   6.888   0.732   1.658
 9367SOL    HW229001   6.895   0.862   1.561
 9368SOL     OW29002   2.856   0.405   3.049
 9368SOL    HW129003   2.842   0.436   3.143
 9368SOL    HW229004   2.826   0.310   3.040
 9369SOL     OW29005   3.307   5.106   0.281
 9369SOL    HW129006   3.318   5.056   0.367
 9369SOL    HW229007   3.391   5.156   0.261
 9370SOL     OW29008   4.622   2.017   4.756
 9370SOL    HW129009   4.691   2.087   4.740
 9370SOL    HW229010   4.587   1.983   4.668
 9371SOL     OW29011   4.220   5.267   1.060
 9371SOL    HW129012   4.301   5.208   1.062
 9371SOL    HW229013   4.146   5.220   1.012
 9372SOL     OW29014   4.338   6.092   1.610
 9372SOL    HW129015   4.376   6.030   1.679
 9372SOL    HW229016   4.327   6.183   1.649
 9373SOL     OW29017   6.991   2.676   0.857
 9373SOL    HW129018   6.974   2.697   0.953
 9373SOL    HW229019   0.063   2.644   0.846
 9374SOL     OW29020   0.576   5.704   5.600
 9374SOL    HW129021   0.500   5.746   5.551
 9374SOL    HW229022   0.653   5.767   5.604
 9375SOL     OW29023   0.664   1.166   0.031
 9375SOL    HW129024   0.604   1.091   0.057
 9375SOL    HW229025   0.609   1.244   0.001
 9376SOL     OW29026   2.381   3.996   1.421
 9376SOL    HW129027   2.476   4.026   1.427
 9376SOL    HW229028   2.359   3.975   1.325
 9377SOL     OW29029   1.472   1.006   3.127
 9377SOL    HW129030   1.390   0.996   3.183
 9377SOL    HW229031   1.498   1.103   3.122
 9378SOL     OW29032   3.902   1.339   4.849
 9378SOL    HW129033   3.829   1.270   4.852
 9378SOL    HW229034   3.861   1.430   4.846
 9379SOL     OW29035   5.169   6.755   4.198
 9379SOL    HW129036   5.127   6.707   4.275
 9379SOL    HW229037   5.109   6.747   4.118
 9380SOL     OW29038   5.561   5.369   0.040
 9380SOL    HW129039   5.597   5.288   7.018
 9380SOL    HW229040   5.584   5.366   0.138
 9381SOL     OW29041   5.676   1.646   5.153
 9381SOL    HW129042   5.689   1.711   5.078
 9381SOL    HW229043   5.683   1.553   5.117
 9382SOL     OW29044   3.065   5.087   5.733
 9382SOL    HW129045   3.072   4.988   5.745
 9382SOL    HW229046   2.970   5.111   5.712
 9383SOL     OW29047   5.894   4.032   2.835
 9383SOL    HW129048   5.989   4.006   2.851
 9383SOL    HW229049   5.852   3.969   2.770
 9384SOL     OW29050   3.402   0.528   1.625
 9384SOL    HW129051   3.314   0.576   1.621
 9384SOL    HW229052   3.452   0.556   1.707
 9385SOL     OW29053   4.783   1.668   3.988
 9385SOL    HW129054   4.764   1.721   3.906
 9385SOL    HW229055   4.698   1.647   4.036
 9386SOL     OW29056   4.880   5.887   0.541
 9386SOL    HW129057   4.946   5.955   0.513
 9386SOL    HW229058   4.901   5.799   0.497
 9387SOL     OW29059   2.803   1.619   0.318
 9387SOL    HW129060   2.789   1.631   0.220
 9387SOL    HW229061   2.885   1.668   0.347
 9388SOL     OW29062   2.607   0.111   5.341
 9388SOL    HW129063   2.586   0.195   5.291
 9388SOL    HW229064   2.541   0.041   5.317
 9389SOL     OW29065   2.147   4.687   2.019
 9389SOL    HW129066   2.217   4.621   1.991
 9389SOL    HW229067   2.057   4.652   1.993
 9390SOL     OW29068   5.109   5.111   4.351
 9390SOL    HW129069   5.117   5.033   4.288
 9390SOL    HW229070   5.198   5.131   4.391
 9391SOL     OW29071   1.485   3.827   4.492
 9391SOL    HW129072   1.509   3.737   4.453
 9391SOL    HW229073   1.568   3.871   4.526
 9392SOL     OW29074   5.151   4.663   2.954
 9392SOL    HW129075   5.099   4.604   3.015
 9392SOL    HW229076   5.249   4.651   2.972
 9393SOL     OW29077   2.189   6.200   6.059
 9393SOL    HW129078   2.258   6.136   6.024
 9393SOL    HW229079   2.137   6.157   6.132
 9394SOL     OW29080   3.788   0.854   0.453
 9394SOL    HW129081   3.713   0.790   0.438
 9394SOL    HW229082   3.871   0.819   0.410
 9395SOL     OW29083   1.623   1.874   1.116
 9395SOL    HW129084   1.533   1.917   1.111
 9395SOL    HW229085   1.619   1.782   1.077
 9396SOL     OW29086   0.632   0.259   6.214
 9396SOL    HW129087   0.582   0.182   6.175
 9396SOL    HW229088   0.574   0.306   6.281
 9397SOL     OW29089   3.455   1.121   4.822
 9397SOL    HW129090   3.551   1.149   4.824
 9397SOL    HW229091   3.397   1.203   4.818
 9398SOL     OW29092   0.669   1.987   6.953
 9398SOL    HW129093   0.691   2.070   7.005
 9398SOL    HW229094   0.744   1.922   6.963
 9399SOL     OW29095   1.020   2.389   4.720
 9399SOL    HW129096   1.024   2.410   4.622
 9399SOL    HW229097   1.053   2.468   4.772
 9400SOL     OW29098   5.870   1.534   1.247
 9400SOL    HW129099   5.911   1.577   1.167
 9400SOL    HW229100   5.939   1.481   1.295
 9401SOL     OW29101   0.287   2.256   3.986
 9401SOL    HW129102   0.280   2.249   3.886
 9401SOL    HW229103   0.256   2.346   4.015
 9402SOL     OW29104   2.308   6.848   4.293
 9402SOL    HW129105   2.405   6.833   4.272
 9402SOL    HW229106   2.288   6.812   4.384
 9403SOL     OW29107   5.295   2.188   1.341
 9403SOL    HW129108   5.263   2.119   1.276
 9403SOL    HW229109   5.216   2.227   1.389
 9404SOL     OW29110   2.463   2.125   1.068
 9404SOL    HW129111   2.456   2.219   1.101
 9404SOL    HW229112   2.371   2.088   1.054
 9405SOL     OW29113   6.250   5.700   5.581
 9405SOL    HW129114   6.159   5.699   5.541
 9405SOL    HW229115   6.279   5.606   5.602
 9406SOL     OW29116   0.838   2.489   0.115
 9406SOL    HW129117   0.838   2.392   0.136
 9406SOL    HW229118   0.877   2.503   0.023
 9407SOL     OW29119   2.350   5.173   4.687
 9407SOL    HW129120   2.403   5.105   4.637
 9407SOL    HW229121   2.409   5.223   4.750
 9408SOL     OW29122   6.539   3.883   4.334
 9408SOL    HW129123   6.561   3.878   4.236
 9408SOL    HW229124   6.441   3.871   4.347
 9409SOL     OW29125   6.322   5.304   1.767
 9409SOL    HW129126   6.253   5.342   1.829
 9409SOL    HW229127   6.307   5.338   1.675
 9410SOL     OW29128   3.762   0.998   0.676
 9410SOL    HW129129   3.806   1.087   0.673
 9410SOL    HW229130   3.785   0.947   0.592
 9411SOL     OW29131   3.027   3.844   3.681
 9411SOL    HW129132   2.958   3.914   3.660
 9411SOL    HW229133   3.107   3.888   3.720
 9412SOL     OW29134   4.781   6.609   1.730
 9412SOL    HW129135   4.686   6.636   1.749
 9412SOL    HW229136   4.831   6.688   1.694
 9413SOL     OW29137   4.693   4.134   3.045
 9413SOL    HW129138   4.728   4.040   3.036
 9413SOL    HW229139   4.633   4.154   2.967
 9414SOL     OW29140   2.475   2.627   3.162
 9414SOL    HW129141   2.573   2.637   3.150
 9414SOL    HW229142   2.431   2.716   3.156
 9415SOL     OW29143   5.456   0.723   1.960
 9415SOL    HW129144   5.541   0.758   2.001
 9415SOL    HW229145   5.382   0.728   2.027
 9416SOL     OW29146   5.560   5.221   5.543
 9416SOL    HW129147   5.470   5.210   5.501
 9416SOL    HW229148   5.549   5.249   5.639
 9417SOL     OW29149   3.347   5.308   2.657
 9417SOL    HW129150   3.284   5.330   2.732
 9417SOL    HW229151   3.306   5.335   2.570
 9418SOL     OW29152   3.087   1.864   4.930
 9418SOL    HW129153   3.067   1.809   5.012
 9418SOL    HW229154   3.001   1.885   4.883
 9419SOL     OW29155   1.975   2.820   6.540
 9419SOL    HW129156   1.939   2.726   6.538
 9419SOL    HW229157   1.934   2.873   6.466
 9420SOL     OW29158   5.874   4.520   5.764
 9420SOL    HW129159   5.793   4.464   5.746
 9420SOL    HW229160   5.916   4.491   5.850
 9421SOL     OW29161   3.775   6.559   0.054
 9421SOL    HW129162   3.869   6.560   0.021
 9421SOL    HW229163   3.716   6.607   7.012
 9422SOL     OW29164   2.504   6.260   5.803
 9422SOL    HW129165   2.563   6.182   5.786
 9422SOL    HW229166   2.409   6.233   5.795
 9423SOL     OW29167   4.406   4.681   2.229
 9423SOL    HW129168   4.353   4.655   2.148
 9423SOL    HW229169   4.489   4.626   2.233
 9424SOL     OW29170   6.557   0.215   4.027
 9424SOL    HW129171   6.587   0.295   4.079
 9424SOL    HW229172   6.460   0.199   4.043
 9425SOL     OW29173   0.100   3.933   1.009
 9425SOL    HW129174   0.099   3.921   0.910
 9425SOL    HW229175   0.130   4.026   1.031
 9426SOL     OW29176   5.426   3.171   5.989
 9426SOL    HW129177   5.395   3.077   5.973
 9426SOL    HW229178   5.458   3.181   6.083
 9427SOL     OW29179   4.700   4.181   2.721
 9427SOL    HW129180   4.660   4.148   2.635
 9427SOL    HW229181   4.798   4.165   2.720
 9428SOL     OW29182   1.249   6.144   5.639
 9428SOL    HW129183   1.205   6.234   5.638
 9428SOL    HW229184   1.219   6.094   5.720
 9429SOL     OW29185   2.435   2.327   3.947
 9429SOL    HW129186   2.469   2.398   3.885
 9429SOL    HW229187   2.429   2.240   3.897
 9430SOL     OW29188   1.476   1.747   4.061
 9430SOL    HW129189   1.448   1.738   3.966
 9430SOL    HW229190   1.473   1.658   4.106
 9431SOL     OW29191   0.891   4.729   5.516
 9431SOL    HW129192   0.956   4.656   5.497
 9431SOL    HW229193   0.801   4.704   5.479
 9432SOL     OW29194   6.821   1.045   4.415
 9432SOL    HW129195   6.808   1.056   4.317
 9432SOL    HW229196   6.875   1.122   4.451
 9433SOL     OW29197   4.654   5.217   1.905
 9433SOL    HW129198   4.732   5.171   1.947
 9433SOL    HW229199   4.579   5.152   1.894
 9434SOL     OW29200   4.031   5.741   3.826
 9434SOL    HW129201   3.979   5.699   3.751
 9434SOL    HW229202   4.003   5.836   3.836
 9435SOL     OW29203   6.182   3.560   0.907
 9435SOL    HW129204   6.250   3.537   0.977
 9435SOL    HW229205   6.091   3.563   0.949
 9436SOL     OW29206   2.760   0.774   3.238
 9436SOL    HW129207   2.849   0.732   3.219
 9436SOL    HW229208   2.699   0.758   3.160
 9437SOL     OW29209   5.408   0.597   5.038
 9437SOL    HW129210   5.434   0.538   5.114
 9437SOL    HW229211   5.314   0.629   5.052
 9438SOL     OW29212   4.795   0.280   2.668
 9438SOL    HW129213   4.833   0.264   2.759
 9438SOL    HW229214   4.735   0.204   2.643
 9439SOL     OW29215   1.846   4.003   0.860
 9439SOL    HW129216   1.886   3.911   0.853
 9439SOL    HW229217   1.883   4.049   0.940
 9440SOL     OW29218   1.689   5.297   3.792
 9440SOL    HW129219   1.707   5.395   3.794
 9440SOL    HW229220   1.633   5.271   3.871
 9441SOL     OW29221   0.308   6.508   4.513
 9441SOL    HW129222   0.373   6.433   4.499
 9441SOL    HW229223   0.232   6.476   4.569
 9442SOL     OW29224   5.551   3.162   1.040
 9442SOL    HW129225   5.525   3.255   1.011
 9442SOL    HW229226   5.651   3.158   1.050
 9443SOL     OW29227   2.055   4.466   1.757
 9443SOL    HW129228   2.134   4.405   1.754
 9443SOL    HW229229   2.075   4.550   1.706
 9444SOL     OW29230   1.991   4.601   6.525
 9444SOL    HW129231   1.940   4.551   6.454
 9444SOL    HW229232   1.946   4.588   6.613
 9445SOL     OW29233   0.196   1.664   4.243
 9445SOL    HW129234   0.120   1.728   4.232
 9445SOL    HW229235   0.267   1.684   4.177
 9446SOL     OW29236   6.369   4.114   5.147
 9446SOL    HW129237   6.307   4.106   5.226
 9446SOL    HW229238   6.460   4.138   5.179
 9447SOL     OW29239   4.997   4.704   1.987
 9447SOL    HW129240   4.913   4.715   2.041
 9447SOL    HW229241   4.989   4.621   1.931
 9448SOL     OW29242   6.229   2.231   6.616
 9448SOL    HW129243   6.314   2.189   6.647
 9448SOL    HW229244   6.176   2.263   6.694
 9449SOL     OW29245   5.350   0.094   2.208
 9449SOL    HW129246   5.431   0.048   2.243
 9449SOL    HW229247   5.349   0.189   2.239
 9450SOL     OW29248   1.196   7.021   3.371
 9450SOL    HW129249   1.276   6.966   3.395
 9450SOL    HW229250   1.208   0.092   3.404
 9451SOL     OW29251   3.965   5.227   0.052
 9451SOL    HW129252   3.949   5.194   6.981
 9451SOL    HW229253   3.930   5.159   0.116
 9452SOL     OW29254   6.195   4.101   6.542
 9452SOL    HW129255   6.136   4.033   6.584
 9452SOL    HW229256   6.260   4.135   6.611
 9453SOL     OW29257   5.312   4.659   1.457
 9453SOL    HW129258   5.225   4.701   1.431
 9453SOL    HW229259   5.304   4.620   1.549
 9454SOL     OW29260   6.447   4.908   0.515
 9454SOL    HW129261   6.375   4.915   0.446
 9454SOL    HW229262   6.536   4.899   0.469
 9455SOL     OW29263   4.247   0.792   1.393
 9455SOL    HW129264   4.226   0.887   1.418
 9455SOL    HW229265   4.164   0.748   1.357
 9456SOL     OW29266   6.352   2.049   3.149
 9456SOL    HW129267   6.373   2.097   3.064
 9456SOL    HW229268   6.395   2.095   3.226
 9457SOL     OW29269   6.508   6.065   4.506
 9457SOL    HW129270   6.444   6.142   4.511
 9457SOL    HW229271   6.561   6.071   4.421
 9458SOL     OW29272   5.748   4.288   0.272
 9458SOL    HW129273   5.677   4.226   0.237
 9458SOL    HW229274   5.828   4.283   0.212
 9459SOL     OW29275   4.650   4.296   4.921
 9459SOL    HW129276   4.693   4.331   5.004
 9459SOL    HW229277   4.553   4.320   4.921
 9460SOL     OW29278   1.072   2.980   2.141
 9460SOL    HW129279   0.998   2.929   2.184
 9460SOL    HW229280   1.116   3.039   2.208
 9461SOL     OW29281   1.747   1.235   1.731
 9461SOL    HW129282   1.787   1.316   1.688
 9461SOL    HW229283   1.816   1.163   1.736
 9462SOL     OW29284   6.464   1.086   5.242
 9462SOL    HW129285   6.455   1.168   5.185
 9462SOL    HW229286   6.556   1.083   5.283
 9463SOL     OW29287   6.746   4.107   0.402
 9463SOL    HW129288   6.677   4.081   0.469
 9463SOL    HW229289   6.713   4.085   0.310
 9464SOL     OW29290   1.434   0.569   1.272
 9464SOL    HW129291   1.457   0.655   1.317
 9464SOL    HW229292   1.514   0.533   1.226
 9465SOL     OW29293   6.936   5.683   0.336
 9465SOL    HW129294   6.917   5.720   0.427
 9465SOL    HW229295   6.956   5.586   0.343
 9466SOL     OW29296   4.435   3.591   5.323
 9466SOL    HW129297   4.417   3.503   5.367
 9466SOL    HW229298   4.524   3.588   5.279
 9467SOL     OW29299   1.191   3.362   0.887
 9467SOL    HW129300   1.185   3.263   0.893
 9467SOL    HW229301   1.131   3.396   0.814
 9468SOL     OW29302   5.560   1.234   0.862
 9468SOL    HW129303   5.614   1.316   0.879
 9468SOL    HW229304   5.470   1.243   0.905
 9469SOL     OW29305   6.770   6.847   1.474
 9469SOL    HW129306   6.701   6.916   1.450
 9469SOL    HW229307   6.802   6.800   1.392
 9470SOL     OW29308   3.972   3.114   0.656
 9470SOL    HW129309   3.881   3.073   0.662
 9470SOL    HW229310   4.028   3.081   0.731
 9471SOL     OW29311   6.362   2.584   4.872
 9471SOL    HW129312   6.284   2.599   4.932
 9471SOL    HW229313   6.421   2.665   4.872
 9472SOL     OW29314   1.562   3.770   5.472
 9472SOL    HW129315   1.495   3.829   5.517
 9472SOL    HW229316   1.624   3.731   5.540
 9473SOL     OW29317   2.770   3.305   1.154
 9473SOL    HW129318   2.806   3.380   1.210
 9473SOL    HW229319   2.846   3.259   1.107
 9474SOL     OW29320   5.439   4.304   0.850
 9474SOL    HW129321   5.474   4.384   0.897
 9474SOL    HW229322   5.510   4.234   0.846
 9475SOL     OW29323   4.961   3.943   5.658
 9475SOL    HW129324   4.877   3.965   5.608
 9475SOL    HW229325   5.018   4.024   5.665
 9476SOL     OW29326   4.348   3.740   1.397
 9476SOL    HW129327   4.403   3.686   1.332
 9476SOL    HW229328   4.255   3.750   1.362
 9477SOL     OW29329   2.675   4.405   1.006
 9477SOL    HW129330   2.616   4.484   0.986
 9477SOL    HW229331   2.619   4.330   1.042
 9478SOL     OW29332   5.592   3.966   6.433
 9478SOL    HW129333   5.675   3.964   6.488
 9478SOL    HW229334   5.523   4.023   6.478
 9479SOL     OW29335   4.692   0.863   2.097
 9479SOL    HW129336   4.751   0.788   2.127
 9479SOL    HW229337   4.743   0.949   2.100
 9480SOL     OW29338   5.778   0.709   0.502
 9480SOL    HW129339   5.790   0.610   0.511
 9480SOL    HW229340   5.861   0.755   0.532
 9481SOL     OW29341   4.717   0.295   3.379
 9481SOL    HW129342   4.781   0.272   3.306
 9481SOL    HW229343   4.736   0.387   3.413
 9482SOL     OW29344   6.216   5.447   5.912
 9482SOL    HW129345   6.246   5.378   5.846
 9482SOL    HW229346   6.174   5.402   5.991
 9483SOL     OW29347   6.531   6.640   6.934
 9483SOL    HW129348   6.481   6.597   6.859
 9483SOL    HW229349   6.468   6.696   6.988
 9484SOL     OW29350   3.090   5.663   4.458
 9484SOL    HW129351   3.039   5.698   4.537
 9484SOL    HW229352   3.087   5.563   4.458
 9485SOL     OW29353   0.128   1.729   5.648
 9485SOL    HW129354   0.100   1.654   5.707
 9485SOL    HW229355   0.179   1.693   5.570
 9486SOL     OW29356   6.322   5.227   6.784
 9486SOL    HW129357   6.328   5.251   6.881
 9486SOL    HW229358   6.394   5.275   6.733
 9487SOL     OW29359   3.670   3.557   3.560
 9487SOL    HW129360   3.588   3.504   3.578
 9487SOL    HW229361   3.644   3.649   3.530
 9488SOL     OW29362   1.582   0.818   1.359
 9488SOL    HW129363   1.679   0.806   1.380
 9488SOL    HW229364   1.566   0.912   1.329
 9489SOL     OW29365   5.656   3.676   0.202
 9489SOL    HW129366   5.613   3.591   0.233
 9489SOL    HW229367   5.609   3.708   0.119
 9490SOL     OW29368   5.634   3.817   5.204
 9490SOL    HW129369   5.608   3.885   5.272
 9490SOL    HW229370   5.568   3.742   5.203
 9491SOL     OW29371   5.880   0.422   2.799
 9491SOL    HW129372   5.883   0.328   2.832
 9491SOL    HW229373   5.924   0.428   2.709
 9492SOL     OW29374   4.910   2.650   3.568
 9492SOL    HW129375   4.810   2.655   3.559
 9492SOL    HW229376   4.949   2.739   3.543
 9493SOL     OW29377   3.740   6.073   1.232
 9493SOL    HW129378   3.766   6.119   1.317
 9493SOL    HW229379   3.641   6.080   1.219
 9494SOL     OW29380   5.448   2.391   1.849
 9494SOL    HW129381   5.394   2.475   1.860
 9494SOL    HW229382   5.391   2.312   1.873
 9495SOL     OW29383   5.727   2.866   0.962
 9495SOL    HW129384   5.687   2.823   0.881
 9495SOL    HW229385   5.807   2.920   0.936
 9496SOL     OW29386   5.927   2.500   1.200
 9496SOL    HW129387   5.936   2.559   1.120
 9496SOL    HW229388   5.841   2.520   1.246
 9497SOL     OW29389   4.527   5.085   4.935
 9497SOL    HW129390   4.431   5.115   4.934
 9497SOL    HW229391   4.569   5.103   4.846
 9498SOL     OW29392   0.742   5.751   4.566
 9498SOL    HW129393   0.658   5.706   4.599
 9498SOL    HW229394   0.755   5.730   4.470
 9499SOL     OW29395   5.707   6.089   4.336
 9499SOL    HW129396   5.631   6.079   4.400
 9499SOL    HW229397   5.686   6.040   4.251
 9500SOL     OW29398   2.945   1.303   0.686
 9500SOL    HW129399   2.921   1.399   0.697
 9500SOL    HW229400   2.879   1.259   0.625
 9501SOL     OW29401   2.104   4.012   5.231
 9501SOL    HW129402   2.075   4.104   5.255
 9501SOL    HW229403   2.180   4.017   5.166
 9502SOL     OW29404   5.350   4.622   4.102
 9502SOL    HW129405   5.264   4.662   4.133
 9502SOL    HW229406   5.367   4.651   4.007
 9503SOL     OW29407   6.075   0.701   0.338
 9503SOL    HW129408   5.982   0.680   0.307
 9503SOL    HW229409   6.126   0.616   0.351
 9504SOL     OW29410   6.244   5.676   1.633
 9504SOL    HW129411   6.248   5.657   1.731
 9504SOL    HW229412   6.149   5.671   1.602
 9505SOL     OW29413   4.509   4.262   6.158
 9505SOL    HW129414   4.449   4.330   6.117
 9505SOL    HW229415   4.604   4.294   6.151
 9506SOL     OW29416   2.755   0.615   0.996
 9506SOL    HW129417   2.840   0.580   1.034
 9506SOL    HW229418   2.773   0.698   0.943
 9507SOL     OW29419   6.086   6.879   2.119
 9507SOL    HW129420   6.094   6.978   2.130
 9507SOL    HW229421   6.092   6.835   2.209
 9508SOL     OW29422   4.461   1.250   2.560
 9508SOL    HW129423   4.478   1.252   2.659
 9508SOL    HW229424   4.483   1.159   2.525
 9509SOL     OW29425   5.509   1.107   3.918
 9509SOL    HW129426   5.442   1.048   3.873
 9509SOL    HW229427   5.587   1.123   3.856
 9510SOL     OW29428   1.706   2.603   3.069
 9510SOL    HW129429   1.741   2.519   3.027
 9510SOL    HW229430   1.688   2.670   2.998
 9511SOL     OW29431   0.594   1.928   1.183
 9511SOL    HW129432   0.660   1.884   1.243
 9511SOL    HW229433   0.568   1.866   1.109
 9512SOL     OW29434   6.374   1.942   1.637
 9512SOL    HW129435   6.410   2.035   1.643
 9512SOL    HW229436   6.424   1.892   1.566
 9513SOL     OW29437   4.825   3.764   5.293
 9513SOL    HW129438   4.759   3.711   5.240
 9513SOL    HW229439   4.791   3.775   5.387
 9514SOL     OW29440   3.712   3.034   0.352
 9514SOL    HW129441   3.714   2.952   0.296
 9514SOL    HW229442   3.730   3.011   0.448
 9515SOL     OW29443   0.865   5.704   3.732
 9515SOL    HW129444   0.768   5.725   3.743
 9515SOL    HW229445   0.920   5.779   3.770
 9516SOL     OW29446   6.686   3.854   5.893
 9516SOL    HW129447   6.635   3.768   5.898
 9516SOL    HW229448   6.639   3.917   5.831
 9517SOL     OW29449   0.226   6.726   1.482
 9517SOL    HW129450   0.188   6.719   1.574
 9517SOL    HW229451   0.278   6.643   1.461
 9518SOL     OW29452   1.256   0.952   1.141
 9518SOL    HW129453   1.222   0.890   1.211
 9518SOL    HW229454   1.305   0.900   1.071
 9519SOL     OW29455   0.844   2.514   5.452
 9519SOL    HW129456   0.761   2.546   5.406
 9519SOL    HW229457   0.894   2.592   5.489
 9520SOL     OW29458   3.822   6.913   1.557
 9520SOL    HW129459   3.769   6.829   1.570
 9520SOL    HW229460   3.917   6.890   1.538
 9521SOL     OW29461   5.321   5.438   3.617
 9521SOL    HW129462   5.324   5.406   3.523
 9521SOL    HW229463   5.413   5.460   3.649
 9522SOL     OW29464   3.306   4.927   6.783
 9522SOL    HW129465   3.365   4.869   6.839
 9522SOL    HW229466   3.299   4.889   6.691
 9523SOL     OW29467   2.633   6.398   5.532
 9523SOL    HW129468   2.605   6.459   5.606
 9523SOL    HW229469   2.557   6.384   5.469
 9524SOL     OW29470   4.703   2.392   0.925
 9524SOL    HW129471   4.721   2.440   1.010
 9524SOL    HW229472   4.606   2.399   0.902
 9525SOL     OW29473   3.726   0.390   4.613
 9525SOL    HW129474   3.697   0.296   4.596
 9525SOL    HW229475   3.766   0.397   4.704
 9526SOL     OW29476   4.650   6.176   1.952
 9526SOL    HW129477   4.592   6.187   2.033
 9526SOL    HW229478   4.697   6.261   1.932
 9527SOL     OW29479   6.807   2.343   1.117
 9527SOL    HW129480   6.900   2.371   1.096
 9527SOL    HW229481   6.763   2.306   1.035
 9528SOL     OW29482   6.765   1.187   1.595
 9528SOL    HW129483   6.807   1.136   1.670
 9528SOL    HW229484   6.673   1.150   1.577
 9529SOL     OW29485   1.107   3.509   4.826
 9529SOL    HW129486   1.124   3.471   4.917
 9529SOL    HW229487   1.102   3.435   4.759
 9530SOL     OW29488   1.598   1.998   4.144
 9530SOL    HW129489   1.540   2.079   4.146
 9530SOL    HW229490   1.543   1.919   4.117
 9531SOL     OW29491   2.856   6.243   3.654
 9531SOL    HW129492   2.903   6.169   3.605
 9531SOL    HW229493   2.853   6.325   3.597
 9532SOL     OW29494   3.059   1.441   1.736
 9532SOL    HW129495   3.108   1.523   1.763
 9532SOL    HW229496   2.969   1.465   1.700
 9533SOL     OW29497   0.845   1.259   4.802
 9533SOL    HW129498   0.789   1.342   4.795
 9533SOL    HW229499   0.862   1.239   4.898
 9534SOL     OW29500   5.812   1.614   4.259
 9534SOL    HW129501   5.911   1.612   4.248
 9534SOL    HW229502   5.784   1.545   4.325
 9535SOL     OW29503   3.230   2.158   4.532
 9535SOL    HW129504   3.162   2.156   4.459
 9535SOL    HW229505   3.187   2.184   4.618
 9536SOL     OW29506   2.821   6.111   6.363
 9536SOL    HW129507   2.828   6.205   6.396
 9536SOL    HW229508   2.886   6.053   6.413
 9537SOL     OW29509   2.927   6.674   0.766
 9537SOL    HW129510   2.863   6.602   0.790
 9537SOL    HW229511   2.918   6.750   0.830
 9538SOL     OW29512   5.921   3.996   3.363
 9538SOL    HW129513   5.951   3.901   3.352
 9538SOL    HW229514   5.826   3.998   3.395
 9539SOL     OW29515   0.310   3.770   6.776
 9539SOL    HW129516   0.292   3.696   6.841
 9539SOL    HW229517   0.345   3.850   6.825
 9540SOL     OW29518   5.111   3.319   5.601
 9540SOL    HW129519   5.209   3.310   5.580
 9540SOL    HW229520   5.095   3.290   5.695
 9541SOL     OW29521   0.027   1.771   3.634
 9541SOL    HW129522   6.995   1.702   3.681
 9541SOL    HW229523   7.007   1.793   3.546
 9542SOL     OW29524   4.702   4.512   4.399
 9542SOL    HW129525   4.638   4.537   4.472
 9542SOL    HW229526   4.672   4.554   4.313
 9543SOL     OW29527   5.103   2.319   1.755
 9543SOL    HW129528   5.088   2.395   1.818
 9543SOL    HW229529   5.036   2.248   1.772
 9544SOL     OW29530   4.086   1.113   1.288
 9544SOL    HW129531   4.175   1.113   1.332
 9544SOL    HW229532   4.016   1.087   1.354
 9545SOL     OW29533   1.387   0.413   4.472
 9545SOL    HW129534   1.432   0.447   4.389
 9545SOL    HW229535   1.317   0.477   4.500
 9546SOL     OW29536   2.308   4.956   1.971
 9546SOL    HW129537   2.248   4.881   1.943
 9546SOL    HW229538   2.264   5.007   2.045
 9547SOL     OW29539   5.773   5.435   3.284
 9547SOL    HW129540   5.744   5.469   3.374
 9547SOL    HW229541   5.741   5.342   3.271
 9548SOL     OW29542   5.147   0.507   2.667
 9548SOL    HW129543   5.137   0.555   2.754
 9548SOL    HW229544   5.180   0.414   2.684
 9549SOL     OW29545   2.532   5.737   0.233
 9549SOL    HW129546   2.530   5.820   0.177
 9549SOL    HW229547   2.545   5.762   0.329
 9550SOL     OW29548   1.571   1.337   0.515
 9550SOL    HW129549   1.562   1.391   0.599
 9550SOL    HW229550   1.577   1.240   0.539
 9551SOL     OW29551   1.777   5.361   5.171
 9551SOL    HW129552   1.764   5.345   5.073
 9551SOL    HW229553   1.838   5.291   5.208
 9552SOL     OW29554   0.615   5.296   3.772
 9552SOL    HW129555   0.531   5.257   3.807
 9552SOL    HW229556   0.661   5.230   3.712
 9553SOL     OW29557   5.343   4.558   6.322
 9553SOL    HW129558   5.374   4.529   6.231
 9553SOL    HW229559   5.417   4.607   6.368
 9554SOL     OW29560   1.668   1.690   1.306
 9554SOL    HW129561   1.583   1.688   1.360
 9554SOL    HW229562   1.662   1.761   1.237
 9555SOL     OW29563   0.057   2.693   6.229
 9555SOL    HW129564   0.019   2.644   6.151
 9555SOL    HW229565   0.138   2.645   6.262
 9556SOL     OW29566   6.611   1.213   0.813
 9556SOL    HW129567   6.563   1.174   0.892
 9556SOL    HW229568   6.544   1.242   0.745
 9557SOL     OW29569   4.984   1.543   1.998
 9557SOL    HW129570   4.985   1.637   1.962
 9557SOL    HW229571   5.063   1.528   2.057
 9558SOL     OW29572   6.271   4.057   1.493
 9558SOL    HW129573   6.308   4.099   1.410
 9558SOL    HW229574   6.311   3.967   1.505
 9559SOL     OW29575   0.074   4.159   2.651
 9559SOL    HW129576   0.055   4.254   2.676
 9559SOL    HW229577   0.086   4.152   2.552
 9560SOL     OW29578   4.008   2.204   5.093
 9560SOL    HW129579   3.914   2.234   5.111
 9560SOL    HW229580   4.070   2.283   5.097
 9561SOL     OW29581   3.188   6.471   5.808
 9561SOL    HW129582   3.206   6.546   5.873
 9561SOL    HW229583   3.193   6.507   5.715
 9562SOL     OW29584   6.060   4.928   4.371
 9562SOL    HW129585   6.012   4.984   4.438
 9562SOL    HW229586   6.042   4.965   4.279
 9563SOL     OW29587   0.560   6.502   7.005
 9563SOL    HW129588   0.620   6.424   7.019
 9563SOL    HW229589   0.468   6.479   0.015
 9564SOL     OW29590   1.516   0.562   6.105
 9564SOL    HW129591   1.536   0.648   6.060
 9564SOL    HW229592   1.595   0.534   6.160
 9565SOL     OW29593   3.557   5.921   4.449
 9565SOL    HW129594   3.656   5.905   4.454
 9565SOL    HW229595   3.514   5.886   4.532
 9566SOL     OW29596   3.176   4.791   6.103
 9566SOL    HW129597   3.253   4.794   6.039
 9566SOL    HW229598   3.145   4.697   6.114
 9567SOL     OW29599   6.240   4.977   5.102
 9567SOL    HW129600   6.289   4.958   5.017
 9567SOL    HW229601   6.166   5.042   5.085
 9568SOL     OW29602   5.014   4.083   6.038
 9568SOL    HW129603   5.003   3.999   5.984
 9568SOL    HW229604   4.962   4.157   5.995
 9569SOL     OW29605   5.681   6.958   1.781
 9569SOL    HW129606   5.661   6.902   1.700
 9569SOL    HW229607   5.753   0.000   1.759
 9570SOL     OW29608   1.278   1.473   6.806
 9570SOL    HW129609   1.361   1.421   6.828
 9570SOL    HW229610   1.209   1.410   6.769
 9571SOL     OW29611   2.738   2.146   0.928
 9571SOL    HW129612   2.701   2.167   0.837
 9571SOL    HW229613   2.665   2.156   0.996
 9572SOL     OW29614   0.509   3.663   1.069
 9572SOL    HW129615   0.431   3.617   1.111
 9572SOL    HW229616   0.504   3.761   1.088
 9573SOL     OW29617   5.292   1.364   2.931
 9573SOL    HW129618   5.220   1.403   2.873
 9573SOL    HW229619   5.283   1.400   3.024
 9574SOL     OW29620   2.797   2.131   3.353
 9574SOL    HW129621   2.731   2.182   3.297
 9574SOL    HW229622   2.752   2.052   3.394
 9575SOL     OW29623   4.126   1.517   2.958
 9575SOL    HW129624   4.220   1.523   2.925
 9575SOL    HW229625   4.120   1.448   3.030
 9576SOL     OW29626   3.985   2.966   5.277
 9576SOL    HW129627   4.071   2.991   5.232
 9576SOL    HW229628   3.975   2.866   5.276
 9577SOL     OW29629   0.922   5.984   3.736
 9577SOL    HW129630   0.911   6.011   3.640
 9577SOL    HW229631   0.850   6.027   3.791
 9578SOL     OW29632   6.758   3.930   1.487
 9578SOL    HW129633   6.813   3.847   1.475
 9578SOL    HW229634   6.775   3.992   1.410
 9579SOL     OW29635   1.866   5.230   2.907
 9579SOL    HW129636   1.801   5.246   2.981
 9579SOL    HW229637   1.958   5.256   2.937
 9580SOL     OW29638   4.286   3.363   5.725
 9580SOL    HW129639   4.309   3.458   5.744
 9580SOL    HW229640   4.195   3.359   5.683
 9581SOL     OW29641   1.194   5.667   5.524
 9581SOL    HW129642   1.128   5.685   5.451
 9581SOL    HW229643   1.238   5.579   5.506
 9582SOL     OW29644   4.665   5.207   3.212
 9582SOL    HW129645   4.702   5.282   3.266
 9582SOL    HW229646   4.733   5.134   3.205
 9583SOL     OW29647   2.075   4.721   1.678
 9583SOL    HW129648   1.975   4.715   1.672
 9583SOL    HW229649   2.100   4.810   1.716
 9584SOL     OW29650   5.229   4.974   0.151
 9584SOL    HW129651   5.306   5.024   0.191
 9584SOL    HW229652   5.166   5.040   0.109
 9585SOL     OW29653   0.067   0.815   3.030
 9585SOL    HW129654   0.121   0.869   3.095
 9585SOL    HW229655   6.993   0.837   3.040
 9586SOL     OW29656   5.138   3.496   2.611
 9586SOL    HW129657   5.191   3.447   2.541
 9586SOL    HW229658   5.047   3.456   2.619
 9587SOL     OW29659   5.037   6.185   1.459
 9587SOL    HW129660   4.965   6.236   1.506
 9587SOL    HW229661   5.109   6.161   1.525
 9588SOL     OW29662   6.558   1.130   3.212
 9588SOL    HW129663   6.467   1.136   3.253
 9588SOL    HW229664   6.609   1.056   3.256
 9589SOL     OW29665   2.902   1.936   4.731
 9589SOL    HW129666   2.872   1.877   4.655
 9589SOL    HW229667   2.958   2.010   4.696
 9590SOL     OW29668   1.013   5.014   4.453
 9590SOL    HW129669   0.941   4.965   4.405
 9590SOL    HW229670   0.980   5.040   4.544
 9591SOL     OW29671   1.363   4.399   2.525
 9591SOL    HW129672   1.411   4.365   2.607
 9591SOL    HW229673   1.265   4.395   2.540
 9592SOL     OW29674   4.828   5.736   0.943
 9592SOL    HW129675   4.786   5.657   0.898
 9592SOL    HW229676   4.927   5.729   0.940
 9593SOL     OW29677   2.401   2.356   3.115
 9593SOL    HW129678   2.449   2.303   3.185
 9593SOL    HW229679   2.433   2.451   3.117
 9594SOL     OW29680   6.032   0.117   1.087
 9594SOL    HW129681   6.008   0.214   1.079
 9594SOL    HW229682   5.949   0.062   1.090
 9595SOL     OW29683   0.964   5.772   4.728
 9595SOL    HW129684   0.889   5.777   4.663
 9595SOL    HW229685   1.014   5.686   4.716
 9596SOL     OW29686   5.149   5.763   1.915
 9596SOL    HW129687   5.150   5.673   1.871
 9596SOL    HW229688   5.097   5.757   2.000
 9597SOL     OW29689   2.281   4.424   1.172
 9597SOL    HW129690   2.229   4.472   1.101
 9597SOL    HW229691   2.297   4.485   1.249
 9598SOL     OW29692   0.477   6.174   5.544
 9598SOL    HW129693   0.488   6.170   5.445
 9598SOL    HW229694   0.407   6.109   5.572
 9599SOL     OW29695   3.799   1.864   4.884
 9599SOL    HW129696   3.808   1.769   4.914
 9599SOL    HW229697   3.727   1.870   4.815
 9600SOL     OW29698   1.502   6.590   6.584
 9600SOL    HW129699   1.430   6.651   6.616
 9600SOL    HW229700   1.466   6.498   6.573
 9601SOL     OW29701   0.650   6.636   5.129
 9601SOL    HW129702   0.584   6.611   5.199
 9601SOL    HW229703   0.711   6.559   5.110
 9602SOL     OW29704   1.518   5.204   6.375
 9602SOL    HW129705   1.449   5.231   6.443
 9602SOL    HW229706   1.554   5.285   6.330
 9603SOL     OW29707   1.067   4.793   2.385
 9603SOL    HW129708   1.130   4.756   2.316
 9603SOL    HW229709   1.063   4.892   2.377
 9604SOL     OW29710   7.007   7.017   6.551
 9604SOL    HW129711   6.924   6.982   6.507
 9604SOL    HW229712   0.041   0.042   6.484
 9605SOL     OW29713   2.895   4.717   0.845
 9605SOL    HW129714   2.926   4.626   0.871
 9605SOL    HW229715   2.922   4.783   0.915
 9606SOL     OW29716   0.111   0.295   5.332
 9606SOL    HW129717   0.103   0.259   5.425
 9606SOL    HW229718   0.174   0.237   5.280
 9607SOL     OW29719   0.031   2.198   2.594
 9607SOL    HW129720   0.072   2.288   2.581
 9607SOL    HW229721   0.025   2.151   2.506
 9608SOL     OW29722   6.769   0.787   2.221
 9608SOL    HW129723   6.803   0.723   2.289
 9608SOL    HW229724   6.709   0.739   2.157
 9609SOL     OW29725   1.850   2.086   3.518
 9609SOL    HW129726   1.864   2.146   3.439
 9609SOL    HW229727   1.924   2.099   3.583
 9610SOL     OW29728   3.654   0.985   5.247
 9610SOL    HW129729   3.640   0.918   5.320
 9610SOL    HW229730   3.740   1.033   5.261
 9611SOL     OW29731   5.265   5.922   0.937
 9611SOL    HW129732   5.216   5.856   0.995
 9611SOL    HW229733   5.292   5.877   0.852
 9612SOL     OW29734   5.284   3.528   3.471
 9612SOL    HW129735   5.276   3.574   3.559
 9612SOL    HW229736   5.267   3.430   3.483
 9613SOL     OW29737   5.811   0.950   5.021
 9613SOL    HW129738   5.856   0.941   4.932
 9613SOL    HW229739   5.716   0.917   5.014
 9614SOL     OW29740   2.680   2.477   0.553
 9614SOL    HW129741   2.677   2.492   0.652
 9614SOL    HW229742   2.766   2.514   0.516
 9615SOL     OW29743   0.610   5.782   3.754
 9615SOL    HW129744   0.554   5.699   3.755
 9615SOL    HW229745   0.555   5.858   3.719
 9616SOL     OW29746   1.028   2.561   1.022
 9616SOL    HW129747   0.960   2.634   1.016
 9616SOL    HW229748   1.094   2.570   0.948
 9617SOL     OW29749   0.246   3.012   2.482
 9617SOL    HW129750   0.294   3.085   2.530
 9617SOL    HW229751   0.306   2.970   2.415
 9618SOL     OW29752   4.880   3.799   1.593
 9618SOL    HW129753   4.812   3.868   1.616
 9618SOL    HW229754   4.967   3.844   1.572
 9619SOL     OW29755   0.433   6.868   1.262
 9619SOL    HW129756   0.512   6.857   1.321
 9619SOL    HW229757   0.360   6.806   1.291
 9620SOL     OW29758   3.425   1.437   6.903
 9620SOL    HW129759   3.397   1.363   6.842
 9620SOL    HW229760   3.344   1.472   6.950
 9621SOL     OW29761   0.090   0.668   1.372
 9621SOL    HW129762   0.133   0.736   1.432
 9621SOL    HW229763   0.154   0.643   1.299
 9622SOL     OW29764   6.296   5.891   5.775
 9622SOL    HW129765   6.308   5.826   5.850
 9622SOL    HW229766   6.284   5.841   5.689
 9623SOL     OW29767   3.263   5.818   5.439
 9623SOL    HW129768   3.204   5.836   5.360
 9623SOL    HW229769   3.317   5.900   5.460
 9624SOL     OW29770   4.179   5.663   5.442
 9624SOL    HW129771   4.149   5.681   5.348
 9624SOL    HW229772   4.116   5.600   5.486
 9625SOL     OW29773   4.517   4.144   6.430
 9625SOL    HW129774   4.577   4.189   6.496
 9625SOL    HW229775   4.523   4.193   6.343
 9626SOL     OW29776   2.759   2.404   6.359
 9626SOL    HW129777   2.758   2.323   6.418
 9626SOL    HW229778   2.830   2.467   6.391
 9627SOL     OW29779   0.167   5.850   0.795
 9627SOL    HW129780   0.148   5.754   0.817
 9627SOL    HW229781   0.129   5.872   0.706
 9628SOL     OW29782   5.698   1.152   5.996
 9628SOL    HW129783   5.732   1.090   6.068
 9628SOL    HW229784   5.726   1.117   5.907
 9629SOL     OW29785   0.477   5.515   3.704
 9629SOL    HW129786   0.398   5.499   3.763
 9629SOL    HW229787   0.533   5.432   3.699
 9630SOL     OW29788   5.170   1.376   6.205
 9630SOL    HW129789   5.228   1.453   6.230
 9630SOL    HW229790   5.125   1.340   6.287
 9631SOL     OW29791   4.653   6.413   0.549
 9631SOL    HW129792   4.682   6.332   0.600
 9631SOL    HW229793   4.618   6.481   0.613
 9632SOL     OW29794   2.475   5.171   3.137
 9632SOL    HW129795   2.404   5.175   3.206
 9632SOL    HW229796   2.452   5.233   3.062
 9633SOL     OW29797   3.537   3.013   5.089
 9633SOL    HW129798   3.573   3.005   5.182
 9633SOL    HW229799   3.535   3.110   5.062
 9634SOL     OW29800   5.410   4.705   3.080
 9634SOL    HW129801   5.495   4.671   3.122
 9634SOL    HW229802   5.357   4.754   3.149
 9635SOL     OW29803   0.543   4.905   4.267
 9635SOL    HW129804   0.477   4.970   4.305
 9635SOL    HW229805   0.557   4.830   4.332
 9636SOL     OW29806   5.948   3.675   4.027
 9636SOL    HW129807   6.023   3.668   3.961
 9636SOL    HW229808   5.951   3.764   4.072
 9637SOL     OW29809   1.509   3.486   6.867
 9637SOL    HW129810   1.495   3.577   6.827
 9637SOL    HW229811   1.606   3.473   6.888
 9638SOL     OW29812   6.302   5.280   5.721
 9638SOL    HW129813   6.395   5.254   5.696
 9638SOL    HW229814   6.243   5.276   5.641
 9639SOL     OW29815   4.738   2.092   1.581
 9639SOL    HW129816   4.756   2.184   1.546
 9639SOL    HW229817   4.640   2.082   1.597
 9640SOL     OW29818   3.543   0.366   3.038
 9640SOL    HW129819   3.580   0.319   3.119
 9640SOL    HW229820   3.514   0.298   2.971
 9641SOL     OW29821   0.175   2.896   4.966
 9641SOL    HW129822   0.127   2.819   4.923
 9641SOL    HW229823   0.243   2.932   4.902
 9642SOL     OW29824   0.564   2.618   4.800
 9642SOL    HW129825   0.484   2.630   4.860
 9642SOL    HW229826   0.538   2.563   4.721
 9643SOL     OW29827   5.691   4.842   4.626
 9643SOL    HW129828   5.651   4.761   4.669
 9643SOL    HW229829   5.739   4.897   4.695
 9644SOL     OW29830   1.478   4.692   3.867
 9644SOL    HW129831   1.498   4.595   3.879
 9644SOL    HW229832   1.503   4.721   3.775
 9645SOL     OW29833   1.409   4.810   6.593
 9645SOL    HW129834   1.421   4.740   6.663
 9645SOL    HW229835   1.353   4.774   6.519
 9646SOL     OW29836   3.197   5.535   0.302
 9646SOL    HW129837   3.235   5.479   0.376
 9646SOL    HW229838   3.271   5.585   0.258
 9647SOL     OW29839   5.918   6.791   2.946
 9647SOL    HW129840   5.973   6.722   2.993
 9647SOL    HW229841   5.897   6.758   2.854
 9648SOL     OW29842   2.729   1.874   1.251
 9648SOL    HW129843   2.806   1.900   1.194
 9648SOL    HW229844   2.751   1.889   1.347
 9649SOL     OW29845   0.282   5.533   1.268
 9649SOL    HW129846   0.286   5.609   1.332
 9649SOL    HW229847   0.222   5.556   1.191
 9650SOL     OW29848   0.827   4.870   4.667
 9650SOL    HW129849   0.793   4.781   4.637
 9650SOL    HW229850   0.919   4.860   4.704
 9651SOL     OW29851   3.790   1.807   6.583
 9651SOL    HW129852   3.721   1.874   6.557
 9651SOL    HW229853   3.791   1.797   6.682
 9652SOL     OW29854   0.344   4.086   0.395
 9652SOL    HW129855   0.417   4.032   0.436
 9652SOL    HW229856   0.324   4.165   0.453
 9653SOL     OW29857   4.909   4.651   5.598
 9653SOL    HW129858   4.922   4.734   5.651
 9653SOL    HW229859   4.918   4.672   5.501
 9654SOL     OW29860   3.728   3.669   2.982
 9654SOL    HW129861   3.817   3.627   2.965
 9654SOL    HW229862   3.737   3.769   2.981
 9655SOL     OW29863   4.763   1.611   1.190
 9655SOL    HW129864   4.713   1.527   1.212
 9655SOL    HW229865   4.829   1.631   1.262
 9656SOL     OW29866   4.745   4.291   6.625
 9656SOL    HW129867   4.784   4.355   6.558
 9656SOL    HW229868   4.800   4.208   6.627
 9657SOL     OW29869   5.276   4.521   3.672
 9657SOL    HW129870   5.195   4.464   3.688
 9657SOL    HW229871   5.356   4.478   3.712
 9658SOL     OW29872   5.632   1.521   2.866
 9658SOL    HW129873   5.709   1.585   2.863
 9658SOL    HW229874   5.569   1.541   2.791
 9659SOL     OW29875   3.361   2.997   6.698
 9659SOL    HW129876   3.273   2.961   6.668
 9659SOL    HW229877   3.434   2.933   6.674
 9660SOL     OW29878   1.627   6.401   1.157
 9660SOL    HW129879   1.642   6.450   1.243
 9660SOL    HW229880   1.530   6.406   1.132
 9661SOL     OW29881   4.065   3.138   2.143
 9661SOL    HW129882   4.151   3.092   2.164
 9661SOL    HW229883   4.009   3.080   2.083
 9662SOL     OW29884   4.778   6.730   5.718
 9662SOL    HW129885   4.792   6.764   5.811
 9662SOL    HW229886   4.742   6.637   5.721
 9663SOL     OW29887   0.899   5.532   2.747
 9663SOL    HW129888   0.950   5.509   2.830
 9663SOL    HW229889   0.963   5.558   2.674
 9664SOL     OW29890   3.339   5.016   2.630
 9664SOL    HW129891   3.379   4.982   2.715
 9664SOL    HW229892   3.357   5.114   2.622
 9665SOL     OW29893   6.280   4.700   6.451
 9665SOL    HW129894   6.261   4.614   6.403
 9665SOL    HW229895   6.359   4.688   6.511
 9666SOL     OW29896   5.467   3.703   0.893
 9666SOL    HW129897   5.476   3.680   0.796
 9666SOL    HW229898   5.400   3.777   0.903
 9667SOL     OW29899   5.371   6.694   6.825
 9667SOL    HW129900   5.397   6.647   6.910
 9667SOL    HW229901   5.383   6.793   6.837
 9668SOL     OW29902   1.649   1.045   6.301
 9668SOL    HW129903   1.575   1.030   6.367
 9668SOL    HW229904   1.705   1.122   6.331
 9669SOL     OW29905   2.813   0.572   6.919
 9669SOL    HW129906   2.753   0.496   6.946
 9669SOL    HW229907   2.901   0.535   6.890
 9670SOL     OW29908   0.850   0.530   0.679
 9670SOL    HW129909   0.917   0.597   0.647
 9670SOL    HW229910   0.873   0.500   0.771
 9671SOL     OW29911   1.310   5.410   6.139
 9671SOL    HW129912   1.270   5.330   6.184
 9671SOL    HW229913   1.240   5.457   6.085
 9672SOL     OW29914   0.886   3.670   4.124
 9672SOL    HW129915   0.798   3.625   4.114
 9672SOL    HW229916   0.949   3.610   4.173
 9673SOL     OW29917   2.397   2.800   6.863
 9673SOL    HW129918   2.301   2.790   6.838
 9673SOL    HW229919   2.436   2.879   6.815
 9674SOL     OW29920   1.583   6.829   4.031
 9674SOL    HW129921   1.615   6.787   4.116
 9674SOL    HW229922   1.654   6.821   3.961
 9675SOL     OW29923   6.229   4.336   5.989
 9675SOL    HW129924   6.242   4.267   6.060
 9675SOL    HW229925   6.219   4.290   5.900
 9676SOL     OW29926   0.422   3.437   5.451
 9676SOL    HW129927   0.487   3.372   5.490
 9676SOL    HW229928   0.336   3.391   5.430
 9677SOL     OW29929   7.008   4.940   2.749
 9677SOL    HW129930   6.935   4.880   2.717
 9677SOL    HW229931   0.007   5.007   2.678
 9678SOL     OW29932   3.710   3.247   5.475
 9678SOL    HW129933   3.694   3.189   5.555
 9678SOL    HW229934   3.776   3.318   5.497
 9679SOL     OW29935   1.373   0.885   3.988
 9679SOL    HW129936   1.410   0.922   3.903
 9679SOL    HW229937   1.321   0.955   4.036
 9680SOL     OW29938   4.580   0.839   2.736
 9680SOL    HW129939   4.559   0.823   2.639
 9680SOL    HW229940   4.609   0.753   2.778
 9681SOL     OW29941   1.339   3.045   1.126
 9681SOL    HW129942   1.432   3.026   1.097
 9681SOL    HW229943   1.333   3.039   1.226
 9682SOL     OW29944   4.963   0.174   5.675
 9682SOL    HW129945   5.023   0.141   5.747
 9682SOL    HW229946   4.960   0.107   5.600
 9683SOL     OW29947   4.191   6.326   4.151
 9683SOL    HW129948   4.209   6.272   4.069
 9683SOL    HW229949   4.157   6.416   4.123
 9684SOL     OW29950   6.875   3.585   5.865
 9684SOL    HW129951   6.890   3.676   5.827
 9684SOL    HW229952   6.780   3.557   5.849
 9685SOL     OW29953   3.262   4.732   1.668
 9685SOL    HW129954   3.290   4.638   1.688
 9685SOL    HW229955   3.171   4.749   1.706
 9686SOL     OW29956   0.371   1.534   5.899
 9686SOL    HW129957   0.435   1.569   5.967
 9686SOL    HW229958   0.284   1.582   5.906
 9687SOL     OW29959   5.655   1.046   3.671
 9687SOL    HW129960   5.622   0.987   3.598
 9687SOL    HW229961   5.677   1.137   3.634
 9688SOL     OW29962   0.148   4.958   1.655
 9688SOL    HW129963   0.179   4.985   1.564
 9688SOL    HW229964   0.048   4.962   1.659
 9689SOL     OW29965   1.507   5.632   1.253
 9689SOL    HW129966   1.601   5.635   1.287
 9689SOL    HW229967   1.508   5.627   1.153
 9690SOL     OW29968   0.371   4.569   5.318
 9690SOL    HW129969   0.453   4.512   5.314
 9690SOL    HW229970   0.377   4.640   5.247
 9691SOL     OW29971   3.983   3.353   1.982
 9691SOL    HW129972   3.908   3.334   1.919
 9691SOL    HW229973   4.030   3.268   2.005
 9692SOL     OW29974   5.307   4.598   0.328
 9692SOL    HW129975   5.259   4.627   0.245
 9692SOL    HW229976   5.241   4.559   0.392
 9693SOL     OW29977   4.781   3.165   5.965
 9693SOL    HW129978   4.812   3.093   6.026
 9693SOL    HW229979   4.749   3.243   6.018
 9694SOL     OW29980   2.678   6.103   1.067
 9694SOL    HW129981   2.650   6.190   1.026
 9694SOL    HW229982   2.716   6.120   1.158
 9695SOL     OW29983   1.250   3.021   4.122
 9695SOL    HW129984   1.182   2.954   4.155
 9695SOL    HW229985   1.342   2.984   4.135
 9696SOL     OW29986   4.787   2.952   3.364
 9696SOL    HW129987   4.778   3.051   3.367
 9696SOL    HW229988   4.856   2.923   3.430
 9697SOL     OW29989   0.387   0.541   1.416
 9697SOL    HW129990   0.426   0.627   1.383
 9697SOL    HW229991   0.414   0.527   1.512
 9698SOL     OW29992   0.132   3.877   1.982
 9698SOL    HW129993   0.039   3.879   1.945
 9698SOL    HW229994   0.190   3.822   1.922
 9699SOL     OW29995   0.955   5.872   2.018
 9699SOL    HW129996   0.879   5.933   1.999
 9699SOL    HW229997   0.936   5.821   2.102
 9700SOL     OW29998   5.446   0.679   6.240
 9700SOL    HW129999   5.486   0.770   6.249
 9700SOL    HW230000   5.449   0.651   6.144
 9701SOL     OW30001   5.296   3.936   0.325
 9701SOL    HW130002   5.316   3.958   0.229
 9701SOL    HW230003   5.333   4.007   0.385
 9702SOL     OW30004   3.732   3.769   1.533
 9702SOL    HW130005   3.783   3.848   1.566
 9702SOL    HW230006   3.762   3.746   1.441
 9703SOL     OW30007   5.746   4.914   3.381
 9703SOL    HW130008   5.711   4.942   3.292
 9703SOL    HW230009   5.685   4.947   3.453
 9704SOL     OW30010   1.406   4.121   2.782
 9704SOL    HW130011   1.460   4.164   2.855
 9704SOL    HW230012   1.455   4.129   2.695
 9705SOL     OW30013   0.378   3.456   5.792
 9705SOL    HW130014   0.365   3.494   5.701
 9705SOL    HW230015   0.324   3.510   5.858
 9706SOL     OW30016   0.656   0.958   2.298
 9706SOL    HW130017   0.685   1.010   2.218
 9706SOL    HW230018   0.565   0.920   2.282
 9707SOL     OW30019   0.787   5.277   2.406
 9707SOL    HW130020   0.844   5.296   2.485
 9707SOL    HW230021   0.761   5.180   2.406
 9708SOL     OW30022   3.050   0.475   1.802
 9708SOL    HW130023   2.969   0.485   1.744
 9708SOL    HW230024   3.122   0.536   1.770
 9709SOL     OW30025   5.224   1.546   2.159
 9709SOL    HW130026   5.244   1.467   2.100
 9709SOL    HW230027   5.286   1.621   2.135
 9710SOL     OW30028   4.941   5.032   4.984
 9710SOL    HW130029   5.005   5.075   5.047
 9710SOL    HW230030   4.924   5.093   4.906
 9711SOL     OW30031   2.729   1.051   6.785
 9711SOL    HW130032   2.759   0.962   6.820
 9711SOL    HW230033   2.746   1.121   6.853
 9712SOL     OW30034   4.773   0.622   5.781
 9712SOL    HW130035   4.808   0.553   5.845
 9712SOL    HW230036   4.840   0.694   5.769
 9713SOL     OW30037   1.956   7.000   3.108
 9713SOL    HW130038   1.898   6.920   3.093
 9713SOL    HW230039   1.959   0.033   3.025
 9714SOL     OW30040   2.166   3.237   4.407
 9714SOL    HW130041   2.168   3.275   4.314
 9714SOL    HW230042   2.174   3.138   4.403
 9715SOL     OW30043   0.121   2.862   6.451
 9715SOL    HW130044   0.058   2.909   6.513
 9715SOL    HW230045   0.077   2.849   6.363
 9716SOL     OW30046   2.638   6.276   0.777
 9716SOL    HW130047   2.620   6.284   0.678
 9716SOL    HW230048   2.736   6.267   0.793
 9717SOL     OW30049   3.656   2.432   5.604
 9717SOL    HW130050   3.690   2.421   5.698
 9717SOL    HW230051   3.625   2.343   5.569
 9718SOL     OW30052   4.110   2.646   6.653
 9718SOL    HW130053   4.158   2.584   6.591
 9718SOL    HW230054   4.174   2.714   6.689
 9719SOL     OW30055   4.680   0.257   5.711
 9719SOL    HW130056   4.675   0.304   5.800
 9719SOL    HW230057   4.764   0.203   5.707
 9720SOL     OW30058   1.862   2.248   2.399
 9720SOL    HW130059   1.785   2.225   2.458
 9720SOL    HW230060   1.829   2.299   2.319
 9721SOL     OW30061   0.412   1.545   1.246
 9721SOL    HW130062   0.483   1.577   1.184
 9721SOL    HW230063   0.448   1.471   1.303
 9722SOL     OW30064   4.170   2.274   5.347
 9722SOL    HW130065   4.082   2.309   5.317
 9722SOL    HW230066   4.165   2.247   5.443
 9723SOL     OW30067   5.969   0.208   4.943
 9723SOL    HW130068   5.945   0.296   4.902
 9723SOL    HW230069   5.890   0.171   4.992
 9724SOL     OW30070   1.477   4.736   1.360
 9724SOL    HW130071   1.383   4.703   1.349
 9724SOL    HW230072   1.538   4.687   1.298
 9725SOL     OW30073   5.321   5.605   3.846
 9725SOL    HW130074   5.324   5.526   3.784
 9725SOL    HW230075   5.262   5.585   3.924
 9726SOL     OW30076   6.616   7.014   2.677
 9726SOL    HW130077   6.630   6.915   2.673
 9726SOL    HW230078   6.519   0.010   2.685
 9727SOL     OW30079   6.220   3.037   1.549
 9727SOL    HW130080   6.130   3.043   1.593
 9727SOL    HW230081   6.284   2.990   1.610
 9728SOL     OW30082   5.501   2.225   4.331
 9728SOL    HW130083   5.532   2.132   4.350
 9728SOL    HW230084   5.510   2.245   4.234
 9729SOL     OW30085   0.457   3.621   2.953
 9729SOL    HW130086   0.540   3.574   2.922
 9729SOL    HW230087   0.460   3.717   2.925
 9730SOL     OW30088   1.058   5.670   3.117
 9730SOL    HW130089   1.021   5.763   3.109
 9730SOL    HW230090   0.982   5.604   3.120
 9731SOL     OW30091   6.300   3.078   1.285
 9731SOL    HW130092   6.229   3.079   1.356
 9731SOL    HW230093   6.347   3.166   1.284
 9732SOL     OW30094   1.478   3.261   2.800
 9732SOL    HW130095   1.432   3.341   2.762
 9732SOL    HW230096   1.478   3.188   2.732
 9733SOL     OW30097   6.260   4.895   1.995
 9733SOL    HW130098   6.192   4.962   2.023
 9733SOL    HW230099   6.350   4.923   2.027
 9734SOL     OW30100   4.414   5.254   6.497
 9734SOL    HW130101   4.462   5.229   6.413
 9734SOL    HW230102   4.386   5.350   6.492
 9735SOL     OW30103   0.432   1.996   0.295
 9735SOL    HW130104   0.346   2.048   0.292
 9735SOL    HW230105   0.436   1.945   0.381
 9736SOL     OW30106   4.886   2.622   4.917
 9736SOL    HW130107   4.885   2.588   5.011
 9736SOL    HW230108   4.843   2.713   4.914
 9737SOL     OW30109   5.779   3.016   4.204
 9737SOL    HW130110   5.811   2.956   4.277
 9737SOL    HW230111   5.726   2.962   4.138
 9738SOL     OW30112   2.695   6.298   1.535
 9738SOL    HW130113   2.727   6.348   1.455
 9738SOL    HW230114   2.672   6.362   1.608
 9739SOL     OW30115   5.986   6.766   0.437
 9739SOL    HW130116   5.910   6.827   0.463
 9739SOL    HW230117   5.950   6.687   0.388
 9740SOL     OW30118   6.222   0.655   1.887
 9740SOL    HW130119   6.216   0.673   1.789
 9740SOL    HW230120   6.288   0.719   1.928
 9741SOL     OW30121   2.727   2.362   3.163
 9741SOL    HW130122   2.695   2.402   3.078
 9741SOL    HW230123   2.682   2.407   3.241
 9742SOL     OW30124   3.631   2.001   6.369
 9742SOL    HW130125   3.637   2.072   6.438
 9742SOL    HW230126   3.537   1.968   6.364
 9743SOL     OW30127   6.572   3.518   4.339
 9743SOL    HW130128   6.575   3.422   4.311
 9743SOL    HW230129   6.663   3.558   4.331
 9744SOL     OW30130   1.839   1.768   2.589
 9744SOL    HW130131   1.854   1.685   2.642
 9744SOL    HW230132   1.741   1.788   2.585
 9745SOL     OW30133   0.255   6.894   6.094
 9745SOL    HW130134   0.348   6.915   6.125
 9745SOL    HW230135   0.245   6.924   5.999
 9746SOL     OW30136   3.524   6.077   5.804
 9746SOL    HW130137   3.589   6.122   5.864
 9746SOL    HW230138   3.433   6.117   5.816
 9747SOL     OW30139   3.675   1.653   3.947
 9747SOL    HW130140   3.713   1.698   3.866
 9747SOL    HW230141   3.691   1.554   3.940
 9748SOL     OW30142   0.437   1.200   2.203
 9748SOL    HW130143   0.429   1.100   2.196
 9748SOL    HW230144   0.414   1.228   2.297
 9749SOL     OW30145   0.039   0.677   2.033
 9749SOL    HW130146   0.054   0.739   2.110
 9749SOL    HW230147   6.990   0.612   2.057
 9750SOL     OW30148   5.613   2.506   5.650
 9750SOL    HW130149   5.559   2.584   5.681
 9750SOL    HW230150   5.603   2.430   5.714
 9751SOL     OW30151   3.170   6.768   1.414
 9751SOL    HW130152   3.173   6.794   1.317
 9751SOL    HW230153   3.079   6.734   1.436
 9752SOL     OW30154   3.169   3.120   0.532
 9752SOL    HW130155   3.144   3.092   0.439
 9752SOL    HW230156   3.132   3.056   0.598
 9753SOL     OW30157   0.077   5.820   3.873
 9753SOL    HW130158   0.066   5.758   3.951
 9753SOL    HW230159   0.019   5.788   3.797
 9754SOL     OW30160   3.549   1.095   2.124
 9754SOL    HW130161   3.560   1.110   2.222
 9754SOL    HW230162   3.638   1.072   2.084
 9755SOL     OW30163   3.753   3.656   0.144
 9755SOL    HW130164   3.697   3.723   0.193
 9755SOL    HW230165   3.767   3.687   0.050
 9756SOL     OW30166   5.422   0.680   5.963
 9756SOL    HW130167   5.447   0.606   5.901
 9756SOL    HW230168   5.323   0.692   5.963
 9757SOL     OW30169   5.390   3.600   4.235
 9757SOL    HW130170   5.309   3.652   4.263
 9757SOL    HW230171   5.369   3.547   4.153
 9758SOL     OW30172   2.823   0.800   2.361
 9758SOL    HW130173   2.922   0.807   2.348
 9758SOL    HW230174   2.777   0.865   2.300
 9759SOL     OW30175   6.573   2.155   1.306
 9759SOL    HW130176   6.601   2.241   1.263
 9759SOL    HW230177   6.505   2.110   1.248
 9760SOL     OW30178   4.542   0.455   6.671
 9760SOL    HW130179   4.511   0.527   6.610
 9760SOL    HW230180   4.528   0.366   6.628
 9761SOL     OW30181   0.777   2.516   1.550
 9761SOL    HW130182   0.688   2.479   1.577
 9761SOL    HW230183   0.778   2.615   1.567
 9762SOL     OW30184   3.161   1.191   5.766
 9762SOL    HW130185   3.243   1.164   5.817
 9762SOL    HW230186   3.183   1.200   5.669
 9763SOL     OW30187   6.694   2.841   1.168
 9763SOL    HW130188   6.654   2.889   1.246
 9763SOL    HW230189   6.638   2.761   1.146
 9764SOL     OW30190   0.797   2.478   2.711
 9764SOL    HW130191   0.834   2.395   2.751
 9764SOL    HW230192   0.756   2.535   2.783
 9765SOL     OW30193   6.531   1.404   1.386
 9765SOL    HW130194   6.542   1.314   1.427
 9765SOL    HW230195   6.604   1.420   1.320
 9766SOL     OW30196   0.753   2.919   3.098
 9766SOL    HW130197   0.761   2.839   3.158
 9766SOL    HW230198   0.795   2.998   3.143
 9767SOL     OW30199   2.869   1.698   5.381
 9767SOL    HW130200   2.799   1.641   5.337
 9767SOL    HW230201   2.956   1.649   5.384
 9768SOL     OW30202   5.039   2.742   0.079
 9768SOL    HW130203   5.123   2.689   0.093
 9768SOL    HW230204   5.028   2.762   7.005
 9769SOL     OW30205   3.348   1.653   5.497
 9769SOL    HW130206   3.446   1.652   5.518
 9769SOL    HW230207   3.317   1.747   5.484
 9770SOL     OW30208   1.894   3.099   5.652
 9770SOL    HW130209   1.973   3.037   5.660
 9770SOL    HW230210   1.852   3.088   5.563
 9771SOL     OW30211   3.642   0.606   1.455
 9771SOL    HW130212   3.660   0.653   1.541
 9771SOL    HW230213   3.549   0.570   1.456
 9772SOL     OW30214   1.159   0.642   0.958
 9772SOL    HW130215   1.163   0.545   0.935
 9772SOL    HW230216   1.156   0.652   1.058
 9773SOL     OW30217   5.822   6.044   1.980
 9773SOL    HW130218   5.752   5.998   2.034
 9773SOL    HW230219   5.782   6.125   1.935
 9774SOL     OW30220   2.365   5.031   4.252
 9774SOL    HW130221   2.338   4.935   4.264
 9774SOL    HW230222   2.284   5.085   4.227
 9775SOL     OW30223   2.176   1.024   2.450
 9775SOL    HW130224   2.265   1.014   2.495
 9775SOL    HW230225   2.104   1.023   2.519
 9776SOL     OW30226   2.443   5.543   1.316
 9776SOL    HW130227   2.473   5.459   1.361
 9776SOL    HW230228   2.420   5.523   1.220
 9777SOL     OW30229   4.441   1.712   5.305
 9777SOL    HW130230   4.439   1.645   5.380
 9777SOL    HW230231   4.423   1.803   5.341
 9778SOL     OW30232   1.078   3.899   3.099
 9778SOL    HW130233   0.988   3.860   3.080
 9778SOL    HW230234   1.107   3.955   3.021
 9779SOL     OW30235   3.028   0.268   3.642
 9779SOL    HW130236   2.937   0.279   3.602
 9779SOL    HW230237   3.028   0.190   3.705
 9780SOL     OW30238   0.457   1.854   0.538
 9780SOL    HW130239   0.380   1.790   0.530
 9780SOL    HW230240   0.543   1.802   0.539
 9781SOL     OW30241   1.110   1.344   1.908
 9781SOL    HW130242   1.191   1.295   1.875
 9781SOL    HW230243   1.040   1.277   1.935
 9782SOL     OW30244   0.299   2.329   0.543
 9782SOL    HW130245   0.355   2.387   0.484
 9782SOL    HW230246   0.204   2.361   0.540
 9783SOL     OW30247   4.385   1.521   2.891
 9783SOL    HW130248   4.428   1.571   2.816
 9783SOL    HW230249   4.440   1.441   2.913
 9784SOL     OW30250   1.690   1.169   6.729
 9784SOL    HW130251   1.736   1.101   6.671
 9784SOL    HW230252   1.663   1.247   6.673
 9785SOL     OW30253   0.849   3.889   4.587
 9785SOL    HW130254   0.897   3.846   4.664
 9785SOL    HW230255   0.904   3.880   4.504
 9786SOL     OW30256   2.706   4.229   6.816
 9786SOL    HW130257   2.651   4.153   6.852
 9786SOL    HW230258   2.704   4.227   6.716
 9787SOL     OW30259   2.975   3.811   2.180
 9787SOL    HW130260   3.043   3.739   2.166
 9787SOL    HW230261   2.884   3.770   2.190
 9788SOL     OW30262   3.647   6.914   2.475
 9788SOL    HW130263   3.716   6.893   2.406
 9788SOL    HW230264   3.658   7.009   2.505
 9789SOL     OW30265   3.141   0.998   0.214
 9789SOL    HW130266   3.223   0.991   0.157
 9789SOL    HW230267   3.153   1.070   0.282
 9790SOL     OW30268   4.507   5.421   4.978
 9790SOL    HW130269   4.552   5.508   4.958
 9790SOL    HW230270   4.473   5.422   5.072
 9791SOL     OW30271   0.550   0.303   1.406
 9791SOL    HW130272   0.489   0.225   1.418
 9791SOL    HW230273   0.496   0.387   1.398
 9792SOL     OW30274   3.562   4.537   0.911
 9792SOL    HW130275   3.644   4.482   0.929
 9792SOL    HW230276   3.481   4.481   0.928
 9793SOL     OW30277   6.123   0.913   2.853
 9793SOL    HW130278   6.103   0.909   2.755
 9793SOL    HW230279   6.195   0.981   2.869
 9794SOL     OW30280   4.211   5.062   4.242
 9794SOL    HW130281   4.194   4.969   4.209
 9794SOL    HW230282   4.308   5.072   4.264
 9795SOL     OW30283   0.767   3.479   3.655
 9795SOL    HW130284   0.752   3.562   3.601
 9795SOL    HW230285   0.821   3.414   3.601
 9796SOL     OW30286   2.901   3.712   4.189
 9796SOL    HW130287   2.909   3.627   4.242
 9796SOL    HW230288   2.934   3.789   4.244
 9797SOL     OW30289   3.192   5.449   6.730
 9797SOL    HW130290   3.159   5.541   6.707
 9797SOL    HW230291   3.190   5.437   6.830
 9798SOL     OW30292   6.877   4.445   6.503
 9798SOL    HW130293   6.883   4.401   6.413
 9798SOL    HW230294   6.913   4.382   6.573
 9799SOL     OW30295   3.418   0.342   0.307
 9799SOL    HW130296   3.338   0.308   0.257
 9799SOL    HW230297   3.492   0.276   0.301
 9800SOL     OW30298   6.811   3.664   4.354
 9800SOL    HW130299   6.750   3.719   4.411
 9800SOL    HW230300   6.906   3.680   4.382
 9801SOL     OW30301   4.718   5.949   0.749
 9801SOL    HW130302   4.778   5.921   0.674
 9801SOL    HW230303   4.745   5.901   0.833
 9802SOL     OW30304   3.862   3.952   0.137
 9802SOL    HW130305   3.961   3.938   0.140
 9802SOL    HW230306   3.841   4.048   0.118
 9803SOL     OW30307   1.232   3.835   6.317
 9803SOL    HW130308   1.152   3.801   6.367
 9803SOL    HW230309   1.233   3.794   6.225
 9804SOL     OW30310   1.060   4.640   3.201
 9804SOL    HW130311   1.058   4.560   3.261
 9804SOL    HW230312   0.967   4.671   3.182
 9805SOL     OW30313   0.321   5.645   4.070
 9805SOL    HW130314   0.419   5.643   4.085
 9805SOL    HW230315   0.299   5.593   3.987
 9806SOL     OW30316   3.551   1.880   0.343
 9806SOL    HW130317   3.508   1.837   0.264
 9806SOL    HW230318   3.622   1.944   0.313
 9807SOL     OW30319   4.089   3.423   3.208
 9807SOL    HW130320   4.174   3.477   3.209
 9807SOL    HW230321   4.076   3.381   3.297
 9808SOL     OW30322   3.523   5.455   2.372
 9808SOL    HW130323   3.461   5.407   2.308
 9808SOL    HW230324   3.590   5.390   2.408
 9809SOL     OW30325   6.141   2.352   0.551
 9809SOL    HW130326   6.046   2.379   0.568
 9809SOL    HW230327   6.198   2.381   0.628
 9810SOL     OW30328   2.149   2.259   1.027
 9810SOL    HW130329   2.166   2.300   0.937
 9810SOL    HW230330   2.166   2.161   1.022
 9811SOL     OW30331   5.732   3.898   4.670
 9811SOL    HW130332   5.662   3.922   4.603
 9811SOL    HW230333   5.823   3.912   4.629
 9812SOL     OW30334   3.309   5.699   5.693
 9812SOL    HW130335   3.281   5.758   5.618
 9812SOL    HW230336   3.372   5.629   5.659
 9813SOL     OW30337   4.898   0.938   2.548
 9813SOL    HW130338   4.976   1.000   2.548
 9813SOL    HW230339   4.884   0.903   2.641
 9814SOL     OW30340   0.012   1.432   6.071
 9814SOL    HW130341   0.074   1.403   6.144
 9814SOL    HW230342   6.996   1.351   6.027
 9815SOL     OW30343   3.969   2.184   3.982
 9815SOL    HW130344   3.894   2.119   3.995
 9815SOL    HW230345   3.979   2.203   3.884
 9816SOL     OW30346   2.981   0.916   1.048
 9816SOL    HW130347   3.022   1.005   1.066
 9816SOL    HW230348   3.035   0.868   0.978
 9817SOL     OW30349   6.470   0.245   1.806
 9817SOL    HW130350   6.512   0.282   1.889
 9817SOL    HW230351   6.519   0.162   1.778
 9818SOL     OW30352   4.529   2.911   5.274
 9818SOL    HW130353   4.593   2.983   5.298
 9818SOL    HW230354   4.441   2.951   5.248
 9819SOL     OW30355   4.039   0.818   1.925
 9819SOL    HW130356   4.102   0.746   1.957
 9819SOL    HW230357   3.968   0.832   1.994
 9820SOL     OW30358   3.827   2.762   0.048
 9820SOL    HW130359   3.908   2.708   0.028
 9820SOL    HW230360   3.800   2.748   0.143
 9821SOL     OW30361   0.033   5.311   6.962
 9821SOL    HW130362   7.003   5.381   6.915
 9821SOL    HW230363   7.014   5.292   0.028
 9822SOL     OW30364   0.922   0.537   3.192
 9822SOL    HW130365   1.006   0.501   3.232
 9822SOL    HW230366   0.908   0.495   3.102
 9823SOL     OW30367   3.558   6.828   1.600
 9823SOL    HW130368   3.591   6.776   1.522
 9823SOL    HW230369   3.470   6.870   1.578
 9824SOL     OW30370   1.322   3.969   5.823
 9824SOL    HW130371   1.249   3.973   5.891
 9824SOL    HW230372   1.411   3.977   5.869
 9825SOL     OW30373   4.084   5.201   5.306
 9825SOL    HW130374   4.103   5.215   5.403
 9825SOL    HW230375   4.148   5.135   5.268
 9826SOL     OW30376   4.991   0.458   5.846
 9826SOL    HW130377   5.004   0.401   5.927
 9826SOL    HW230378   5.062   0.438   5.779
 9827SOL     OW30379   0.980   3.905   4.346
 9827SOL    HW130380   0.932   3.851   4.277
 9827SOL    HW230381   1.079   3.891   4.337
 9828SOL     OW30382   2.783   2.728   6.532
 9828SOL    HW130383   2.767   2.635   6.566
 9828SOL    HW230384   2.858   2.726   6.465
 9829SOL     OW30385   3.235   4.080   1.104
 9829SOL    HW130386   3.246   4.166   1.154
 9829SOL    HW230387   3.142   4.045   1.117
 9830SOL     OW30388   6.605   0.976   0.247
 9830SOL    HW130389   6.600   0.919   0.329
 9830SOL    HW230390   6.514   1.011   0.225
 9831SOL     OW30391   5.797   6.954   0.790
 9831SOL    HW130392   5.802   0.029   0.772
 9831SOL    HW230393   5.843   6.933   0.876
 9832SOL     OW30394   3.874   5.215   1.175
 9832SOL    HW130395   3.882   5.260   1.264
 9832SOL    HW230396   3.956   5.235   1.120
 9833SOL     OW30397   4.086   3.996   5.579
 9833SOL    HW130398   4.128   3.962   5.663
 9833SOL    HW230399   3.990   3.969   5.576
 9834SOL     OW30400   1.591   2.498   4.279
 9834SOL    HW130401   1.585   2.549   4.365
 9834SOL    HW230402   1.593   2.399   4.299
 9835SOL     OW30403   4.902   1.778   4.460
 9835SOL    HW130404   4.869   1.694   4.417
 9835SOL    HW230405   4.840   1.853   4.438
 9836SOL     OW30406   4.915   4.867   2.340
 9836SOL    HW130407   4.893   4.791   2.279
 9836SOL    HW230408   4.962   4.832   2.421
 9837SOL     OW30409   1.372   6.744   4.535
 9837SOL    HW130410   1.465   6.729   4.570
 9837SOL    HW230411   1.306   6.724   4.607
 9838SOL     OW30412   6.656   5.416   5.262
 9838SOL    HW130413   6.664   5.507   5.304
 9838SOL    HW230414   6.588   5.362   5.312
 9839SOL     OW30415   0.084   2.480   2.707
 9839SOL    HW130416   0.019   2.447   2.776
 9839SOL    HW230417   0.160   2.527   2.752
 9840SOL     OW30418   6.504   0.527   0.904
 9840SOL    HW130419   6.592   0.522   0.951
 9840SOL    HW230420   6.503   0.462   0.828
 9841SOL     OW30421   1.597   3.631   4.362
 9841SOL    HW130422   1.651   3.700   4.313
 9841SOL    HW230423   1.658   3.574   4.418
 9842SOL     OW30424   3.281   2.958   3.056
 9842SOL    HW130425   3.333   3.042   3.037
 9842SOL    HW230426   3.203   2.980   3.114
 9843SOL     OW30427   6.001   3.183   2.355
 9843SOL    HW130428   5.919   3.229   2.320
 9843SOL    HW230429   6.064   3.165   2.280
 9844SOL     OW30430   5.072   0.527   2.392
 9844SOL    HW130431   5.091   0.495   2.485
 9844SOL    HW230432   5.137   0.484   2.329
 9845SOL     OW30433   0.879   2.061   3.781
 9845SOL    HW130434   0.869   1.963   3.762
 9845SOL    HW230435   0.806   2.111   3.735
 9846SOL     OW30436   2.879   3.582   2.971
 9846SOL    HW130437   2.853   3.486   2.963
 9846SOL    HW230438   2.827   3.636   2.905
 9847SOL     OW30439   2.294   4.477   5.063
 9847SOL    HW130440   2.279   4.392   5.013
 9847SOL    HW230441   2.209   4.506   5.107
 9848SOL     OW30442   4.925   3.429   0.227
 9848SOL    HW130443   4.826   3.446   0.220
 9848SOL    HW230444   4.974   3.506   0.187
 9849SOL     OW30445   0.188   6.845   5.048
 9849SOL    HW130446   0.260   6.895   5.000
 9849SOL    HW230447   0.229   6.794   5.124
 9850SOL     OW30448   4.279   6.788   2.725
 9850SOL    HW130449   4.314   6.780   2.818
 9850SOL    HW230450   4.248   6.882   2.710
 9851SOL     OW30451   5.721   3.192   4.706
 9851SOL    HW130452   5.814   3.208   4.739
 9851SOL    HW230453   5.720   3.201   4.606
 9852SOL     OW30454   4.988   2.139   3.957
 9852SOL    HW130455   4.896   2.104   3.972
 9852SOL    HW230456   4.985   2.211   3.887
 9853SOL     OW30457   0.205   4.024   1.494
 9853SOL    HW130458   0.299   4.028   1.460
 9853SOL    HW230459   0.181   3.929   1.513
 9854SOL     OW30460   4.528   6.054   3.224
 9854SOL    HW130461   4.598   6.111   3.267
 9854SOL    HW230462   4.566   5.963   3.207
 9855SOL     OW30463   1.611   3.387   0.960
 9855SOL    HW130464   1.578   3.451   0.891
 9855SOL    HW230465   1.710   3.399   0.971
 9856SOL     OW30466   3.916   2.595   0.763
 9856SOL    HW130467   3.901   2.504   0.803
 9856SOL    HW230468   4.009   2.625   0.783
 9857SOL     OW30469   6.091   4.177   3.470
 9857SOL    HW130470   6.029   4.235   3.522
 9857SOL    HW230471   6.041   4.097   3.436
 9858SOL     OW30472   4.371   1.640   1.187
 9858SOL    HW130473   4.326   1.579   1.123
 9858SOL    HW230474   4.349   1.613   1.281
 9859SOL     OW30475   6.290   0.676   1.614
 9859SOL    HW130476   6.380   0.713   1.592
 9859SOL    HW230477   6.264   0.608   1.546
 9860SOL     OW30478   0.375   0.904   2.265
 9860SOL    HW130479   0.314   0.884   2.189
 9860SOL    HW230480   0.336   0.870   2.350
 9861SOL     OW30481   3.588   6.667   4.945
 9861SOL    HW130482   3.538   6.621   5.019
 9861SOL    HW230483   3.591   6.608   4.865
 9862SOL     OW30484   0.875   2.609   0.681
 9862SOL    HW130485   0.780   2.602   0.712
 9862SOL    HW230486   0.907   2.519   0.652
 9863SOL     OW30487   3.105   0.021   0.933
 9863SOL    HW130488   3.191   7.005   0.967
 9863SOL    HW230489   3.104   0.019   0.833
 9864SOL     OW30490   4.447   5.975   2.504
 9864SOL    HW130491   4.348   5.970   2.519
 9864SOL    HW230492   4.474   6.071   2.496
 9865SOL     OW30493   0.789   2.924   5.062
 9865SOL    HW130494   0.748   2.907   4.972
 9865SOL    HW230495   0.888   2.926   5.053
 9866SOL     OW30496   4.100   4.860   3.467
 9866SOL    HW130497   4.154   4.944   3.470
 9866SOL    HW230498   4.042   4.861   3.386
 9867SOL     OW30499   3.907   0.535   5.814
 9867SOL    HW130500   3.827   0.595   5.806
 9867SOL    HW230501   3.990   0.591   5.813
 9868SOL     OW30502   7.018   5.393   6.554
 9868SOL    HW130503   0.089   5.428   6.556
 9868SOL    HW230504   6.972   5.419   6.639
 9869SOL     OW30505   1.810   3.719   3.655
 9869SOL    HW130506   1.839   3.696   3.748
 9869SOL    HW230507   1.761   3.806   3.656
 9870SOL     OW30508   4.865   4.408   2.296
 9870SOL    HW130509   4.818   4.329   2.258
 9870SOL    HW230510   4.941   4.434   2.236
 9871SOL     OW30511   1.603   1.544   5.479
 9871SOL    HW130512   1.625   1.612   5.409
 9871SOL    HW230513   1.590   1.454   5.436
 9872SOL     OW30514   1.455   5.137   3.702
 9872SOL    HW130515   1.403   5.193   3.767
 9872SOL    HW230516   1.553   5.156   3.713
 9873SOL     OW30517   0.948   2.971   0.468
 9873SOL    HW130518   0.880   2.900   0.483
 9873SOL    HW230519   1.040   2.930   0.471
 9874SOL     OW30520   0.862   3.011   3.537
 9874SOL    HW130521   0.795   3.052   3.599
 9874SOL    HW230522   0.954   3.038   3.567
 9875SOL     OW30523   0.981   0.870   3.386
 9875SOL    HW130524   1.043   0.908   3.455
 9875SOL    HW230525   1.029   0.800   3.333
 9876SOL     OW30526   6.987   6.017   2.643
 9876SOL    HW130527   7.003   5.964   2.726
 9876SOL    HW230528   0.001   5.967   2.564
 9877SOL     OW30529   3.694   0.300   2.177
 9877SOL    HW130530   3.628   0.255   2.118
 9877SOL    HW230531   3.712   0.243   2.257
 9878SOL     OW30532   0.703   0.367   5.140
 9878SOL    HW130533   0.697   0.268   5.127
 9878SOL    HW230534   0.732   0.387   5.234
 9879SOL     OW30535   5.584   6.151   6.016
 9879SOL    HW130536   5.528   6.113   6.089
 9879SOL    HW230537   5.677   6.168   6.050
 9880SOL     OW30538   1.985   1.669   4.871
 9880SOL    HW130539   1.908   1.727   4.895
 9880SOL    HW230540   2.053   1.723   4.819
 9881SOL     OW30541   6.928   2.314   6.460
 9881SOL    HW130542   6.966   2.349   6.546
 9881SOL    HW230543   6.898   2.391   6.404
 9882SOL     OW30544   1.229   1.638   2.984
 9882SOL    HW130545   1.158   1.707   2.976
 9882SOL    HW230546   1.197   1.552   2.944
 9883SOL     OW30547   2.129   0.456   1.961
 9883SOL    HW130548   2.034   0.472   1.936
 9883SOL    HW230549   2.146   0.487   2.054
 9884SOL     OW30550   3.683   0.755   4.031
 9884SOL    HW130551   3.590   0.718   4.045
 9884SOL    HW230552   3.737   0.740   4.114
 9885SOL     OW30553   5.941   4.895   3.773
 9885SOL    HW130554   5.995   4.848   3.842
 9885SOL    HW230555   5.926   4.834   3.695
 9886SOL     OW30556   1.368   3.450   2.180
 9886SOL    HW130557   1.405   3.463   2.272
 9886SOL    HW230558   1.433   3.484   2.112
 9887SOL     OW30559   4.450   0.300   6.064
 9887SOL    HW130560   4.355   0.324   6.085
 9887SOL    HW230561   4.504   0.300   6.149
 9888SOL     OW30562   0.143   4.467   0.480
 9888SOL    HW130563   0.148   4.421   0.568
 9888SOL    HW230564   0.207   4.544   0.479
 9889SOL     OW30565   0.424   5.262   0.341
 9889SOL    HW130566   0.330   5.283   0.368
 9889SOL    HW230567   0.455   5.326   0.271
 9890SOL     OW30568   0.850   2.764   1.026
 9890SOL    HW130569   0.838   2.817   1.110
 9890SOL    HW230570   0.899   2.820   0.959
 9891SOL     OW30571   5.015   1.506   1.676
 9891SOL    HW130572   4.980   1.573   1.610
 9891SOL    HW230573   4.939   1.472   1.731
 9892SOL     OW30574   0.139   5.785   6.401
 9892SOL    HW130575   0.092   5.708   6.359
 9892SOL    HW230576   0.221   5.753   6.449
 9893SOL     OW30577   2.144   1.186   1.279
 9893SOL    HW130578   2.171   1.167   1.374
 9893SOL    HW230579   2.210   1.145   1.217
 9894SOL     OW30580   1.543   1.765   0.635
 9894SOL    HW130581   1.511   1.838   0.696
 9894SOL    HW230582   1.499   1.775   0.546
 9895SOL     OW30583   4.951   3.527   5.778
 9895SOL    HW130584   4.993   3.439   5.801
 9895SOL    HW230585   4.978   3.553   5.685
 9896SOL     OW30586   6.107   6.803   0.048
 9896SOL    HW130587   6.128   6.866   0.123
 9896SOL    HW230588   6.094   6.854   6.986
 9897SOL     OW30589   4.988   5.275   3.769
 9897SOL    HW130590   5.063   5.209   3.770
 9897SOL    HW230591   4.903   5.229   3.744
 9898SOL     OW30592   3.031   6.176   5.350
 9898SOL    HW130593   2.940   6.181   5.391
 9898SOL    HW230594   3.030   6.225   5.262
 9899SOL     OW30595   6.969   5.513   6.819
 9899SOL    HW130596   0.007   5.592   6.814
 9899SOL    HW230597   6.875   5.542   6.799
 9900SOL     OW30598   2.062   3.595   3.578
 9900SOL    HW130599   2.105   3.648   3.651
 9900SOL    HW230600   1.970   3.630   3.561
 9901SOL     OW30601   2.223   2.533   5.355
 9901SOL    HW130602   2.204   2.630   5.367
 9901SOL    HW230603   2.214   2.508   5.258
 9902SOL     OW30604   2.409   4.190   6.930
 9902SOL    HW130605   2.391   4.178   6.833
 9902SOL    HW230606   2.399   4.286   6.955
 9903SOL     OW30607   5.910   0.728   3.647
 9903SOL    HW130608   5.904   0.715   3.548
 9903SOL    HW230609   5.946   0.820   3.666
 9904SOL     OW30610   6.872   2.569   6.358
 9904SOL    HW130611   6.946   2.623   6.317
 9904SOL    HW230612   6.814   2.629   6.414
 9905SOL     OW30613   4.411   1.258   0.127
 9905SOL    HW130614   4.496   1.213   0.154
 9905SOL    HW230615   4.388   1.232   0.033
 9906SOL     OW30616   4.064   3.649   4.227
 9906SOL    HW130617   4.149   3.602   4.206
 9906SOL    HW230618   4.062   3.675   4.323
 9907SOL     OW30619   0.652   0.599   1.234
 9907SOL    HW130620   0.723   0.577   1.301
 9907SOL    HW230621   0.652   0.530   1.162
 9908SOL     OW30622   5.094   3.389   3.084
 9908SOL    HW130623   5.061   3.296   3.063
 9908SOL    HW230624   5.063   3.415   3.176
 9909SOL     OW30625   2.340   6.992   5.247
 9909SOL    HW130626   2.323   0.007   5.338
 9909SOL    HW230627   2.262   6.935   5.219
 9910SOL     OW30628   0.764   4.276   3.338
 9910SOL    HW130629   0.743   4.202   3.402
 9910SOL    HW230630   0.680   4.323   3.312
 9911SOL     OW30631   3.064   6.355   2.326
 9911SOL    HW130632   3.040   6.295   2.403
 9911SOL    HW230633   3.073   6.449   2.358
 9912SOL     OW30634   4.843   1.136   6.914
 9912SOL    HW130635   4.804   1.045   6.934
 9912SOL    HW230636   4.769   1.199   6.891
 9913SOL     OW30637   5.504   3.164   6.666
 9913SOL    HW130638   5.461   3.083   6.706
 9913SOL    HW230639   5.559   3.210   6.735
 9914SOL     OW30640   6.714   3.009   4.760
 9914SOL    HW130641   6.742   3.038   4.851
 9914SOL    HW230642   6.795   3.002   4.701
 9915SOL     OW30643   5.665   0.564   3.752
 9915SOL    HW130644   5.688   0.468   3.736
 9915SOL    HW230645   5.742   0.621   3.723
 9916SOL     OW30646   2.350   2.369   1.766
 9916SOL    HW130647   2.255   2.397   1.762
 9916SOL    HW230648   2.393   2.384   1.677
 9917SOL     OW30649   6.470   4.155   4.880
 9917SOL    HW130650   6.545   4.090   4.866
 9917SOL    HW230651   6.438   4.150   4.975
 9918SOL     OW30652   4.338   2.132   2.887
 9918SOL    HW130653   4.357   2.135   2.789
 9918SOL    HW230654   4.331   2.225   2.923
 9919SOL     OW30655   6.873   6.149   0.525
 9919SOL    HW130656   6.891   6.092   0.445
 9919SOL    HW230657   6.956   6.201   0.548
 9920SOL     OW30658   5.078   1.427   2.360
 9920SOL    HW130659   5.117   1.445   2.269
 9920SOL    HW230660   5.030   1.340   2.359
 9921SOL     OW30661   3.720   5.664   5.869
 9921SOL    HW130662   3.799   5.720   5.843
 9921SOL    HW230663   3.640   5.723   5.879
 9922SOL     OW30664   0.507   5.366   0.673
 9922SOL    HW130665   0.456   5.310   0.608
 9922SOL    HW230666   0.602   5.374   0.642
 9923SOL     OW30667   5.359   4.794   0.536
 9923SOL    HW130668   5.391   4.715   0.483
 9923SOL    HW230669   5.401   4.791   0.627
 9924SOL     OW30670   0.934   4.160   4.620
 9924SOL    HW130671   0.910   4.064   4.606
 9924SOL    HW230672   0.856   4.209   4.660
 9925SOL     OW30673   5.259   2.689   3.748
 9925SOL    HW130674   5.246   2.722   3.655
 9925SOL    HW230675   5.323   2.612   3.748
 9926SOL     OW30676   1.949   5.117   6.901
 9926SOL    HW130677   2.002   5.100   6.818
 9926SOL    HW230678   1.870   5.055   6.903
 9927SOL     OW30679   6.268   6.925   2.680
 9927SOL    HW130680   6.306   6.887   2.595
 9927SOL    HW230681   6.185   6.976   2.659
 9928SOL     OW30682   4.804   4.274   1.499
 9928SOL    HW130683   4.830   4.247   1.406
 9928SOL    HW230684   4.705   4.277   1.507
 9929SOL     OW30685   1.990   4.367   3.347
 9929SOL    HW130686   2.040   4.440   3.394
 9929SOL    HW230687   1.985   4.286   3.406
 9930SOL     OW30688   6.845   0.358   3.823
 9930SOL    HW130689   6.806   0.267   3.805
 9930SOL    HW230690   6.843   0.412   3.738
 9931SOL     OW30691   0.914   5.023   5.437
 9931SOL    HW130692   0.894   5.074   5.521
 9931SOL    HW230693   0.910   4.925   5.456
 9932SOL     OW30694   1.058   6.329   5.294
 9932SOL    HW130695   1.016   6.365   5.211
 9932SOL    HW230696   1.017   6.241   5.317
 9933SOL     OW30697   0.259   5.953   2.191
 9933SOL    HW130698   0.352   5.986   2.207
 9933SOL    HW230699   0.226   5.988   2.103
 9934SOL     OW30700   6.650   2.035   6.461
 9934SOL    HW130701   6.651   2.012   6.363
 9934SOL    HW230702   6.556   2.034   6.495
 9935SOL     OW30703   3.274   0.979   6.472
 9935SOL    HW130704   3.298   0.949   6.565
 9935SOL    HW230705   3.174   0.980   6.462
 9936SOL     OW30706   0.585   4.417   4.373
 9936SOL    HW130707   0.486   4.431   4.379
 9936SOL    HW230708   0.614   4.429   4.278
 9937SOL     OW30709   6.650   2.348   6.550
 9937SOL    HW130710   6.661   2.256   6.515
 9937SOL    HW230711   6.739   2.392   6.559
 9938SOL     OW30712   6.413   6.311   2.808
 9938SOL    HW130713   6.406   6.353   2.898
 9938SOL    HW230714   6.477   6.362   2.751
 9939SOL     OW30715   3.317   3.077   2.175
 9939SOL    HW130716   3.399   3.116   2.132
 9939SOL    HW230717   3.312   2.980   2.154
 9940SOL     OW30718   0.206   1.365   0.400
 9940SOL    HW130719   0.177   1.333   0.310
 9940SOL    HW230720   0.272   1.439   0.389
 9941SOL     OW30721   3.398   4.822   5.939
 9941SOL    HW130722   3.490   4.802   5.908
 9941SOL    HW230723   3.359   4.896   5.885
 9942SOL     OW30724   2.514   5.456   3.317
 9942SOL    HW130725   2.431   5.424   3.362
 9942SOL    HW230726   2.538   5.394   3.242
 9943SOL     OW30727   1.254   6.590   5.071
 9943SOL    HW130728   1.207   6.648   5.004
 9943SOL    HW230729   1.220   6.611   5.163
 9944SOL     OW30730   0.567   3.836   0.175
 9944SOL    HW130731   0.522   3.754   0.211
 9944SOL    HW230732   0.536   3.852   0.082
 9945SOL     OW30733   6.537   5.660   0.247
 9945SOL    HW130734   6.545   5.759   0.252
 9945SOL    HW230735   6.599   5.625   0.176
 9946SOL     OW30736   5.254   1.079   4.822
 9946SOL    HW130737   5.273   1.165   4.774
 9946SOL    HW230738   5.257   1.095   4.921
 9947SOL     OW30739   5.891   4.523   3.644
 9947SOL    HW130740   5.892   4.615   3.603
 9947SOL    HW230741   5.980   4.504   3.685
 9948SOL     OW30742   5.216   4.498   4.359
 9948SOL    HW130743   5.239   4.513   4.263
 9948SOL    HW230744   5.128   4.452   4.365
 9949SOL     OW30745   5.864   5.276   2.776
 9949SOL    HW130746   5.901   5.270   2.684
 9949SOL    HW230747   5.826   5.368   2.791
 9950SOL     OW30748   3.741   5.801   5.451
 9950SOL    HW130749   3.653   5.821   5.493
 9950SOL    HW230750   3.748   5.849   5.364
 9951SOL     OW30751   6.023   2.303   2.731
 9951SOL    HW130752   6.069   2.331   2.816
 9951SOL    HW230753   5.938   2.256   2.753
 9952SOL     OW30754   0.485   5.542   0.116
 9952SOL    HW130755   0.399   5.530   0.066
 9952SOL    HW230756   0.552   5.476   0.084
 9953SOL     OW30757   6.636   1.845   4.204
 9953SOL    HW130758   6.554   1.858   4.260
 9953SOL    HW230759   6.653   1.928   4.150
 9954SOL     OW30760   4.653   0.367   5.461
 9954SOL    HW130761   4.563   0.346   5.422
 9954SOL    HW230762   4.663   0.317   5.548
 9955SOL     OW30763   0.734   4.420   4.838
 9955SOL    HW130764   0.644   4.417   4.881
 9955SOL    HW230765   0.732   4.368   4.753
 9956SOL     OW30766   1.440   6.139   0.970
 9956SOL    HW130767   1.506   6.146   0.896
 9956SOL    HW230768   1.488   6.117   1.055
 9957SOL     OW30769   6.159   4.334   2.801
 9957SOL    HW130770   6.177   4.405   2.734
 9957SOL    HW230771   6.060   4.327   2.816
 9958SOL     OW30772   2.170   4.155   1.475
 9958SOL    HW130773   2.189   4.198   1.563
 9958SOL    HW230774   2.248   4.098   1.448
 9959SOL     OW30775   3.792   3.594   0.851
 9959SOL    HW130776   3.812   3.649   0.770
 9959SOL    HW230777   3.847   3.511   0.850
 9960SOL     OW30778   0.966   1.309   2.312
 9960SOL    HW130779   0.944   1.396   2.268
 9960SOL    HW230780   1.064   1.291   2.303
 9961SOL     OW30781   2.228   4.650   4.762
 9961SOL    HW130782   2.199   4.730   4.815
 9961SOL    HW230783   2.315   4.616   4.798
 9962SOL     OW30784   5.595   6.256   4.983
 9962SOL    HW130785   5.677   6.303   4.949
 9962SOL    HW230786   5.619   6.200   5.062
 9963SOL     OW30787   3.046   0.533   0.680
 9963SOL    HW130788   3.004   0.623   0.678
 9963SOL    HW230789   3.041   0.496   0.773
 9964SOL     OW30790   4.919   5.726   5.143
 9964SOL    HW130791   4.926   5.638   5.096
 9964SOL    HW230792   4.888   5.710   5.237
 9965SOL     OW30793   3.832   0.361   6.958
 9965SOL    HW130794   3.919   0.335   7.001
 9965SOL    HW230795   3.762   0.293   6.982
 9966SOL     OW30796   0.372   0.009   2.892
 9966SOL    HW130797   0.443   0.053   2.947
 9966SOL    HW230798   0.282   0.043   2.922
 9967SOL     OW30799   1.192   5.045   0.650
 9967SOL    HW130800   1.278   5.003   0.680
 9967SOL    HW230801   1.185   5.040   0.551
 9968SOL     OW30802   3.520   2.910   2.629
 9968SOL    HW130803   3.426   2.902   2.661
 9968SOL    HW230804   3.520   2.955   2.540
 9969SOL     OW30805   1.173   3.414   1.676
 9969SOL    HW130806   1.200   3.443   1.767
 9969SOL    HW230807   1.135   3.492   1.626
 9970SOL     OW30808   5.762   4.595   1.352
 9970SOL    HW130809   5.784   4.654   1.430
 9970SOL    HW230810   5.835   4.527   1.341
 9971SOL     OW30811   2.436   5.963   0.071
 9971SOL    HW130812   2.435   6.054   0.030
 9971SOL    HW230813   2.342   5.934   0.090
 9972SOL     OW30814   6.793   4.797   1.432
 9972SOL    HW130815   6.706   4.788   1.481
 9972SOL    HW230816   6.805   4.719   1.371
 9973SOL     OW30817   5.761   6.705   4.298
 9973SOL    HW130818   5.704   6.627   4.325
 9973SOL    HW230819   5.747   6.724   4.201
 9974SOL     OW30820   1.981   0.914   4.223
 9974SOL    HW130821   2.032   0.875   4.299
 9974SOL    HW230822   1.988   1.014   4.225
 9975SOL     OW30823   6.695   3.376   0.557
 9975SOL    HW130824   6.608   3.352   0.514
 9975SOL    HW230825   6.728   3.462   0.520
 9976SOL     OW30826   1.946   0.216   5.196
 9976SOL    HW130827   1.912   0.267   5.117
 9976SOL    HW230828   2.025   0.263   5.235
 9977SOL     OW30829   6.762   4.677   4.339
 9977SOL    HW130830   6.744   4.625   4.422
 9977SOL    HW230831   6.744   4.774   4.356
 9978SOL     OW30832   0.248   2.369   4.344
 9978SOL    HW130833   0.266   2.460   4.306
 9978SOL    HW230834   0.317   2.305   4.311
 9979SOL     OW30835   0.752   3.943   5.364
 9979SOL    HW130836   0.833   3.974   5.314
 9979SOL    HW230837   0.706   3.871   5.312
 9980SOL     OW30838   3.550   6.971   4.847
 9980SOL    HW130839   3.562   6.873   4.856
 9980SOL    HW230840   3.486   6.990   4.773
 9981SOL     OW30841   3.158   1.751   4.200
 9981SOL    HW130842   3.225   1.720   4.132
 9981SOL    HW230843   3.201   1.752   4.291
 9982SOL     OW30844   6.538   5.678   3.181
 9982SOL    HW130845   6.624   5.728   3.170
 9982SOL    HW230846   6.502   5.655   3.090
 9983SOL     OW30847   0.148   1.089   1.291
 9983SOL    HW130848   0.159   1.122   1.384
 9983SOL    HW230849   0.050   1.081   1.270
 9984SOL     OW30850   2.391   0.745   0.547
 9984SOL    HW130851   2.330   0.687   0.601
 9984SOL    HW230852   2.486   0.722   0.568
 9985SOL     OW30853   1.221   1.328   1.540
 9985SOL    HW130854   1.285   1.289   1.607
 9985SOL    HW230855   1.197   1.259   1.472
 9986SOL     OW30856   5.302   4.667   5.112
 9986SOL    HW130857   5.221   4.636   5.062
 9986SOL    HW230858   5.310   4.615   5.198
 9987SOL     OW30859   0.015   4.368   6.223
 9987SOL    HW130860   0.058   4.432   6.286
 9987SOL    HW230861   7.015   4.415   6.138
 9988SOL     OW30862   6.676   6.836   4.526
 9988SOL    HW130863   6.677   6.901   4.451
 9988SOL    HW230864   6.677   6.743   4.490
 9989SOL     OW30865   0.911   3.446   4.576
 9989SOL    HW130866   0.820   3.487   4.581
 9989SOL    HW230867   0.963   3.489   4.502
 9990SOL     OW30868   1.037   5.084   2.306
 9990SOL    HW130869   1.066   5.116   2.216
 9990SOL    HW230870   0.985   5.156   2.352
 9991SOL     OW30871   3.780   2.034   3.205
 9991SOL    HW130872   3.791   1.979   3.288
 9991SOL    HW230873   3.855   2.100   3.198
 9992SOL     OW30874   6.682   5.520   6.176
 9992SOL    HW130875   6.630   5.468   6.108
 9992SOL    HW230876   6.732   5.593   6.131
 9993SOL     OW30877   0.935   1.121   1.928
 9993SOL    HW130878   0.858   1.110   1.991
 9993SOL    HW230879   0.909   1.182   1.854
 9994SOL     OW30880   5.907   4.691   3.073
 9994SOL    HW130881   5.994   4.644   3.067
 9994SOL    HW230882   5.901   4.760   3.001
 9995SOL     OW30883   5.420   1.281   4.698
 9995SOL    HW130884   5.472   1.263   4.615
 9995SOL    HW230885   5.375   1.370   4.691
 9996SOL     OW30886   2.220   3.378   0.143
 9996SOL    HW130887   2.288   3.310   0.115
 9996SOL    HW230888   2.213   3.449   0.073
 9997SOL     OW30889   2.717   6.961   4.697
 9997SOL    HW130890   2.712   7.002   4.788
 9997SOL    HW230891   2.641   6.993   4.641
 9998SOL     OW30892   5.891   6.406   5.214
 9998SOL    HW130893   5.911   6.403   5.312
 9998SOL    HW230894   5.792   6.401   5.200
 9999SOL     OW30895   6.567   2.980   4.530
 9999SOL    HW130896   6.513   2.899   4.553
 9999SOL    HW230897   6.576   3.038   4.611
10000SOL     OW30898   0.053   4.000   6.788
10000SOL    HW130899   0.082   3.931   6.722
10000SOL    HW230900   0.054   3.960   6.880
10001SOL     OW30901   3.987   0.240   2.769
10001SOL    HW130902   3.943   0.318   2.723
10001SOL    HW230903   4.084   0.260   2.782
10002SOL     OW30904   0.779   1.295   1.758
10002SOL    HW130905   0.790   1.390   1.732
10002SOL    HW230906   0.682   1.277   1.778
10003SOL     OW30907   5.314   2.250   3.690
10003SOL    HW130908   5.303   2.287   3.782
10003SOL    HW230909   5.308   2.325   3.623
10004SOL     OW30910   0.451   2.206   2.995
10004SOL    HW130911   0.389   2.162   3.059
10004SOL    HW230912   0.420   2.189   2.901
10005SOL     OW30913   5.417   6.794   4.309
10005SOL    HW130914   5.331   6.760   4.271
10005SOL    HW230915   5.477   6.717   4.329
10006SOL     OW30916   4.822   1.429   4.590
10006SOL    HW130917   4.792   1.512   4.543
10006SOL    HW230918   4.749   1.395   4.648
10007SOL     OW30919   6.131   3.623   4.452
10007SOL    HW130920   6.102   3.574   4.370
10007SOL    HW230921   6.104   3.571   4.533
10008SOL     OW30922   3.805   6.968   4.045
10008SOL    HW130923   3.784   6.872   4.066
10008SOL    HW230924   3.750   6.997   3.967
10009SOL     OW30925   1.016   4.241   1.867
10009SOL    HW130926   0.919   4.259   1.850
10009SOL    HW230927   1.026   4.181   1.946
10010SOL     OW30928   6.518   1.722   6.358
10010SOL    HW130929   6.455   1.723   6.436
10010SOL    HW230930   6.498   1.799   6.298
10011SOL     OW30931   0.003   6.863   4.441
10011SOL    HW130932   0.072   6.809   4.393
10011SOL    HW230933   6.947   6.805   4.462
10012SOL     OW30934   5.644   0.263   4.222
10012SOL    HW130935   5.592   0.325   4.281
10012SOL    HW230936   5.703   0.206   4.279
10013SOL     OW30937   1.400   0.903   2.122
10013SOL    HW130938   1.449   0.933   2.040
10013SOL    HW230939   1.324   0.965   2.141
10014SOL     OW30940   1.963   5.045   5.534
10014SOL    HW130941   1.940   5.003   5.622
10014SOL    HW230942   1.910   5.129   5.523
10015SOL     OW30943   2.253   4.933   6.992
10015SOL    HW130944   2.192   4.880   0.028
10015SOL    HW230945   2.335   4.958   0.019
10016SOL     OW30946   2.750   0.714   5.684
10016SOL    HW130947   2.843   0.682   5.665
10016SOL    HW230948   2.751   0.814   5.691
10017SOL     OW30949   0.698   2.147   4.233
10017SOL    HW130950   0.691   2.242   4.264
10017SOL    HW230951   0.675   2.142   4.136
10018SOL     OW30952   4.771   6.827   5.982
10018SOL    HW130953   4.731   6.914   6.009
10018SOL    HW230954   4.726   6.753   6.031
10019SOL     OW30955   2.069   1.151   2.236
10019SOL    HW130956   1.975   1.116   2.233
10019SOL    HW230957   2.118   1.108   2.312
10020SOL     OW30958   0.098   2.715   0.094
10020SOL    HW130959   0.006   2.753   0.111
10020SOL    HW230960   0.153   2.783   0.046
10021SOL     OW30961   5.327   3.269   1.794
10021SOL    HW130962   5.371   3.292   1.881
10021SOL    HW230963   5.287   3.178   1.800
10022SOL     OW30964   1.699   0.579   6.335
10022SOL    HW130965   1.707   0.596   6.433
10022SOL    HW230966   1.718   0.664   6.285
10023SOL     OW30967   0.234   3.136   1.115
10023SOL    HW130968   0.197   3.052   1.076
10023SOL    HW230969   0.168   3.177   1.177
10024SOL     OW30970   1.360   4.736   3.460
10024SOL    HW130971   1.307   4.816   3.487
10024SOL    HW230972   1.457   4.755   3.471
10025SOL     OW30973   1.208   1.745   0.387
10025SOL    HW130974   1.234   1.655   0.352
10025SOL    HW230975   1.174   1.737   0.480
10026SOL     OW30976   0.073   0.303   3.933
10026SOL    HW130977   0.096   0.374   4.000
10026SOL    HW230978   7.006   0.322   3.893
10027SOL     OW30979   5.304   2.412   5.911
10027SOL    HW130980   5.338   2.333   5.861
10027SOL    HW230981   5.269   2.383   6.000
10028SOL     OW30982   2.016   0.586   1.444
10028SOL    HW130983   1.921   0.555   1.447
10028SOL    HW230984   2.042   0.624   1.533
10029SOL     OW30985   5.037   1.672   4.149
10029SOL    HW130986   5.065   1.759   4.108
10029SOL    HW230987   4.944   1.650   4.119
10030SOL     OW30988   1.201   0.700   2.957
10030SOL    HW130989   1.124   0.763   2.960
10030SOL    HW230990   1.286   0.752   2.951
10031SOL     OW30991   6.591   4.437   3.925
10031SOL    HW130992   6.519   4.373   3.951
10031SOL    HW230993   6.603   4.505   3.998
10032SOL     OW30994   2.868   1.038   5.194
10032SOL    HW130995   2.839   1.129   5.162
10032SOL    HW230996   2.903   0.985   5.117
10033SOL     OW30997   5.451   2.885   4.575
10033SOL    HW130998   5.500   2.891   4.662
10033SOL    HW230999   5.365   2.837   4.588
10034SOL     OW31000   4.915   0.291   6.053
10034SOL    HW131001   4.850   0.350   6.004
10034SOL    HW231002   4.938   0.213   5.995
10035SOL     OW31003   0.095   6.468   3.703
10035SOL    HW131004   0.129   6.562   3.707
10035SOL    HW231005   0.154   6.415   3.641
10036SOL     OW31006   6.874   0.414   7.015
10036SOL    HW131007   6.794   0.437   0.047
10036SOL    HW231008   6.944   0.483   0.005
10037SOL     OW31009   0.024   6.839   1.073
10037SOL    HW131010   6.983   6.904   1.033
10037SOL    HW231011   0.103   6.826   1.012
10038SOL     OW31012   6.517   0.366   0.704
10038SOL    HW131013   6.475   0.277   0.688
10038SOL    HW231014   6.603   0.372   0.653
10039SOL     OW31015   3.402   0.524   3.300
10039SOL    HW131016   3.343   0.538   3.379
10039SOL    HW231017   3.346   0.509   3.219
10040SOL     OW31018   0.403   2.156   1.125
10040SOL    HW131019   0.450   2.068   1.131
10040SOL    HW231020   0.466   2.230   1.149
10041SOL     OW31021   1.353   6.006   0.630
10041SOL    HW131022   1.346   6.088   0.687
10041SOL    HW231023   1.429   5.949   0.662
10042SOL     OW31024   6.355   2.461   3.281
10042SOL    HW131025   6.331   2.557   3.293
10042SOL    HW231026   6.349   2.438   3.184
10043SOL     OW31027   0.655   3.190   4.862
10043SOL    HW131028   0.723   3.142   4.919
10043SOL    HW231029   0.670   3.288   4.869
10044SOL     OW31030   3.877   2.087   6.227
10044SOL    HW131031   3.811   2.039   6.284
10044SOL    HW231032   3.949   2.023   6.199
10045SOL     OW31033   2.154   0.782   0.294
10045SOL    HW131034   2.206   0.844   0.352
10045SOL    HW231035   2.156   0.690   0.333
10046SOL     OW31036   0.924   5.247   1.194
10046SOL    HW131037   0.831   5.283   1.205
10046SOL    HW231038   0.983   5.286   1.264
10047SOL     OW31039   1.247   3.701   0.741
10047SOL    HW131040   1.260   3.616   0.793
10047SOL    HW231041   1.288   3.691   0.651
10048SOL     OW31042   5.768   5.105   2.285
10048SOL    HW131043   5.836   5.042   2.245
10048SOL    HW231044   5.698   5.126   2.216
10049SOL     OW31045   5.828   1.220   5.083
10049SOL    HW131046   5.814   1.265   4.995
10049SOL    HW231047   5.818   1.121   5.071
10050SOL     OW31048   0.219   2.906   5.947
10050SOL    HW131049   0.153   2.904   6.022
10050SOL    HW231050   0.312   2.902   5.984
10051SOL     OW31051   2.011   1.567   4.328
10051SOL    HW131052   2.038   1.481   4.284
10051SOL    HW231053   1.934   1.549   4.390
10052SOL     OW31054   1.498   0.461   3.348
10052SOL    HW131055   1.428   0.485   3.416
10052SOL    HW231056   1.551   0.384   3.381
10053SOL     OW31057   5.933   4.967   2.924
10053SOL    HW131058   5.960   4.981   3.019
10053SOL    HW231059   5.866   5.036   2.898
10054SOL     OW31060   6.884   4.280   4.408
10054SOL    HW131061   6.850   4.229   4.487
10054SOL    HW231062   6.816   4.278   4.335
10055SOL     OW31063   1.514   2.250   6.611
10055SOL    HW131064   1.571   2.220   6.688
10055SOL    HW231065   1.547   2.206   6.527
10056SOL     OW31066   6.307   2.170   4.259
10056SOL    HW131067   6.290   2.131   4.349
10056SOL    HW231068   6.343   2.263   4.269
10057SOL     OW31069   5.310   5.165   5.875
10057SOL    HW131070   5.351   5.074   5.863
10057SOL    HW231071   5.215   5.155   5.903
10058SOL     OW31072   0.095   4.205   4.969
10058SOL    HW131073   0.117   4.119   5.015
10058SOL    HW231074   0.046   4.185   4.883
10059SOL     OW31075   5.557   6.713   6.410
10059SOL    HW131076   5.617   6.657   6.468
10059SOL    HW231077   5.462   6.702   6.440
10060SOL     OW31078   3.293   1.629   1.852
10060SOL    HW131079   3.250   1.712   1.818
10060SOL    HW231080   3.380   1.651   1.896
10061SOL     OW31081   3.005   0.255   2.338
10061SOL    HW131082   2.919   0.204   2.343
10061SOL    HW231083   3.072   0.202   2.286
10062SOL     OW31084   0.482   6.672   4.809
10062SOL    HW131085   0.385   6.665   4.831
10062SOL    HW231086   0.532   6.707   4.889
10063SOL     OW31087   2.754   2.247   4.505
10063SOL    HW131088   2.736   2.149   4.511
10063SOL    HW231089   2.679   2.298   4.548
10064SOL     OW31090   2.802   0.544   2.280
10064SOL    HW131091   2.794   0.633   2.325
10064SOL    HW231092   2.887   0.541   2.227
10065SOL     OW31093   0.132   1.810   1.597
10065SOL    HW131094   0.196   1.779   1.526
10065SOL    HW231095   0.082   1.731   1.633
10066SOL     OW31096   6.499   5.082   3.496
10066SOL    HW131097   6.560   5.005   3.513
10066SOL    HW231098   6.447   5.102   3.579
10067SOL     OW31099   6.913   3.670   5.404
10067SOL    HW131100   6.840   3.690   5.340
10067SOL    HW231101   6.886   3.699   5.496
10068SOL     OW31102   1.436   2.409   2.289
10068SOL    HW131103   1.368   2.364   2.232
10068SOL    HW231104   1.475   2.486   2.238
10069SOL     OW31105   3.217   4.856   1.038
10069SOL    HW131106   3.225   4.779   0.975
10069SOL    HW231107   3.167   4.930   0.993
10070SOL     OW31108   5.391   0.132   0.869
10070SOL    HW131109   5.431   0.043   0.893
10070SOL    HW231110   5.299   0.138   0.908
10071SOL     OW31111   5.297   1.065   5.494
10071SOL    HW131112   5.396   1.055   5.486
10071SOL    HW231113   5.269   1.054   5.590
10072SOL     OW31114   6.460   3.205   1.921
10072SOL    HW131115   6.396   3.247   1.856
10072SOL    HW231116   6.525   3.274   1.954
10073SOL     OW31117   5.336   5.302   4.928
10073SOL    HW131118   5.266   5.342   4.988
10073SOL    HW231119   5.420   5.288   4.980
10074SOL     OW31120   2.288   4.673   0.554
10074SOL    HW131121   2.324   4.580   0.562
10074SOL    HW231122   2.364   4.738   0.551
10075SOL     OW31123   1.395   3.012   1.698
10075SOL    HW131124   1.429   3.105   1.687
10075SOL    HW231125   1.388   2.990   1.796
10076SOL     OW31126   5.623   4.302   4.121
10076SOL    HW131127   5.584   4.284   4.031
10076SOL    HW231128   5.663   4.218   4.158
10077SOL     OW31129   4.681   3.536   6.635
10077SOL    HW131130   4.705   3.479   6.556
10077SOL    HW231131   4.590   3.512   6.667
10078SOL     OW31132   6.293   4.928   4.540
10078SOL    HW131133   6.223   4.955   4.474
10078SOL    HW231134   6.280   4.981   4.625
10079SOL     OW31135   5.223   4.189   3.747
10079SOL    HW131136   5.209   4.137   3.663
10079SOL    HW231137   5.138   4.234   3.773
10080SOL     OW31138   4.687   1.777   5.515
10080SOL    HW131139   4.703   1.797   5.419
10080SOL    HW231140   4.658   1.682   5.526
10081SOL     OW31141   1.129   4.487   0.019
10081SOL    HW131142   1.042   4.479   0.067
10081SOL    HW231143   1.128   4.570   6.986
10082SOL     OW31144   1.032   4.541   0.797
10082SOL    HW131145   1.113   4.491   0.766
10082SOL    HW231146   1.050   4.583   0.886
10083SOL     OW31147   2.690   6.159   2.288
10083SOL    HW131148   2.778   6.158   2.240
10083SOL    HW231149   2.632   6.086   2.253
10084SOL     OW31150   1.344   2.447   4.474
10084SOL    HW131151   1.344   2.393   4.559
10084SOL    HW231152   1.398   2.530   4.488
10085SOL     OW31153   4.856   6.974   1.784
10085SOL    HW131154   4.857   6.966   1.883
10085SOL    HW231155   4.932   0.011   1.755
10086SOL     OW31156   4.336   6.405   3.036
10086SOL    HW131157   4.369   6.473   3.101
10086SOL    HW231158   4.303   6.450   2.953
10087SOL     OW31159   1.961   6.437   5.095
10087SOL    HW131160   1.956   6.374   5.017
10087SOL    HW231161   2.039   6.411   5.152
10088SOL     OW31162   6.288   2.671   1.259
10088SOL    HW131163   6.372   2.668   1.313
10088SOL    HW231164   6.227   2.597   1.288
10089SOL     OW31165   4.137   0.560   2.082
10089SOL    HW131166   4.117   0.603   2.170
10089SOL    HW231167   4.234   0.569   2.062
10090SOL     OW31168   1.844   6.059   2.953
10090SOL    HW131169   1.754   6.096   2.973
10090SOL    HW231170   1.910   6.133   2.942
10091SOL     OW31171   5.803   5.304   4.770
10091SOL    HW131172   5.724   5.256   4.809
10091SOL    HW231173   5.867   5.237   4.731
10092SOL     OW31174   0.852   1.871   3.202
10092SOL    HW131175   0.857   1.884   3.103
10092SOL    HW231176   0.821   1.778   3.222
10093SOL     OW31177   4.597   3.801   6.399
10093SOL    HW131178   4.683   3.753   6.418
10093SOL    HW231179   4.556   3.763   6.316
10094SOL     OW31180   3.664   2.238   0.527
10094SOL    HW131181   3.645   2.152   0.575
10094SOL    HW231182   3.761   2.244   0.506
10095SOL     OW31183   4.040   3.302   5.322
10095SOL    HW131184   3.969   3.277   5.388
10095SOL    HW231185   4.065   3.398   5.333
10096SOL     OW31186   6.629   3.414   2.019
10096SOL    HW131187   6.619   3.435   2.116
10096SOL    HW231188   6.725   3.425   1.993
10097SOL     OW31189   1.222   1.614   0.930
10097SOL    HW131190   1.238   1.634   1.027
10097SOL    HW231191   1.239   1.696   0.875
10098SOL     OW31192   3.555   6.198   4.683
10098SOL    HW131193   3.459   6.189   4.656
10098SOL    HW231194   3.560   6.229   4.778
10099SOL     OW31195   0.158   4.968   3.327
10099SOL    HW131196   0.068   4.981   3.285
10099SOL    HW231197   0.196   4.879   3.298
10100SOL     OW31198   5.271   4.887   4.246
10100SOL    HW131199   5.286   4.977   4.205
10100SOL    HW231200   5.306   4.887   4.340
10101SOL     OW31201   6.702   2.611   0.324
10101SOL    HW131202   6.613   2.650   0.304
10101SOL    HW231203   6.696   2.553   0.406
10102SOL     OW31204   6.265   4.906   3.335
10102SOL    HW131205   6.333   4.972   3.367
10102SOL    HW231206   6.300   4.813   3.347
10103SOL     OW31207   0.461   6.571   6.745
10103SOL    HW131208   0.504   6.547   6.832
10103SOL    HW231209   0.477   6.498   6.678
10104SOL     OW31210   2.887   0.715   4.708
10104SOL    HW131211   2.805   0.667   4.678
10104SOL    HW231212   2.860   0.797   4.759
10105SOL     OW31213   3.106   1.185   3.468
10105SOL    HW131214   3.187   1.241   3.449
10105SOL    HW231215   3.086   1.189   3.566
10106SOL     OW31216   5.646   4.458   1.620
10106SOL    HW131217   5.692   4.492   1.538
10106SOL    HW231218   5.559   4.415   1.595
10107SOL     OW31219   5.311   5.508   6.131
10107SOL    HW131220   5.310   5.408   6.130
10107SOL    HW231221   5.328   5.541   6.039
10108SOL     OW31222   2.595   2.315   5.256
10108SOL    HW131223   2.516   2.274   5.212
10108SOL    HW231224   2.569   2.349   5.347
10109SOL     OW31225   1.165   3.088   0.919
10109SOL    HW131226   1.152   3.032   0.837
10109SOL    HW231227   1.238   3.049   0.974
10110SOL     OW31228   6.373   5.773   1.281
10110SOL    HW131229   6.390   5.871   1.274
10110SOL    HW231230   6.279   5.757   1.313
10111SOL     OW31231   6.146   2.766   1.848
10111SOL    HW131232   6.156   2.736   1.753
10111SOL    HW231233   6.050   2.790   1.866
10112SOL     OW31234   6.812   2.875   4.106
10112SOL    HW131235   6.882   2.894   4.037
10112SOL    HW231236   6.723   2.867   4.062
10113SOL     OW31237   6.761   6.453   5.695
10113SOL    HW131238   6.767   6.383   5.765
10113SOL    HW231239   6.819   6.531   5.719
10114SOL     OW31240   4.844   3.399   1.834
10114SOL    HW131241   4.866   3.361   1.924
10114SOL    HW231242   4.832   3.498   1.841
10115SOL     OW31243   3.510   2.903   6.056
10115SOL    HW131244   3.549   2.962   5.985
10115SOL    HW231245   3.537   2.808   6.039
10116SOL     OW31246   0.417   0.260   6.418
10116SOL    HW131247   0.412   0.292   6.323
10116SOL    HW231248   0.453   0.334   6.476
10117SOL     OW31249   6.740   4.508   1.253
10117SOL    HW131250   6.720   4.411   1.265
10117SOL    HW231251   6.839   4.523   1.253
10118SOL     OW31252   3.976   5.215   4.172
10118SOL    HW131253   3.903   5.153   4.202
10118SOL    HW231254   4.062   5.188   4.215
10119SOL     OW31255   6.025   6.317   6.746
10119SOL    HW131256   6.108   6.289   6.795
10119SOL    HW231257   6.025   6.278   6.654
10120SOL     OW31258   2.322   2.554   2.882
10120SOL    HW131259   2.357   2.547   2.975
10120SOL    HW231260   2.345   2.470   2.832
10121SOL     OW31261   6.878   5.646   1.426
10121SOL    HW131262   6.913   5.576   1.364
10121SOL    HW231263   6.783   5.667   1.403
10122SOL     OW31264   1.841   0.303   3.204
10122SOL    HW131265   1.932   0.271   3.179
10122SOL    HW231266   1.843   0.402   3.217
10123SOL     OW31267   6.162   6.125   6.158
10123SOL    HW131268   6.133   6.031   6.140
10123SOL    HW231269   6.199   6.131   6.250
10124SOL     OW31270   2.519   5.127   2.245
10124SOL    HW131271   2.609   5.168   2.263
10124SOL    HW231272   2.474   5.176   2.171
10125SOL     OW31273   1.329   0.894   5.011
10125SOL    HW131274   1.233   0.913   4.995
10125SOL    HW231275   1.384   0.938   4.940
10126SOL     OW31276   6.806   6.072   4.979
10126SOL    HW131277   6.769   6.154   4.934
10126SOL    HW231278   6.788   6.077   5.077
10127SOL     OW31279   2.310   6.815   5.618
10127SOL    HW131280   2.355   6.772   5.539
10127SOL    HW231281   2.211   6.801   5.612
10128SOL     OW31282   2.649   2.075   6.950
10128SOL    HW131283   2.610   2.037   0.011
10128SOL    HW231284   2.628   2.173   6.945
10129SOL     OW31285   6.489   2.124   4.712
10129SOL    HW131286   6.468   2.184   4.790
10129SOL    HW231287   6.505   2.179   4.631
10130SOL     OW31288   1.590   2.318   3.161
10130SOL    HW131289   1.610   2.401   3.214
10130SOL    HW231290   1.637   2.321   3.073
10131SOL     OW31291   1.751   0.152   5.360
10131SOL    HW131292   1.742   0.247   5.391
10131SOL    HW231293   1.808   0.148   5.278
10132SOL     OW31294   5.576   0.589   2.593
10132SOL    HW131295   5.580   0.498   2.635
10132SOL    HW231296   5.487   0.603   2.551
10133SOL     OW31297   4.353   5.852   1.380
10133SOL    HW131298   4.334   5.942   1.418
10133SOL    HW231299   4.376   5.860   1.283
10134SOL     OW31300   0.104   6.324   3.291
10134SOL    HW131301   0.020   6.290   3.332
10134SOL    HW231302   0.178   6.259   3.308
10135SOL     OW31303   6.473   6.383   3.510
10135SOL    HW131304   6.531   6.385   3.591
10135SOL    HW231305   6.473   6.472   3.466
10136SOL     OW31306   4.529   0.990   3.835
10136SOL    HW131307   4.498   0.908   3.883
10136SOL    HW231308   4.617   1.018   3.871
10137SOL     OW31309   6.956   5.616   4.053
10137SOL    HW131310   6.961   5.586   4.149
10137SOL    HW231311   7.002   5.549   3.995
10138SOL     OW31312   0.090   2.452   1.659
10138SOL    HW131313   0.176   2.461   1.608
10138SOL    HW231314   0.095   2.370   1.717
10139SOL     OW31315   4.244   2.697   0.003
10139SOL    HW131316   4.327   2.750   0.023
10139SOL    HW231317   4.236   2.622   0.069
10140SOL     OW31318   6.740   5.663   5.359
10140SOL    HW131319   6.830   5.702   5.344
10140SOL    HW231320   6.698   5.704   5.439
10141SOL     OW31321   1.629   2.244   5.002
10141SOL    HW131322   1.647   2.218   4.907
10141SOL    HW231323   1.660   2.338   5.017
10142SOL     OW31324   5.023   5.686   2.153
10142SOL    HW131325   4.943   5.639   2.114
10142SOL    HW231326   4.993   5.753   2.220
10143SOL     OW31327   5.678   3.410   6.076
10143SOL    HW131328   5.673   3.477   6.150
10143SOL    HW231329   5.763   3.359   6.083
10144SOL     OW31330   3.556   0.706   0.536
10144SOL    HW131331   3.536   0.803   0.550
10144SOL    HW231332   3.474   0.661   0.500
10145SOL     OW31333   6.307   6.962   5.187
10145SOL    HW131334   6.265   0.015   5.137
10145SOL    HW231335   6.382   6.924   5.132
10146SOL     OW31336   1.621   3.002   5.701
10146SOL    HW131337   1.580   2.933   5.642
10146SOL    HW231338   1.720   2.988   5.705
10147SOL     OW31339   3.775   5.405   6.945
10147SOL    HW131340   3.741   5.314   6.922
10147SOL    HW231341   3.814   5.403   0.014
10148SOL     OW31342   0.565   5.264   6.626
10148SOL    HW131343   0.583   5.214   6.711
10148SOL    HW231344   0.519   5.204   6.561
10149SOL     OW31345   4.112   3.266   2.375
10149SOL    HW131346   4.173   3.341   2.348
10149SOL    HW231347   4.086   3.214   2.294
10150SOL     OW31348   5.007   4.241   1.692
10150SOL    HW131349   4.957   4.257   1.777
10150SOL    HW231350   4.941   4.231   1.617
10151SOL     OW31351   0.165   1.143   6.129
10151SOL    HW131352   0.220   1.217   6.091
10151SOL    HW231353   0.071   1.151   6.097
10152SOL     OW31354   3.885   6.797   3.319
10152SOL    HW131355   3.866   6.888   3.281
10152SOL    HW231356   3.959   6.804   3.386
10153SOL     OW31357   4.799   3.659   1.802
10153SOL    HW131358   4.811   3.688   1.897
10153SOL    HW231359   4.830   3.731   1.741
10154SOL     OW31360   4.188   5.512   5.018
10154SOL    HW131361   4.095   5.478   5.005
10154SOL    HW231362   4.253   5.445   4.983
10155SOL     OW31363   4.565   1.995   4.249
10155SOL    HW131364   4.539   1.959   4.339
10155SOL    HW231365   4.558   2.095   4.250
10156SOL     OW31366   4.009   2.300   6.098
10156SOL    HW131367   3.961   2.228   6.149
10156SOL    HW231368   4.054   2.362   6.163
10157SOL     OW31369   0.720   4.702   1.051
10157SOL    HW131370   0.667   4.692   0.967
10157SOL    HW231371   0.748   4.611   1.084
10158SOL     OW31372   5.434   5.130   0.258
10158SOL    HW131373   5.499   5.206   0.248
10158SOL    HW231374   5.475   5.059   0.316
10159SOL     OW31375   3.636   2.792   1.864
10159SOL    HW131376   3.706   2.742   1.813
10159SOL    HW231377   3.585   2.851   1.801
10160SOL     OW31378   0.179   4.425   2.572
10160SOL    HW131379   0.155   4.401   2.477
10160SOL    HW231380   0.142   4.515   2.594
10161SOL     OW31381   5.927   3.287   6.090
10161SOL    HW131382   5.941   3.281   5.991
10161SOL    HW231383   6.012   3.314   6.135
10162SOL     OW31384   1.539   2.117   2.354
10162SOL    HW131385   1.602   2.115   2.276
10162SOL    HW231386   1.508   2.211   2.370
10163SOL     OW31387   3.271   4.925   4.728
10163SOL    HW131388   3.174   4.905   4.741
10163SOL    HW231389   3.318   4.919   4.816
10164SOL     OW31390   0.184   1.177   3.950
10164SOL    HW131391   0.155   1.272   3.947
10164SOL    HW231392   0.164   1.139   4.040
10165SOL     OW31393   1.593   2.999   3.860
10165SOL    HW131394   1.668   2.933   3.854
10165SOL    HW231395   1.628   3.086   3.896
10166SOL     OW31396   3.091   5.798   3.102
10166SOL    HW131397   3.163   5.748   3.149
10166SOL    HW231398   3.064   5.878   3.156
10167SOL     OW31399   3.228   2.270   6.545
10167SOL    HW131400   3.252   2.188   6.597
10167SOL    HW231401   3.139   2.304   6.575
10168SOL     OW31402   0.498   0.759   6.141
10168SOL    HW131403   0.516   0.760   6.042
10168SOL    HW231404   0.429   0.828   6.163
10169SOL     OW31405   4.517   5.628   3.190
10169SOL    HW131406   4.493   5.553   3.252
10169SOL    HW231407   4.441   5.693   3.184
10170SOL     OW31408   5.083   6.822   0.495
10170SOL    HW131409   5.026   6.747   0.460
10170SOL    HW231410   5.027   6.905   0.503
10171SOL     OW31411   2.229   4.033   3.899
10171SOL    HW131412   2.241   3.968   3.974
10171SOL    HW231413   2.161   3.997   3.834
10172SOL     OW31414   0.214   0.803   2.505
10172SOL    HW131415   0.256   0.713   2.515
10172SOL    HW231416   0.132   0.809   2.563
10173SOL     OW31417   3.823   3.539   5.212
10173SOL    HW131418   3.889   3.602   5.251
10173SOL    HW231419   3.868   3.479   5.146
10174SOL     OW31420   4.977   4.472   1.300
10174SOL    HW131421   4.880   4.495   1.310
10174SOL    HW231422   5.017   4.530   1.229
10175SOL     OW31423   6.369   6.801   4.082
10175SOL    HW131424   6.467   6.805   4.063
10175SOL    HW231425   6.351   6.734   4.155
10176SOL     OW31426   6.888   0.980   4.774
10176SOL    HW131427   6.891   1.059   4.713
10176SOL    HW231428   6.941   0.905   4.734
10177SOL     OW31429   2.936   1.470   3.884
10177SOL    HW131430   2.983   1.527   3.817
10177SOL    HW231431   2.946   1.509   3.975
10178SOL     OW31432   0.336   1.617   1.778
10178SOL    HW131433   0.346   1.604   1.877
10178SOL    HW231434   0.246   1.585   1.749
10179SOL     OW31435   7.002   6.081   1.114
10179SOL    HW131436   0.057   6.142   1.105
10179SOL    HW231437   6.926   6.114   1.058
10180SOL     OW31438   3.076   6.635   6.166
10180SOL    HW131439   3.016   6.598   6.094
10180SOL    HW231440   3.138   6.702   6.126
10181SOL     OW31441   0.440   3.438   2.478
10181SOL    HW131442   0.392   3.433   2.390
10181SOL    HW231443   0.375   3.421   2.552
10182SOL     OW31444   3.807   0.373   0.439
10182SOL    HW131445   3.886   0.383   0.379
10182SOL    HW231446   3.807   0.447   0.506
10183SOL     OW31447   4.202   5.993   5.700
10183SOL    HW131448   4.125   5.947   5.655
10183SOL    HW231449   4.254   6.044   5.631
10184SOL     OW31450   5.553   2.997   4.830
10184SOL    HW131451   5.602   3.079   4.798
10184SOL    HW231452   5.560   2.991   4.930
10185SOL     OW31453   2.649   4.768   2.384
10185SOL    HW131454   2.634   4.698   2.454
10185SOL    HW231455   2.569   4.772   2.324
10186SOL     OW31456   3.123   2.885   0.666
10186SOL    HW131457   3.178   2.814   0.710
10186SOL    HW231458   3.032   2.888   0.708
10187SOL     OW31459   2.275   3.777   5.580
10187SOL    HW131460   2.301   3.798   5.486
10187SOL    HW231461   2.178   3.755   5.584
10188SOL     OW31462   2.109   6.706   0.041
10188SOL    HW131463   2.123   6.646   0.120
10188SOL    HW231464   2.090   6.651   6.983
10189SOL     OW31465   2.204   1.802   5.216
10189SOL    HW131466   2.293   1.818   5.259
10189SOL    HW231467   2.209   1.720   5.160
10190SOL     OW31468   3.942   3.977   0.920
10190SOL    HW131469   4.000   3.906   0.880
10190SOL    HW231470   3.941   3.967   1.020
10191SOL     OW31471   5.422   0.580   0.233
10191SOL    HW131472   5.421   0.656   0.168
10191SOL    HW231473   5.382   0.610   0.319
10192SOL     OW31474   1.972   1.193   4.173
10192SOL    HW131475   2.005   1.185   4.079
10192SOL    HW231476   1.875   1.218   4.172
10193SOL     OW31477   3.683   3.761   4.064
10193SOL    HW131478   3.669   3.684   4.125
10193SOL    HW231479   3.781   3.773   4.046
10194SOL     OW31480   3.097   6.104   2.880
10194SOL    HW131481   3.038   6.120   2.959
10194SOL    HW231482   3.180   6.056   2.908
10195SOL     OW31483   5.290   0.648   3.345
10195SOL    HW131484   5.286   0.643   3.445
10195SOL    HW231485   5.368   0.704   3.318
10196SOL     OW31486   5.142   4.164   4.616
10196SOL    HW131487   5.184   4.222   4.686
10196SOL    HW231488   5.051   4.199   4.594
10197SOL     OW31489   4.994   1.459   3.081
10197SOL    HW131490   4.927   1.500   3.143
10197SOL    HW231491   5.072   1.520   3.070
10198SOL     OW31492   3.430   1.015   1.573
10198SOL    HW131493   3.388   1.084   1.513
10198SOL    HW231494   3.371   1.002   1.653
10199SOL     OW31495   1.257   1.607   0.037
10199SOL    HW131496   1.194   1.577   6.988
10199SOL    HW231497   1.217   1.684   0.086
10200SOL     OW31498   5.593   6.317   4.547
10200SOL    HW131499   5.596   6.372   4.631
10200SOL    HW231500   5.532   6.239   4.561
10201SOL     OW31501   1.696   4.940   3.001
10201SOL    HW131502   1.682   5.038   3.015
10201SOL    HW231503   1.708   4.921   2.904
10202SOL     OW31504   0.698   1.922   3.515
10202SOL    HW131505   0.747   1.867   3.447
10202SOL    HW231506   0.740   2.013   3.520
10203SOL     OW31507   0.280   2.249   0.901
10203SOL    HW131508   0.309   2.195   0.980
10203SOL    HW231509   0.268   2.189   0.822
10204SOL     OW31510   2.652   5.756   4.391
10204SOL    HW131511   2.729   5.809   4.357
10204SOL    HW231512   2.622   5.793   4.479
10205SOL     OW31513   3.683   0.386   1.129
10205SOL    HW131514   3.717   0.362   1.220
10205SOL    HW231515   3.635   0.473   1.133
10206SOL     OW31516   5.306   6.628   6.518
10206SOL    HW131517   5.331   6.657   6.610
10206SOL    HW231518   5.241   6.552   6.524
10207SOL     OW31519   4.114   1.379   2.669
10207SOL    HW131520   4.080   1.355   2.578
10207SOL    HW231521   4.090   1.474   2.689
10208SOL     OW31522   6.504   3.203   5.797
10208SOL    HW131523   6.426   3.221   5.857
10208SOL    HW231524   6.471   3.170   5.708
10209SOL     OW31525   3.990   6.209   6.761
10209SOL    HW131526   3.988   6.263   6.677
10209SOL    HW231527   3.909   6.229   6.816
10210SOL     OW31528   5.604   5.339   0.336
10210SOL    HW131529   5.674   5.397   0.377
10210SOL    HW231530   5.514   5.365   0.372
10211SOL     OW31531   3.547   5.590   5.559
10211SOL    HW131532   3.629   5.631   5.519
10211SOL    HW231533   3.571   5.504   5.605
10212SOL     OW31534   6.043   6.384   6.094
10212SOL    HW131535   6.098   6.302   6.108
10212SOL    HW231536   6.098   6.453   6.046
10213SOL     OW31537   4.373   0.883   4.269
10213SOL    HW131538   4.365   0.903   4.172
10213SOL    HW231539   4.423   0.957   4.315
10214SOL     OW31540   0.808   0.411   0.049
10214SOL    HW131541   0.833   0.357   0.129
10214SOL    HW231542   0.802   0.508   0.074
10215SOL     OW31543   4.193   2.506   0.195
10215SOL    HW131544   4.224   2.435   0.258
10215SOL    HW231545   4.197   2.471   0.102
10216SOL     OW31546   5.259   0.413   3.115
10216SOL    HW131547   5.334   0.352   3.088
10216SOL    HW231548   5.293   0.507   3.117
10217SOL     OW31549   3.343   2.375   5.660
10217SOL    HW131550   3.246   2.398   5.669
10217SOL    HW231551   3.384   2.432   5.590
10218SOL     OW31552   3.304   2.047   6.684
10218SOL    HW131553   3.399   2.068   6.709
10218SOL    HW231554   3.269   1.976   6.745
10219SOL     OW31555   1.295   5.424   0.024
10219SOL    HW131556   1.380   5.371   0.017
10219SOL    HW231557   1.236   5.383   0.093
10220SOL     OW31558   4.217   2.261   0.301
10220SOL    HW131559   4.252   2.200   0.229
10220SOL    HW231560   4.248   2.229   0.390
10221SOL     OW31561   2.483   1.045   4.165
10221SOL    HW131562   2.471   1.063   4.263
10221SOL    HW231563   2.450   0.953   4.144
10222SOL     OW31564   1.905   4.714   5.577
10222SOL    HW131565   1.872   4.760   5.659
10222SOL    HW231566   2.005   4.714   5.578
10223SOL     OW31567   0.927   4.415   6.667
10223SOL    HW131568   0.877   4.463   6.739
10223SOL    HW231569   1.020   4.397   6.697
10224SOL     OW31570   2.685   0.107   4.928
10224SOL    HW131571   2.599   0.122   4.977
10224SOL    HW231572   2.704   0.185   4.869
10225SOL     OW31573   4.959   5.815   4.893
10225SOL    HW131574   5.054   5.839   4.871
10225SOL    HW231575   4.955   5.774   4.984
10226SOL     OW31576   6.421   2.656   6.341
10226SOL    HW131577   6.458   2.701   6.422
10226SOL    HW231578   6.348   2.593   6.369
10227SOL     OW31579   4.711   4.887   5.539
10227SOL    HW131580   4.689   4.975   5.498
10227SOL    HW231581   4.804   4.890   5.576
10228SOL     OW31582   0.868   3.117   1.982
10228SOL    HW131583   0.951   3.082   2.026
10228SOL    HW231584   0.864   3.086   1.887
10229SOL     OW31585   2.460   0.644   1.410
10229SOL    HW131586   2.403   0.584   1.466
10229SOL    HW231587   2.507   0.590   1.340
10230SOL     OW31588   6.539   6.651   3.387
10230SOL    HW131589   6.559   6.740   3.429
10230SOL    HW231590   6.526   6.664   3.289
10231SOL     OW31591   4.827   6.663   4.454
10231SOL    HW131592   4.858   6.756   4.435
10231SOL    HW231593   4.813   6.652   4.553
10232SOL     OW31594   3.859   1.886   3.410
10232SOL    HW131595   3.810   1.835   3.481
10232SOL    HW231596   3.946   1.841   3.390
10233SOL     OW31597   4.867   0.545   5.518
10233SOL    HW131598   4.794   0.478   5.502
10233SOL    HW231599   4.865   0.574   5.614
10234SOL     OW31600   4.530   5.625   1.198
10234SOL    HW131601   4.434   5.646   1.179
10234SOL    HW231602   4.586   5.706   1.181
10235SOL     OW31603   5.029   0.856   0.398
10235SOL    HW131604   5.063   0.836   0.490
10235SOL    HW231605   5.106   0.860   0.334
10236SOL     OW31606   1.744   5.749   1.495
10236SOL    HW131607   1.757   5.658   1.457
10236SOL    HW231608   1.748   5.745   1.594
10237SOL     OW31609   5.670   2.283   3.378
10237SOL    HW131610   5.666   2.361   3.441
10237SOL    HW231611   5.637   2.312   3.288
10238SOL     OW31612   4.500   6.087   4.766
10238SOL    HW131613   4.573   6.055   4.705
10238SOL    HW231614   4.500   6.186   4.770
10239SOL     OW31615   6.058   3.500   4.698
10239SOL    HW131616   5.966   3.532   4.724
10239SOL    HW231617   6.126   3.546   4.755
10240SOL     OW31618   4.890   3.714   3.471
10240SOL    HW131619   4.928   3.735   3.381
10240SOL    HW231620   4.883   3.798   3.524
10241SOL     OW31621   1.907   1.813   3.091
10241SOL    HW131622   1.973   1.886   3.072
10241SOL    HW231623   1.842   1.807   3.015
10242SOL     OW31624   1.138   5.406   5.898
10242SOL    HW131625   1.090   5.427   5.813
10242SOL    HW231626   1.237   5.406   5.881
10243SOL     OW31627   1.067   6.339   3.044
10243SOL    HW131628   1.142   6.301   3.099
10243SOL    HW231629   1.098   6.423   3.001
10244SOL     OW31630   1.583   5.606   0.186
10244SOL    HW131631   1.606   5.657   0.269
10244SOL    HW231632   1.577   5.509   0.207
10245SOL     OW31633   2.381   2.528   0.537
10245SOL    HW131634   2.478   2.542   0.558
10245SOL    HW231635   2.338   2.617   0.521
10246SOL     OW31636   3.031   3.296   4.380
10246SOL    HW131637   3.119   3.328   4.346
10246SOL    HW231638   2.993   3.362   4.444
10247SOL     OW31639   0.878   5.808   5.325
10247SOL    HW131640   0.915   5.750   5.251
10247SOL    HW231641   0.807   5.757   5.374
10248SOL     OW31642   5.989   1.004   3.605
10248SOL    HW131643   6.008   1.079   3.668
10248SOL    HW231644   5.944   1.039   3.523
10249SOL     OW31645   4.722   1.143   6.197
10249SOL    HW131646   4.699   1.157   6.293
10249SOL    HW231647   4.820   1.124   6.189
10250SOL     OW31648   5.305   6.767   0.620
10250SOL    HW131649   5.218   6.797   0.581
10250SOL    HW231650   5.374   6.838   0.606
10251SOL     OW31651   3.437   4.561   1.160
10251SOL    HW131652   3.418   4.644   1.211
10251SOL    HW231653   3.482   4.585   1.074
10252SOL     OW31654   0.320   4.411   1.195
10252SOL    HW131655   0.260   4.345   1.240
10252SOL    HW231656   0.400   4.427   1.252
10253SOL     OW31657   3.876   4.766   0.466
10253SOL    HW131658   3.901   4.698   0.534
10253SOL    HW231659   3.878   4.857   0.508
10254SOL     OW31660   2.389   1.337   4.822
10254SOL    HW131661   2.402   1.309   4.727
10254SOL    HW231662   2.327   1.416   4.825
10255SOL     OW31663   3.005   5.602   2.917
10255SOL    HW131664   2.981   5.644   2.830
10255SOL    HW231665   3.032   5.674   2.982
10256SOL     OW31666   5.885   6.533   0.311
10256SOL    HW131667   5.925   6.442   0.318
10256SOL    HW231668   5.881   6.560   0.214
10257SOL     OW31669   1.611   5.623   5.234
10257SOL    HW131670   1.647   5.702   5.283
10257SOL    HW231671   1.677   5.548   5.240
10258SOL     OW31672   4.041   0.540   3.473
10258SOL    HW131673   4.094   0.459   3.498
10258SOL    HW231674   4.083   0.621   3.515
10259SOL     OW31675   0.501   3.798   4.040
10259SOL    HW131676   0.455   3.822   3.954
10259SOL    HW231677   0.445   3.828   4.117
10260SOL     OW31678   0.071   5.843   2.404
10260SOL    HW131679   0.095   5.773   2.472
10260SOL    HW231680   0.151   5.865   2.349
10261SOL     OW31681   1.748   0.291   2.035
10261SOL    HW131682   1.773   0.258   1.945
10261SOL    HW231683   1.677   0.361   2.027
10262SOL     OW31684   1.324   6.351   3.966
10262SOL    HW131685   1.394   6.415   3.998
10262SOL    HW231686   1.271   6.395   3.893
10263SOL     OW31687   6.108   2.951   5.504
10263SOL    HW131688   6.147   3.043   5.499
10263SOL    HW231689   6.095   2.926   5.600
10264SOL     OW31690   0.549   6.717   0.138
10264SOL    HW131691   0.564   6.639   0.077
10264SOL    HW231692   0.546   6.801   0.084
10265SOL     OW31693   4.417   2.129   2.601
10265SOL    HW131694   4.387   2.153   2.508
10265SOL    HW231695   4.511   2.095   2.598
10266SOL     OW31696   4.178   3.752   6.642
10266SOL    HW131697   4.142   3.738   6.550
10266SOL    HW231698   4.173   3.850   6.664
10267SOL     OW31699   6.304   1.369   6.287
10267SOL    HW131700   6.214   1.413   6.284
10267SOL    HW231701   6.373   1.436   6.312
10268SOL     OW31702   6.538   3.779   1.252
10268SOL    HW131703   6.518   3.831   1.335
10268SOL    HW231704   6.607   3.709   1.271
10269SOL     OW31705   3.636   2.190   6.097
10269SOL    HW131706   3.714   2.167   6.155
10269SOL    HW231707   3.589   2.107   6.069
10270SOL     OW31708   3.030   6.284   1.761
10270SOL    HW131709   3.117   6.244   1.790
10270SOL    HW231710   3.045   6.377   1.727
10271SOL     OW31711   2.714   5.306   0.748
10271SOL    HW131712   2.785   5.236   0.756
10271SOL    HW231713   2.626   5.262   0.729
10272SOL     OW31714   1.844   2.022   4.400
10272SOL    HW131715   1.899   2.101   4.429
10272SOL    HW231716   1.762   2.054   4.353
10273SOL     OW31717   4.313   6.936   3.893
10273SOL    HW131718   4.308   0.002   3.938
10273SOL    HW231719   4.223   6.892   3.896
10274SOL     OW31720   2.779   4.847   6.429
10274SOL    HW131721   2.774   4.942   6.398
10274SOL    HW231722   2.699   4.827   6.486
10275SOL     OW31723   0.880   6.778   1.816
10275SOL    HW131724   0.968   6.760   1.859
10275SOL    HW231725   0.891   6.846   1.743
10276SOL     OW31726   0.916   6.078   6.863
10276SOL    HW131727   0.871   6.050   6.948
10276SOL    HW231728   0.857   6.144   6.814
10277SOL     OW31729   0.633   5.739   2.197
10277SOL    HW131730   0.729   5.751   2.220
10277SOL    HW231731   0.616   5.643   2.174
10278SOL     OW31732   6.688   0.037   5.426
10278SOL    HW131733   6.712   6.965   5.448
10278SOL    HW231734   6.592   0.054   5.451
10279SOL     OW31735   3.615   6.297   4.932
10279SOL    HW131736   3.693   6.343   4.889
10279SOL    HW231737   3.585   6.350   5.011
10280SOL     OW31738   3.690   2.744   6.750
10280SOL    HW131739   3.618   2.742   6.681
10280SOL    HW231740   3.657   2.701   6.834
10281SOL     OW31741   5.005   0.005   4.156
10281SOL    HW131742   5.102   0.017   4.137
10281SOL    HW231743   4.954   0.002   4.070
10282SOL     OW31744   1.214   2.797   4.471
10282SOL    HW131745   1.120   2.795   4.436
10282SOL    HW231746   1.214   2.770   4.568
10283SOL     OW31747   1.547   4.388   6.055
10283SOL    HW131748   1.499   4.473   6.080
10283SOL    HW231749   1.554   4.383   5.955
10284SOL     OW31750   4.825   3.030   0.010
10284SOL    HW131751   4.757   3.072   0.071
10284SOL    HW231752   4.911   3.019   0.058
10285SOL     OW31753   5.364   1.356   1.013
10285SOL    HW131754   5.310   1.338   1.095
10285SOL    HW231755   5.412   1.443   1.023
10286SOL     OW31756   4.421   0.812   4.003
10286SOL    HW131757   4.440   0.730   4.058
10286SOL    HW231758   4.328   0.807   3.968
10287SOL     OW31759   1.437   4.613   2.126
10287SOL    HW131760   1.462   4.681   2.195
10287SOL    HW231761   1.477   4.525   2.149
10288SOL     OW31762   4.830   6.252   4.437
10288SOL    HW131763   4.746   6.203   4.414
10288SOL    HW231764   4.825   6.283   4.532
10289SOL     OW31765   2.852   1.244   1.485
10289SOL    HW131766   2.810   1.218   1.572
10289SOL    HW231767   2.782   1.244   1.414
10290SOL     OW31768   3.107   3.228   2.295
10290SOL    HW131769   3.177   3.169   2.256
10290SOL    HW231770   3.057   3.273   2.220
10291SOL     OW31771   3.877   0.542   5.025
10291SOL    HW131772   3.881   0.603   4.946
10291SOL    HW231773   3.803   0.570   5.086
10292SOL     OW31774   0.662   1.987   4.877
10292SOL    HW131775   0.585   2.034   4.836
10292SOL    HW231776   0.748   2.030   4.849
10293SOL     OW31777   3.258   5.489   3.212
10293SOL    HW131778   3.329   5.421   3.230
10293SOL    HW231779   3.298   5.580   3.211
10294SOL     OW31780   6.659   1.521   3.038
10294SOL    HW131781   6.670   1.453   3.111
10294SOL    HW231782   6.619   1.477   2.958
10295SOL     OW31783   1.767   4.234   4.313
10295SOL    HW131784   1.801   4.319   4.353
10295SOL    HW231785   1.742   4.170   4.386
10296SOL     OW31786   6.785   2.753   1.698
10296SOL    HW131787   6.784   2.763   1.798
10296SOL    HW231788   6.838   2.827   1.658
10297SOL     OW31789   3.082   5.617   4.764
10297SOL    HW131790   3.119   5.529   4.736
10297SOL    HW231791   2.992   5.630   4.723
10298SOL     OW31792   5.729   3.266   3.158
10298SOL    HW131793   5.819   3.305   3.178
10298SOL    HW231794   5.660   3.312   3.214
10299SOL     OW31795   4.875   3.960   2.129
10299SOL    HW131796   4.851   3.863   2.136
10299SOL    HW231797   4.972   3.970   2.108
10300SOL     OW31798   0.842   5.267   1.653
10300SOL    HW131799   0.836   5.358   1.613
10300SOL    HW231800   0.826   5.198   1.582
10301SOL     OW31801   4.602   1.168   1.485
10301SOL    HW131802   4.591   1.260   1.445
10301SOL    HW231803   4.632   1.177   1.580
10302SOL     OW31804   2.201   4.181   4.230
10302SOL    HW131805   2.254   4.194   4.147
10302SOL    HW231806   2.237   4.240   4.302
10303SOL     OW31807   4.528   2.477   1.633
10303SOL    HW131808   4.460   2.549   1.648
10303SOL    HW231809   4.616   2.518   1.610
10304SOL     OW31810   6.105   6.447   3.516
10304SOL    HW131811   6.132   6.544   3.522
10304SOL    HW231812   6.172   6.391   3.565
10305SOL     OW31813   1.987   5.439   1.278
10305SOL    HW131814   2.015   5.418   1.184
10305SOL    HW231815   2.043   5.386   1.342
10306SOL     OW31816   4.157   4.348   0.879
10306SOL    HW131817   4.065   4.310   0.865
10306SOL    HW231818   4.164   4.387   0.971
10307SOL     OW31819   2.609   1.611   5.379
10307SOL    HW131820   2.568   1.540   5.436
10307SOL    HW231821   2.548   1.691   5.376
10308SOL     OW31822   2.771   5.577   3.780
10308SOL    HW131823   2.717   5.519   3.719
10308SOL    HW231824   2.710   5.630   3.838
10309SOL     OW31825   0.215   5.974   3.671
10309SOL    HW131826   0.201   5.931   3.582
10309SOL    HW231827   0.180   5.914   3.743
10310SOL     OW31828   3.542   2.898   4.695
10310SOL    HW131829   3.569   2.848   4.613
10310SOL    HW231830   3.619   2.905   4.758
10311SOL     OW31831   0.483   7.011   0.603
10311SOL    HW131832   0.390   6.977   0.601
10311SOL    HW231833   0.488   0.078   0.558
10312SOL     OW31834   2.325   4.864   0.952
10312SOL    HW131835   2.267   4.861   1.033
10312SOL    HW231836   2.344   4.959   0.928
10313SOL     OW31837   6.627   5.340   3.788
10313SOL    HW131838   6.548   5.295   3.830
10313SOL    HW231839   6.707   5.329   3.846
10314SOL     OW31840   6.477   5.270   5.397
10314SOL    HW131841   6.378   5.275   5.398
10314SOL    HW231842   6.506   5.176   5.379
10315SOL     OW31843   4.472   6.925   5.309
10315SOL    HW131844   4.549   6.911   5.370
10315SOL    HW231845   4.405   6.851   5.322
10316SOL     OW31846   0.334   4.033   3.127
10316SOL    HW131847   0.367   3.974   3.053
10316SOL    HW231848   0.347   4.129   3.102
10317SOL     OW31849   4.887   4.676   0.203
10317SOL    HW131850   4.823   4.742   0.242
10317SOL    HW231851   4.934   4.628   0.277
10318SOL     OW31852   6.064   5.495   2.774
10318SOL    HW131853   5.973   5.537   2.774
10318SOL    HW231854   6.085   5.460   2.683
10319SOL     OW31855   5.274   6.451   4.652
10319SOL    HW131856   5.372   6.463   4.667
10319SOL    HW231857   5.256   6.360   4.616
10320SOL     OW31858   4.399   5.388   2.354
10320SOL    HW131859   4.397   5.299   2.400
10320SOL    HW231860   4.438   5.456   2.416
10321SOL     OW31861   3.962   0.145   4.165
10321SOL    HW131862   3.977   0.213   4.092
10321SOL    HW231863   3.889   0.083   4.138
10322SOL     OW31864   0.690   2.339   6.864
10322SOL    HW131865   0.788   2.359   6.859
10322SOL    HW231866   0.670   2.294   6.951
10323SOL     OW31867   0.872   2.332   5.668
10323SOL    HW131868   0.881   2.404   5.599
10323SOL    HW231869   0.947   2.338   5.733
10324SOL     OW31870   3.658   2.942   4.408
10324SOL    HW131871   3.729   2.952   4.338
10324SOL    HW231872   3.571   2.974   4.371
10325SOL     OW31873   6.877   3.898   3.433
10325SOL    HW131874   6.961   3.874   3.384
10325SOL    HW231875   6.829   3.971   3.385
10326SOL     OW31876   5.492   2.031   1.466
10326SOL    HW131877   5.414   2.091   1.451
10326SOL    HW231878   5.541   2.019   1.379
10327SOL     OW31879   6.215   1.131   3.333
10327SOL    HW131880   6.233   1.042   3.374
10327SOL    HW231881   6.164   1.119   3.248
10328SOL     OW31882   6.308   4.047   2.596
10328SOL    HW131883   6.301   3.948   2.585
10328SOL    HW231884   6.254   4.076   2.675
10329SOL     OW31885   3.511   5.791   2.930
10329SOL    HW131886   3.597   5.833   2.959
10329SOL    HW231887   3.527   5.738   2.846
10330SOL     OW31888   3.130   3.743   0.954
10330SOL    HW131889   3.101   3.747   1.049
10330SOL    HW231890   3.223   3.779   0.946
10331SOL     OW31891   5.499   1.092   4.505
10331SOL    HW131892   5.434   1.025   4.542
10331SOL    HW231893   5.514   1.074   4.408
10332SOL     OW31894   0.925   1.283   6.185
10332SOL    HW131895   0.859   1.336   6.238
10332SOL    HW231896   0.999   1.253   6.246
10333SOL     OW31897   6.336   4.570   5.604
10333SOL    HW131898   6.397   4.506   5.650
10333SOL    HW231899   6.342   4.557   5.505
10334SOL     OW31900   0.963   5.057   4.854
10334SOL    HW131901   0.957   5.074   4.952
10334SOL    HW231902   1.059   5.039   4.829
10335SOL     OW31903   3.004   5.204   2.264
10335SOL    HW131904   3.075   5.135   2.254
10335SOL    HW231905   3.044   5.289   2.298
10336SOL     OW31906   5.164   6.936   2.874
10336SOL    HW131907   5.207   6.925   2.784
10336SOL    HW231908   5.069   6.905   2.869
10337SOL     OW31909   0.581   4.395   5.594
10337SOL    HW131910   0.604   4.299   5.610
10337SOL    HW231911   0.653   4.437   5.539
10338SOL     OW31912   2.591   4.934   2.694
10338SOL    HW131913   2.523   4.931   2.620
10338SOL    HW231914   2.673   4.980   2.662
10339SOL     OW31915   2.676   5.581   0.738
10339SOL    HW131916   2.744   5.605   0.669
10339SOL    HW231917   2.674   5.482   0.750
10340SOL     OW31918   1.828   6.579   0.431
10340SOL    HW131919   1.731   6.596   0.452
10340SOL    HW231920   1.885   6.621   0.501
10341SOL     OW31921   0.519   2.350   1.902
10341SOL    HW131922   0.468   2.338   1.817
10341SOL    HW231923   0.470   2.305   1.977
10342SOL     OW31924   3.952   6.316   4.413
10342SOL    HW131925   3.952   6.248   4.340
10342SOL    HW231926   3.903   6.280   4.493
10343SOL     OW31927   2.435   2.628   4.279
10343SOL    HW131928   2.442   2.686   4.361
10343SOL    HW231929   2.413   2.534   4.306
10344SOL     OW31930   4.242   3.209   1.859
10344SOL    HW131931   4.306   3.206   1.937
10344SOL    HW231932   4.221   3.304   1.838
10345SOL     OW31933   3.004   2.230   6.016
10345SOL    HW131934   2.973   2.233   5.921
10345SOL    HW231935   3.026   2.323   6.046
10346SOL     OW31936   6.292   5.618   0.655
10346SOL    HW131937   6.301   5.675   0.737
10346SOL    HW231938   6.211   5.647   0.604
10347SOL     OW31939   4.613   6.916   1.694
10347SOL    HW131940   4.580   6.959   1.609
10347SOL    HW231941   4.701   6.957   1.720
10348SOL     OW31942   6.738   4.823   5.814
10348SOL    HW131943   6.809   4.894   5.813
10348SOL    HW231944   6.665   4.851   5.877
10349SOL     OW31945   6.543   2.189   0.364
10349SOL    HW131946   6.518   2.277   0.404
10349SOL    HW231947   6.542   2.197   0.264
10350SOL     OW31948   2.110   4.630   4.502
10350SOL    HW131949   2.180   4.617   4.572
10350SOL    HW231950   2.048   4.703   4.531
10351SOL     OW31951   3.562   5.059   4.670
10351SOL    HW131952   3.561   5.054   4.570
10351SOL    HW231953   3.510   4.982   4.707
10352SOL     OW31954   6.780   0.736   0.365
10352SOL    HW131955   6.789   0.739   0.266
10352SOL    HW231956   6.864   0.698   0.406
10353SOL     OW31957   6.485   2.245   4.032
10353SOL    HW131958   6.437   2.218   3.948
10353SOL    HW231959   6.461   2.181   4.105
10354SOL     OW31960   6.170   2.885   1.114
10354SOL    HW131961   6.184   2.793   1.150
10354SOL    HW231962   6.209   2.951   1.178
10355SOL     OW31963   0.893   1.649   1.104
10355SOL    HW131964   0.912   1.746   1.118
10355SOL    HW231965   0.795   1.636   1.088
10356SOL     OW31966   5.628   2.286   6.626
10356SOL    HW131967   5.547   2.247   6.670
10356SOL    HW231968   5.643   2.378   6.660
10357SOL     OW31969   1.293   7.022   5.927
10357SOL    HW131970   1.364   6.980   5.984
10357SOL    HW231971   1.306   0.098   5.925
10358SOL     OW31972   0.465   2.488   2.976
10358SOL    HW131973   0.461   2.389   2.987
10358SOL    HW231974   0.418   2.515   2.892
10359SOL     OW31975   0.433   2.180   2.347
10359SOL    HW131976   0.442   2.132   2.434
10359SOL    HW231977   0.398   2.272   2.363
10360SOL     OW31978   6.085   4.000   0.996
10360SOL    HW131979   6.014   3.946   0.951
10360SOL    HW231980   6.052   4.032   1.085
10361SOL     OW31981   6.157   1.996   2.115
10361SOL    HW131982   6.248   2.015   2.077
10361SOL    HW231983   6.091   2.061   2.078
10362SOL     OW31984   1.183   5.469   2.166
10362SOL    HW131985   1.192   5.551   2.223
10362SOL    HW231986   1.086   5.447   2.156
10363SOL     OW31987   5.754   5.109   6.631
10363SOL    HW131988   5.713   5.037   6.575
10363SOL    HW231989   5.694   5.189   6.633
10364SOL     OW31990   5.524   5.577   2.657
10364SOL    HW131991   5.515   5.644   2.583
10364SOL    HW231992   5.442   5.578   2.714
10365SOL     OW31993   6.274   5.602   0.174
10365SOL    HW131994   6.355   5.618   0.230
10365SOL    HW231995   6.195   5.648   0.214
10366SOL     OW31996   2.759   6.704   4.132
10366SOL    HW131997   2.857   6.712   4.114
10366SOL    HW231998   2.708   6.716   4.047
10367SOL     OW31999   5.392   6.401   1.803
10367SOL    HW132000   5.413   6.398   1.901
10367SOL    HW232001   5.381   6.496   1.774
10368SOL     OW32002   0.911   5.411   2.205
10368SOL    HW132003   0.842   5.418   2.132
10368SOL    HW232004   0.873   5.362   2.283
10369SOL     OW32005   2.750   0.546   5.911
10369SOL    HW132006   2.687   0.567   5.986
10369SOL    HW232007   2.741   0.615   5.839
10370SOL     OW32008   2.274   1.502   5.783
10370SOL    HW132009   2.328   1.569   5.733
10370SOL    HW232010   2.268   1.529   5.879
10371SOL     OW32011   4.077   5.680   3.013
10371SOL    HW132012   4.148   5.637   2.958
10371SOL    HW232013   3.995   5.696   2.958
10372SOL     OW32014   2.341   6.502   0.972
10372SOL    HW132015   2.301   6.450   0.897
10372SOL    HW232016   2.372   6.439   1.043
10373SOL     OW32017   6.027   0.667   6.847
10373SOL    HW132018   5.938   0.651   6.889
10373SOL    HW232019   6.099   0.625   6.903
10374SOL     OW32020   2.601   4.910   3.349
10374SOL    HW132021   2.647   4.869   3.428
10374SOL    HW232022   2.660   4.900   3.268
10375SOL     OW32023   2.447   5.603   0.586
10375SOL    HW132024   2.501   5.567   0.662
10375SOL    HW232025   2.501   5.671   0.536
10376SOL     OW32026   2.270   5.053   3.620
10376SOL    HW132027   2.351   5.041   3.677
10376SOL    HW232028   2.274   4.990   3.543
10377SOL     OW32029   2.353   0.789   2.362
10377SOL    HW132030   2.382   0.791   2.458
10377SOL    HW232031   2.348   0.694   2.331
10378SOL     OW32032   0.724   6.191   5.050
10378SOL    HW132033   0.625   6.207   5.052
10378SOL    HW232034   0.753   6.176   4.955
10379SOL     OW32035   2.218   0.243   3.521
10379SOL    HW132036   2.238   0.274   3.428
10379SOL    HW232037   2.285   0.176   3.550
10380SOL     OW32038   3.704   1.388   3.911
10380SOL    HW132039   3.665   1.329   3.841
10380SOL    HW232040   3.776   1.339   3.961
10381SOL     OW32041   3.964   6.822   2.834
10381SOL    HW132042   4.034   6.792   2.899
10381SOL    HW232043   4.008   6.866   2.756
10382SOL     OW32044   4.276   5.432   2.117
10382SOL    HW132045   4.327   5.420   2.203
10382SOL    HW232046   4.185   5.391   2.126
10383SOL     OW32047   0.893   4.997   6.886
10383SOL    HW132048   0.943   5.077   6.852
10383SOL    HW232049   0.897   4.924   6.818
10384SOL     OW32050   5.000   5.631   1.298
10384SOL    HW132051   4.915   5.656   1.345
10384SOL    HW232052   5.077   5.677   1.342
10385SOL     OW32053   4.568   4.725   0.114
10385SOL    HW132054   4.544   4.802   0.174
10385SOL    HW232055   4.596   4.647   0.171
10386SOL     OW32056   0.138   0.363   1.066
10386SOL    HW132057   0.126   0.461   1.050
10386SOL    HW232058   0.148   0.347   1.164
10387SOL     OW32059   4.904   3.481   2.346
10387SOL    HW132060   4.907   3.576   2.375
10387SOL    HW232061   4.900   3.421   2.426
10388SOL     OW32062   1.699   0.068   5.010
10388SOL    HW132063   1.725   0.007   5.085
10388SOL    HW232064   1.631   0.023   4.953
10389SOL     OW32065   0.707   3.879   6.765
10389SOL    HW132066   0.749   3.969   6.750
10389SOL    HW232067   0.628   3.869   6.705
10390SOL     OW32068   2.027   2.632   1.994
10390SOL    HW132069   2.124   2.656   1.986
10390SOL    HW232070   1.992   2.604   1.904
10391SOL     OW32071   5.890   7.010   3.802
10391SOL    HW132072   5.869   6.912   3.801
10391SOL    HW232073   5.897   0.019   3.896
10392SOL     OW32074   6.701   4.318   4.224
10392SOL    HW132075   6.656   4.270   4.149
10392SOL    HW232076   6.633   4.368   4.277
10393SOL     OW32077   1.826   2.632   2.710
10393SOL    HW132078   1.862   2.656   2.620
10393SOL    HW232079   1.897   2.646   2.779
10394SOL     OW32080   3.188   0.300   4.084
10394SOL    HW132081   3.191   0.370   4.013
10394SOL    HW232082   3.167   0.343   4.172
10395SOL     OW32083   0.833   0.288   0.881
10395SOL    HW132084   0.746   0.335   0.897
10395SOL    HW232085   0.815   0.190   0.869
10396SOL     OW32086   3.305   2.027   4.915
10396SOL    HW132087   3.233   1.959   4.899
10396SOL    HW232088   3.265   2.119   4.913
10397SOL     OW32089   5.358   1.922   4.091
10397SOL    HW132090   5.426   1.978   4.044
10397SOL    HW232091   5.385   1.826   4.086
10398SOL     OW32092   6.084   2.786   2.550
10398SOL    HW132093   6.113   2.771   2.455
10398SOL    HW232094   6.059   2.882   2.562
10399SOL     OW32095   0.831   3.913   2.270
10399SOL    HW132096   0.903   3.847   2.250
10399SOL    HW232097   0.750   3.865   2.304
10400SOL     OW32098   2.174   6.343   0.817
10400SOL    HW132099   2.145   6.331   0.912
10400SOL    HW232100   2.245   6.276   0.795
10401SOL     OW32101   0.128   1.027   5.840
10401SOL    HW132102   0.147   0.929   5.836
10401SOL    HW232103   0.196   1.072   5.897
10402SOL     OW32104   6.716   3.450   5.454
10402SOL    HW132105   6.813   3.424   5.453
10402SOL    HW232106   6.667   3.398   5.384
10403SOL     OW32107   3.335   6.753   0.637
10403SOL    HW132108   3.411   6.796   0.686
10403SOL    HW232109   3.352   6.760   0.538
10404SOL     OW32110   6.592   6.647   6.079
10404SOL    HW132111   6.563   6.674   6.171
10404SOL    HW232112   6.541   6.698   6.011
10405SOL     OW32113   0.812   2.595   6.485
10405SOL    HW132114   0.732   2.644   6.520
10405SOL    HW232115   0.832   2.517   6.544
10406SOL     OW32116   1.933   5.053   1.391
10406SOL    HW132117   1.890   5.102   1.315
10406SOL    HW232118   1.868   4.987   1.429
10407SOL     OW32119   2.297   6.036   5.740
10407SOL    HW132120   2.262   5.954   5.696
10407SOL    HW232121   2.332   6.013   5.831
10408SOL     OW32122   3.822   1.288   0.059
10408SOL    HW132123   3.902   1.228   0.071
10408SOL    HW232124   3.800   1.295   6.984
10409SOL     OW32125   5.760   4.608   1.063
10409SOL    HW132126   5.793   4.633   1.154
10409SOL    HW232127   5.825   4.640   0.994
10410SOL     OW32128   4.755   0.272   0.674
10410SOL    HW132129   4.809   0.354   0.651
10410SOL    HW232130   4.794   0.229   0.755
10411SOL     OW32131   2.511   5.027   3.767
10411SOL    HW132132   2.525   5.081   3.850
10411SOL    HW232133   2.536   4.931   3.786
10412SOL     OW32134   5.486   7.001   0.595
10412SOL    HW132135   5.461   0.032   0.675
10412SOL    HW232136   5.585   7.007   0.581
10413SOL     OW32137   6.750   3.078   2.084
10413SOL    HW132138   6.664   3.059   2.037
10413SOL    HW232139   6.825   3.028   2.041
10414SOL     OW32140   4.916   2.677   4.319
10414SOL    HW132141   4.925   2.584   4.356
10414SOL    HW232142   4.845   2.725   4.371
10415SOL     OW32143   0.227   0.658   6.308
10415SOL    HW132144   0.246   0.744   6.355
10415SOL    HW232145   0.195   0.677   6.215
10416SOL     OW32146   5.277   3.433   4.045
10416SOL    HW132147   5.326   3.357   4.004
10416SOL    HW232148   5.184   3.404   4.067
10417SOL     OW32149   2.766   4.698   3.097
10417SOL    HW132150   2.848   4.744   3.133
10417SOL    HW232151   2.749   4.615   3.151
10418SOL     OW32152   1.909   5.442   5.776
10418SOL    HW132153   1.894   5.540   5.760
10418SOL    HW232154   1.871   5.416   5.864
10419SOL     OW32155   1.400   1.427   0.841
10419SOL    HW132156   1.334   1.495   0.873
10419SOL    HW232157   1.366   1.385   0.758
10420SOL     OW32158   0.379   3.455   3.405
10420SOL    HW132159   0.288   3.418   3.386
10420SOL    HW232160   0.400   3.527   3.339
10421SOL     OW32161   0.433   1.311   3.260
10421SOL    HW132162   0.400   1.298   3.353
10421SOL    HW232163   0.356   1.315   3.197
10422SOL     OW32164   5.607   3.659   5.930
10422SOL    HW132165   5.683   3.702   5.979
10422SOL    HW232166   5.588   3.569   5.969
10423SOL     OW32167   5.214   4.347   2.727
10423SOL    HW132168   5.169   4.331   2.638
10423SOL    HW232169   5.147   4.335   2.800
10424SOL     OW32170   4.803   1.796   6.415
10424SOL    HW132171   4.736   1.839   6.476
10424SOL    HW232172   4.799   1.697   6.425
10425SOL     OW32173   2.151   6.504   1.615
10425SOL    HW132174   2.087   6.475   1.544
10425SOL    HW232175   2.101   6.550   1.688
10426SOL     OW32176   6.492   3.763   0.349
10426SOL    HW132177   6.468   3.858   0.327
10426SOL    HW232178   6.481   3.748   0.448
10427SOL     OW32179   4.584   1.353   1.132
10427SOL    HW132180   4.506   1.354   1.069
10427SOL    HW232181   4.552   1.372   1.224
10428SOL     OW32182   4.490   1.105   4.381
10428SOL    HW132183   4.523   1.168   4.311
10428SOL    HW232184   4.498   1.148   4.471
10429SOL     OW32185   5.999   6.369   1.836
10429SOL    HW132186   5.971   6.462   1.812
10429SOL    HW232187   5.956   6.342   1.922
10430SOL     OW32188   3.862   6.577   3.106
10430SOL    HW132189   3.888   6.481   3.109
10430SOL    HW232190   3.908   6.626   3.181
10431SOL     OW32191   2.214   1.210   5.369
10431SOL    HW132192   2.279   1.235   5.440
10431SOL    HW232193   2.169   1.124   5.393
10432SOL     OW32194   5.290   1.099   5.103
10432SOL    HW132195   5.315   1.028   5.168
10432SOL    HW232196   5.204   1.142   5.131
10433SOL     OW32197   2.829   6.596   1.114
10433SOL    HW132198   2.787   6.567   1.028
10433SOL    HW232199   2.825   6.696   1.121
10434SOL     OW32200   2.509   1.977   4.222
10434SOL    HW132201   2.455   1.994   4.305
10434SOL    HW232202   2.456   1.919   4.160
10435SOL     OW32203   5.501   5.989   7.006
10435SOL    HW132204   5.488   5.965   6.909
10435SOL    HW232205   5.412   5.994   0.028
10436SOL     OW32206   1.315   0.132   2.092
10436SOL    HW132207   1.410   0.101   2.106
10436SOL    HW232208   1.304   0.164   1.998
10437SOL     OW32209   6.566   5.289   6.030
10437SOL    HW132210   6.630   5.300   5.954
10437SOL    HW232211   6.495   5.222   6.006
10438SOL     OW32212   3.560   6.579   6.166
10438SOL    HW132213   3.494   6.512   6.131
10438SOL    HW232214   3.650   6.535   6.176
10439SOL     OW32215   4.161   0.368   5.485
10439SOL    HW132216   4.215   0.388   5.567
10439SOL    HW232217   4.219   0.377   5.404
10440SOL     OW32218   2.441   6.055   0.445
10440SOL    HW132219   2.375   6.017   0.510
10440SOL    HW232220   2.398   6.132   0.396
10441SOL     OW32221   3.933   0.568   6.693
10441SOL    HW132222   3.941   0.587   6.790
10441SOL    HW232223   3.847   0.606   6.658
10442SOL     OW32224   4.517   6.009   5.824
10442SOL    HW132225   4.525   6.065   5.742
10442SOL    HW232226   4.421   5.981   5.836
10443SOL     OW32227   6.091   2.922   5.218
10443SOL    HW132228   6.105   2.916   5.317
10443SOL    HW232229   6.141   3.001   5.182
10444SOL     OW32230   3.476   4.960   3.796
10444SOL    HW132231   3.515   5.009   3.874
10444SOL    HW232232   3.379   4.944   3.812
10445SOL     OW32233   6.083   5.897   3.801
10445SOL    HW132234   6.022   5.835   3.850
10445SOL    HW232235   6.095   5.864   3.707
10446SOL     OW32236   0.792   6.259   6.677
10446SOL    HW132237   0.711   6.255   6.735
10446SOL    HW232238   0.849   6.337   6.704
10447SOL     OW32239   6.412   2.133   1.075
10447SOL    HW132240   6.343   2.069   1.040
10447SOL    HW232241   6.495   2.125   1.020
10448SOL     OW32242   3.352   4.140   2.188
10448SOL    HW132243   3.305   4.058   2.221
10448SOL    HW232244   3.284   4.202   2.147
10449SOL     OW32245   1.451   5.119   4.549
10449SOL    HW132246   1.362   5.165   4.552
10449SOL    HW232247   1.438   5.021   4.540
10450SOL     OW32248   6.956   3.085   0.522
10450SOL    HW132249   6.935   2.987   0.516
10450SOL    HW232250   0.033   3.098   0.521
10451SOL     OW32251   2.348   4.280   2.640
10451SOL    HW132252   2.438   4.323   2.630
10451SOL    HW232253   2.309   4.264   2.550
10452SOL     OW32254   1.075   3.895   4.974
10452SOL    HW132255   0.984   3.860   4.951
10452SOL    HW232256   1.070   3.993   4.990
10453SOL     OW32257   5.513   0.244   1.709
10453SOL    HW132258   5.608   0.224   1.685
10453SOL    HW232259   5.458   0.161   1.698
10454SOL     OW32260   4.877   3.434   2.638
10454SOL    HW132261   4.835   3.520   2.665
10454SOL    HW232262   4.821   3.358   2.671
10455SOL     OW32263   6.633   4.462   2.860
10455SOL    HW132264   6.580   4.436   2.940
10455SOL    HW232265   6.710   4.398   2.849
10456SOL     OW32266   3.805   6.220   1.006
10456SOL    HW132267   3.784   6.166   0.924
10456SOL    HW232268   3.781   6.167   1.087
10457SOL     OW32269   3.743   3.201   4.091
10457SOL    HW132270   3.806   3.275   4.068
10457SOL    HW232271   3.653   3.239   4.113
10458SOL     OW32272   6.655   6.757   1.705
10458SOL    HW132273   6.672   6.797   1.615
10458SOL    HW232274   6.740   6.716   1.739
10459SOL     OW32275   6.221   4.566   2.659
10459SOL    HW132276   6.168   4.651   2.653
10459SOL    HW232277   6.319   4.589   2.666
10460SOL     OW32278   2.161   5.216   1.899
10460SOL    HW132279   2.102   5.238   1.977
10460SOL    HW232280   2.178   5.299   1.845
10461SOL     OW32281   2.369   1.670   6.526
10461SOL    HW132282   2.272   1.650   6.512
10461SOL    HW232283   2.406   1.712   6.443
10462SOL     OW32284   5.330   6.793   1.226
10462SOL    HW132285   5.373   6.861   1.165
10462SOL    HW232286   5.314   6.835   1.315
10463SOL     OW32287   2.950   3.938   1.452
10463SOL    HW132288   3.046   3.945   1.477
10463SOL    HW232289   2.901   3.887   1.522
10464SOL     OW32290   5.315   0.083   1.553
10464SOL    HW132291   5.242   0.039   1.500
10464SOL    HW232292   5.384   0.119   1.491
10465SOL     OW32293   6.676   4.990   5.057
10465SOL    HW132294   6.676   4.962   4.961
10465SOL    HW232295   6.734   4.929   5.110
10466SOL     OW32296   5.002   6.608   6.699
10466SOL    HW132297   4.987   6.622   6.602
10466SOL    HW232298   5.072   6.538   6.712
10467SOL     OW32299   4.632   0.676   3.775
10467SOL    HW132300   4.656   0.712   3.866
10467SOL    HW232301   4.701   0.609   3.747
10468SOL     OW32302   3.391   5.712   3.171
10468SOL    HW132303   3.478   5.698   3.220
10468SOL    HW232304   3.411   5.742   3.077
10469SOL     OW32305   1.696   4.997   6.918
10469SOL    HW132306   1.633   4.945   6.976
10469SOL    HW232307   1.683   5.094   6.935
10470SOL     OW32308   2.769   1.721   4.277
10470SOL    HW132309   2.816   1.652   4.223
10470SOL    HW232310   2.775   1.810   4.230
10471SOL     OW32311   4.518   3.941   0.324
10471SOL    HW132312   4.592   3.883   0.290
10471SOL    HW232313   4.515   3.935   0.424
10472SOL     OW32314   4.886   1.622   3.281
10472SOL    HW132315   4.853   1.708   3.320
10472SOL    HW232316   4.910   1.559   3.355
10473SOL     OW32317   4.930   5.594   0.485
10473SOL    HW132318   4.889   5.582   0.575
10473SOL    HW232319   4.961   5.506   0.450
10474SOL     OW32320   5.370   0.908   4.654
10474SOL    HW132321   5.447   0.866   4.703
10474SOL    HW232322   5.317   0.964   4.717
10475SOL     OW32323   4.805   6.381   1.897
10475SOL    HW132324   4.779   6.471   1.863
10475SOL    HW232325   4.872   6.391   1.971
10476SOL     OW32326   0.390   4.870   0.311
10476SOL    HW132327   0.371   4.776   0.340
10476SOL    HW232328   0.483   4.874   0.272
10477SOL     OW32329   4.518   4.814   5.023
10477SOL    HW132330   4.616   4.794   5.028
10477SOL    HW232331   4.504   4.907   4.991
10478SOL     OW32332   0.607   6.190   2.468
10478SOL    HW132333   0.549   6.119   2.428
10478SOL    HW232334   0.648   6.244   2.394
10479SOL     OW32335   1.452   4.787   2.653
10479SOL    HW132336   1.428   4.773   2.749
10479SOL    HW232337   1.441   4.702   2.602
10480SOL     OW32338   5.687   0.436   2.144
10480SOL    HW132339   5.599   0.404   2.109
10480SOL    HW232340   5.700   0.403   2.237
10481SOL     OW32341   2.707   1.102   4.640
10481SOL    HW132342   2.737   1.197   4.631
10481SOL    HW232343   2.702   1.060   4.549
10482SOL     OW32344   1.090   5.311   5.442
10482SOL    HW132345   1.179   5.352   5.462
10482SOL    HW232346   1.057   5.263   5.523
10483SOL     OW32347   0.024   5.363   0.691
10483SOL    HW132348   6.968   5.309   0.720
10483SOL    HW232349   0.095   5.358   0.760
10484SOL     OW32350   5.956   1.833   1.385
10484SOL    HW132351   6.046   1.830   1.340
10484SOL    HW232352   5.967   1.816   1.482
10485SOL     OW32353   3.233   4.068   3.694
10485SOL    HW132354   3.207   4.102   3.603
10485SOL    HW232355   3.164   4.096   3.761
10486SOL     OW32356   6.008   5.453   5.024
10486SOL    HW132357   5.915   5.418   5.039
10486SOL    HW232358   6.017   5.543   5.065
10487SOL     OW32359   5.200   2.849   3.123
10487SOL    HW132360   5.272   2.820   3.060
10487SOL    HW232361   5.143   2.771   3.147
10488SOL     OW32362   0.147   2.376   5.448
10488SOL    HW132363   0.179   2.301   5.505
10488SOL    HW232364   0.054   2.356   5.415
10489SOL     OW32365   6.012   3.933   4.596
10489SOL    HW132366   6.088   3.887   4.550
10489SOL    HW232367   6.029   3.937   4.694
10490SOL     OW32368   5.837   6.894   6.573
10490SOL    HW132369   5.802   6.837   6.647
10490SOL    HW232370   5.937   6.894   6.575
10491SOL     OW32371   1.834   3.368   5.651
10491SOL    HW132372   1.916   3.391   5.599
10491SOL    HW232373   1.833   3.269   5.668
10492SOL     OW32374   3.381   5.717   0.181
10492SOL    HW132375   3.338   5.807   0.186
10492SOL    HW232376   3.481   5.728   0.183
10493SOL     OW32377   3.781   5.321   1.961
10493SOL    HW132378   3.710   5.279   1.904
10493SOL    HW232379   3.834   5.385   1.906
10494SOL     OW32380   0.680   4.444   4.097
10494SOL    HW132381   0.700   4.364   4.041
10494SOL    HW232382   0.740   4.520   4.070
10495SOL     OW32383   0.182   6.617   0.598
10495SOL    HW132384   0.220   6.571   0.518
10495SOL    HW232385   0.174   6.551   0.674
10496SOL     OW32386   0.082   4.767   6.281
10496SOL    HW132387   0.001   4.787   6.336
10496SOL    HW232388   0.056   4.714   6.201
10497SOL     OW32389   3.037   0.195   1.796
10497SOL    HW132390   3.129   0.161   1.781
10497SOL    HW232391   3.034   0.293   1.781
10498SOL     OW32392   4.340   3.519   6.440
10498SOL    HW132393   4.261   3.579   6.425
10498SOL    HW232394   4.353   3.462   6.359
10499SOL     OW32395   5.295   3.735   2.561
10499SOL    HW132396   5.383   3.744   2.606
10499SOL    HW232397   5.248   3.654   2.596
10500SOL     OW32398   1.189   3.397   5.069
10500SOL    HW132399   1.177   3.410   5.167
10500SOL    HW232400   1.266   3.336   5.052
10501SOL     OW32401   3.710   4.962   3.085
10501SOL    HW132402   3.724   5.056   3.117
10501SOL    HW232403   3.619   4.955   3.044
10502SOL     OW32404   3.153   3.314   2.551
10502SOL    HW132405   3.253   3.309   2.554
10502SOL    HW232406   3.122   3.280   2.462
10503SOL     OW32407   6.809   1.325   6.374
10503SOL    HW132408   6.803   1.225   6.374
10503SOL    HW232409   6.905   1.352   6.375
10504SOL     OW32410   0.718   4.037   6.072
10504SOL    HW132411   0.813   4.063   6.092
10504SOL    HW232412   0.657   4.091   6.130
10505SOL     OW32413   6.308   0.160   0.907
10505SOL    HW132414   6.238   0.089   0.903
10505SOL    HW232415   6.396   0.121   0.881
10506SOL     OW32416   1.318   4.475   5.787
10506SOL    HW132417   1.237   4.417   5.788
10506SOL    HW232418   1.317   4.532   5.704
10507SOL     OW32419   1.037   5.725   5.744
10507SOL    HW132420   0.966   5.665   5.781
10507SOL    HW232421   1.083   5.679   5.669
10508SOL     OW32422   1.880   5.850   6.465
10508SOL    HW132423   1.784   5.823   6.462
10508SOL    HW232424   1.937   5.773   6.436
10509SOL     OW32425   4.538   2.579   3.357
10509SOL    HW132426   4.580   2.634   3.430
10509SOL    HW232427   4.554   2.482   3.375
10510SOL     OW32428   5.513   5.831   3.709
10510SOL    HW132429   5.463   5.787   3.634
10510SOL    HW232430   5.472   5.804   3.796
10511SOL     OW32431   4.266   1.668   0.878
10511SOL    HW132432   4.279   1.728   0.799
10511SOL    HW232433   4.328   1.590   0.872
10512SOL     OW32434   4.029   1.807   5.628
10512SOL    HW132435   3.946   1.862   5.639
10512SOL    HW232436   4.110   1.865   5.633
10513SOL     OW32437   3.666   3.002   0.637
10513SOL    HW132438   3.569   2.984   0.617
10513SOL    HW232439   3.702   2.930   0.695
10514SOL     OW32440   1.632   4.773   1.792
10514SOL    HW132441   1.559   4.814   1.737
10514SOL    HW232442   1.592   4.709   1.857
10515SOL     OW32443   2.045   3.290   4.915
10515SOL    HW132444   2.141   3.314   4.928
10515SOL    HW232445   2.008   3.341   4.837
10516SOL     OW32446   5.009   2.026   2.042
10516SOL    HW132447   4.938   2.020   2.113
10516SOL    HW232448   5.097   1.998   2.081
10517SOL     OW32449   0.892   2.729   2.543
10517SOL    HW132450   0.991   2.719   2.529
10517SOL    HW232451   0.858   2.648   2.591
10518SOL     OW32452   0.904   5.686   2.243
10518SOL    HW132453   0.916   5.587   2.243
10518SOL    HW232454   0.946   5.725   2.324
10519SOL     OW32455   3.721   0.070   1.344
10519SOL    HW132456   3.730   0.159   1.388
10519SOL    HW232457   3.724   7.021   1.413
10520SOL     OW32458   1.713   2.906   6.356
10520SOL    HW132459   1.794   2.922   6.299
10520SOL    HW232460   1.699   2.808   6.366
10521SOL     OW32461   6.786   2.708   3.384
10521SOL    HW132462   6.864   2.645   3.385
10521SOL    HW232463   6.804   2.783   3.320
10522SOL     OW32464   5.783   1.432   3.919
10522SOL    HW132465   5.716   1.365   3.887
10522SOL    HW232466   5.740   1.522   3.927
10523SOL     OW32467   1.046   4.414   2.187
10523SOL    HW132468   1.051   4.326   2.140
10523SOL    HW232469   1.070   4.401   2.284
10524SOL     OW32470   6.937   5.839   4.534
10524SOL    HW132471   6.972   5.758   4.581
10524SOL    HW232472   6.868   5.811   4.467
10525SOL     OW32473   5.049   1.395   4.257
10525SOL    HW132474   5.138   1.359   4.284
10525SOL    HW232475   5.060   1.488   4.221
10526SOL     OW32476   1.572   5.507   6.281
10526SOL    HW132477   1.601   5.578   6.217
10526SOL    HW232478   1.479   5.478   6.260
10527SOL     OW32479   0.139   6.574   5.533
10527SOL    HW132480   0.237   6.593   5.538
10527SOL    HW232481   0.115   6.503   5.599
10528SOL     OW32482   2.090   4.833   5.145
10528SOL    HW132483   2.052   4.753   5.191
10528SOL    HW232484   2.178   4.856   5.186
10529SOL     OW32485   0.241   5.328   0.873
10529SOL    HW132486   0.210   5.256   0.934
10529SOL    HW232487   0.300   5.391   0.923
10530SOL     OW32488   6.930   6.349   1.513
10530SOL    HW132489   6.979   6.309   1.590
10530SOL    HW232490   6.853   6.403   1.547
10531SOL     OW32491   3.519   2.147   5.584
10531SOL    HW132492   3.443   2.193   5.630
10531SOL    HW232493   3.509   2.157   5.485
10532SOL     OW32494   4.832   6.053   5.808
10532SOL    HW132495   4.866   5.991   5.878
10532SOL    HW232496   4.781   6.001   5.740
10533SOL     OW32497   3.833   0.027   2.876
10533SOL    HW132498   3.880   0.109   2.844
10533SOL    HW232499   3.890   6.970   2.860
10534SOL     OW32500   1.840   6.010   3.745
10534SOL    HW132501   1.763   6.031   3.805
10534SOL    HW232502   1.814   6.026   3.650
10535SOL     OW32503   3.583   2.061   2.455
10535SOL    HW132504   3.660   2.086   2.397
10535SOL    HW232505   3.516   2.135   2.456
10536SOL     OW32506   5.372   3.786   5.159
10536SOL    HW132507   5.288   3.751   5.201
10536SOL    HW232508   5.366   3.778   5.060
10537SOL     OW32509   4.053   1.026   3.772
10537SOL    HW132510   4.054   0.933   3.736
10537SOL    HW232511   4.005   1.027   3.860
10538SOL     OW32512   6.989   2.662   3.602
10538SOL    HW132513   0.030   2.693   3.672
10538SOL    HW232514   6.904   2.715   3.609
10539SOL     OW32515   6.716   6.621   2.900
10539SOL    HW132516   6.707   6.544   2.964
10539SOL    HW232517   6.678   6.703   2.942
10540SOL     OW32518   1.813   4.200   0.150
10540SOL    HW132519   1.824   4.171   0.055
10540SOL    HW232520   1.717   4.187   0.177
10541SOL     OW32521   3.016   2.843   5.274
10541SOL    HW132522   2.932   2.894   5.293
10541SOL    HW232523   3.065   2.887   5.198
10542SOL     OW32524   4.879   6.233   3.012
10542SOL    HW132525   4.868   6.332   3.017
10542SOL    HW232526   4.800   6.193   2.966
10543SOL     OW32527   2.181   2.726   4.281
10543SOL    HW132528   2.131   2.652   4.327
10543SOL    HW232529   2.275   2.698   4.264
10544SOL     OW32530   3.099   1.168   2.480
10544SOL    HW132531   3.001   1.181   2.468
10544SOL    HW232532   3.143   1.257   2.499
10545SOL     OW32533   2.235   2.832   2.269
10545SOL    HW132534   2.236   2.781   2.356
10545SOL    HW232535   2.209   2.927   2.287
10546SOL     OW32536   2.509   6.779   6.759
10546SOL    HW132537   2.470   6.864   6.724
10546SOL    HW232538   2.473   6.761   6.851
10547SOL     OW32539   3.859   6.113   5.616
10547SOL    HW132540   3.766   6.103   5.579
10547SOL    HW232541   3.893   6.023   5.644
10548SOL     OW32542   0.691   6.362   3.424
10548SOL    HW132543   0.617   6.344   3.359
10548SOL    HW232544   0.691   6.458   3.450
10549SOL     OW32545   6.526   0.813   2.454
10549SOL    HW132546   6.517   0.722   2.496
10549SOL    HW232547   6.583   0.806   2.372
10550SOL     OW32548   4.909   5.477   3.034
10550SOL    HW132549   4.904   5.470   3.134
10550SOL    HW232550   4.824   5.515   2.999
10551SOL     OW32551   3.676   0.615   5.212
10551SOL    HW132552   3.589   0.615   5.163
10551SOL    HW232553   3.673   0.684   5.285
10552SOL     OW32554   3.145   6.990   3.562
10552SOL    HW132555   3.216   6.957   3.625
10552SOL    HW232556   3.091   0.038   3.608
10553SOL     OW32557   5.956   6.113   0.957
10553SOL    HW132558   5.952   6.048   1.033
10553SOL    HW232559   5.914   6.200   0.986
10554SOL     OW32560   6.101   6.539   2.089
10554SOL    HW132561   6.110   6.443   2.064
10554SOL    HW232562   6.192   6.580   2.093
10555SOL     OW32563   3.460   3.148   1.015
10555SOL    HW132564   3.389   3.081   0.991
10555SOL    HW232565   3.457   3.224   0.951
10556SOL     OW32566   2.578   1.639   1.931
10556SOL    HW132567   2.602   1.604   1.841
10556SOL    HW232568   2.479   1.654   1.936
10557SOL     OW32569   2.178   4.626   2.944
10557SOL    HW132570   2.132   4.714   2.955
10557SOL    HW232571   2.175   4.577   3.032
10558SOL     OW32572   3.835   5.003   4.707
10558SOL    HW132573   3.737   5.012   4.691
10558SOL    HW232574   3.850   4.946   4.788
10559SOL     OW32575   3.843   6.208   1.447
10559SOL    HW132576   3.773   6.275   1.468
10559SOL    HW232577   3.898   6.190   1.530
10560SOL     OW32578   5.448   6.313   3.363
10560SOL    HW132579   5.356   6.346   3.343
10560SOL    HW232580   5.484   6.262   3.285
10561SOL     OW32581   0.162   5.030   6.237
10561SOL    HW132582   0.127   4.936   6.241
10561SOL    HW232583   0.147   5.075   6.325
10562SOL     OW32584   4.168   6.034   2.326
10562SOL    HW132585   4.111   5.952   2.320
10562SOL    HW232586   4.180   6.060   2.422
10563SOL     OW32587   0.998   6.699   2.902
10563SOL    HW132588   0.993   6.706   3.002
10563SOL    HW232589   1.017   6.605   2.876
10564SOL     OW32590   5.068   4.535   3.239
10564SOL    HW132591   5.042   4.440   3.221
10564SOL    HW232592   5.156   4.538   3.285
10565SOL     OW32593   0.163   1.260   5.339
10565SOL    HW132594   0.231   1.197   5.378
10565SOL    HW232595   0.152   1.241   5.242
10566SOL     OW32596   3.431   1.573   0.781
10566SOL    HW132597   3.353   1.538   0.833
10566SOL    HW232598   3.515   1.531   0.814
10567SOL     OW32599   2.071   2.404   6.341
10567SOL    HW132600   2.097   2.454   6.424
10567SOL    HW232601   2.137   2.425   6.269
10568SOL     OW32602   4.929   2.095   5.972
10568SOL    HW132603   4.997   2.023   5.971
10568SOL    HW232604   4.928   2.139   6.062
10569SOL     OW32605   5.565   0.900   0.511
10569SOL    HW132606   5.525   0.885   0.420
10569SOL    HW232607   5.642   0.838   0.524
10570SOL     OW32608   1.807   3.529   3.230
10570SOL    HW132609   1.815   3.482   3.318
10570SOL    HW232610   1.772   3.465   3.161
10571SOL     OW32611   6.755   4.092   5.465
10571SOL    HW132612   6.685   4.163   5.461
10571SOL    HW232613   6.836   4.122   5.416
10572SOL     OW32614   6.580   4.228   0.941
10572SOL    HW132615   6.555   4.132   0.925
10572SOL    HW232616   6.498   4.285   0.932
10573SOL     OW32617   7.007   2.482   3.396
10573SOL    HW132618   6.961   2.393   3.395
10573SOL    HW232619   7.001   2.522   3.487
10574SOL     OW32620   6.321   2.676   2.673
10574SOL    HW132621   6.340   2.700   2.768
10574SOL    HW232622   6.234   2.716   2.645
10575SOL     OW32623   5.650   0.111   2.571
10575SOL    HW132624   5.602   0.176   2.630
10575SOL    HW232625   5.636   0.018   2.607
10576SOL     OW32626   1.228   3.834   4.511
10576SOL    HW132627   1.220   3.813   4.608
10576SOL    HW232628   1.325   3.847   4.488
10577SOL     OW32629   3.912   4.256   0.830
10577SOL    HW132630   3.855   4.278   0.751
10577SOL    HW232631   3.902   4.160   0.853
10578SOL     OW32632   0.604   3.779   2.363
10578SOL    HW132633   0.549   3.851   2.406
10578SOL    HW232634   0.624   3.708   2.431
10579SOL     OW32635   0.261   3.309   0.135
10579SOL    HW132636   0.342   3.366   0.126
10579SOL    HW232637   0.187   3.346   0.078
10580SOL     OW32638   5.249   0.215   6.536
10580SOL    HW132639   5.224   0.271   6.457
10580SOL    HW232640   5.341   0.239   6.566
10581SOL     OW32641   4.493   0.658   3.420
10581SOL    HW132642   4.451   0.678   3.508
10581SOL    HW232643   4.489   0.740   3.362
10582SOL     OW32644   6.418   3.235   6.276
10582SOL    HW132645   6.459   3.325   6.290
10582SOL    HW232646   6.487   3.164   6.287
10583SOL     OW32647   3.711   1.912   5.520
10583SOL    HW132648   3.684   1.936   5.427
10583SOL    HW232649   3.664   1.971   5.585
10584SOL     OW32650   0.770   0.240   3.258
10584SOL    HW132651   0.864   0.211   3.236
10584SOL    HW232652   0.719   0.252   3.173
10585SOL     OW32653   1.768   0.693   5.570
10585SOL    HW132654   1.783   0.672   5.473
10585SOL    HW232655   1.856   0.700   5.617
10586SOL     OW32656   4.318   4.260   5.398
10586SOL    HW132657   4.307   4.284   5.302
10586SOL    HW232658   4.263   4.180   5.419
10587SOL     OW32659   2.534   4.754   5.469
10587SOL    HW132660   2.467   4.771   5.397
10587SOL    HW232661   2.622   4.794   5.444
10588SOL     OW32662   1.574   3.558   3.509
10588SOL    HW132663   1.583   3.620   3.431
10588SOL    HW232664   1.647   3.577   3.575
10589SOL     OW32665   5.824   6.571   3.461
10589SOL    HW132666   5.904   6.542   3.514
10589SOL    HW232667   5.833   6.540   3.367
10590SOL     OW32668   1.102   5.149   2.859
10590SOL    HW132669   1.192   5.182   2.831
10590SOL    HW232670   1.112   5.063   2.909
10591SOL     OW32671   0.117   4.123   2.365
10591SOL    HW132672   0.132   4.032   2.326
10591SOL    HW232673   0.095   4.187   2.292
10592SOL     OW32674   0.259   2.203   5.005
10592SOL    HW132675   0.278   2.129   5.070
10592SOL    HW232676   0.314   2.190   4.923
10593SOL     OW32677   2.745   5.222   3.253
10593SOL    HW132678   2.805   5.294   3.218
10593SOL    HW232679   2.674   5.202   3.185
10594SOL     OW32680   3.385   5.663   3.544
10594SOL    HW132681   3.288   5.663   3.519
10594SOL    HW232682   3.420   5.757   3.543
10595SOL     OW32683   4.646   6.819   1.427
10595SOL    HW132684   4.677   6.808   1.332
10595SOL    HW232685   4.555   6.780   1.437
10596SOL     OW32686   4.918   3.298   6.977
10596SOL    HW132687   4.885   3.207   6.952
10596SOL    HW232688   4.913   3.309   0.053
10597SOL     OW32689   2.280   6.638   4.964
10597SOL    HW132690   2.270   6.670   5.059
10597SOL    HW232691   2.294   6.539   4.964
10598SOL     OW32692   3.345   0.627   0.131
10598SOL    HW132693   3.265   0.581   0.093
10598SOL    HW232694   3.428   0.587   0.092
10599SOL     OW32695   0.905   2.305   0.673
10599SOL    HW132696   0.864   2.271   0.757
10599SOL    HW232697   0.841   2.293   0.597
10600SOL     OW32698   3.975   0.850   1.661
10600SOL    HW132699   3.974   0.759   1.620
10600SOL    HW232700   3.992   0.843   1.759
10601SOL     OW32701   1.955   0.971   4.553
10601SOL    HW132702   1.945   0.912   4.633
10601SOL    HW232703   1.866   1.006   4.526
10602SOL     OW32704   6.221   0.438   1.472
10602SOL    HW132705   6.233   0.344   1.505
10602SOL    HW232706   6.123   0.454   1.455
10603SOL     OW32707   6.004   0.444   3.144
10603SOL    HW132708   6.011   0.442   3.045
10603SOL    HW232709   6.026   0.353   3.181
10604SOL     OW32710   4.909   1.651   4.925
10604SOL    HW132711   4.815   1.626   4.949
10604SOL    HW232712   4.967   1.570   4.929
10605SOL     OW32713   3.337   2.090   0.900
10605SOL    HW132714   3.339   2.130   0.809
10605SOL    HW232715   3.365   1.994   0.895
10606SOL     OW32716   6.779   0.825   0.063
10606SOL    HW132717   6.827   0.741   0.039
10606SOL    HW232718   6.780   0.888   7.008
10607SOL     OW32719   3.441   3.862   0.313
10607SOL    HW132720   3.441   3.779   0.370
10607SOL    HW232721   3.518   3.920   0.339
10608SOL     OW32722   5.461   4.220   3.885
10608SOL    HW132723   5.372   4.214   3.840
10608SOL    HW232724   5.487   4.129   3.919
10609SOL     OW32725   5.981   6.970   6.872
10609SOL    HW132726   5.992   7.018   6.785
10609SOL    HW232727   5.911   6.899   6.863
10610SOL     OW32728   0.785   1.626   3.271
10610SOL    HW132729   0.736   1.552   3.226
10610SOL    HW232730   0.815   1.595   3.362
10611SOL     OW32731   3.984   5.256   4.741
10611SOL    HW132732   4.020   5.295   4.656
10611SOL    HW232733   3.937   5.170   4.721
10612SOL     OW32734   6.328   2.504   3.904
10612SOL    HW132735   6.244   2.508   3.959
10612SOL    HW232736   6.327   2.422   3.848
10613SOL     OW32737   4.676   5.884   4.537
10613SOL    HW132738   4.701   5.850   4.447
10613SOL    HW232739   4.622   5.816   4.586
10614SOL     OW32740   3.963   2.317   5.843
10614SOL    HW132741   3.955   2.306   5.942
10614SOL    HW232742   3.964   2.414   5.820
10615SOL     OW32743   2.673   2.643   5.454
10615SOL    HW132744   2.757   2.613   5.408
10615SOL    HW232745   2.616   2.694   5.390
10616SOL     OW32746   1.689   5.715   0.430
10616SOL    HW132747   1.784   5.685   0.423
10616SOL    HW232748   1.641   5.658   0.496
10617SOL     OW32749   1.456   2.776   1.585
10617SOL    HW132750   1.408   2.855   1.622
10617SOL    HW232751   1.553   2.783   1.607
10618SOL     OW32752   1.041   4.811   4.093
10618SOL    HW132753   1.008   4.809   4.188
10618SOL    HW232754   1.141   4.804   4.093
10619SOL     OW32755   0.979   2.749   1.699
10619SOL    HW132756   1.074   2.725   1.720
10619SOL    HW232757   0.923   2.741   1.781
10620SOL     OW32758   3.382   0.597   5.738
10620SOL    HW132759   3.455   0.550   5.688
10620SOL    HW232760   3.402   0.695   5.742
10621SOL     OW32761   0.624   4.043   3.208
10621SOL    HW132762   0.631   4.075   3.114
10621SOL    HW232763   0.715   4.021   3.243
10622SOL     OW32764   4.524   2.177   0.233
10622SOL    HW132765   4.450   2.203   0.171
10622SOL    HW232766   4.612   2.196   0.190
10623SOL     OW32767   5.127   5.551   5.416
10623SOL    HW132768   5.154   5.641   5.382
10623SOL    HW232769   5.155   5.542   5.512
10624SOL     OW32770   0.267   1.903   6.840
10624SOL    HW132771   0.246   1.969   6.913
10624SOL    HW232772   0.304   1.820   6.881
10625SOL     OW32773   6.869   5.824   0.574
10625SOL    HW132774   6.781   5.783   0.552
10625SOL    HW232775   6.890   5.808   0.670
10626SOL     OW32776   5.463   2.876   1.597
10626SOL    HW132777   5.417   2.924   1.522
10626SOL    HW232778   5.560   2.865   1.575
10627SOL     OW32779   5.787   5.368   5.129
10627SOL    HW132780   5.779   5.305   5.207
10627SOL    HW232781   5.700   5.369   5.079
10628SOL     OW32782   2.926   6.626   0.298
10628SOL    HW132783   3.000   6.559   0.302
10628SOL    HW232784   2.843   6.587   0.340
10629SOL     OW32785   4.725   5.268   4.181
10629SOL    HW132786   4.734   5.354   4.131
10629SOL    HW232787   4.792   5.265   4.255
10630SOL     OW32788   3.894   1.018   1.453
10630SOL    HW132789   3.800   0.983   1.451
10630SOL    HW232790   3.947   0.970   1.522
10631SOL     OW32791   3.464   5.672   1.960
10631SOL    HW132792   3.563   5.675   1.976
10631SOL    HW232793   3.445   5.692   1.864
10632SOL     OW32794   5.562   6.470   4.286
10632SOL    HW132795   5.466   6.459   4.262
10632SOL    HW232796   5.581   6.422   4.371
10633SOL     OW32797   2.181   3.112   0.477
10633SOL    HW132798   2.277   3.136   0.485
10633SOL    HW232799   2.149   3.131   0.384
10634SOL     OW32800   7.005   4.884   6.653
10634SOL    HW132801   6.977   4.815   6.587
10634SOL    HW232802   0.069   4.857   6.695
10635SOL     OW32803   2.971   5.944   6.514
10635SOL    HW132804   3.067   5.920   6.529
10635SOL    HW232805   2.917   5.861   6.506
10636SOL     OW32806   6.248   3.134   0.157
10636SOL    HW132807   6.289   3.225   0.166
10636SOL    HW232808   6.148   3.143   0.150
10637SOL     OW32809   2.447   0.740   6.830
10637SOL    HW132810   2.466   0.710   6.923
10637SOL    HW232811   2.452   0.840   6.825
10638SOL     OW32812   4.928   5.124   0.743
10638SOL    HW132813   4.886   5.053   0.799
10638SOL    HW232814   4.866   5.147   0.667
10639SOL     OW32815   6.899   4.993   1.596
10639SOL    HW132816   6.880   4.920   1.531
10639SOL    HW232817   6.813   5.036   1.625
10640SOL     OW32818   4.182   6.172   3.593
10640SOL    HW132819   4.217   6.097   3.649
10640SOL    HW232820   4.099   6.143   3.546
10641SOL     OW32821   0.855   1.906   2.910
10641SOL    HW132822   0.952   1.884   2.901
10641SOL    HW232823   0.844   2.005   2.921
10642SOL     OW32824   6.396   2.889   6.163
10642SOL    HW132825   6.380   2.805   6.216
10642SOL    HW232826   6.489   2.920   6.178
10643SOL     OW32827   2.475   4.997   5.936
10643SOL    HW132828   2.543   4.939   5.981
10643SOL    HW232829   2.458   4.962   5.844
10644SOL     OW32830   6.749   3.265   3.095
10644SOL    HW132831   6.723   3.245   3.190
10644SOL    HW232832   6.844   3.237   3.080
10645SOL     OW32833   2.177   2.256   3.033
10645SOL    HW132834   2.136   2.228   3.120
10645SOL    HW232835   2.265   2.300   3.050
10646SOL     OW32836   5.621   6.973   3.656
10646SOL    HW132837   5.606   0.042   3.692
10646SOL    HW232838   5.631   6.976   3.557
10647SOL     OW32839   3.652   5.375   4.971
10647SOL    HW132840   3.602   5.438   5.030
10647SOL    HW232841   3.589   5.338   4.902
10648SOL     OW32842   4.530   4.239   5.579
10648SOL    HW132843   4.443   4.226   5.531
10648SOL    HW232844   4.538   4.333   5.610
10649SOL     OW32845   6.347   3.491   3.259
10649SOL    HW132846   6.361   3.447   3.170
10649SOL    HW232847   6.433   3.492   3.310
10650SOL     OW32848   0.753   0.517   2.737
10650SOL    HW132849   0.657   0.504   2.760
10650SOL    HW232850   0.771   0.615   2.722
10651SOL     OW32851   2.784   5.327   5.985
10651SOL    HW132852   2.705   5.387   5.992
10651SOL    HW232853   2.779   5.276   5.899
10652SOL     OW32854   1.768   0.072   6.781
10652SOL    HW132855   1.743   0.038   6.872
10652SOL    HW232856   1.818   0.158   6.791
10653SOL     OW32857   5.119   5.818   4.442
10653SOL    HW132858   5.104   5.720   4.452
10653SOL    HW232859   5.209   5.833   4.401
10654SOL     OW32860   6.724   2.091   4.075
10654SOL    HW132861   6.778   2.057   3.999
10654SOL    HW232862   6.643   2.139   4.041
10655SOL     OW32863   0.268   4.614   1.040
10655SOL    HW132864   0.314   4.546   1.097
10655SOL    HW232865   0.179   4.580   1.011
10656SOL     OW32866   5.640   2.152   4.679
10656SOL    HW132867   5.555   2.193   4.712
10656SOL    HW232868   5.706   2.146   4.754
10657SOL     OW32869   5.062   0.398   5.138
10657SOL    HW132870   5.016   0.473   5.185
10657SOL    HW232871   5.040   0.402   5.040
10658SOL     OW32872   1.074   1.703   5.643
10658SOL    HW132873   1.038   1.695   5.550
10658SOL    HW232874   1.142   1.631   5.659
10659SOL     OW32875   0.496   5.919   1.172
10659SOL    HW132876   0.423   5.925   1.105
10659SOL    HW232877   0.580   5.887   1.127
10660SOL     OW32878   5.450   2.700   5.768
10660SOL    HW132879   5.354   2.673   5.776
10660SOL    HW232880   5.491   2.705   5.859
10661SOL     OW32881   3.607   4.897   5.268
10661SOL    HW132882   3.648   4.971   5.214
10661SOL    HW232883   3.680   4.840   5.306
10662SOL     OW32884   2.958   0.864   1.334
10662SOL    HW132885   2.954   0.858   1.234
10662SOL    HW232886   3.046   0.902   1.362
10663SOL     OW32887   0.937   2.328   4.058
10663SOL    HW132888   1.022   2.376   4.038
10663SOL    HW232889   0.866   2.358   3.994
10664SOL     OW32890   1.209   5.298   4.547
10664SOL    HW132891   1.146   5.305   4.469
10664SOL    HW232892   1.287   5.359   4.532
10665SOL     OW32893   3.309   2.983   6.980
10665SOL    HW132894   3.366   3.033   0.023
10665SOL    HW232895   3.309   3.032   6.893
10666SOL     OW32896   3.806   3.674   1.266
10666SOL    HW132897   3.824   3.577   1.248
10666SOL    HW232898   3.765   3.716   1.185
10667SOL     OW32899   5.515   2.969   4.046
10667SOL    HW132900   5.485   2.989   4.139
10667SOL    HW232901   5.469   2.887   4.013
10668SOL     OW32902   3.275   2.672   6.071
10668SOL    HW132903   3.201   2.686   6.004
10668SOL    HW232904   3.349   2.620   6.028
10669SOL     OW32905   6.167   1.852   1.163
10669SOL    HW132906   6.225   1.797   1.224
10669SOL    HW232907   6.208   1.856   1.072
10670SOL     OW32908   4.806   3.970   4.266
10670SOL    HW132909   4.764   4.054   4.231
10670SOL    HW232910   4.817   3.978   4.365
10671SOL     OW32911   1.445   3.553   5.019
10671SOL    HW132912   1.475   3.542   5.114
10671SOL    HW232913   1.366   3.494   5.002
10672SOL     OW32914   5.947   3.789   2.501
10672SOL    HW132915   6.037   3.811   2.538
10672SOL    HW232916   5.876   3.830   2.559
10673SOL     OW32917   2.324   1.155   1.012
10673SOL    HW132918   2.390   1.088   1.044
10673SOL    HW232919   2.284   1.125   0.926
10674SOL     OW32920   3.315   3.459   4.025
10674SOL    HW132921   3.257   3.482   3.947
10674SOL    HW232922   3.411   3.457   3.996
10675SOL     OW32923   3.707   6.804   5.249
10675SOL    HW132924   3.702   6.706   5.270
10675SOL    HW232925   3.748   6.816   5.158
10676SOL     OW32926   1.350   6.891   5.636
10676SOL    HW132927   1.334   6.947   5.717
10676SOL    HW232928   1.275   6.906   5.571
10677SOL     OW32929   0.417   1.578   6.735
10677SOL    HW132930   0.506   1.615   6.705
10677SOL    HW232931   0.390   1.623   6.820
10678SOL     OW32932   4.020   5.585   2.259
10678SOL    HW132933   4.097   5.551   2.205
10678SOL    HW232934   3.935   5.542   2.227
10679SOL     OW32935   4.461   3.969   0.049
10679SOL    HW132936   4.517   4.051   0.036
10679SOL    HW232937   4.450   3.951   0.147
10680SOL     OW32938   4.129   1.658   5.127
10680SOL    HW132939   4.057   1.659   5.058
10680SOL    HW232940   4.202   1.722   5.100
10681SOL     OW32941   1.974   3.339   5.297
10681SOL    HW132942   2.010   3.319   5.206
10681SOL    HW232943   1.924   3.426   5.294
10682SOL     OW32944   5.207   3.474   6.560
10682SOL    HW132945   5.219   3.458   6.462
10682SOL    HW232946   5.139   3.410   6.596
10683SOL     OW32947   2.621   0.497   3.776
10683SOL    HW132948   2.543   0.556   3.795
10683SOL    HW232949   2.665   0.471   3.862
10684SOL     OW32950   4.590   4.648   1.733
10684SOL    HW132951   4.658   4.605   1.674
10684SOL    HW232952   4.582   4.596   1.818
10685SOL     OW32953   0.981   6.451   1.999
10685SOL    HW132954   1.074   6.430   1.969
10685SOL    HW232955   0.932   6.366   2.017
10686SOL     OW32956   2.343   1.005   6.846
10686SOL    HW132957   2.272   1.001   6.775
10686SOL    HW232958   2.399   1.086   6.832
10687SOL     OW32959   0.789   3.888   3.746
10687SOL    HW132960   0.734   3.904   3.828
10687SOL    HW232961   0.744   3.819   3.689
10688SOL     OW32962   5.212   1.102   3.022
10688SOL    HW132963   5.266   1.179   2.988
10688SOL    HW232964   5.132   1.137   3.071
10689SOL     OW32965   0.770   6.936   2.491
10689SOL    HW132966   0.705   6.909   2.420
10689SOL    HW232967   0.860   6.952   2.451
10690SOL     OW32968   0.491   6.598   4.209
10690SOL    HW132969   0.536   6.551   4.285
10690SOL    HW232970   0.415   6.652   4.245
10691SOL     OW32971   3.850   0.078   2.007
10691SOL    HW132972   3.750   0.068   2.002
10691SOL    HW232973   3.873   0.172   2.031
10692SOL     OW32974   2.243   1.531   4.597
10692SOL    HW132975   2.291   1.570   4.676
10692SOL    HW232976   2.259   1.590   4.517
10693SOL     OW32977   1.357   5.318   6.566
10693SOL    HW132978   1.349   5.372   6.650
10693SOL    HW232979   1.324   5.225   6.583
10694SOL     OW32980   4.371   0.898   5.042
10694SOL    HW132981   4.437   0.858   4.979
10694SOL    HW232982   4.278   0.874   5.013
10695SOL     OW32983   5.095   4.541   2.196
10695SOL    HW132984   5.180   4.501   2.159
10695SOL    HW232985   5.072   4.623   2.143
10696SOL     OW32986   6.176   4.783   3.928
10696SOL    HW132987   6.204   4.790   3.832
10696SOL    HW232988   6.231   4.846   3.983
10697SOL     OW32989   2.492   5.224   5.001
10697SOL    HW132990   2.559   5.269   4.942
10697SOL    HW232991   2.417   5.288   5.020
10698SOL     OW32992   3.581   3.418   0.076
10698SOL    HW132993   3.646   3.494   0.083
10698SOL    HW232994   3.603   3.361   7.020
10699SOL     OW32995   3.460   2.473   0.690
10699SOL    HW132996   3.400   2.393   0.688
10699SOL    HW232997   3.442   2.527   0.772
10700SOL     OW32998   4.836   0.608   1.365
10700SOL    HW132999   4.759   0.569   1.416
10700SOL    HW233000   4.873   0.686   1.415
10701SOL     OW33001   3.175   7.004   6.812
10701SOL    HW133002   3.262   0.027   6.828
10701SOL    HW233003   3.191   6.914   6.771
10702SOL     OW33004   5.733   2.456   1.388
10702SOL    HW133005   5.753   2.378   1.447
10702SOL    HW233006   5.672   2.426   1.314
10703SOL     OW33007   0.695   2.210   5.968
10703SOL    HW133008   0.672   2.140   5.900
10703SOL    HW233009   0.787   2.192   6.003
10704SOL     OW33010   5.072   6.795   1.987
10704SOL    HW133011   4.983   6.833   2.013
10704SOL    HW233012   5.122   6.861   1.932
10705SOL     OW33013   5.644   3.896   1.062
10705SOL    HW133014   5.579   3.890   1.138
10705SOL    HW233015   5.650   3.807   1.017
10706SOL     OW33016   3.935   0.301   1.052
10706SOL    HW133017   3.977   0.368   0.991
10706SOL    HW233018   3.842   0.330   1.075
10707SOL     OW33019   5.575   0.251   3.768
10707SOL    HW133020   5.518   0.271   3.689
10707SOL    HW233021   5.671   0.267   3.745
10708SOL     OW33022   4.097   1.768   2.180
10708SOL    HW133023   4.056   1.827   2.110
10708SOL    HW233024   4.049   1.680   2.182
10709SOL     OW33025   5.932   4.770   3.527
10709SOL    HW133026   5.870   4.807   3.458
10709SOL    HW233027   5.995   4.705   3.484
10710SOL     OW33028   5.135   1.752   3.729
10710SOL    HW133029   5.116   1.830   3.789
10710SOL    HW233030   5.178   1.679   3.781
10711SOL     OW33031   3.896   0.104   1.730
10711SOL    HW133032   3.874   0.031   1.666
10711SOL    HW233033   3.883   0.071   1.824
10712SOL     OW33034   5.498   0.049   3.004
10712SOL    HW133035   5.514   0.142   3.037
10712SOL    HW233036   5.445   7.021   3.071
10713SOL     OW33037   1.412   4.377   1.385
10713SOL    HW133038   1.448   4.286   1.404
10713SOL    HW233039   1.313   4.377   1.393
10714SOL     OW33040   3.143   4.010   5.048
10714SOL    HW133041   3.098   3.999   5.136
10714SOL    HW233042   3.076   3.996   4.974
10715SOL     OW33043   6.141   0.946   1.712
10715SOL    HW133044   6.127   1.034   1.665
10715SOL    HW233045   6.236   0.940   1.744
10716SOL     OW33046   5.527   1.353   3.817
10716SOL    HW133047   5.545   1.343   3.719
10716SOL    HW233048   5.497   1.265   3.854
10717SOL     OW33049   2.052   2.551   7.014
10717SOL    HW133050   2.008   2.472   0.035
10717SOL    HW233051   2.110   2.519   6.939
10718SOL     OW33052   1.900   5.111   4.955
10718SOL    HW133053   1.941   5.027   4.920
10718SOL    HW233054   1.908   5.113   5.055
10719SOL     OW33055   6.247   5.731   4.251
10719SOL    HW133056   6.326   5.725   4.311
10719SOL    HW233057   6.218   5.638   4.226
10720SOL     OW33058   6.974   5.052   3.584
10720SOL    HW133059   7.016   5.049   3.494
10720SOL    HW233060   6.886   5.100   3.578
10721SOL     OW33061   5.390   3.987   5.714
10721SOL    HW133062   5.395   3.894   5.678
10721SOL    HW233063   5.445   3.993   5.797
10722SOL     OW33064   6.577   4.171   5.762
10722SOL    HW133065   6.614   4.153   5.671
10722SOL    HW233066   6.513   4.098   5.788
10723SOL     OW33067   6.105   0.001   0.703
10723SOL    HW133068   6.051   6.944   0.732
10723SOL    HW233069   6.046   0.065   0.655
10724SOL     OW33070   6.623   6.203   0.220
10724SOL    HW133071   6.653   6.273   0.284
10724SOL    HW233072   6.699   6.142   0.198
10725SOL     OW33073   2.389   5.676   5.365
10725SOL    HW133074   2.331   5.756   5.350
10725SOL    HW233075   2.484   5.706   5.377
10726SOL     OW33076   5.353   1.301   4.311
10726SOL    HW133077   5.431   1.312   4.250
10726SOL    HW233078   5.357   1.371   4.383
10727SOL     OW33079   1.716   6.248   5.331
10727SOL    HW133080   1.620   6.235   5.354
10727SOL    HW233081   1.724   6.319   5.260
10728SOL     OW33082   5.773   6.342   0.763
10728SOL    HW133083   5.748   6.245   0.756
10728SOL    HW233084   5.772   6.370   0.859
10729SOL     OW33085   6.580   2.992   1.384
10729SOL    HW133086   6.491   2.993   1.337
10729SOL    HW233087   6.567   2.963   1.479
10730SOL     OW33088   4.765   0.171   2.322
10730SOL    HW133089   4.732   0.180   2.227
10730SOL    HW233090   4.782   0.262   2.360
10731SOL     OW33091   4.493   0.419   1.195
10731SOL    HW133092   4.562   0.435   1.265
10731SOL    HW233093   4.537   0.397   1.108
10732SOL     OW33094   0.790   4.885   5.213
10732SOL    HW133095   0.789   4.904   5.115
10732SOL    HW233096   0.866   4.935   5.256
10733SOL     OW33097   6.437   2.697   0.237
10733SOL    HW133098   6.367   2.638   0.277
10733SOL    HW233099   6.450   2.672   0.141
10734SOL     OW33100   6.842   2.465   1.764
10734SOL    HW133101   6.927   2.417   1.786
10734SOL    HW233102   6.862   2.555   1.727
10735SOL     OW33103   0.318   4.062   2.729
10735SOL    HW133104   0.367   4.149   2.717
10735SOL    HW233105   0.220   4.081   2.738
10736SOL     OW33106   2.750   0.374   3.303
10736SOL    HW133107   2.654   0.374   3.277
10736SOL    HW233108   2.760   0.414   3.394
10737SOL     OW33109   6.906   1.989   1.658
10737SOL    HW133110   6.988   1.932   1.663
10737SOL    HW233111   6.828   1.934   1.628
10738SOL     OW33112   4.426   0.445   3.235
10738SOL    HW133113   4.500   0.407   3.178
10738SOL    HW233114   4.465   0.506   3.303
10739SOL     OW33115   2.189   1.991   1.525
10739SOL    HW133116   2.212   1.955   1.616
10739SOL    HW233117   2.090   1.987   1.512
10740SOL     OW33118   5.303   4.844   3.293
10740SOL    HW133119   5.281   4.942   3.290
10740SOL    HW233120   5.280   4.808   3.384
10741SOL     OW33121   3.771   0.524   2.955
10741SOL    HW133122   3.828   0.488   2.882
10741SOL    HW233123   3.703   0.456   2.981
10742SOL     OW33124   6.753   5.601   0.854
10742SOL    HW133125   6.713   5.560   0.772
10742SOL    HW233126   6.736   5.699   0.855
10743SOL     OW33127   2.302   1.598   4.869
10743SOL    HW133128   2.363   1.594   4.948
10743SOL    HW233129   2.288   1.693   4.842
10744SOL     OW33130   3.961   1.817   1.307
10744SOL    HW133131   3.910   1.809   1.222
10744SOL    HW233132   4.035   1.749   1.309
10745SOL     OW33133   6.845   5.710   6.064
10745SOL    HW133134   6.896   5.796   6.073
10745SOL    HW233135   6.880   5.659   5.985
10746SOL     OW33136   0.265   4.221   5.944
10746SOL    HW133137   0.246   4.146   5.881
10746SOL    HW233138   0.209   4.300   5.919
10747SOL     OW33139   3.494   1.429   4.598
10747SOL    HW133140   3.547   1.490   4.538
10747SOL    HW233141   3.436   1.370   4.542
10748SOL     OW33142   5.602   1.261   2.442
10748SOL    HW133143   5.515   1.291   2.481
10748SOL    HW233144   5.586   1.222   2.351
10749SOL     OW33145   2.251   6.840   6.132
10749SOL    HW133146   2.315   6.764   6.144
10749SOL    HW233147   2.242   6.861   6.034
10750SOL     OW33148   3.751   0.496   6.381
10750SOL    HW133149   3.845   0.465   6.380
10750SOL    HW233150   3.731   0.545   6.295
10751SOL     OW33151   2.759   5.047   3.963
10751SOL    HW133152   2.779   4.952   3.986
10751SOL    HW233153   2.671   5.073   4.003
10752SOL     OW33154   4.796   5.477   3.828
10752SOL    HW133155   4.878   5.425   3.806
10752SOL    HW233156   4.794   5.496   3.926
10753SOL     OW33157   6.919   3.311   4.557
10753SOL    HW133158   6.916   3.340   4.652
10753SOL    HW233159   6.894   3.215   4.549
10754SOL     OW33160   1.867   0.223   2.298
10754SOL    HW133161   1.924   0.141   2.286
10754SOL    HW233162   1.805   0.232   2.220
10755SOL     OW33163   6.322   5.899   1.944
10755SOL    HW133164   6.399   5.954   1.978
10755SOL    HW233165   6.341   5.869   1.851
10756SOL     OW33166   7.007   6.522   5.249
10756SOL    HW133167   0.074   6.516   5.206
10756SOL    HW233168   7.017   6.510   5.348
10757SOL     OW33169   2.514   3.192   1.245
10757SOL    HW133170   2.449   3.262   1.215
10757SOL    HW233171   2.606   3.216   1.211
10758SOL     OW33172   0.522   5.460   4.342
10758SOL    HW133173   0.585   5.532   4.316
10758SOL    HW233174   0.449   5.498   4.400
10759SOL     OW33175   6.928   3.008   6.649
10759SOL    HW133176   6.976   3.046   6.729
10759SOL    HW233177   6.952   3.061   6.568
10760SOL     OW33178   6.304   0.929   3.500
10760SOL    HW133179   6.209   0.902   3.514
10760SOL    HW233180   6.364   0.852   3.520
10761SOL     OW33181   2.819   4.792   5.405
10761SOL    HW133182   2.918   4.795   5.422
10761SOL    HW233183   2.800   4.828   5.314
10762SOL     OW33184   3.434   0.522   4.308
10762SOL    HW133185   3.467   0.466   4.384
10762SOL    HW233186   3.344   0.559   4.331
10763SOL     OW33187   4.160   6.333   3.280
10763SOL    HW133188   4.168   6.424   3.321
10763SOL    HW233189   4.245   6.311   3.232
10764SOL     OW33190   5.848   0.099   4.355
10764SOL    HW133191   5.897   0.180   4.387
10764SOL    HW233192   5.879   0.019   4.407
10765SOL     OW33193   5.697   3.609   1.035
10765SOL    HW133194   5.758   3.573   0.965
10765SOL    HW233195   5.605   3.618   0.998
10766SOL     OW33196   4.066   2.732   1.702
10766SOL    HW133197   4.059   2.813   1.643
10766SOL    HW233198   4.032   2.754   1.793
10767SOL     OW33199   3.300   1.335   1.723
10767SOL    HW133200   3.362   1.375   1.656
10767SOL    HW233201   3.205   1.350   1.695
10768SOL     OW33202   0.040   5.441   0.244
10768SOL    HW133203   0.124   5.484   0.277
10768SOL    HW233204   0.056   5.344   0.229
10769SOL     OW33205   1.810   4.074   5.958
10769SOL    HW133206   1.811   4.130   6.040
10769SOL    HW233207   1.894   4.021   5.952
10770SOL     OW33208   4.378   6.134   2.999
10770SOL    HW133209   4.405   6.088   3.084
10770SOL    HW233210   4.367   6.232   3.015
10771SOL     OW33211   2.379   1.266   3.686
10771SOL    HW133212   2.376   1.227   3.594
10771SOL    HW233213   2.469   1.249   3.727
10772SOL     OW33214   5.365   5.113   3.661
10772SOL    HW133215   5.415   5.181   3.714
10772SOL    HW233216   5.276   5.096   3.703
10773SOL     OW33217   5.061   4.985   3.996
10773SOL    HW133218   5.158   4.990   4.019
10773SOL    HW233219   5.049   4.994   3.897
10774SOL     OW33220   1.139   0.736   3.724
10774SOL    HW133221   1.130   0.822   3.673
10774SOL    HW233222   1.148   0.757   3.822
10775SOL     OW33223   0.524   4.056   2.114
10775SOL    HW133224   0.590   3.995   2.070
10775SOL    HW233225   0.574   4.126   2.166
10776SOL     OW33226   1.545   0.153   6.372
10776SOL    HW133227   1.603   0.077   6.401
10776SOL    HW233228   1.546   0.159   6.272
10777SOL     OW33229   2.927   5.939   1.418
10777SOL    HW133230   2.892   5.967   1.508
10777SOL    HW233231   2.932   5.839   1.414
10778SOL     OW33232   6.097   5.847   3.158
10778SOL    HW133233   6.023   5.822   3.095
10778SOL    HW233234   6.179   5.869   3.106
10779SOL     OW33235   5.380   2.430   3.472
10779SOL    HW133236   5.372   2.375   3.388
10779SOL    HW233237   5.472   2.469   3.478
10780SOL     OW33238   0.594   0.952   3.001
10780SOL    HW133239   0.669   0.967   3.066
10780SOL    HW233240   0.509   0.989   3.038
10781SOL     OW33241   3.625   0.325   4.095
10781SOL    HW133242   3.676   0.342   4.010
10781SOL    HW233243   3.564   0.402   4.112
10782SOL     OW33244   6.833   5.302   3.934
10782SOL    HW133245   6.928   5.271   3.936
10782SOL    HW233246   6.791   5.289   4.024
10783SOL     OW33247   6.715   2.433   3.004
10783SOL    HW133248   6.705   2.456   3.101
10783SOL    HW233249   6.627   2.402   2.968
10784SOL     OW33250   2.728   1.029   4.383
10784SOL    HW133251   2.632   1.004   4.374
10784SOL    HW233252   2.737   1.128   4.380
10785SOL     OW33253   0.542   3.883   6.567
10785SOL    HW133254   0.450   3.848   6.549
10785SOL    HW233255   0.575   3.932   6.486
10786SOL     OW33256   0.656   5.353   3.208
10786SOL    HW133257   0.728   5.314   3.266
10786SOL    HW233258   0.590   5.282   3.185
10787SOL     OW33259   1.865   2.740   5.666
10787SOL    HW133260   1.965   2.727   5.670
10787SOL    HW233261   1.831   2.764   5.757
10788SOL     OW33262   5.894   3.732   6.499
10788SOL    HW133263   5.960   3.658   6.484
10788SOL    HW233264   5.941   3.811   6.539
10789SOL     OW33265   6.651   1.344   0.195
10789SOL    HW133266   6.744   1.373   0.170
10789SOL    HW233267   6.652   1.247   0.220
10790SOL     OW33268   6.996   6.599   2.850
10790SOL    HW133269   6.898   6.586   2.866
10790SOL    HW233270   0.025   6.568   2.930
10791SOL     OW33271   0.329   6.363   2.758
10791SOL    HW133272   0.367   6.445   2.800
10791SOL    HW233273   0.243   6.339   2.803
10792SOL     OW33274   3.712   4.064   5.198
10792SOL    HW133275   3.731   4.159   5.174
10792SOL    HW233276   3.750   4.045   5.289
10793SOL     OW33277   5.438   3.438   4.855
10793SOL    HW133278   5.365   3.387   4.901
10793SOL    HW233279   5.438   3.415   4.757
10794SOL     OW33280   3.557   3.351   3.800
10794SOL    HW133281   3.544   3.258   3.764
10794SOL    HW233282   3.481   3.409   3.770
10795SOL     OW33283   0.805   4.740   3.276
10795SOL    HW133284   0.850   4.712   3.361
10795SOL    HW233285   0.721   4.687   3.265
10796SOL     OW33286   1.940   6.349   4.810
10796SOL    HW133287   1.926   6.265   4.757
10796SOL    HW233288   1.955   6.425   4.747
10797SOL     OW33289   3.943   2.473   0.304
10797SOL    HW133290   3.957   2.541   0.376
10797SOL    HW233291   4.031   2.452   0.261
10798SOL     OW33292   0.156   1.998   0.055
10798SOL    HW133293   0.059   2.019   0.045
10798SOL    HW233294   0.191   2.039   0.139
10799SOL     OW33295   4.108   1.607   1.637
10799SOL    HW133296   4.038   1.567   1.578
10799SOL    HW233297   4.094   1.706   1.642
10800SOL     OW33298   1.157   0.032   1.504
10800SOL    HW133299   1.180   0.113   1.450
10800SOL    HW233300   1.239   7.000   1.519
10801SOL     OW33301   1.584   0.660   0.637
10801SOL    HW133302   1.607   0.688   0.730
10801SOL    HW233303   1.526   0.730   0.595
10802SOL     OW33304   6.549   0.248   3.743
10802SOL    HW133305   6.536   0.211   3.835
10802SOL    HW233306   6.529   0.346   3.743
10803SOL     OW33307   2.302   5.264   6.372
10803SOL    HW133308   2.354   5.188   6.411
10803SOL    HW233309   2.278   5.329   6.444
10804SOL     OW33310   6.934   3.900   4.595
10804SOL    HW133311   6.999   3.847   4.539
10804SOL    HW233312   6.890   3.838   4.660
10805SOL     OW33313   6.275   1.196   5.399
10805SOL    HW133314   6.205   1.240   5.342
10805SOL    HW233315   6.334   1.140   5.341
10806SOL     OW33316   1.937   4.509   6.887
10806SOL    HW133317   1.851   4.493   6.839
10806SOL    HW233318   2.007   4.446   6.853
10807SOL     OW33319   3.203   6.856   4.431
10807SOL    HW133320   3.281   6.910   4.400
10807SOL    HW233321   3.222   6.817   4.521
10808SOL     OW33322   0.618   3.036   6.154
10808SOL    HW133323   0.549   2.966   6.135
10808SOL    HW233324   0.573   3.124   6.166
10809SOL     OW33325   2.256   6.492   4.690
10809SOL    HW133326   2.293   6.512   4.781
10809SOL    HW233327   2.157   6.480   4.696
10810SOL     OW33328   0.202   0.380   4.755
10810SOL    HW133329   0.142   0.460   4.761
10810SOL    HW233330   0.159   0.310   4.699
10811SOL     OW33331   4.788   4.797   4.934
10811SOL    HW133332   4.864   4.738   4.905
10811SOL    HW233333   4.824   4.887   4.961
10812SOL     OW33334   6.018   2.622   0.324
10812SOL    HW133335   6.009   2.675   0.241
10812SOL    HW233336   5.937   2.566   0.337
10813SOL     OW33337   0.433   4.591   5.918
10813SOL    HW133338   0.358   4.656   5.914
10813SOL    HW233339   0.406   4.506   5.872
10814SOL     OW33340   3.035   0.527   1.395
10814SOL    HW133341   2.981   0.589   1.338
10814SOL    HW233342   2.974   0.476   1.456
10815SOL     OW33343   5.544   0.828   4.975
10815SOL    HW133344   5.505   0.739   5.000
10815SOL    HW233345   5.474   0.899   4.987
10816SOL     OW33346   4.023   3.154   3.840
10816SOL    HW133347   3.990   3.063   3.816
10816SOL    HW233348   3.985   3.221   3.777
10817SOL     OW33349   1.999   6.272   3.335
10817SOL    HW133350   2.075   6.250   3.274
10817SOL    HW233351   2.034   6.321   3.415
10818SOL     OW33352   4.060   4.778   6.420
10818SOL    HW133353   4.146   4.766   6.470
10818SOL    HW233354   3.997   4.704   6.443
10819SOL     OW33355   6.803   6.002   5.913
10819SOL    HW133356   6.765   5.931   5.854
10819SOL    HW233357   6.883   5.966   5.961
10820SOL     OW33358   2.620   4.106   6.014
10820SOL    HW133359   2.526   4.130   6.036
10820SOL    HW233360   2.680   4.133   6.089
10821SOL     OW33361   4.653   5.563   2.977
10821SOL    HW133362   4.617   5.585   3.068
10821SOL    HW233363   4.636   5.639   2.915
10822SOL     OW33364   5.052   2.057   2.406
10822SOL    HW133365   4.963   2.048   2.362
10822SOL    HW233366   5.089   1.967   2.427
10823SOL     OW33367   5.888   6.834   2.356
10823SOL    HW133368   5.797   6.793   2.354
10823SOL    HW233369   5.881   6.929   2.385
10824SOL     OW33370   1.017   2.866   3.893
10824SOL    HW133371   1.049   2.796   3.829
10824SOL    HW233372   1.067   2.858   3.979
10825SOL     OW33373   0.593   2.241   0.076
10825SOL    HW133374   0.629   2.204   0.161
10825SOL    HW233375   0.498   2.267   0.088
10826SOL     OW33376   0.526   2.784   3.313
10826SOL    HW133377   0.607   2.754   3.363
10826SOL    HW233378   0.489   2.866   3.357
10827SOL     OW33379   6.720   3.605   4.686
10827SOL    HW133380   6.740   3.529   4.749
10827SOL    HW233381   6.622   3.610   4.671
10828SOL     OW33382   6.469   5.001   5.285
10828SOL    HW133383   6.404   4.979   5.213
10828SOL    HW233384   6.560   4.968   5.260
10829SOL     OW33385   3.992   3.351   5.070
10829SOL    HW133386   3.937   3.283   5.021
10829SOL    HW233387   4.000   3.324   5.166
10830SOL     OW33388   3.693   1.749   3.628
10830SOL    HW133389   3.774   1.691   3.622
10830SOL    HW233390   3.614   1.699   3.594
10831SOL     OW33391   3.789   0.530   3.659
10831SOL    HW133392   3.815   0.450   3.604
10831SOL    HW233393   3.723   0.585   3.609
10832SOL     OW33394   6.752   3.624   0.428
10832SOL    HW133395   6.698   3.706   0.409
10832SOL    HW233396   6.846   3.638   0.399
10833SOL     OW33397   0.524   0.895   6.875
10833SOL    HW133398   0.548   0.821   6.813
10833SOL    HW233399   0.548   0.870   6.969
10834SOL     OW33400   6.984   7.009   1.536
10834SOL    HW133401   0.011   7.002   1.449
10834SOL    HW233402   6.897   6.960   1.528
10835SOL     OW33403   0.163   2.170   5.899
10835SOL    HW133404   0.237   2.223   5.858
10835SOL    HW233405   0.175   2.073   5.876
10836SOL     OW33406   6.827   1.142   4.151
10836SOL    HW133407   6.901   1.191   4.106
10836SOL    HW233408   6.798   1.065   4.094
10837SOL     OW33409   0.362   3.177   2.805
10837SOL    HW133410   0.409   3.182   2.717
10837SOL    HW233411   0.356   3.269   2.845
10838SOL     OW33412   0.272   5.310   2.413
10838SOL    HW133413   0.245   5.236   2.351
10838SOL    HW233414   0.364   5.342   2.390
10839SOL     OW33415   5.121   2.374   1.498
10839SOL    HW133416   5.107   2.339   1.591
10839SOL    HW233417   5.166   2.463   1.502
10840SOL     OW33418   2.954   0.069   1.326
10840SOL    HW133419   3.037   0.124   1.326
10840SOL    HW233420   2.891   0.103   1.395
10841SOL     OW33421   1.822   5.211   4.727
10841SOL    HW133422   1.832   5.308   4.749
10841SOL    HW233423   1.843   5.156   4.808
10842SOL     OW33424   5.198   4.305   0.965
10842SOL    HW133425   5.284   4.308   0.914
10842SOL    HW233426   5.145   4.387   0.946
10843SOL     OW33427   2.293   2.217   1.398
10843SOL    HW133428   2.293   2.135   1.455
10843SOL    HW233429   2.199   2.239   1.371
10844SOL     OW33430   1.672   4.962   4.763
10844SOL    HW133431   1.754   4.906   4.776
10844SOL    HW233432   1.697   5.046   4.714
10845SOL     OW33433   4.302   0.197   4.621
10845SOL    HW133434   4.266   0.186   4.714
10845SOL    HW233435   4.273   0.284   4.583
10846SOL     OW33436   5.313   0.514   6.987
10846SOL    HW133437   5.308   0.415   6.970
10846SOL    HW233438   5.390   0.533   0.026
10847SOL     OW33439   2.163   0.776   6.496
10847SOL    HW133440   2.163   0.687   6.541
10847SOL    HW233441   2.208   0.769   6.407
10848SOL     OW33442   1.877   4.857   1.917
10848SOL    HW133443   1.887   4.787   1.988
10848SOL    HW233444   1.791   4.842   1.868
10849SOL     OW33445   1.931   6.801   4.259
10849SOL    HW133446   1.934   6.873   4.329
10849SOL    HW233447   1.841   6.755   4.262
10850SOL     OW33448   3.356   4.969   0.526
10850SOL    HW133449   3.377   4.871   0.517
10850SOL    HW233450   3.277   4.980   0.586
10851SOL     OW33451   1.968   4.803   0.585
10851SOL    HW133452   2.044   4.791   0.650
10851SOL    HW233453   1.986   4.883   0.528
10852SOL     OW33454   2.245   1.134   1.959
10852SOL    HW133455   2.290   1.076   2.026
10852SOL    HW233456   2.146   1.126   1.968
10853SOL     OW33457   2.535   1.805   6.300
10853SOL    HW133458   2.607   1.740   6.323
10853SOL    HW233459   2.547   1.835   6.205
10854SOL     OW33460   3.295   6.478   5.297
10854SOL    HW133461   3.211   6.451   5.251
10854SOL    HW233462   3.305   6.578   5.292
10855SOL     OW33463   3.550   1.016   6.800
10855SOL    HW133464   3.496   0.938   6.769
10855SOL    HW233465   3.532   1.034   6.896
10856SOL     OW33466   0.339   1.030   0.305
10856SOL    HW133467   0.289   0.969   0.366
10856SOL    HW233468   0.403   0.977   0.249
10857SOL     OW33469   6.537   2.108   2.403
10857SOL    HW133470   6.442   2.133   2.382
10857SOL    HW233471   6.545   2.088   2.501
10858SOL     OW33472   2.458   6.077   1.968
10858SOL    HW133473   2.470   6.031   1.879
10858SOL    HW233474   2.492   6.017   2.041
10859SOL     OW33475   1.804   5.456   3.503
10859SOL    HW133476   1.775   5.415   3.590
10859SOL    HW233477   1.767   5.549   3.496
10860SOL     OW33478   0.081   2.902   3.470
10860SOL    HW133479   0.151   2.902   3.398
10860SOL    HW233480   0.038   2.812   3.475
10861SOL     OW33481   4.153   3.455   4.785
10861SOL    HW133482   4.175   3.428   4.878
10861SOL    HW233483   4.137   3.373   4.729
10862SOL     OW33484   1.129   1.038   4.627
10862SOL    HW133485   1.122   1.060   4.725
10862SOL    HW233486   1.042   0.999   4.596
10863SOL     OW33487   3.278   6.153   4.612
10863SOL    HW133488   3.263   6.230   4.550
10863SOL    HW233489   3.257   6.068   4.565
10864SOL     OW33490   3.741   5.849   3.041
10864SOL    HW133491   3.806   5.874   3.112
10864SOL    HW233492   3.778   5.773   2.988
10865SOL     OW33493   6.354   1.673   6.004
10865SOL    HW133494   6.441   1.643   5.964
10865SOL    HW233495   6.284   1.604   5.988
10866SOL     OW33496   5.396   5.217   0.749
10866SOL    HW133497   5.328   5.143   0.750
10866SOL    HW233498   5.377   5.282   0.822
10867SOL     OW33499   3.362   2.010   0.497
10867SOL    HW133500   3.325   2.066   0.423
10867SOL    HW233501   3.449   1.971   0.469
10868SOL     OW33502   2.378   2.282   2.719
10868SOL    HW133503   2.410   2.234   2.638
10868SOL    HW233504   2.289   2.246   2.746
10869NA      NA33505   6.529   2.250   6.020
10870NA      NA33506   4.429   4.579   5.265
10871NA      NA33507   2.430   3.468   1.647
10872NA      NA33508   5.000   3.634   5.183
10873NA      NA33509   4.331   2.385   5.218
10874NA      NA33510   3.703   4.722   1.696
10875NA      NA33511   6.648   5.895   4.912
10876NA      NA33512   3.753   3.869   5.045
10877NA      NA33513   4.500   6.883   6.880
10878NA      NA33514   3.613   0.111   4.976
10879NA      NA33515   0.251   5.218   2.911
10880NA      NA33516   2.859   0.611   2.909
10881NA      NA33517   3.563   3.959   0.970
10882NA      NA33518   3.388   3.386   3.007
   7.02278   7.02278   7.02278
