Generated by trjconv : CNT in water t= 377.00000
33518
    1C        C    1   2.840   2.768   4.746
    1C        C    2   2.896   2.715   4.864
    1C        C    3   2.846   2.771   4.982
    1C        C    4   2.848   2.774   4.261
    1C        C    5   2.897   2.725   4.384
    1C        C    6   2.841   2.768   4.506
    1C        C    7   3.010   2.639   4.624
    1C        C    8   2.890   2.714   4.626
    1C        C    9   3.074   2.601   4.744
    1C        C   10   3.006   2.626   4.865
    1C        C   11   3.182   2.489   4.978
    1C        C   12   3.061   2.559   4.975
    1C        C   13   2.848   2.767   3.773
    1C        C   14   2.901   2.719   3.895
    1C        C   15   2.848   2.771   4.016
    1C        C   16   3.017   2.646   4.140
    1C        C   17   2.902   2.727   4.139
    1C        C   18   3.080   2.613   4.262
    1C        C   19   3.015   2.646   4.382
    1C        C   20   3.207   2.554   4.503
    1C        C   21   3.076   2.607   4.503
    1C        C   22   3.276   2.533   4.625
    1C        C   23   3.207   2.551   4.747
    1C        C   24   3.411   2.483   4.864
    1C        C   25   3.270   2.504   4.866
    1C        C   26   3.487   2.477   4.982
    1C        C   27   2.844   2.762   3.280
    1C        C   28   2.898   2.719   3.403
    1C        C   29   2.849   2.766   3.527
    1C        C   30   3.016   2.638   3.651
    1C        C   31   2.900   2.719   3.651
    1C        C   32   3.075   2.601   3.774
    1C        C   33   3.016   2.637   3.897
    1C        C   34   3.210   2.552   4.018
    1C        C   35   3.079   2.606   4.019
    1C        C   36   3.278   2.531   4.140
    1C        C   37   3.209   2.554   4.262
    1C        C   38   3.417   2.512   4.382
    1C        C   39   3.278   2.532   4.383
    1C        C   40   3.487   2.496   4.504
    1C        C   41   3.413   2.500   4.624
    1C        C   42   3.629   2.485   4.745
    1C        C   43   3.487   2.482   4.744
    1C        C   44   3.704   2.490   4.865
    1C        C   45   3.626   2.480   4.981
    1C        C   46   2.832   2.748   2.794
    1C        C   47   2.894   2.707   2.914
    1C        C   48   2.841   2.758   3.035
    1C        C   49   3.014   2.637   3.161
    1C        C   50   2.895   2.713   3.158
    1C        C   51   3.078   2.604   3.283
    1C        C   52   3.014   2.638   3.404
    1C        C   53   3.205   2.549   3.529
    1C        C   54   3.074   2.603   3.527
    1C        C   55   3.275   2.531   3.650
    1C        C   56   3.207   2.552   3.772
    1C        C   57   3.413   2.506   3.893
    1C        C   58   3.274   2.529   3.894
    1C        C   59   3.484   2.502   4.015
    1C        C   60   3.417   2.505   4.139
    1C        C   61   3.630   2.506   4.259
    1C        C   62   3.489   2.501   4.260
    1C        C   63   3.699   2.508   4.383
    1C        C   64   3.628   2.502   4.504
    1C        C   65   3.835   2.545   4.622
    1C        C   66   3.701   2.500   4.625
    1C        C   67   3.907   2.562   4.742
    1C        C   68   3.840   2.526   4.861
    1C        C   69   4.051   2.585   4.978
    1C        C   70   3.922   2.532   4.975
    1C        C   71   2.826   2.734   2.308
    1C        C   72   2.885   2.692   2.429
    1C        C   73   2.831   2.742   2.550
    1C        C   74   3.007   2.625   2.670
    1C        C   75   2.887   2.700   2.673
    1C        C   76   3.074   2.598   2.792
    1C        C   77   3.013   2.630   2.915
    1C        C   78   3.204   2.545   3.038
    1C        C   79   3.073   2.597   3.038
    1C        C   80   3.273   2.533   3.160
    1C        C   81   3.208   2.549   3.284
    1C        C   82   3.413   2.504   3.403
    1C        C   83   3.274   2.528   3.407
    1C        C   84   3.482   2.492   3.526
    1C        C   85   3.413   2.502   3.649
    1C        C   86   3.625   2.500   3.769
    1C        C   87   3.484   2.500   3.771
    1C        C   88   3.697   2.512   3.891
    1C        C   89   3.625   2.511   4.013
    1C        C   90   3.833   2.550   4.136
    1C        C   91   3.696   2.514   4.135
    1C        C   92   3.902   2.572   4.257
    1C        C   93   3.835   2.545   4.379
    1C        C   94   4.028   2.636   4.498
    1C        C   95   3.903   2.570   4.500
    1C        C   96   4.091   2.671   4.619
    1C        C   97   4.034   2.627   4.741
    1C        C   98   4.195   2.762   4.865
    1C        C   99   4.103   2.652   4.862
    1C        C  100   4.215   2.845   4.976
    1C        C  101   2.821   2.725   2.067
    1C        C  102   2.990   2.593   2.186
    1C        C  103   2.876   2.679   2.187
    1C        C  104   3.060   2.575   2.308
    1C        C  105   3.001   2.611   2.431
    1C        C  106   3.200   2.528   2.548
    1C        C  107   3.068   2.581   2.551
    1C        C  108   3.271   2.521   2.669
    1C        C  109   3.204   2.542   2.792
    1C        C  110   3.411   2.504   2.915
    1C        C  111   3.271   2.526   2.915
    1C        C  112   3.483   2.495   3.037
    1C        C  113   3.412   2.505   3.158
    1C        C  114   3.625   2.502   3.281
    1C        C  115   3.483   2.501   3.280
    1C        C  116   3.693   2.511   3.404
    1C        C  117   3.623   2.501   3.526
    1C        C  118   3.832   2.547   3.647
    1C        C  119   3.695   2.511   3.647
    1C        C  120   3.899   2.574   3.768
    1C        C  121   3.833   2.547   3.890
    1C        C  122   4.022   2.641   4.014
    1C        C  123   3.897   2.577   4.013
    1C        C  124   4.086   2.673   4.135
    1C        C  125   4.029   2.634   4.258
    1C        C  126   4.200   2.765   4.378
    1C        C  127   4.093   2.672   4.378
    1C        C  128   4.245   2.820   4.500
    1C        C  129   4.194   2.767   4.621
    1C        C  130   4.325   2.935   4.741
    1C        C  131   4.243   2.818   4.744
    1C        C  132   4.352   3.007   4.858
    1C        C  133   4.285   2.966   4.974
    1C        C  134   3.173   2.465   2.078
    1C        C  135   3.039   2.506   2.083
    1C        C  136   3.258   2.479   2.190
    1C        C  137   3.192   2.521   2.307
    1C        C  138   3.405   2.481   2.428
    1C        C  139   3.265   2.500   2.426
    1C        C  140   3.480   2.483   2.547
    1C        C  141   3.410   2.497   2.669
    1C        C  142   3.620   2.499   2.790
    1C        C  143   3.479   2.492   2.792
    1C        C  144   3.690   2.511   2.912
    1C        C  145   3.624   2.501   3.036
    1C        C  146   3.829   2.549   3.158
    1C        C  147   3.695   2.506   3.158
    1C        C  148   3.897   2.572   3.280
    1C        C  149   3.831   2.544   3.402
    1C        C  150   4.026   2.628   3.522
    1C        C  151   3.897   2.569   3.524
    1C        C  152   4.087   2.665   3.643
    1C        C  153   4.027   2.635   3.768
    1C        C  154   4.194   2.763   3.889
    1C        C  155   4.081   2.679   3.891
    1C        C  156   4.246   2.809   4.012
    1C        C  157   4.198   2.759   4.136
    1C        C  158   4.342   2.920   4.252
    1C        C  159   4.253   2.811   4.255
    1C        C  160   4.377   2.984   4.373
    1C        C  161   4.330   2.932   4.496
    1C        C  162   4.436   3.115   4.616
    1C        C  163   4.368   2.991   4.619
    1C        C  164   4.466   3.185   4.734
    1C        C  165   4.431   3.124   4.857
    1C        C  166   4.515   3.322   4.972
    1C        C  167   4.480   3.188   4.972
    1C        C  168   3.478   2.443   2.073
    1C        C  169   3.398   2.463   2.186
    1C        C  170   3.616   2.474   2.304
    1C        C  171   3.474   2.467   2.305
    1C        C  172   3.692   2.495   2.422
    1C        C  173   3.621   2.494   2.544
    1C        C  174   3.827   2.540   2.668
    1C        C  175   3.690   2.506   2.667
    1C        C  176   3.894   2.568   2.790
    1C        C  177   3.827   2.546   2.913
    1C        C  178   4.021   2.631   3.032
    1C        C  179   3.895   2.567   3.035
    1C        C  180   4.086   2.666   3.153
    1C        C  181   4.024   2.633   3.276
    1C        C  182   4.196   2.754   3.402
    1C        C  183   4.084   2.668   3.399
    1C        C  184   4.248   2.801   3.524
    1C        C  185   4.199   2.751   3.647
    1C        C  186   4.335   2.919   3.762
    1C        C  187   4.251   2.806   3.767
    1C        C  188   4.374   2.978   3.884
    1C        C  189   4.336   2.917   4.006
    1C        C  190   4.440   3.103   4.128
    1C        C  191   4.375   2.978   4.127
    1C        C  192   4.468   3.172   4.248
    1C        C  193   4.441   3.110   4.372
    1C        C  194   4.497   3.316   4.490
    1C        C  195   4.466   3.179   4.493
    1C        C  196   4.516   3.390   4.609
    1C        C  197   4.512   3.320   4.731
    1C        C  198   4.549   3.534   4.850
    1C        C  199   4.534   3.391   4.852
    1C        C  200   4.584   3.618   4.961
    1C        C  201   3.616   2.422   2.072
    1C        C  202   3.828   2.514   2.181
    1C        C  203   3.692   2.468   2.184
    1C        C  204   3.900   2.539   2.301
    1C        C  205   3.831   2.520   2.422
    1C        C  206   4.019   2.615   2.543
    1C        C  207   3.894   2.550   2.545
    1C        C  208   4.080   2.657   2.664
    1C        C  209   4.021   2.628   2.789
    1C        C  210   4.196   2.749   2.908
    1C        C  211   4.086   2.661   2.910
    1C        C  212   4.248   2.796   3.031
    1C        C  213   4.201   2.748   3.155
    1C        C  214   4.337   2.908   3.275
    1C        C  215   4.247   2.799   3.279
    1C        C  216   4.377   2.970   3.396
    1C        C  217   4.335   2.912   3.518
    1C        C  218   4.435   3.102   3.639
    1C        C  219   4.373   2.975   3.638
    1C        C  220   4.460   3.170   3.760
    1C        C  221   4.440   3.103   3.884
    1C        C  222   4.504   3.305   4.003
    1C        C  223   4.470   3.168   4.006
    1C        C  224   4.516   3.378   4.123
    1C        C  225   4.505   3.308   4.246
    1C        C  226   4.517   3.523   4.366
    1C        C  227   4.508   3.382   4.366
    1C        C  228   4.519   3.600   4.485
    1C        C  229   4.528   3.531   4.607
    1C        C  230   4.506   3.744   4.729
    1C        C  231   4.534   3.604   4.728
    1C        C  232   4.500   3.818   4.849
    1C        C  233   4.554   3.755   4.961
    1C        C  234   4.025   2.605   2.064
    1C        C  235   3.899   2.547   2.064
    1C        C  236   4.091   2.644   2.181
    1C        C  237   4.026   2.604   2.300
    1C        C  238   4.200   2.730   2.424
    1C        C  239   4.085   2.646   2.422
    1C        C  240   4.255   2.781   2.544
    1C        C  241   4.198   2.735   2.665
    1C        C  242   4.336   2.902   2.785
    1C        C  243   4.250   2.789   2.784
    1C        C  244   4.377   2.961   2.907
    1C        C  245   4.339   2.904   3.031
    1C        C  246   4.439   3.091   3.149
    1C        C  247   4.381   2.962   3.152
    1C        C  248   4.461   3.160   3.271
    1C        C  249   4.435   3.099   3.396
    1C        C  250   4.499   3.304   3.514
    1C        C  251   4.460   3.168   3.516
    1C        C  252   4.512   3.373   3.637
    1C        C  253   4.500   3.305   3.760
    1C        C  254   4.522   3.516   3.879
    1C        C  255   4.519   3.375   3.882
    1C        C  256   4.519   3.590   4.000
    1C        C  257   4.516   3.519   4.122
    1C        C  258   4.489   3.732   4.242
    1C        C  259   4.507   3.591   4.243
    1C        C  260   4.476   3.804   4.363
    1C        C  261   4.491   3.739   4.487
    1C        C  262   4.422   3.941   4.606
    1C        C  263   4.476   3.810   4.608
    1C        C  264   4.399   4.010   4.727
    1C        C  265   4.433   3.943   4.846
    1C        C  266   4.320   4.129   4.959
    1C        C  267   4.384   4.006   4.962
    1C        C  268   4.263   2.779   2.066
    1C        C  269   4.206   2.726   2.182
    1C        C  270   4.345   2.888   2.301
    1C        C  271   4.258   2.776   2.303
    1C        C  272   4.387   2.949   2.421
    1C        C  273   4.344   2.890   2.542
    1C        C  274   4.441   3.082   2.660
    1C        C  275   4.379   2.956   2.662
    1C        C  276   4.472   3.148   2.781
    1C        C  277   4.446   3.084   2.904
    1C        C  278   4.502   3.290   3.025
    1C        C  279   4.466   3.153   3.025
    1C        C  280   4.505   3.364   3.145
    1C        C  281   4.495   3.297   3.269
    1C        C  282   4.513   3.511   3.387
    1C        C  283   4.509   3.370   3.390
    1C        C  284   4.508   3.581   3.510
    1C        C  285   4.517   3.514   3.634
    1C        C  286   4.489   3.724   3.754
    1C        C  287   4.514   3.585   3.756
    1C        C  288   4.474   3.795   3.876
    1C        C  289   4.492   3.729   3.999
    1C        C  290   4.424   3.932   4.119
    1C        C  291   4.477   3.801   4.120
    1C        C  292   4.396   4.000   4.239
    1C        C  293   4.423   3.935   4.361
    1C        C  294   4.322   4.124   4.481
    1C        C  295   4.389   4.000   4.482
    1C        C  296   4.284   4.189   4.600
    1C        C  297   4.330   4.135   4.722
    1C        C  298   4.197   4.310   4.838
    1C        C  299   4.285   4.197   4.842
    1C        C  300   4.170   4.398   4.947
    1C        C  301   4.354   2.884   2.061
    1C        C  302   4.469   3.066   2.176
    1C        C  303   4.399   2.941   2.181
    1C        C  304   4.479   3.140   2.297
    1C        C  305   4.452   3.075   2.419
    1C        C  306   4.508   3.284   2.534
    1C        C  307   4.474   3.147   2.538
    1C        C  308   4.520   3.354   2.656
    1C        C  309   4.502   3.286   2.779
    1C        C  310   4.513   3.499   2.899
    1C        C  311   4.510   3.357   2.901
    1C        C  312   4.509   3.572   3.020
    1C        C  313   4.517   3.505   3.143
    1C        C  314   4.480   3.717   3.264
    1C        C  315   4.508   3.579   3.264
    1C        C  316   4.467   3.787   3.386
    1C        C  317   4.486   3.721   3.510
    1C        C  318   4.420   3.923   3.630
    1C        C  319   4.468   3.790   3.631
    1C        C  320   4.394   3.989   3.753
    1C        C  321   4.425   3.927   3.876
    1C        C  322   4.315   4.114   3.992
    1C        C  323   4.387   3.992   3.996
    1C        C  324   4.276   4.172   4.115
    1C        C  325   4.324   4.122   4.238
    1C        C  326   4.185   4.285   4.354
    1C        C  327   4.282   4.182   4.358
    1C        C  328   4.133   4.338   4.475
    1C        C  329   4.186   4.291   4.597
    1C        C  330   4.021   4.433   4.715
    1C        C  331   4.135   4.349   4.716
    1C        C  332   3.969   4.491   4.833
    1C        C  333   4.056   4.479   4.942
    1C        C  334   4.558   3.264   2.061
    1C        C  335   4.533   3.126   2.063
    1C        C  336   4.538   3.346   2.173
    1C        C  337   4.510   3.279   2.294
    1C        C  338   4.523   3.496   2.411
    1C        C  339   4.520   3.355   2.412
    1C        C  340   4.519   3.566   2.533
    1C        C  341   4.525   3.495   2.655
    1C        C  342   4.487   3.707   2.774
    1C        C  343   4.512   3.568   2.776
    1C        C  344   4.467   3.779   2.894
    1C        C  345   4.482   3.711   3.017
    1C        C  346   4.422   3.915   3.140
    1C        C  347   4.467   3.781   3.138
    1C        C  348   4.398   3.983   3.261
    1C        C  349   4.430   3.923   3.385
    1C        C  350   4.319   4.106   3.505
    1C        C  351   4.396   3.987   3.506
    1C        C  352   4.277   4.166   3.626
    1C        C  353   4.320   4.109   3.747
    1C        C  354   4.180   4.271   3.866
    1C        C  355   4.276   4.168   3.868
    1C        C  356   4.127   4.320   3.987
    1C        C  357   4.179   4.275   4.110
    1C        C  358   4.013   4.407   4.231
    1C        C  359   4.128   4.326   4.232
    1C        C  360   3.950   4.444   4.353
    1C        C  361   4.018   4.419   4.474
    1C        C  362   3.826   4.515   4.592
    1C        C  363   3.958   4.465   4.593
    1C        C  364   3.759   4.543   4.714
    1C        C  365   3.837   4.541   4.832
    1C        C  366   3.629   4.594   4.951
    1C        C  367   3.767   4.577   4.948
    1C        C  368   4.499   3.562   2.053
    1C        C  369   4.518   3.486   2.169
    1C        C  370   4.498   3.703   2.289
    1C        C  371   4.519   3.563   2.287
    1C        C  372   4.477   3.775   2.408
    1C        C  373   4.491   3.705   2.530
    1C        C  374   4.420   3.906   2.649
    1C        C  375   4.470   3.774   2.651
    1C        C  376   4.396   3.976   2.770
    1C        C  377   4.425   3.914   2.894
    1C        C  378   4.325   4.100   3.015
    1C        C  379   4.397   3.979   3.016
    1C        C  380   4.281   4.157   3.136
    1C        C  381   4.315   4.098   3.259
    1C        C  382   4.180   4.262   3.378
    1C        C  383   4.275   4.157   3.381
    1C        C  384   4.125   4.311   3.498
    1C        C  385   4.179   4.268   3.622
    1C        C  386   4.009   4.397   3.743
    1C        C  387   4.125   4.316   3.744
    1C        C  388   3.948   4.433   3.865
    1C        C  389   4.006   4.394   3.987
    1C        C  390   3.817   4.488   4.108
    1C        C  391   3.947   4.434   4.109
    1C        C  392   3.751   4.515   4.230
    1C        C  393   3.820   4.500   4.352
    1C        C  394   3.613   4.553   4.474
    1C        C  395   3.753   4.531   4.473
    1C        C  396   3.544   4.569   4.597
    1C        C  397   3.620   4.566   4.716
    1C        C  398   3.409   4.554   4.838
    1C        C  399   3.548   4.575   4.837
    1C        C  400   3.342   4.525   4.958
    1C        C  401   4.499   3.701   2.052
    1C        C  402   4.453   3.913   2.170
    1C        C  403   4.493   3.778   2.169
    1C        C  404   4.418   3.980   2.290
    1C        C  405   4.439   3.911   2.411
    1C        C  406   4.325   4.098   2.528
    1C        C  407   4.399   3.977   2.529
    1C        C  408   4.276   4.151   2.649
    1C        C  409   4.316   4.092   2.771
    1C        C  410   4.176   4.252   2.888
    1C        C  411   4.276   4.151   2.893
    1C        C  412   4.126   4.300   3.011
    1C        C  413   4.180   4.257   3.134
    1C        C  414   4.007   4.382   3.252
    1C        C  415   4.126   4.306   3.255
    1C        C  416   3.945   4.414   3.375
    1C        C  417   4.005   4.385   3.500
    1C        C  418   3.814   4.480   3.617
    1C        C  419   3.946   4.427   3.621
    1C        C  420   3.749   4.505   3.740
    1C        C  421   3.816   4.484   3.862
    1C        C  422   3.612   4.536   3.987
    1C        C  423   3.750   4.508   3.985
    1C        C  424   3.542   4.546   4.109
    1C        C  425   3.613   4.544   4.231
    1C        C  426   3.401   4.557   4.352
    1C        C  427   3.542   4.560   4.353
    1C        C  428   3.331   4.552   4.475
    1C        C  429   3.403   4.564   4.596
    1C        C  430   3.195   4.517   4.720
    1C        C  431   3.335   4.546   4.718
    1C        C  432   3.127   4.496   4.843
    1C        C  433   3.206   4.495   4.959
    1C        C  434   4.380   4.115   2.051
    1C        C  435   4.451   3.994   2.056
    1C        C  436   4.300   4.156   2.161
    1C        C  437   4.337   4.097   2.285
    1C        C  438   4.184   4.251   2.402
    1C        C  439   4.287   4.154   2.404
    1C        C  440   4.130   4.304   2.521
    1C        C  441   4.183   4.257   2.644
    1C        C  442   4.010   4.381   2.764
    1C        C  443   4.128   4.303   2.766
    1C        C  444   3.944   4.411   2.886
    1C        C  445   4.008   4.378   3.007
    1C        C  446   3.817   4.471   3.129
    1C        C  447   3.946   4.414   3.129
    1C        C  448   3.749   4.491   3.251
    1C        C  449   3.817   4.474   3.374
    1C        C  450   3.610   4.530   3.493
    1C        C  451   3.748   4.501   3.494
    1C        C  452   3.542   4.539   3.617
    1C        C  453   3.610   4.533   3.740
    1C        C  454   3.401   4.540   3.863
    1C        C  455   3.542   4.542   3.864
    1C        C  456   3.332   4.532   3.986
    1C        C  457   3.400   4.540   4.109
    1C        C  458   3.193   4.503   4.235
    1C        C  459   3.329   4.541   4.231
    1C        C  460   3.126   4.485   4.357
    1C        C  461   3.195   4.514   4.477
    1C        C  462   2.999   4.436   4.604
    1C        C  463   3.127   4.495   4.599
    1C        C  464   2.930   4.406   4.723
    1C        C  465   2.991   4.450   4.844
    1C        C  466   2.807   4.334   4.960
    1C        C  467   2.910   4.428   4.960
    1C        C  468   4.125   4.286   2.041
    1C        C  469   4.188   4.246   2.160
    1C        C  470   4.012   4.376   2.277
    1C        C  471   4.128   4.293   2.279
    1C        C  472   3.946   4.408   2.398
    1C        C  473   4.013   4.381   2.520
    1C        C  474   3.817   4.464   2.643
    1C        C  475   3.950   4.417   2.642
    1C        C  476   3.747   4.487   2.764
    1C        C  477   3.813   4.465   2.887
    1C        C  478   3.607   4.518   3.010
    1C        C  479   3.745   4.489   3.008
    1C        C  480   3.536   4.530   3.131
    1C        C  481   3.610   4.518   3.251
    1C        C  482   3.396   4.531   3.375
    1C        C  483   3.538   4.528   3.372
    1C        C  484   3.328   4.526   3.498
    1C        C  485   3.401   4.538   3.619
    1C        C  486   3.193   4.499   3.745
    1C        C  487   3.330   4.534   3.741
    1C        C  488   3.127   4.479   3.868
    1C        C  489   3.193   4.504   3.990
    1C        C  490   3.000   4.419   4.115
    1C        C  491   3.125   4.485   4.112
    1C        C  492   2.941   4.385   4.239
    1C        C  493   2.997   4.426   4.362
    1C        C  494   2.829   4.301   4.482
    1C        C  495   2.936   4.393   4.485
    1C        C  496   2.773   4.256   4.604
    1C        C  497   2.822   4.312   4.724
    1C        C  498   2.668   4.166   4.843
    1C        C  499   2.755   4.277   4.843
    1C        C  500   2.596   4.120   4.954
    1C        C  501   4.009   4.361   2.039
    1C        C  502   3.816   4.462   2.160
    1C        C  503   3.944   4.402   2.157
    1C        C  504   3.743   4.478   2.280
    1C        C  505   3.813   4.457   2.401
    1C        C  506   3.607   4.507   2.520
    1C        C  507   3.746   4.481   2.522
    1C        C  508   3.537   4.517   2.643
    1C        C  509   3.608   4.511   2.765
    1C        C  510   3.396   4.528   2.887
    1C        C  511   3.538   4.525   2.887
    1C        C  512   3.323   4.524   3.007
    1C        C  513   3.395   4.525   3.129
    1C        C  514   3.187   4.498   3.254
    1C        C  515   3.326   4.523   3.252
    1C        C  516   3.123   4.471   3.376
    1C        C  517   3.189   4.498   3.498
    1C        C  518   2.999   4.414   3.623
    1C        C  519   3.125   4.478   3.622
    1C        C  520   2.941   4.374   3.746
    1C        C  521   3.003   4.411   3.867
    1C        C  522   2.841   4.282   3.995
    1C        C  523   2.947   4.375   3.992
    1C        C  524   2.787   4.237   4.119
    1C        C  525   2.833   4.294   4.240
    1C        C  526   2.693   4.135   4.364
    1C        C  527   2.779   4.247   4.362
    1C        C  528   2.650   4.079   4.486
    1C        C  529   2.689   4.143   4.605
    1C        C  530   2.583   3.959   4.731
    1C        C  531   2.640   4.090   4.727
    1C        C  532   2.537   3.902   4.852
    1C        C  533   2.533   3.995   4.961
    1C        C  534   3.624   4.551   2.042
    1C        C  535   3.758   4.511   2.042
    1C        C  536   3.538   4.528   2.154
    1C        C  537   3.603   4.502   2.277
    1C        C  538   3.393   4.519   2.400
    1C        C  539   3.534   4.515   2.400
    1C        C  540   3.324   4.506   2.522
    1C        C  541   3.396   4.515   2.643
    1C        C  542   3.189   4.478   2.765
    1C        C  543   3.325   4.515   2.765
    1C        C  544   3.123   4.456   2.888
    1C        C  545   3.187   4.484   3.010
    1C        C  546   2.992   4.409   3.137
    1C        C  547   3.118   4.474   3.133
    1C        C  548   2.932   4.370   3.258
    1C        C  549   2.995   4.410   3.378
    1C        C  550   2.833   4.280   3.504
    1C        C  551   2.937   4.375   3.502
    1C        C  552   2.785   4.230   3.627
    1C        C  553   2.833   4.283   3.749
    1C        C  554   2.702   4.121   3.876
    1C        C  555   2.793   4.228   3.873
    1C        C  556   2.660   4.066   4.000
    1C        C  557   2.699   4.127   4.121
    1C        C  558   2.602   3.940   4.246
    1C        C  559   2.658   4.069   4.243
    1C        C  560   2.573   3.876   4.369
    1C        C  561   2.591   3.950   4.488
    1C        C  562   2.532   3.749   4.613
    1C        C  563   2.565   3.887   4.611
    1C        C  564   2.522   3.680   4.736
    1C        C  565   2.518   3.760   4.853
    1C        C  566   2.528   3.547   4.977
    1C        C  567   2.526   3.686   4.972
    1C        C  568   3.328   4.483   2.040
    1C        C  569   3.396   4.514   2.158
    1C        C  570   3.184   4.472   2.279
    1C        C  571   3.321   4.510   2.278
    1C        C  572   3.116   4.450   2.401
    1C        C  573   3.185   4.479   2.520
    1C        C  574   2.994   4.393   2.649
    1C        C  575   3.120   4.457   2.643
    1C        C  576   2.932   4.358   2.771
    1C        C  577   2.993   4.400   2.892
    1C        C  578   2.825   4.277   3.017
    1C        C  579   2.936   4.364   3.016
    1C        C  580   2.778   4.222   3.138
    1C        C  581   2.829   4.273   3.260
    1C        C  582   2.694   4.115   3.387
    1C        C  583   2.784   4.223   3.384
    1C        C  584   2.657   4.058   3.510
    1C        C  585   2.700   4.117   3.631
    1C        C  586   2.599   3.934   3.756
    1C        C  587   2.665   4.059   3.755
    1C        C  588   2.573   3.870   3.880
    1C        C  589   2.600   3.938   4.001
    1C        C  590   2.536   3.738   4.126
    1C        C  591   2.574   3.874   4.124
    1C        C  592   2.525   3.670   4.249
    1C        C  593   2.533   3.740   4.372
    1C        C  594   2.514   3.531   4.499
    1C        C  595   2.522   3.672   4.495
    1C        C  596   2.521   3.461   4.622
    1C        C  597   2.522   3.538   4.741
    1C        C  598   2.541   3.326   4.862
    1C        C  599   2.531   3.466   4.862
    1C        C  600   2.537   3.249   4.979
    1C        C  601   3.195   4.446   2.041
    1C        C  602   2.982   4.391   2.157
    1C        C  603   3.116   4.442   2.157
    1C        C  604   2.924   4.358   2.282
    1C        C  605   2.986   4.394   2.403
    1C        C  606   2.823   4.265   2.528
    1C        C  607   2.932   4.355   2.528
    1C        C  608   2.774   4.217   2.652
    1C        C  609   2.823   4.268   2.774
    1C        C  610   2.684   4.111   2.895
    1C        C  611   2.774   4.220   2.897
    1C        C  612   2.649   4.056   3.020
    1C        C  613   2.692   4.110   3.143
    1C        C  614   2.589   3.927   3.267
    1C        C  615   2.653   4.053   3.267
    1C        C  616   2.570   3.864   3.392
    1C        C  617   2.600   3.928   3.514
    1C        C  618   2.535   3.727   3.640
    1C        C  619   2.576   3.862   3.637
    1C        C  620   2.523   3.660   3.763
    1C        C  621   2.536   3.734   3.883
    1C        C  622   2.509   3.525   4.011
    1C        C  623   2.520   3.666   4.006
    1C        C  624   2.507   3.455   4.134
    1C        C  625   2.510   3.529   4.254
    1C        C  626   2.523   3.319   4.378
    1C        C  627   2.512   3.460   4.377
    1C        C  628   2.541   3.247   4.498
    1C        C  629   2.534   3.321   4.619
    1C        C  630   2.598   3.118   4.742
    1C        C  631   2.551   3.252   4.741
    1C        C  632   2.621   3.051   4.865
    1C        C  633   2.567   3.112   4.983
    1C        C  634   2.779   4.309   2.050
    1C        C  635   2.889   4.396   2.049
    1C        C  636   2.749   4.232   2.164
    1C        C  637   2.808   4.275   2.284
    1C        C  638   2.676   4.111   2.407
    1C        C  639   2.764   4.222   2.408
    1C        C  640   2.645   4.047   2.530
    1C        C  641   2.684   4.108   2.651
    1C        C  642   2.584   3.922   2.779
    1C        C  643   2.643   4.051   2.774
    1C        C  644   2.562   3.858   2.902
    1C        C  645   2.585   3.930   3.022
    1C        C  646   2.535   3.724   3.149
    1C        C  647   2.562   3.863   3.144
    1C        C  648   2.521   3.658   3.273
    1C        C  649   2.541   3.726   3.395
    1C        C  650   2.512   3.516   3.521
    1C        C  651   2.523   3.657   3.518
    1C        C  652   2.512   3.448   3.645
    1C        C  653   2.510   3.519   3.767
    1C        C  654   2.532   3.311   3.891
    1C        C  655   2.511   3.450   3.891
    1C        C  656   2.552   3.246   4.015
    1C        C  657   2.527   3.315   4.136
    1C        C  658   2.602   3.119   4.260
    1C        C  659   2.537   3.244   4.258
    1C        C  660   2.620   3.048   4.381
    1C        C  661   2.578   3.111   4.501
    1C        C  662   2.706   2.937   4.623
    1C        C  663   2.619   3.048   4.621
    1C        C  664   2.748   2.877   4.744
    1C        C  665   2.702   2.933   4.866
    1C        C  666   2.747   2.869   4.982
    1C        C  667   2.684   4.024   2.055
    1C        C  668   2.685   4.106   2.169
    1C        C  669   2.584   3.916   2.290
    1C        C  670   2.637   4.048   2.287
    1C        C  671   2.559   3.851   2.413
    1C        C  672   2.587   3.919   2.534
    1C        C  673   2.524   3.718   2.658
    1C        C  674   2.560   3.855   2.657
    1C        C  675   2.518   3.649   2.781
    1C        C  676   2.533   3.719   2.903
    1C        C  677   2.513   3.512   3.031
    1C        C  678   2.527   3.652   3.028
    1C        C  679   2.516   3.444   3.155
    1C        C  680   2.511   3.517   3.276
    1C        C  681   2.535   3.306   3.400
    1C        C  682   2.512   3.445   3.398
    1C        C  683   2.552   3.240   3.524
    1C        C  684   2.537   3.309   3.646
    1C        C  685   2.604   3.111   3.771
    1C        C  686   2.551   3.242   3.769
    1C        C  687   2.639   3.053   3.895
    1C        C  688   2.610   3.117   4.017
    1C        C  689   2.714   2.934   4.137
    1C        C  690   2.643   3.056   4.140
    1C        C  691   2.755   2.881   4.262
    1C        C  692   2.703   2.933   4.382
    1C        C  693   2.747   2.874   4.503
    1C        C  694   2.630   3.895   2.056
    1C        C  695   2.522   3.708   2.174
    1C        C  696   2.580   3.836   2.173
    1C        C  697   2.511   3.640   2.297
    1C        C  698   2.525   3.714   2.417
    1C        C  699   2.496   3.504   2.545
    1C        C  700   2.510   3.644   2.539
    1C        C  701   2.509   3.432   2.667
    1C        C  702   2.508   3.508   2.786
    1C        C  703   2.529   3.301   2.911
    1C        C  704   2.507   3.440   2.910
    1C        C  705   2.550   3.232   3.033
    1C        C  706   2.535   3.304   3.154
    1C        C  707   2.602   3.105   3.280
    1C        C  708   2.556   3.238   3.277
    1C        C  709   2.634   3.044   3.403
    1C        C  710   2.602   3.108   3.525
    1C        C  711   2.713   2.930   3.648
    1C        C  712   2.633   3.046   3.649
    1C        C  713   2.756   2.873   3.771
    1C        C  714   2.712   2.931   3.892
    1C        C  715   2.754   2.876   4.015
    1C        C  716   2.451   3.495   2.062
    1C        C  717   2.493   3.629   2.062
    1C        C  718   2.470   3.424   2.185
    1C        C  719   2.488   3.500   2.304
    1C        C  720   2.517   3.289   2.424
    1C        C  721   2.496   3.429   2.425
    1C        C  722   2.540   3.221   2.545
    1C        C  723   2.526   3.292   2.667
    1C        C  724   2.592   3.095   2.791
    1C        C  725   2.543   3.228   2.791
    1C        C  726   2.627   3.035   2.914
    1C        C  727   2.593   3.098   3.036
    1C        C  728   2.700   2.917   3.159
    1C        C  729   2.624   3.036   3.159
    1C        C  730   2.749   2.866   3.282
    1C        C  731   2.709   2.924   3.404
    1C        C  732   2.751   2.868   3.527
    1C        C  733   2.488   3.197   2.072
    1C        C  734   2.488   3.282   2.183
    1C        C  735   2.578   3.083   2.305
    1C        C  736   2.524   3.215   2.304
    1C        C  737   2.615   3.019   2.425
    1C        C  738   2.591   3.089   2.545
    1C        C  739   2.695   2.909   2.669
    1C        C  740   2.620   3.028   2.669
    1C        C  741   2.739   2.854   2.792
    1C        C  742   2.702   2.915   2.913
    1C        C  743   2.745   2.862   3.037
    1C        C  744   2.548   3.071   2.073
    1C        C  745   2.689   2.899   2.184
    1C        C  746   2.607   3.013   2.186
    1C        C  747   2.730   2.839   2.305
    1C        C  748   2.689   2.898   2.427
    1C        C  749   2.735   2.846   2.549
    1C        C  750   2.740   2.838   2.068
    1C        C  751   3.660   2.314   1.981
    1C        O  752   3.756   2.235   2.005
    1C        O  753   3.646   2.335   1.844
    1C        C  754   4.599   3.054   1.952
    1C        O  755   4.552   3.046   1.836
    1C        O  756   4.729   3.002   1.958
    1C        C  757   4.421   4.216   1.951
    1C        O  758   4.524   4.285   1.976
    1C        O  759   4.405   4.201   1.813
    1C        C  760   3.583   4.625   1.920
    1C        O  761   3.593   4.750   1.918
    1C        O  762   3.606   4.578   1.790
    1C        C  763   2.895   4.467   1.919
    1C        O  764   2.974   4.414   1.837
    1C        O  765   2.877   4.605   1.907
    1C        C  766   2.319   3.485   1.997
    1C        O  767   2.318   3.447   1.876
    1C        O  768   2.197   3.486   2.065
    1C        C  769   4.704   3.580   5.038
    1C        O  770   4.705   3.561   5.163
    1C        O  771   4.836   3.603   4.995
    1C        C  772   4.285   4.445   5.028
    1C        O  773   4.275   4.438   5.154
    1C        O  774   4.373   4.546   4.990
    1C        C  775   4.135   2.513   5.076
    1C        O  776   4.219   2.426   5.041
    1C        O  777   4.123   2.519   5.216
    1C        C  778   2.898   4.536   5.060
    1C        O  779   2.852   4.651   5.037
    1C        O  780   2.933   4.528   5.196
    1C        C  781   2.478   3.042   5.078
    1C        O  782   2.389   2.969   5.027
    1C        O  783   2.525   3.016   5.206
    1C        C  784   2.444   3.979   5.079
    1C        O  785   2.322   4.006   5.064
    1C        O  786   2.475   3.994   5.214
    1C        C  787   2.950   2.440   1.985
    1C        O  788   2.927   2.478   1.868
    1C        O  789   2.864   2.334   2.014
    1C        C  790   3.170   2.358   5.046
    1C        O  791   3.072   2.283   5.019
    1C        O  792   3.230   2.333   5.169
    1C        H  793   4.272   3.027   5.061
    1C        H  794   4.150   2.833   5.060
    1C        H  795   4.547   3.124   5.026
    1C        H  796   4.477   3.383   5.052
    1C        H  797   4.586   3.808   5.048
    1C        H  798   4.389   3.951   5.054
    1C        H  799   4.278   4.159   5.053
    1C        H  800   4.062   4.564   5.006
    1C        H  801   3.814   4.557   5.042
    1C        H  802   3.582   4.581   5.046
    1C        H  803   3.379   4.578   5.043
    1C        H  804   3.177   4.430   5.038
    1C        H  805   3.886   2.477   5.059
    1C        H  806   3.674   2.458   5.074
    1C        H  807   3.000   2.554   5.062
    1C        H  808   3.447   2.499   5.079
    1C        H  809   2.882   2.727   5.073
    1C        H  810   2.700   2.892   5.076
    1C        H  811   2.485   3.290   5.063
    1C        H  812   2.491   3.500   5.066
    1C        H  813   2.573   3.741   5.051
    1C        H  814   2.555   4.198   5.015
    1C        H  815   2.751   4.332   5.051
    1C        H  816   2.709   2.874   1.972
    1C        H  817   2.798   2.651   1.993
    1C        H  818   3.211   2.434   1.983
    1C        H  819   3.426   2.422   1.982
    1C        H  820   3.869   2.501   1.972
    1C        H  821   4.056   2.645   1.969
    1C        H  822   4.222   2.764   1.968
    1C        H  823   4.348   2.946   1.974
    1C        H  824   4.580   3.304   1.964
    1C        H  825   4.517   3.516   1.958
    1C        H  826   4.550   3.743   1.968
    1C        H  827   3.824   4.572   1.983
    1C        H  828   3.964   4.379   1.944
    1C        H  829   4.141   4.229   1.951
    1C        H  830   4.447   3.943   1.962
    1C        H  831   2.681   3.833   1.986
    1C        H  832   2.758   4.048   1.982
    1C        H  833   2.691   4.351   2.005
    1C        H  834   3.371   4.500   1.943
    1C        H  835   3.168   4.374   1.966
    1C        H  836   2.550   3.016   1.981
    1C        H  837   2.429   3.222   1.986
    1C        H  838   2.470   3.683   1.973
    2V3OU   H29  839   2.812   3.555   3.995
    2V3OU   C27  840   2.795   3.505   4.094
    2V3OU   H27  841   2.735   3.574   4.158
    2V3OU   H28  842   2.746   3.406   4.075
    2V3OU   O11  843   2.917   3.476   4.162
    2V3OU   C15  844   2.927   3.408   4.282
    2V3OU   C13  845   3.054   3.381   4.337
    2V3OU   C14  846   3.080   3.273   4.423
    2V3OU   C16  847   2.980   3.189   4.468
    2V3OU    H6  848   2.995   3.105   4.537
    2V3OU   C12  849   3.218   3.228   4.453
    2V3OU    O2  850   3.242   3.126   4.521
    2V3OU   C10  851   3.326   3.313   4.402
    2V3OU    C8  852   3.456   3.267   4.422
    2V3OU   O10  853   3.488   3.153   4.489
    2V3OU   H26  854   3.399   3.118   4.500
    2V3OU    C6  855   3.565   3.348   4.377
    2V3OU    C5  856   3.537   3.463   4.304
    2V3OU    C4  857   3.705   3.299   4.369
    2V3OU    H4  858   3.726   3.227   4.454
    2V3OU    H5  859   3.714   3.233   4.278
    2V3OU    C2  860   3.820   3.400   4.376
    2V3OU    O6  861   3.807   3.479   4.494
    2V3OU   H21  862   3.757   3.557   4.464
    2V3OU    C3  863   3.781   3.491   4.260
    2V3OU    H2  864   3.863   3.565   4.237
    2V3OU    H3  865   3.777   3.431   4.166
    2V3OU   C25  866   3.954   3.327   4.357
    2V3OU    O7  867   4.001   3.299   4.247
    2V3OU   C26  868   4.027   3.295   4.486
    2V3OU   H22  869   4.071   3.382   4.539
    2V3OU   H23  870   4.114   3.228   4.465
    2V3OU    O8  871   3.950   3.215   4.573
    2V3OU   H24  872   3.918   3.267   4.649
    2V3OU    C1  873   3.648   3.561   4.281
    2V3OU    H1  874   3.625   3.618   4.186
    2V3OU    O3  875   3.664   3.654   4.389
    2V3OU   C19  876   3.624   3.791   4.381
    2V3OU    H9  877   3.523   3.802   4.332
    2V3OU    O4  878   3.720   3.848   4.294
    2V3OU   C20  879   3.844   3.876   4.358
    2V3OU   H10  880   3.887   3.773   4.375
    2V3OU   C24  881   3.609   3.856   4.519
    2V3OU   H16  882   3.546   3.788   4.582
    2V3OU   H17  883   3.558   3.955   4.506
    2V3OU   C23  884   3.747   3.876   4.583
    2V3OU   H15  885   3.789   3.772   4.600
    2V3OU    N1  886   3.737   3.956   4.703
    2V3OU   H19  887   3.807   3.928   4.769
    2V3OU   H20  888   3.654   3.930   4.753
    2V3OU   C21  889   3.852   3.948   4.492
    2V3OU   H11  890   3.954   3.931   4.540
    2V3OU    O5  891   3.829   4.088   4.499
    2V3OU   H18  892   3.791   4.100   4.587
    2V3OU   C22  893   3.916   3.950   4.245
    2V3OU   H12  894   3.864   4.047   4.225
    2V3OU   H13  895   3.910   3.894   4.148
    2V3OU   H14  896   4.023   3.966   4.274
    2V3OU   C11  897   3.163   3.473   4.300
    2V3OU    O1  898   3.136   3.587   4.258
    2V3OU    C9  899   3.302   3.429   4.323
    2V3OU    C7  900   3.405   3.500   4.262
    2V3OU    O9  901   3.389   3.621   4.197
    2V3OU   H25  902   3.293   3.626   4.194
    2V3OU   C17  903   2.828   3.320   4.331
    2V3OU    H7  904   2.734   3.349   4.284
    2V3OU   C18  905   2.853   3.214   4.417
    2V3OU    H8  906   2.787   3.169   4.493
    3SOL     OW  907   3.088   4.360   5.317
    3SOL    HW1  908   3.043   4.434   5.267
    3SOL    HW2  909   3.118   4.289   5.253
    4SOL     OW  910   6.785   0.685   0.169
    4SOL    HW1  911   6.880   0.657   0.152
    4SOL    HW2  912   6.784   0.764   0.230
    5SOL     OW  913   4.502   1.028   2.233
    5SOL    HW1  914   4.489   1.113   2.183
    5SOL    HW2  915   4.565   0.969   2.183
    6SOL     OW  916   5.782   1.862   3.522
    6SOL    HW1  917   5.755   1.766   3.514
    6SOL    HW2  918   5.819   1.893   3.435
    7SOL     OW  919   1.139   4.258   5.124
    7SOL    HW1  920   1.166   4.185   5.061
    7SOL    HW2  921   1.214   4.324   5.132
    8SOL     OW  922   2.679   2.529   5.566
    8SOL    HW1  923   2.681   2.520   5.466
    8SOL    HW2  924   2.735   2.607   5.593
    9SOL     OW  925   0.074   1.649   6.021
    9SOL    HW1  926   7.012   1.693   5.993
    9SOL    HW2  927   0.093   1.572   5.960
   10SOL     OW  928   4.372   4.705   3.178
   10SOL    HW1  929   4.430   4.748   3.247
   10SOL    HW2  930   4.299   4.653   3.222
   11SOL     OW  931   1.663   0.603   0.231
   11SOL    HW1  932   1.655   0.530   0.299
   11SOL    HW2  933   1.759   0.625   0.218
   12SOL     OW  934   2.846   4.808   3.211
   12SOL    HW1  935   2.832   4.856   3.297
   12SOL    HW2  936   2.802   4.718   3.216
   13SOL     OW  937   4.109   5.781   2.713
   13SOL    HW1  938   4.131   5.873   2.680
   13SOL    HW2  939   4.047   5.788   2.791
   14SOL     OW  940   4.778   4.861   5.841
   14SOL    HW1  941   4.854   4.828   5.785
   14SOL    HW2  942   4.698   4.804   5.825
   15SOL     OW  943   0.298   5.713   6.349
   15SOL    HW1  944   0.224   5.741   6.411
   15SOL    HW2  945   0.301   5.614   6.343
   16SOL     OW  946   5.728   2.650   6.329
   16SOL    HW1  947   5.630   2.670   6.329
   16SOL    HW2  948   5.780   2.735   6.331
   17SOL     OW  949   6.315   0.406   5.918
   17SOL    HW1  950   6.266   0.489   5.890
   17SOL    HW2  951   6.398   0.432   5.968
   18SOL     OW  952   2.830   1.087   5.151
   18SOL    HW1  953   2.868   1.149   5.220
   18SOL    HW2  954   2.888   1.087   5.069
   19SOL     OW  955   1.062   1.985   2.930
   19SOL    HW1  956   1.113   2.044   2.992
   19SOL    HW2  957   1.127   1.930   2.877
   20SOL     OW  958   5.757   2.046   5.640
   20SOL    HW1  959   5.776   1.954   5.605
   20SOL    HW2  960   5.839   2.102   5.630
   21SOL     OW  961   3.724   6.041   2.851
   21SOL    HW1  962   3.695   6.092   2.770
   21SOL    HW2  963   3.818   6.009   2.838
   22SOL     OW  964   1.509   6.163   5.159
   22SOL    HW1  965   1.560   6.112   5.090
   22SOL    HW2  966   1.476   6.100   5.229
   23SOL     OW  967   4.891   5.151   2.189
   23SOL    HW1  968   4.911   5.061   2.228
   23SOL    HW2  969   4.798   5.152   2.152
   24SOL     OW  970   4.065   0.589   1.439
   24SOL    HW1  971   4.068   0.584   1.538
   24SOL    HW2  972   3.971   0.609   1.409
   25SOL     OW  973   2.851   6.961   3.527
   25SOL    HW1  974   2.761   6.964   3.570
   25SOL    HW2  975   2.874   0.028   3.491
   26SOL     OW  976   1.606   2.067   6.577
   26SOL    HW1  977   1.526   2.008   6.560
   26SOL    HW2  978   1.685   2.010   6.599
   27SOL     OW  979   0.254   1.277   2.620
   27SOL    HW1  980   0.220   1.282   2.714
   27SOL    HW2  981   0.330   1.341   2.609
   28SOL     OW  982   1.796   0.547   4.785
   28SOL    HW1  983   1.729   0.519   4.716
   28SOL    HW2  984   1.779   0.642   4.811
   29SOL     OW  985   6.632   0.991   0.810
   29SOL    HW1  986   6.539   0.961   0.788
   29SOL    HW2  987   6.668   1.045   0.734
   30SOL     OW  988   3.611   0.602   4.716
   30SOL    HW1  989   3.653   0.690   4.691
   30SOL    HW2  990   3.677   0.528   4.701
   31SOL     OW  991   0.113   2.400   5.090
   31SOL    HW1  992   0.136   2.488   5.130
   31SOL    HW2  993   0.198   2.352   5.066
   32SOL     OW  994   1.299   1.702   1.224
   32SOL    HW1  995   1.358   1.668   1.151
   32SOL    HW2  996   1.315   1.800   1.238
   33SOL     OW  997   0.684   3.722   5.643
   33SOL    HW1  998   0.609   3.709   5.578
   33SOL    HW2  999   0.651   3.702   5.735
   34SOL     OW 1000   1.404   5.297   5.076
   34SOL    HW1 1001   1.359   5.247   5.002
   34SOL    HW2 1002   1.500   5.312   5.052
   35SOL     OW 1003   3.808   2.519   6.245
   35SOL    HW1 1004   3.740   2.520   6.319
   35SOL    HW2 1005   3.885   2.461   6.271
   36SOL     OW 1006   5.264   1.252   4.103
   36SOL    HW1 1007   5.210   1.276   4.184
   36SOL    HW2 1008   5.333   1.184   4.127
   37SOL     OW 1009   2.366   1.126   3.101
   37SOL    HW1 1010   2.313   1.145   3.184
   37SOL    HW2 1011   2.387   1.212   3.054
   38SOL     OW 1012   2.195   5.217   2.174
   38SOL    HW1 1013   2.272   5.279   2.191
   38SOL    HW2 1014   2.116   5.268   2.143
   39SOL     OW 1015   6.184   4.516   6.809
   39SOL    HW1 1016   6.282   4.509   6.826
   39SOL    HW2 1017   6.167   4.506   6.710
   40SOL     OW 1018   3.480   0.583   6.117
   40SOL    HW1 1019   3.447   0.675   6.138
   40SOL    HW2 1020   3.467   0.564   6.019
   41SOL     OW 1021   5.577   4.032   2.355
   41SOL    HW1 1022   5.607   4.022   2.260
   41SOL    HW2 1023   5.656   4.035   2.416
   42SOL     OW 1024   3.038   5.678   4.875
   42SOL    HW1 1025   3.066   5.725   4.791
   42SOL    HW2 1026   2.972   5.735   4.924
   43SOL     OW 1027   4.029   6.606   4.717
   43SOL    HW1 1028   3.929   6.612   4.718
   43SOL    HW2 1029   4.058   6.547   4.642
   44SOL     OW 1030   6.434   3.128   5.188
   44SOL    HW1 1031   6.341   3.103   5.163
   44SOL    HW2 1032   6.478   3.175   5.111
   45SOL     OW 1033   4.497   5.601   1.020
   45SOL    HW1 1034   4.435   5.668   1.062
   45SOL    HW2 1035   4.590   5.617   1.053
   46SOL     OW 1036   0.743   3.107   4.310
   46SOL    HW1 1037   0.690   3.122   4.227
   46SOL    HW2 1038   0.690   3.139   4.389
   47SOL     OW 1039   5.185   3.732   1.997
   47SOL    HW1 1040   5.207   3.822   1.960
   47SOL    HW2 1041   5.225   3.661   1.939
   48SOL     OW 1042   0.389   3.261   6.544
   48SOL    HW1 1043   0.393   3.178   6.599
   48SOL    HW2 1044   0.456   3.327   6.578
   49SOL     OW 1045   4.846   2.844   0.443
   49SOL    HW1 1046   4.936   2.831   0.485
   49SOL    HW2 1047   4.814   2.937   0.462
   50SOL     OW 1048   6.167   1.818   5.895
   50SOL    HW1 1049   6.141   1.914   5.899
   50SOL    HW2 1050   6.229   1.797   5.971
   51SOL     OW 1051   2.279   4.686   2.775
   51SOL    HW1 1052   2.224   4.610   2.738
   51SOL    HW2 1053   2.375   4.672   2.751
   52SOL     OW 1054   5.706   2.785   1.826
   52SOL    HW1 1055   5.757   2.871   1.831
   52SOL    HW2 1056   5.734   2.725   1.900
   53SOL     OW 1057   5.210   0.023   3.372
   53SOL    HW1 1058   5.196   0.026   3.471
   53SOL    HW2 1059   5.225   6.951   3.344
   54SOL     OW 1060   5.756   6.206   0.555
   54SOL    HW1 1061   5.688   6.277   0.535
   54SOL    HW2 1062   5.815   6.237   0.630
   55SOL     OW 1063   2.248   2.668   6.532
   55SOL    HW1 1064   2.259   2.695   6.628
   55SOL    HW2 1065   2.152   2.649   6.514
   56SOL     OW 1066   1.357   1.956   0.671
   56SOL    HW1 1067   1.277   1.904   0.703
   56SOL    HW2 1068   1.325   2.035   0.617
   57SOL     OW 1069   3.307   0.342   6.737
   57SOL    HW1 1070   3.331   0.253   6.777
   57SOL    HW2 1071   3.285   0.406   6.811
   58SOL     OW 1072   0.726   0.601   6.433
   58SOL    HW1 1073   0.714   0.594   6.532
   58SOL    HW2 1074   0.706   0.695   6.404
   59SOL     OW 1075   6.420   3.887   6.435
   59SOL    HW1 1076   6.401   3.876   6.338
   59SOL    HW2 1077   6.516   3.911   6.448
   60SOL     OW 1078   5.967   0.841   3.546
   60SOL    HW1 1079   5.901   0.888   3.488
   60SOL    HW2 1080   6.013   0.770   3.493
   61SOL     OW 1081   0.647   1.253   4.278
   61SOL    HW1 1082   0.560   1.270   4.231
   61SOL    HW2 1083   0.631   1.194   4.358
   62SOL     OW 1084   1.146   1.282   1.780
   62SOL    HW1 1085   1.082   1.329   1.842
   62SOL    HW2 1086   1.108   1.279   1.688
   63SOL     OW 1087   4.081   6.631   4.021
   63SOL    HW1 1088   4.170   6.597   3.990
   63SOL    HW2 1089   4.017   6.631   3.944
   64SOL     OW 1090   1.094   3.565   6.867
   64SOL    HW1 1091   1.153   3.490   6.837
   64SOL    HW2 1092   1.140   3.652   6.852
   65SOL     OW 1093   0.860   0.453   5.349
   65SOL    HW1 1094   0.779   0.411   5.308
   65SOL    HW2 1095   0.913   0.499   5.278
   66SOL     OW 1096   3.548   6.950   2.491
   66SOL    HW1 1097   3.515   7.013   2.561
   66SOL    HW2 1098   3.558   6.999   2.404
   67SOL     OW 1099   0.320   2.660   0.624
   67SOL    HW1 1100   0.348   2.628   0.533
   67SOL    HW2 1101   0.220   2.652   0.632
   68SOL     OW 1102   0.405   1.493   5.590
   68SOL    HW1 1103   0.445   1.531   5.674
   68SOL    HW2 1104   0.431   1.550   5.512
   69SOL     OW 1105   1.059   5.041   6.037
   69SOL    HW1 1106   0.985   5.064   6.100
   69SOL    HW2 1107   1.032   4.964   5.979
   70SOL     OW 1108   5.378   3.912   4.930
   70SOL    HW1 1109   5.361   3.975   5.006
   70SOL    HW2 1110   5.477   3.906   4.913
   71SOL     OW 1111   4.726   1.836   4.514
   71SOL    HW1 1112   4.777   1.822   4.599
   71SOL    HW2 1113   4.787   1.867   4.442
   72SOL     OW 1114   0.453   0.731   3.396
   72SOL    HW1 1115   0.526   0.799   3.403
   72SOL    HW2 1116   0.365   0.777   3.393
   73SOL     OW 1117   2.879   1.045   0.354
   73SOL    HW1 1118   2.866   1.073   0.259
   73SOL    HW2 1119   2.974   1.062   0.380
   74SOL     OW 1120   2.274   1.703   6.331
   74SOL    HW1 1121   2.198   1.762   6.359
   74SOL    HW2 1122   2.259   1.610   6.366
   75SOL     OW 1123   4.536   1.468   1.070
   75SOL    HW1 1124   4.510   1.563   1.087
   75SOL    HW2 1125   4.538   1.450   0.972
   76SOL     OW 1126   2.686   4.505   5.770
   76SOL    HW1 1127   2.737   4.479   5.852
   76SOL    HW2 1128   2.643   4.424   5.730
   77SOL     OW 1129   1.819   5.371   4.022
   77SOL    HW1 1130   1.823   5.471   4.031
   77SOL    HW2 1131   1.817   5.347   3.925
   78SOL     OW 1132   4.086   1.679   1.468
   78SOL    HW1 1133   4.059   1.624   1.548
   78SOL    HW2 1134   4.005   1.722   1.429
   79SOL     OW 1135   2.252   5.412   1.854
   79SOL    HW1 1136   2.158   5.441   1.873
   79SOL    HW2 1137   2.263   5.316   1.881
   80SOL     OW 1138   4.532   2.339   5.155
   80SOL    HW1 1139   4.543   2.240   5.151
   80SOL    HW2 1140   4.472   2.368   5.079
   81SOL     OW 1141   1.810   0.304   1.009
   81SOL    HW1 1142   1.799   0.346   1.099
   81SOL    HW2 1143   1.889   0.344   0.963
   82SOL     OW 1144   0.676   6.107   2.362
   82SOL    HW1 1145   0.723   6.019   2.368
   82SOL    HW2 1146   0.638   6.118   2.270
   83SOL     OW 1147   6.676   2.169   5.555
   83SOL    HW1 1148   6.731   2.243   5.517
   83SOL    HW2 1149   6.715   2.081   5.528
   84SOL     OW 1150   5.994   2.629   3.637
   84SOL    HW1 1151   6.033   2.615   3.728
   84SOL    HW2 1152   6.003   2.725   3.611
   85SOL     OW 1153   1.823   6.799   3.968
   85SOL    HW1 1154   1.873   6.765   3.888
   85SOL    HW2 1155   1.881   6.864   4.017
   86SOL     OW 1156   5.681   1.300   6.551
   86SOL    HW1 1157   5.625   1.262   6.478
   86SOL    HW2 1158   5.640   1.277   6.640
   87SOL     OW 1159   4.263   4.375   6.700
   87SOL    HW1 1160   4.339   4.435   6.728
   87SOL    HW2 1161   4.177   4.414   6.734
   88SOL     OW 1162   3.024   2.169   5.523
   88SOL    HW1 1163   2.999   2.244   5.586
   88SOL    HW2 1164   2.987   2.188   5.433
   89SOL     OW 1165   2.822   3.491   1.884
   89SOL    HW1 1166   2.735   3.497   1.835
   89SOL    HW2 1167   2.867   3.580   1.882
   90SOL     OW 1168   4.893   3.937   3.174
   90SOL    HW1 1169   4.992   3.925   3.172
   90SOL    HW2 1170   4.849   3.860   3.127
   91SOL     OW 1171   6.482   6.124   6.225
   91SOL    HW1 1172   6.452   6.204   6.173
   91SOL    HW2 1173   6.418   6.048   6.210
   92SOL     OW 1174   5.123   4.137   0.157
   92SOL    HW1 1175   5.046   4.125   0.094
   92SOL    HW2 1176   5.091   4.184   0.239
   93SOL     OW 1177   3.212   2.940   0.685
   93SOL    HW1 1178   3.286   2.888   0.728
   93SOL    HW2 1179   3.133   2.942   0.747
   94SOL     OW 1180   2.587   0.264   6.300
   94SOL    HW1 1181   2.631   0.352   6.284
   94SOL    HW2 1182   2.491   0.279   6.324
   95SOL     OW 1183   0.658   0.437   4.699
   95SOL    HW1 1184   0.669   0.534   4.722
   95SOL    HW2 1185   0.699   0.381   4.770
   96SOL     OW 1186   5.163   5.141   0.148
   96SOL    HW1 1187   5.233   5.178   0.210
   96SOL    HW2 1188   5.114   5.217   0.106
   97SOL     OW 1189   2.021   4.998   5.471
   97SOL    HW1 1190   2.047   4.903   5.487
   97SOL    HW2 1191   1.996   5.041   5.558
   98SOL     OW 1192   0.914   2.474   1.802
   98SOL    HW1 1193   0.881   2.504   1.892
   98SOL    HW2 1194   0.893   2.377   1.790
   99SOL     OW 1195   4.042   3.772   3.211
   99SOL    HW1 1196   4.048   3.813   3.120
   99SOL    HW2 1197   4.057   3.674   3.205
  100SOL     OW 1198   0.049   6.737   4.029
  100SOL    HW1 1199   0.026   6.647   3.992
  100SOL    HW2 1200   6.988   6.788   4.046
  101SOL     OW 1201   0.412   4.701   2.507
  101SOL    HW1 1202   0.319   4.710   2.473
  101SOL    HW2 1203   0.410   4.665   2.601
  102SOL     OW 1204   2.675   6.255   2.249
  102SOL    HW1 1205   2.700   6.214   2.162
  102SOL    HW2 1206   2.659   6.183   2.317
  103SOL     OW 1207   2.447   1.107   2.533
  103SOL    HW1 1208   2.451   1.201   2.499
  103SOL    HW2 1209   2.449   1.107   2.633
  104SOL     OW 1210   0.792   4.652   2.043
  104SOL    HW1 1211   0.771   4.704   2.127
  104SOL    HW2 1212   0.832   4.714   1.975
  105SOL     OW 1213   6.069   1.599   6.989
  105SOL    HW1 1214   6.042   1.512   0.007
  105SOL    HW2 1215   6.005   1.671   7.016
  106SOL     OW 1216   4.961   5.018   1.617
  106SOL    HW1 1217   4.934   5.098   1.564
  106SOL    HW2 1218   5.061   5.015   1.625
  107SOL     OW 1219   6.806   1.267   0.000
  107SOL    HW1 1220   6.880   1.294   6.962
  107SOL    HW2 1221   6.803   1.167   0.006
  108SOL     OW 1222   2.568   0.381   4.762
  108SOL    HW1 1223   2.477   0.343   4.742
  108SOL    HW2 1224   2.558   0.463   4.818
  109SOL     OW 1225   3.776   0.753   2.428
  109SOL    HW1 1226   3.827   0.818   2.372
  109SOL    HW2 1227   3.695   0.722   2.379
  110SOL     OW 1228   2.156   4.432   5.555
  110SOL    HW1 1229   2.232   4.377   5.522
  110SOL    HW2 1230   2.188   4.525   5.573
  111SOL     OW 1231   6.618   1.766   2.781
  111SOL    HW1 1232   6.519   1.765   2.768
  111SOL    HW2 1233   6.663   1.779   2.692
  112SOL     OW 1234   4.157   6.192   6.613
  112SOL    HW1 1235   4.132   6.288   6.606
  112SOL    HW2 1236   4.075   6.135   6.603
  113SOL     OW 1237   6.371   5.344   2.820
  113SOL    HW1 1238   6.456   5.345   2.767
  113SOL    HW2 1239   6.313   5.270   2.786
  114SOL     OW 1240   1.362   4.479   3.629
  114SOL    HW1 1241   1.340   4.414   3.556
  114SOL    HW2 1242   1.447   4.526   3.606
  115SOL     OW 1243   5.969   1.335   3.188
  115SOL    HW1 1244   5.899   1.345   3.259
  115SOL    HW2 1245   5.993   1.424   3.152
  116SOL     OW 1246   0.681   6.201   1.386
  116SOL    HW1 1247   0.683   6.166   1.479
  116SOL    HW2 1248   0.746   6.277   1.377
  117SOL     OW 1249   3.338   1.462   0.062
  117SOL    HW1 1250   3.355   1.556   0.032
  117SOL    HW2 1251   3.246   1.435   0.033
  118SOL     OW 1252   1.124   1.496   3.575
  118SOL    HW1 1253   1.107   1.521   3.671
  118SOL    HW2 1254   1.040   1.459   3.535
  119SOL     OW 1255   6.643   7.009   0.179
  119SOL    HW1 1256   6.691   6.982   0.263
  119SOL    HW2 1257   6.707   0.031   0.118
  120SOL     OW 1258   4.556   0.618   5.477
  120SOL    HW1 1259   4.572   0.717   5.474
  120SOL    HW2 1260   4.568   0.580   5.385
  121SOL     OW 1261   1.339   3.746   6.791
  121SOL    HW1 1262   1.313   3.781   6.881
  121SOL    HW2 1263   1.437   3.762   6.776
  122SOL     OW 1264   1.074   4.584   0.422
  122SOL    HW1 1265   1.013   4.659   0.447
  122SOL    HW2 1266   1.146   4.618   0.362
  123SOL     OW 1267   1.175   0.816   1.975
  123SOL    HW1 1268   1.268   0.780   1.970
  123SOL    HW2 1269   1.114   0.746   2.013
  124SOL     OW 1270   3.111   2.656   0.868
  124SOL    HW1 1271   3.082   2.751   0.884
  124SOL    HW2 1272   3.059   2.595   0.928
  125SOL     OW 1273   3.485   2.717   6.930
  125SOL    HW1 1274   3.428   2.781   6.981
  125SOL    HW2 1275   3.573   2.707   6.977
  126SOL     OW 1276   3.240   2.927   2.781
  126SOL    HW1 1277   3.244   2.871   2.698
  126SOL    HW2 1278   3.144   2.943   2.806
  127SOL     OW 1279   6.661   6.150   5.966
  127SOL    HW1 1280   6.695   6.073   6.019
  127SOL    HW2 1281   6.572   6.127   5.926
  128SOL     OW 1282   5.060   3.494   1.785
  128SOL    HW1 1283   4.990   3.430   1.817
  128SOL    HW2 1284   5.139   3.442   1.753
  129SOL     OW 1285   2.126   5.452   0.904
  129SOL    HW1 1286   2.115   5.400   0.989
  129SOL    HW2 1287   2.220   5.446   0.873
  130SOL     OW 1288   5.797   1.921   4.697
  130SOL    HW1 1289   5.877   1.868   4.727
  130SOL    HW2 1290   5.767   1.980   4.772
  131SOL     OW 1291   6.747   1.410   3.979
  131SOL    HW1 1292   6.651   1.394   3.954
  131SOL    HW2 1293   6.795   1.448   3.900
  132SOL     OW 1294   3.310   3.946   1.460
  132SOL    HW1 1295   3.371   3.944   1.381
  132SOL    HW2 1296   3.242   3.873   1.452
  133SOL     OW 1297   5.357   0.602   4.569
  133SOL    HW1 1298   5.265   0.572   4.545
  133SOL    HW2 1299   5.376   0.689   4.524
  134SOL     OW 1300   6.213   0.558   2.286
  134SOL    HW1 1301   6.310   0.537   2.276
  134SOL    HW2 1302   6.200   0.657   2.293
  135SOL     OW 1303   4.842   3.266   4.478
  135SOL    HW1 1304   4.834   3.309   4.388
  135SOL    HW2 1305   4.915   3.311   4.530
  136SOL     OW 1306   2.382   5.782   4.973
  136SOL    HW1 1307   2.392   5.830   4.886
  136SOL    HW2 1308   2.438   5.826   5.042
  137SOL     OW 1309   3.913   1.821   4.456
  137SOL    HW1 1310   3.978   1.830   4.532
  137SOL    HW2 1311   3.844   1.893   4.462
  138SOL     OW 1312   0.757   5.407   3.954
  138SOL    HW1 1313   0.724   5.330   3.899
  138SOL    HW2 1314   0.848   5.434   3.921
  139SOL     OW 1315   2.185   5.465   6.615
  139SOL    HW1 1316   2.139   5.492   6.530
  139SOL    HW2 1317   2.127   5.488   6.693
  140SOL     OW 1318   2.236   0.427   2.915
  140SOL    HW1 1319   2.150   0.403   2.869
  140SOL    HW2 1320   2.231   0.399   3.011
  141SOL     OW 1321   6.474   3.678   6.933
  141SOL    HW1 1322   6.541   3.656   7.004
  141SOL    HW2 1323   6.403   3.736   6.972
  142SOL     OW 1324   1.080   4.309   1.832
  142SOL    HW1 1325   1.130   4.223   1.820
  142SOL    HW2 1326   1.127   4.365   1.900
  143SOL     OW 1327   5.796   6.311   1.460
  143SOL    HW1 1328   5.876   6.297   1.518
  143SOL    HW2 1329   5.813   6.270   1.370
  144SOL     OW 1330   2.652   4.746   3.979
  144SOL    HW1 1331   2.745   4.736   3.941
  144SOL    HW2 1332   2.648   4.829   4.035
  145SOL     OW 1333   6.826   4.708   2.838
  145SOL    HW1 1334   6.740   4.756   2.856
  145SOL    HW2 1335   6.841   4.701   2.740
  146SOL     OW 1336   6.224   1.410   6.024
  146SOL    HW1 1337   6.152   1.464   6.068
  146SOL    HW2 1338   6.246   1.450   5.935
  147SOL     OW 1339   5.303   1.579   5.021
  147SOL    HW1 1340   5.336   1.508   4.958
  147SOL    HW2 1341   5.280   1.537   5.109
  148SOL     OW 1342   1.083   4.628   1.389
  148SOL    HW1 1343   1.075   4.725   1.408
  148SOL    HW2 1344   1.110   4.580   1.473
  149SOL     OW 1345   2.590   2.029   5.147
  149SOL    HW1 1346   2.519   2.099   5.139
  149SOL    HW2 1347   2.632   2.034   5.238
  150SOL     OW 1348   4.032   1.920   5.446
  150SOL    HW1 1349   4.023   1.899   5.349
  150SOL    HW2 1350   3.985   2.007   5.465
  151SOL     OW 1351   3.975   1.425   0.793
  151SOL    HW1 1352   4.009   1.360   0.861
  151SOL    HW2 1353   3.898   1.476   0.832
  152SOL     OW 1354   0.904   1.430   6.885
  152SOL    HW1 1355   0.890   1.471   6.795
  152SOL    HW2 1356   0.990   1.464   6.924
  153SOL     OW 1357   2.912   1.046   3.491
  153SOL    HW1 1358   2.921   1.081   3.585
  153SOL    HW2 1359   2.839   1.095   3.444
  154SOL     OW 1360   6.443   1.946   1.140
  154SOL    HW1 1361   6.434   1.846   1.147
  154SOL    HW2 1362   6.362   1.990   1.179
  155SOL     OW 1363   0.212   0.120   2.010
  155SOL    HW1 1364   0.264   0.190   1.960
  155SOL    HW2 1365   0.171   0.162   2.092
  156SOL     OW 1366   4.672   0.695   0.326
  156SOL    HW1 1367   4.597   0.698   0.260
  156SOL    HW2 1368   4.694   0.600   0.347
  157SOL     OW 1369   5.282   3.537   0.459
  157SOL    HW1 1370   5.377   3.527   0.489
  157SOL    HW2 1371   5.274   3.617   0.399
  158SOL     OW 1372   1.557   2.908   2.657
  158SOL    HW1 1373   1.626   2.908   2.728
  158SOL    HW2 1374   1.584   2.971   2.584
  159SOL     OW 1375   4.796   4.827   0.718
  159SOL    HW1 1376   4.798   4.751   0.653
  159SOL    HW2 1377   4.832   4.910   0.674
  160SOL     OW 1378   5.518   0.704   0.687
  160SOL    HW1 1379   5.599   0.695   0.630
  160SOL    HW2 1380   5.484   0.613   0.712
  161SOL     OW 1381   0.976   6.519   0.597
  161SOL    HW1 1382   0.948   6.566   0.513
  161SOL    HW2 1383   1.056   6.565   0.636
  162SOL     OW 1384   2.433   6.007   0.085
  162SOL    HW1 1385   2.377   5.974   0.010
  162SOL    HW2 1386   2.475   5.929   0.132
  163SOL     OW 1387   6.778   4.882   3.253
  163SOL    HW1 1388   6.704   4.824   3.219
  163SOL    HW2 1389   6.744   4.941   3.326
  164SOL     OW 1390   1.361   1.917   3.122
  164SOL    HW1 1391   1.320   1.831   3.092
  164SOL    HW2 1392   1.449   1.930   3.075
  165SOL     OW 1393   0.472   5.384   2.543
  165SOL    HW1 1394   0.535   5.418   2.612
  165SOL    HW2 1395   0.494   5.424   2.454
  166SOL     OW 1396   6.070   3.884   1.497
  166SOL    HW1 1397   6.076   3.916   1.402
  166SOL    HW2 1398   5.991   3.825   1.507
  167SOL     OW 1399   5.281   1.901   6.833
  167SOL    HW1 1400   5.332   1.878   6.916
  167SOL    HW2 1401   5.321   1.854   6.755
  168SOL     OW 1402   4.238   3.436   1.785
  168SOL    HW1 1403   4.243   3.337   1.795
  168SOL    HW2 1404   4.326   3.470   1.750
  169SOL     OW 1405   6.128   3.447   0.516
  169SOL    HW1 1406   6.104   3.370   0.575
  169SOL    HW2 1407   6.227   3.463   0.520
  170SOL     OW 1408   1.321   5.276   2.634
  170SOL    HW1 1409   1.378   5.308   2.559
  170SOL    HW2 1410   1.226   5.266   2.602
  171SOL     OW 1411   2.036   3.099   0.148
  171SOL    HW1 1412   2.125   3.128   0.185
  171SOL    HW2 1413   1.966   3.166   0.174
  172SOL     OW 1414   5.776   2.068   1.730
  172SOL    HW1 1415   5.741   2.045   1.821
  172SOL    HW2 1416   5.790   2.167   1.723
  173SOL     OW 1417   6.137   0.941   5.601
  173SOL    HW1 1418   6.092   0.884   5.670
  173SOL    HW2 1419   6.080   0.945   5.519
  174SOL     OW 1420   5.503   5.649   5.371
  174SOL    HW1 1421   5.504   5.555   5.337
  174SOL    HW2 1422   5.590   5.670   5.415
  175SOL     OW 1423   1.857   0.906   0.746
  175SOL    HW1 1424   1.779   0.867   0.696
  175SOL    HW2 1425   1.840   1.003   0.763
  176SOL     OW 1426   4.617   4.699   3.017
  176SOL    HW1 1427   4.530   4.688   3.064
  176SOL    HW2 1428   4.602   4.706   2.919
  177SOL     OW 1429   5.107   1.883   4.472
  177SOL    HW1 1430   5.140   1.841   4.557
  177SOL    HW2 1431   5.177   1.945   4.437
  178SOL     OW 1432   2.153   5.641   5.000
  178SOL    HW1 1433   2.159   5.577   5.077
  178SOL    HW2 1434   2.227   5.708   5.008
  179SOL     OW 1435   4.374   5.325   0.122
  179SOL    HW1 1436   4.274   5.333   0.114
  179SOL    HW2 1437   4.416   5.413   0.098
  180SOL     OW 1438   3.880   6.725   0.890
  180SOL    HW1 1439   3.852   6.816   0.919
  180SOL    HW2 1440   3.913   6.673   0.969
  181SOL     OW 1441   3.195   2.544   5.334
  181SOL    HW1 1442   3.098   2.568   5.329
  181SOL    HW2 1443   3.214   2.469   5.270
  182SOL     OW 1444   5.162   3.218   6.915
  182SOL    HW1 1445   5.075   3.206   6.962
  182SOL    HW2 1446   5.181   3.139   6.857
  183SOL     OW 1447   3.724   1.998   4.515
  183SOL    HW1 1448   3.681   2.037   4.596
  183SOL    HW2 1449   3.684   2.039   4.433
  184SOL     OW 1450   0.920   6.130   3.596
  184SOL    HW1 1451   0.852   6.143   3.524
  184SOL    HW2 1452   0.880   6.154   3.684
  185SOL     OW 1453   0.372   1.675   4.219
  185SOL    HW1 1454   0.305   1.748   4.209
  185SOL    HW2 1455   0.440   1.700   4.288
  186SOL     OW 1456   5.633   5.865   4.445
  186SOL    HW1 1457   5.668   5.958   4.432
  186SOL    HW2 1458   5.663   5.830   4.534
  187SOL     OW 1459   4.098   5.350   2.691
  187SOL    HW1 1460   4.076   5.328   2.596
  187SOL    HW2 1461   4.174   5.415   2.694
  188SOL     OW 1462   2.366   2.200   3.195
  188SOL    HW1 1463   2.434   2.253   3.245
  188SOL    HW2 1464   2.307   2.261   3.143
  189SOL     OW 1465   5.969   5.699   6.856
  189SOL    HW1 1466   5.976   5.745   6.768
  189SOL    HW2 1467   5.956   5.601   6.841
  190SOL     OW 1468   6.292   5.466   7.015
  190SOL    HW1 1469   6.377   5.422   0.020
  190SOL    HW2 1470   6.314   5.549   6.963
  191SOL     OW 1471   7.010   1.179   6.122
  191SOL    HW1 1472   0.080   1.149   6.142
  191SOL    HW2 1473   6.996   1.180   6.023
  192SOL     OW 1474   0.184   4.392   1.567
  192SOL    HW1 1475   0.127   4.448   1.626
  192SOL    HW2 1476   0.127   4.329   1.515
  193SOL     OW 1477   3.571   4.630   5.947
  193SOL    HW1 1478   3.628   4.702   5.989
  193SOL    HW2 1479   3.502   4.672   5.888
  194SOL     OW 1480   3.884   6.769   2.018
  194SOL    HW1 1481   3.849   6.846   2.071
  194SOL    HW2 1482   3.930   6.804   1.936
  195SOL     OW 1483   3.221   0.712   2.439
  195SOL    HW1 1484   3.267   0.626   2.418
  195SOL    HW2 1485   3.252   0.746   2.528
  196SOL     OW 1486   2.412   1.330   6.529
  196SOL    HW1 1487   2.441   1.377   6.446
  196SOL    HW2 1488   2.373   1.241   6.506
  197SOL     OW 1489   2.261   6.014   6.723
  197SOL    HW1 1490   2.242   6.091   6.783
  197SOL    HW2 1491   2.352   6.024   6.683
  198SOL     OW 1492   4.284   6.033   0.812
  198SOL    HW1 1493   4.290   5.941   0.775
  198SOL    HW2 1494   4.354   6.045   0.883
  199SOL     OW 1495   6.043   1.008   2.036
  199SOL    HW1 1496   6.038   1.104   2.062
  199SOL    HW2 1497   6.116   0.994   1.969
  200SOL     OW 1498   1.071   2.910   2.372
  200SOL    HW1 1499   1.120   2.984   2.418
  200SOL    HW2 1500   1.130   2.830   2.365
  201SOL     OW 1501   2.635   0.901   6.719
  201SOL    HW1 1502   2.678   0.846   6.648
  201SOL    HW2 1503   2.643   0.998   6.695
  202SOL     OW 1504   5.122   6.607   4.296
  202SOL    HW1 1505   5.072   6.660   4.365
  202SOL    HW2 1506   5.203   6.659   4.267
  203SOL     OW 1507   5.230   3.001   5.967
  203SOL    HW1 1508   5.192   3.042   6.050
  203SOL    HW2 1509   5.178   2.919   5.943
  204SOL     OW 1510   0.712   6.766   0.294
  204SOL    HW1 1511   0.771   6.712   0.235
  204SOL    HW2 1512   0.700   6.857   0.254
  205SOL     OW 1513   0.664   1.772   0.911
  205SOL    HW1 1514   0.748   1.792   0.962
  205SOL    HW2 1515   0.610   1.704   0.961
  206SOL     OW 1516   1.002   4.216   1.144
  206SOL    HW1 1517   0.935   4.281   1.108
  206SOL    HW2 1518   1.005   4.224   1.244
  207SOL     OW 1519   3.966   0.249   5.318
  207SOL    HW1 1520   3.914   0.233   5.234
  207SOL    HW2 1521   3.904   0.255   5.396
  208SOL     OW 1522   5.423   4.400   5.929
  208SOL    HW1 1523   5.375   4.312   5.931
  208SOL    HW2 1524   5.429   4.437   6.022
  209SOL     OW 1525   0.469   6.018   5.761
  209SOL    HW1 1526   0.425   5.948   5.705
  209SOL    HW2 1527   0.512   6.086   5.702
  210SOL     OW 1528   4.435   2.193   1.906
  210SOL    HW1 1529   4.414   2.098   1.880
  210SOL    HW2 1530   4.363   2.253   1.872
  211SOL     OW 1531   1.008   1.116   2.564
  211SOL    HW1 1532   1.003   1.031   2.617
  211SOL    HW2 1533   1.100   1.126   2.526
  212SOL     OW 1534   1.258   4.815   3.206
  212SOL    HW1 1535   1.299   4.905   3.191
  212SOL    HW2 1536   1.287   4.753   3.133
  213SOL     OW 1537   5.034   1.382   6.846
  213SOL    HW1 1538   5.019   1.297   6.795
  213SOL    HW2 1539   4.979   1.381   6.929
  214SOL     OW 1540   1.019   6.650   3.597
  214SOL    HW1 1541   1.090   6.664   3.528
  214SOL    HW2 1542   1.061   6.628   3.685
  215SOL     OW 1543   3.735   2.965   1.835
  215SOL    HW1 1544   3.709   3.007   1.922
  215SOL    HW2 1545   3.655   2.960   1.775
  216SOL     OW 1546   1.408   6.995   4.718
  216SOL    HW1 1547   1.380   0.068   4.711
  216SOL    HW2 1548   1.344   6.938   4.666
  217SOL     OW 1549   1.880   2.462   4.288
  217SOL    HW1 1550   1.781   2.455   4.282
  217SOL    HW2 1551   1.922   2.374   4.265
  218SOL     OW 1552   1.316   2.066   4.385
  218SOL    HW1 1553   1.379   2.103   4.317
  218SOL    HW2 1554   1.366   2.048   4.470
  219SOL     OW 1555   3.687   3.783   6.964
  219SOL    HW1 1556   3.733   3.846   0.003
  219SOL    HW2 1557   3.620   3.832   6.909
  220SOL     OW 1558   2.548   6.255   0.124
  220SOL    HW1 1559   2.492   6.178   0.095
  220SOL    HW2 1560   2.641   6.243   0.089
  221SOL     OW 1561   5.571   3.511   3.948
  221SOL    HW1 1562   5.639   3.447   3.912
  221SOL    HW2 1563   5.595   3.535   4.042
  222SOL     OW 1564   1.367   5.421   5.326
  222SOL    HW1 1565   1.286   5.480   5.320
  222SOL    HW2 1566   1.371   5.362   5.245
  223SOL     OW 1567   0.052   3.822   1.408
  223SOL    HW1 1568   0.101   3.879   1.474
  223SOL    HW2 1569   0.016   3.741   1.455
  224SOL     OW 1570   2.431   2.535   2.954
  224SOL    HW1 1571   2.445   2.522   2.856
  224SOL    HW2 1572   2.517   2.524   3.002
  225SOL     OW 1573   6.033   1.156   0.262
  225SOL    HW1 1574   6.129   1.182   0.247
  225SOL    HW2 1575   6.007   1.176   0.356
  226SOL     OW 1576   0.876   0.519   0.651
  226SOL    HW1 1577   0.855   0.421   0.657
  226SOL    HW2 1578   0.963   0.537   0.698
  227SOL     OW 1579   1.603   3.763   3.261
  227SOL    HW1 1580   1.563   3.774   3.352
  227SOL    HW2 1581   1.564   3.832   3.200
  228SOL     OW 1582   3.797   6.945   4.758
  228SOL    HW1 1583   3.789   6.960   4.856
  228SOL    HW2 1584   3.822   6.850   4.740
  229SOL     OW 1585   5.975   5.924   1.444
  229SOL    HW1 1586   5.908   5.891   1.511
  229SOL    HW2 1587   5.970   5.868   1.361
  230SOL     OW 1588   1.898   3.859   4.083
  230SOL    HW1 1589   1.889   3.838   3.986
  230SOL    HW2 1590   1.984   3.821   4.118
  231SOL     OW 1591   6.219   2.903   6.321
  231SOL    HW1 1592   6.294   2.969   6.318
  231SOL    HW2 1593   6.161   2.916   6.240
  232SOL     OW 1594   1.328   3.202   6.496
  232SOL    HW1 1595   1.418   3.231   6.465
  232SOL    HW2 1596   1.327   3.196   6.596
  233SOL     OW 1597   2.323   0.658   5.134
  233SOL    HW1 1598   2.249   0.624   5.193
  233SOL    HW2 1599   2.304   0.752   5.108
  234SOL     OW 1600   2.399   4.760   6.508
  234SOL    HW1 1601   2.378   4.858   6.499
  234SOL    HW2 1602   2.335   4.708   6.451
  235SOL     OW 1603   3.556   3.133   3.432
  235SOL    HW1 1604   3.600   3.165   3.516
  235SOL    HW2 1605   3.625   3.125   3.359
  236SOL     OW 1606   6.416   3.149   6.704
  236SOL    HW1 1607   6.408   3.092   6.623
  236SOL    HW2 1608   6.512   3.154   6.733
  237SOL     OW 1609   0.051   6.461   0.980
  237SOL    HW1 1610   0.088   6.534   0.924
  237SOL    HW2 1611   0.122   6.425   1.040
  238SOL     OW 1612   5.526   3.776   1.620
  238SOL    HW1 1613   5.433   3.804   1.640
  238SOL    HW2 1614   5.562   3.721   1.695
  239SOL     OW 1615   0.029   5.566   7.008
  239SOL    HW1 1616   7.005   5.479   7.023
  239SOL    HW2 1617   7.000   5.621   6.943
  240SOL     OW 1618   1.011   3.491   6.089
  240SOL    HW1 1619   0.947   3.414   6.077
  240SOL    HW2 1620   1.054   3.485   6.179
  241SOL     OW 1621   0.478   1.430   3.562
  241SOL    HW1 1622   0.568   1.470   3.578
  241SOL    HW2 1623   0.484   1.330   3.573
  242SOL     OW 1624   1.267   3.078   5.203
  242SOL    HW1 1625   1.346   3.063   5.262
  242SOL    HW2 1626   1.279   3.026   5.118
  243SOL     OW 1627   4.698   0.427   6.181
  243SOL    HW1 1628   4.702   0.457   6.086
  243SOL    HW2 1629   4.650   0.496   6.236
  244SOL     OW 1630   4.724   1.995   4.945
  244SOL    HW1 1631   4.760   1.942   4.868
  244SOL    HW2 1632   4.788   1.989   5.022
  245SOL     OW 1633   6.491   2.424   4.736
  245SOL    HW1 1634   6.581   2.405   4.697
  245SOL    HW2 1635   6.452   2.340   4.773
  246SOL     OW 1636   5.082   3.638   4.189
  246SOL    HW1 1637   4.992   3.678   4.206
  246SOL    HW2 1638   5.100   3.638   4.090
  247SOL     OW 1639   2.676   1.348   3.030
  247SOL    HW1 1640   2.578   1.366   3.035
  247SOL    HW2 1641   2.727   1.434   3.039
  248SOL     OW 1642   5.011   2.136   4.827
  248SOL    HW1 1643   4.921   2.167   4.798
  248SOL    HW2 1644   5.079   2.163   4.759
  249SOL     OW 1645   3.337   6.631   4.891
  249SOL    HW1 1646   3.321   6.582   4.805
  249SOL    HW2 1647   3.328   6.730   4.875
  250SOL     OW 1648   5.836   1.811   5.549
  250SOL    HW1 1649   5.928   1.810   5.587
  250SOL    HW2 1650   5.771   1.772   5.614
  251SOL     OW 1651   4.517   3.138   6.208
  251SOL    HW1 1652   4.499   3.169   6.301
  251SOL    HW2 1653   4.538   3.040   6.208
  252SOL     OW 1654   0.027   1.300   5.531
  252SOL    HW1 1655   0.004   1.367   5.461
  252SOL    HW2 1656   6.974   1.236   5.542
  253SOL     OW 1657   1.447   3.232   1.238
  253SOL    HW1 1658   1.372   3.286   1.201
  253SOL    HW2 1659   1.487   3.176   1.166
  254SOL     OW 1660   6.879   3.062   4.824
  254SOL    HW1 1661   6.807   3.015   4.773
  254SOL    HW2 1662   6.957   3.080   4.764
  255SOL     OW 1663   3.284   2.130   3.380
  255SOL    HW1 1664   3.239   2.042   3.391
  255SOL    HW2 1665   3.380   2.122   3.406
  256SOL     OW 1666   6.545   5.501   6.508
  256SOL    HW1 1667   6.642   5.480   6.503
  256SOL    HW2 1668   6.522   5.569   6.438
  257SOL     OW 1669   2.847   5.762   6.214
  257SOL    HW1 1670   2.932   5.762   6.267
  257SOL    HW2 1671   2.777   5.712   6.265
  258SOL     OW 1672   4.765   4.627   4.830
  258SOL    HW1 1673   4.799   4.558   4.766
  258SOL    HW2 1674   4.814   4.713   4.814
  259SOL     OW 1675   1.842   3.098   2.785
  259SOL    HW1 1676   1.783   3.028   2.825
  259SOL    HW2 1677   1.886   3.062   2.703
  260SOL     OW 1678   5.125   0.630   6.260
  260SOL    HW1 1679   5.065   0.552   6.278
  260SOL    HW2 1680   5.073   0.701   6.212
  261SOL     OW 1681   0.145   4.010   1.577
  261SOL    HW1 1682   0.237   4.032   1.544
  261SOL    HW2 1683   0.080   4.078   1.542
  262SOL     OW 1684   1.337   3.045   2.456
  262SOL    HW1 1685   1.435   3.064   2.465
  262SOL    HW2 1686   1.287   3.131   2.445
  263SOL     OW 1687   0.700   2.302   4.743
  263SOL    HW1 1688   0.656   2.291   4.654
  263SOL    HW2 1689   0.663   2.235   4.807
  264SOL     OW 1690   0.942   3.602   5.701
  264SOL    HW1 1691   1.006   3.672   5.671
  264SOL    HW2 1692   0.849   3.630   5.677
  265SOL     OW 1693   4.892   4.310   4.211
  265SOL    HW1 1694   4.903   4.401   4.172
  265SOL    HW2 1695   4.825   4.258   4.159
  266SOL     OW 1696   3.990   2.011   0.321
  266SOL    HW1 1697   4.030   2.101   0.337
  266SOL    HW2 1698   4.061   1.948   0.289
  267SOL     OW 1699   1.496   2.627   6.827
  267SOL    HW1 1700   1.434   2.702   6.852
  267SOL    HW2 1701   1.481   2.550   6.888
  268SOL     OW 1702   4.505   4.523   4.481
  268SOL    HW1 1703   4.507   4.506   4.579
  268SOL    HW2 1704   4.432   4.588   4.459
  269SOL     OW 1705   1.658   1.561   6.594
  269SOL    HW1 1706   1.628   1.473   6.556
  269SOL    HW2 1707   1.686   1.622   6.520
  270SOL     OW 1708   5.445   0.973   2.456
  270SOL    HW1 1709   5.352   1.003   2.480
  270SOL    HW2 1710   5.512   1.038   2.493
  271SOL     OW 1711   1.842   1.128   1.089
  271SOL    HW1 1712   1.830   1.029   1.098
  271SOL    HW2 1713   1.939   1.150   1.087
  272SOL     OW 1714   4.241   5.050   4.438
  272SOL    HW1 1715   4.221   4.985   4.512
  272SOL    HW2 1716   4.159   5.061   4.382
  273SOL     OW 1717   1.463   5.877   4.613
  273SOL    HW1 1718   1.489   5.973   4.601
  273SOL    HW2 1719   1.538   5.828   4.658
  274SOL     OW 1720   5.798   2.840   3.364
  274SOL    HW1 1721   5.792   2.804   3.456
  274SOL    HW2 1722   5.850   2.926   3.365
  275SOL     OW 1723   0.056   6.406   5.948
  275SOL    HW1 1724   6.998   6.418   6.006
  275SOL    HW2 1725   0.085   6.311   5.952
  276SOL     OW 1726   6.840   5.591   3.381
  276SOL    HW1 1727   6.915   5.650   3.410
  276SOL    HW2 1728   6.756   5.617   3.429
  277SOL     OW 1729   3.535   1.260   5.460
  277SOL    HW1 1730   3.442   1.296   5.455
  277SOL    HW2 1731   3.591   1.322   5.515
  278SOL     OW 1732   5.277   4.475   2.132
  278SOL    HW1 1733   5.288   4.477   2.231
  278SOL    HW2 1734   5.222   4.396   2.106
  279SOL     OW 1735   0.106   2.880   3.345
  279SOL    HW1 1736   0.140   2.962   3.300
  279SOL    HW2 1737   0.105   2.804   3.279
  280SOL     OW 1738   4.659   6.544   3.896
  280SOL    HW1 1739   4.655   6.602   3.977
  280SOL    HW2 1740   4.591   6.576   3.829
  281SOL     OW 1741   4.104   5.560   4.003
  281SOL    HW1 1742   4.114   5.599   4.095
  281SOL    HW2 1743   4.133   5.627   3.935
  282SOL     OW 1744   4.386   1.846   6.036
  282SOL    HW1 1745   4.293   1.854   6.073
  282SOL    HW2 1746   4.413   1.749   6.036
  283SOL     OW 1747   6.483   0.586   4.627
  283SOL    HW1 1748   6.583   0.580   4.628
  283SOL    HW2 1749   6.447   0.555   4.715
  284SOL     OW 1750   0.410   4.837   4.660
  284SOL    HW1 1751   0.356   4.910   4.702
  284SOL    HW2 1752   0.349   4.771   4.617
  285SOL     OW 1753   4.996   0.157   0.084
  285SOL    HW1 1754   5.050   0.227   0.039
  285SOL    HW2 1755   4.972   0.187   0.176
  286SOL     OW 1756   3.694   5.376   4.633
  286SOL    HW1 1757   3.776   5.381   4.576
  286SOL    HW2 1758   3.614   5.405   4.580
  287SOL     OW 1759   1.316   5.859   6.332
  287SOL    HW1 1760   1.370   5.890   6.254
  287SOL    HW2 1761   1.245   5.796   6.301
  288SOL     OW 1762   3.733   0.486   1.038
  288SOL    HW1 1763   3.708   0.570   1.087
  288SOL    HW2 1764   3.745   0.411   1.103
  289SOL     OW 1765   0.916   5.884   5.664
  289SOL    HW1 1766   0.863   5.946   5.605
  289SOL    HW2 1767   0.964   5.937   5.734
  290SOL     OW 1768   4.342   0.752   3.123
  290SOL    HW1 1769   4.363   0.693   3.202
  290SOL    HW2 1770   4.358   0.847   3.149
  291SOL     OW 1771   4.373   0.644   4.238
  291SOL    HW1 1772   4.320   0.695   4.306
  291SOL    HW2 1773   4.457   0.610   4.280
  292SOL     OW 1774   3.744   7.011   3.845
  292SOL    HW1 1775   3.736   6.948   3.922
  292SOL    HW2 1776   3.659   7.010   3.792
  293SOL     OW 1777   4.692   6.537   2.382
  293SOL    HW1 1778   4.626   6.462   2.371
  293SOL    HW2 1779   4.675   6.607   2.312
  294SOL     OW 1780   5.614   0.074   5.650
  294SOL    HW1 1781   5.628   0.150   5.713
  294SOL    HW2 1782   5.694   0.013   5.653
  295SOL     OW 1783   1.199   2.413   4.889
  295SOL    HW1 1784   1.235   2.378   4.975
  295SOL    HW2 1785   1.273   2.416   4.821
  296SOL     OW 1786   6.312   1.455   1.182
  296SOL    HW1 1787   6.359   1.380   1.136
  296SOL    HW2 1788   6.321   1.444   1.281
  297SOL     OW 1789   4.969   5.048   3.696
  297SOL    HW1 1790   4.947   5.062   3.793
  297SOL    HW2 1791   4.895   4.998   3.652
  298SOL     OW 1792   4.313   0.570   0.605
  298SOL    HW1 1793   4.319   0.487   0.550
  298SOL    HW2 1794   4.391   0.630   0.583
  299SOL     OW 1795   3.464   1.489   0.357
  299SOL    HW1 1796   3.384   1.521   0.407
  299SOL    HW2 1797   3.456   1.516   0.261
  300SOL     OW 1798   3.585   1.115   2.143
  300SOL    HW1 1799   3.522   1.160   2.080
  300SOL    HW2 1800   3.538   1.040   2.190
  301SOL     OW 1801   5.013   6.119   1.754
  301SOL    HW1 1802   5.076   6.187   1.716
  301SOL    HW2 1803   5.051   6.082   1.838
  302SOL     OW 1804   0.360   6.420   1.834
  302SOL    HW1 1805   0.377   6.322   1.823
  302SOL    HW2 1806   0.271   6.443   1.795
  303SOL     OW 1807   5.764   5.676   2.335
  303SOL    HW1 1808   5.834   5.631   2.280
  303SOL    HW2 1809   5.683   5.693   2.278
  304SOL     OW 1810   1.239   6.848   5.323
  304SOL    HW1 1811   1.237   6.864   5.224
  304SOL    HW2 1812   1.284   6.760   5.341
  305SOL     OW 1813   0.681   3.003   1.778
  305SOL    HW1 1814   0.667   2.919   1.831
  305SOL    HW2 1815   0.779   3.023   1.773
  306SOL     OW 1816   6.863   0.854   2.531
  306SOL    HW1 1817   6.915   0.778   2.571
  306SOL    HW2 1818   6.777   0.865   2.581
  307SOL     OW 1819   3.441   3.084   0.785
  307SOL    HW1 1820   3.368   3.048   0.727
  307SOL    HW2 1821   3.494   3.152   0.734
  308SOL     OW 1822   5.635   1.704   4.708
  308SOL    HW1 1823   5.693   1.667   4.635
  308SOL    HW2 1824   5.661   1.799   4.726
  309SOL     OW 1825   0.065   0.059   6.956
  309SOL    HW1 1826   0.079   6.988   6.928
  309SOL    HW2 1827   0.043   0.115   6.876
  310SOL     OW 1828   5.523   6.217   4.544
  310SOL    HW1 1829   5.451   6.169   4.494
  310SOL    HW2 1830   5.544   6.303   4.499
  311SOL     OW 1831   2.682   4.986   2.756
  311SOL    HW1 1832   2.722   4.901   2.721
  311SOL    HW2 1833   2.693   4.990   2.855
  312SOL     OW 1834   4.424   2.418   3.282
  312SOL    HW1 1835   4.353   2.351   3.303
  312SOL    HW2 1836   4.491   2.421   3.356
  313SOL     OW 1837   3.604   3.427   2.576
  313SOL    HW1 1838   3.607   3.463   2.669
  313SOL    HW2 1839   3.509   3.420   2.546
  314SOL     OW 1840   1.834   5.444   4.844
  314SOL    HW1 1841   1.821   5.352   4.807
  314SOL    HW2 1842   1.920   5.482   4.810
  315SOL     OW 1843   6.372   1.390   3.525
  315SOL    HW1 1844   6.405   1.432   3.441
  315SOL    HW2 1845   6.394   1.293   3.525
  316SOL     OW 1846   4.019   1.689   5.629
  316SOL    HW1 1847   3.921   1.711   5.639
  316SOL    HW2 1848   4.057   1.742   5.553
  317SOL     OW 1849   1.799   1.705   1.903
  317SOL    HW1 1850   1.856   1.624   1.886
  317SOL    HW2 1851   1.744   1.724   1.821
  318SOL     OW 1852   6.743   0.548   6.093
  318SOL    HW1 1853   6.730   0.645   6.114
  318SOL    HW2 1854   6.837   0.522   6.112
  319SOL     OW 1855   0.740   2.378   2.677
  319SOL    HW1 1856   0.756   2.284   2.648
  319SOL    HW2 1857   0.748   2.383   2.777
  320SOL     OW 1858   5.652   2.154   6.877
  320SOL    HW1 1859   5.606   2.198   6.799
  320SOL    HW2 1860   5.591   2.154   6.956
  321SOL     OW 1861   3.585   3.297   0.355
  321SOL    HW1 1862   3.549   3.325   0.266
  321SOL    HW2 1863   3.669   3.348   0.375
  322SOL     OW 1864   3.861   3.321   6.281
  322SOL    HW1 1865   3.794   3.392   6.302
  322SOL    HW2 1866   3.860   3.252   6.354
  323SOL     OW 1867   0.426   2.896   3.641
  323SOL    HW1 1868   0.356   2.943   3.694
  323SOL    HW2 1869   0.383   2.850   3.562
  324SOL     OW 1870   2.473   6.590   3.366
  324SOL    HW1 1871   2.528   6.533   3.305
  324SOL    HW2 1872   2.379   6.595   3.332
  325SOL     OW 1873   1.316   3.636   2.539
  325SOL    HW1 1874   1.286   3.719   2.587
  325SOL    HW2 1875   1.356   3.661   2.451
  326SOL     OW 1876   1.629   4.672   6.606
  326SOL    HW1 1877   1.603   4.576   6.603
  326SOL    HW2 1878   1.719   4.681   6.649
  327SOL     OW 1879   2.823   4.755   2.651
  327SOL    HW1 1880   2.760   4.682   2.624
  327SOL    HW2 1881   2.884   4.722   2.723
  328SOL     OW 1882   1.503   4.216   1.943
  328SOL    HW1 1883   1.554   4.139   1.982
  328SOL    HW2 1884   1.453   4.185   1.862
  329SOL     OW 1885   2.898   4.104   0.937
  329SOL    HW1 1886   2.947   4.144   0.858
  329SOL    HW2 1887   2.850   4.022   0.908
  330SOL     OW 1888   3.894   5.872   6.875
  330SOL    HW1 1889   3.988   5.857   6.906
  330SOL    HW2 1890   3.864   5.793   6.822
  331SOL     OW 1891   5.686   4.985   0.865
  331SOL    HW1 1892   5.737   4.931   0.798
  331SOL    HW2 1893   5.643   5.063   0.819
  332SOL     OW 1894   5.271   1.688   3.734
  332SOL    HW1 1895   5.326   1.761   3.774
  332SOL    HW2 1896   5.325   1.640   3.665
  333SOL     OW 1897   4.214   1.014   5.231
  333SOL    HW1 1898   4.211   0.921   5.194
  333SOL    HW2 1899   4.136   1.028   5.292
  334SOL     OW 1900   3.458   2.888   2.223
  334SOL    HW1 1901   3.403   2.949   2.166
  334SOL    HW2 1902   3.524   2.839   2.166
  335SOL     OW 1903   4.189   0.279   6.754
  335SOL    HW1 1904   4.281   0.287   6.793
  335SOL    HW2 1905   4.121   0.286   6.827
  336SOL     OW 1906   3.124   1.116   3.090
  336SOL    HW1 1907   3.199   1.056   3.061
  336SOL    HW2 1908   3.139   1.208   3.052
  337SOL     OW 1909   1.781   2.415   5.994
  337SOL    HW1 1910   1.853   2.476   5.961
  337SOL    HW2 1911   1.821   2.329   6.027
  338SOL     OW 1912   3.812   3.140   1.105
  338SOL    HW1 1913   3.807   3.047   1.143
  338SOL    HW2 1914   3.774   3.205   1.171
  339SOL     OW 1915   4.304   4.712   4.452
  339SOL    HW1 1916   4.241   4.747   4.522
  339SOL    HW2 1917   4.280   4.750   4.363
  340SOL     OW 1918   5.470   2.999   5.002
  340SOL    HW1 1919   5.542   3.064   5.026
  340SOL    HW2 1920   5.510   2.916   4.963
  341SOL     OW 1921   5.758   5.700   4.645
  341SOL    HW1 1922   5.746   5.622   4.584
  341SOL    HW2 1923   5.841   5.749   4.622
  342SOL     OW 1924   4.510   3.810   1.089
  342SOL    HW1 1925   4.476   3.802   0.995
  342SOL    HW2 1926   4.536   3.905   1.107
  343SOL     OW 1927   0.459   6.216   2.575
  343SOL    HW1 1928   0.390   6.288   2.582
  343SOL    HW2 1929   0.534   6.247   2.516
  344SOL     OW 1930   0.899   1.824   2.098
  344SOL    HW1 1931   0.805   1.796   2.078
  344SOL    HW2 1932   0.898   1.907   2.153
  345SOL     OW 1933   6.536   2.301   4.222
  345SOL    HW1 1934   6.459   2.260   4.272
  345SOL    HW2 1935   6.577   2.233   4.162
  346SOL     OW 1936   2.004   7.007   2.670
  346SOL    HW1 1937   2.073   0.027   2.612
  346SOL    HW2 1938   2.012   6.907   2.663
  347SOL     OW 1939   2.517   5.886   6.716
  347SOL    HW1 1940   2.557   5.796   6.736
  347SOL    HW2 1941   2.546   5.951   6.786
  348SOL     OW 1942   4.341   4.951   2.384
  348SOL    HW1 1943   4.307   4.983   2.472
  348SOL    HW2 1944   4.327   4.852   2.377
  349SOL     OW 1945   6.573   4.237   2.321
  349SOL    HW1 1946   6.665   4.263   2.351
  349SOL    HW2 1947   6.506   4.304   2.355
  350SOL     OW 1948   3.179   2.812   0.358
  350SOL    HW1 1949   3.115   2.880   0.324
  350SOL    HW2 1950   3.152   2.721   0.325
  351SOL     OW 1951   3.108   3.722   0.432
  351SOL    HW1 1952   3.086   3.819   0.417
  351SOL    HW2 1953   3.113   3.704   0.530
  352SOL     OW 1954   4.347   6.456   3.185
  352SOL    HW1 1955   4.323   6.552   3.168
  352SOL    HW2 1956   4.446   6.447   3.190
  353SOL     OW 1957   3.202   0.023   5.975
  353SOL    HW1 1958   3.273   0.083   6.014
  353SOL    HW2 1959   3.112   0.064   5.989
  354SOL     OW 1960   5.279   2.939   0.407
  354SOL    HW1 1961   5.206   2.888   0.453
  354SOL    HW2 1962   5.280   3.033   0.439
  355SOL     OW 1963   1.967   2.895   2.554
  355SOL    HW1 1964   2.048   2.843   2.526
  355SOL    HW2 1965   1.898   2.832   2.588
  356SOL     OW 1966   2.115   0.683   4.771
  356SOL    HW1 1967   2.078   0.643   4.855
  356SOL    HW2 1968   2.085   0.631   4.692
  357SOL     OW 1969   0.254   5.917   4.283
  357SOL    HW1 1970   0.308   5.895   4.201
  357SOL    HW2 1971   0.223   5.833   4.326
  358SOL     OW 1972   4.505   6.425   1.097
  358SOL    HW1 1973   4.464   6.441   1.188
  358SOL    HW2 1974   4.599   6.394   1.108
  359SOL     OW 1975   3.400   0.710   1.205
  359SOL    HW1 1976   3.493   0.702   1.169
  359SOL    HW2 1977   3.384   0.804   1.235
  360SOL     OW 1978   1.523   4.098   4.686
  360SOL    HW1 1979   1.491   4.177   4.738
  360SOL    HW2 1980   1.577   4.038   4.746
  361SOL     OW 1981   5.991   6.305   2.579
  361SOL    HW1 1982   5.912   6.365   2.566
  361SOL    HW2 1983   6.075   6.354   2.554
  362SOL     OW 1984   3.961   4.042   0.519
  362SOL    HW1 1985   3.892   4.100   0.563
  362SOL    HW2 1986   3.916   3.965   0.473
  363SOL     OW 1987   5.977   4.672   2.775
  363SOL    HW1 1988   5.946   4.762   2.807
  363SOL    HW2 1989   5.931   4.600   2.827
  364SOL     OW 1990   0.577   4.886   6.520
  364SOL    HW1 1991   0.592   4.937   6.605
  364SOL    HW2 1992   0.627   4.800   6.523
  365SOL     OW 1993   3.443   1.012   1.245
  365SOL    HW1 1994   3.396   1.100   1.237
  365SOL    HW2 1995   3.539   1.022   1.218
  366SOL     OW 1996   5.795   2.737   6.667
  366SOL    HW1 1997   5.787   2.642   6.640
  366SOL    HW2 1998   5.841   2.744   6.756
  367SOL     OW 1999   5.867   2.518   6.087
  367SOL    HW1 2000   5.814   2.521   6.002
  367SOL    HW2 2001   5.823   2.577   6.155
  368SOL     OW 2002   6.773   2.385   5.960
  368SOL    HW1 2003   6.853   2.435   5.929
  368SOL    HW2 2004   6.801   2.296   5.996
  369SOL     OW 2005   6.030   4.240   2.820
  369SOL    HW1 2006   5.966   4.175   2.779
  369SOL    HW2 2007   6.116   4.237   2.770
  370SOL     OW 2008   1.225   1.695   4.077
  370SOL    HW1 2009   1.240   1.633   4.000
  370SOL    HW2 2010   1.142   1.749   4.061
  371SOL     OW 2011   1.598   4.374   6.657
  371SOL    HW1 2012   1.515   4.335   6.698
  371SOL    HW2 2013   1.673   4.369   6.722
  372SOL     OW 2014   1.998   6.814   5.372
  372SOL    HW1 2015   2.011   6.764   5.287
  372SOL    HW2 2016   1.906   6.797   5.407
  373SOL     OW 2017   5.477   6.814   5.716
  373SOL    HW1 2018   5.501   6.909   5.735
  373SOL    HW2 2019   5.557   6.755   5.731
  374SOL     OW 2020   2.715   1.821   2.953
  374SOL    HW1 2021   2.766   1.875   2.887
  374SOL    HW2 2022   2.651   1.879   3.002
  375SOL     OW 2023   0.891   5.202   4.749
  375SOL    HW1 2024   0.844   5.163   4.828
  375SOL    HW2 2025   0.868   5.150   4.667
  376SOL     OW 2026   1.826   1.392   5.548
  376SOL    HW1 2027   1.799   1.411   5.454
  376SOL    HW2 2028   1.830   1.477   5.600
  377SOL     OW 2029   1.904   2.376   0.120
  377SOL    HW1 2030   1.994   2.358   0.160
  377SOL    HW2 2031   1.875   2.468   0.145
  378SOL     OW 2032   4.040   1.414   6.347
  378SOL    HW1 2033   4.027   1.315   6.343
  378SOL    HW2 2034   3.987   1.452   6.423
  379SOL     OW 2035   4.891   2.887   0.084
  379SOL    HW1 2036   4.835   2.816   0.129
  379SOL    HW2 2037   4.840   2.972   0.080
  380SOL     OW 2038   2.560   1.634   1.121
  380SOL    HW1 2039   2.580   1.542   1.087
  380SOL    HW2 2040   2.643   1.690   1.114
  381SOL     OW 2041   1.617   3.809   4.064
  381SOL    HW1 2042   1.709   3.850   4.064
  381SOL    HW2 2043   1.579   3.814   3.971
  382SOL     OW 2044   5.818   0.293   0.029
  382SOL    HW1 2045   5.729   0.329   0.001
  382SOL    HW2 2046   5.870   0.268   6.970
  383SOL     OW 2047   4.437   2.874   0.993
  383SOL    HW1 2048   4.499   2.864   1.071
  383SOL    HW2 2049   4.370   2.800   0.994
  384SOL     OW 2050   0.321   4.793   4.333
  384SOL    HW1 2051   0.315   4.735   4.414
  384SOL    HW2 2052   0.265   4.754   4.260
  385SOL     OW 2053   3.479   5.759   5.901
  385SOL    HW1 2054   3.450   5.667   5.872
  385SOL    HW2 2055   3.482   5.819   5.821
  386SOL     OW 2056   3.982   0.414   4.295
  386SOL    HW1 2057   4.061   0.435   4.238
  386SOL    HW2 2058   3.989   0.321   4.331
  387SOL     OW 2059   1.539   5.588   2.377
  387SOL    HW1 2060   1.456   5.586   2.434
  387SOL    HW2 2061   1.606   5.649   2.418
  388SOL     OW 2062   1.996   1.618   6.533
  388SOL    HW1 2063   1.995   1.712   6.501
  388SOL    HW2 2064   2.010   1.616   6.632
  389SOL     OW 2065   3.686   3.355   2.316
  389SOL    HW1 2066   3.674   3.420   2.391
  389SOL    HW2 2067   3.672   3.262   2.350
  390SOL     OW 2068   3.342   1.127   3.641
  390SOL    HW1 2069   3.305   1.053   3.697
  390SOL    HW2 2070   3.344   1.212   3.695
  391SOL     OW 2071   1.984   2.629   6.440
  391SOL    HW1 2072   1.942   2.717   6.463
  391SOL    HW2 2073   1.949   2.558   6.501
  392SOL     OW 2074   2.000   4.281   0.204
  392SOL    HW1 2075   2.057   4.354   0.241
  392SOL    HW2 2076   2.056   4.200   0.185
  393SOL     OW 2077   6.685   4.803   5.462
  393SOL    HW1 2078   6.628   4.842   5.389
  393SOL    HW2 2079   6.663   4.847   5.549
  394SOL     OW 2080   0.391   0.523   0.222
  394SOL    HW1 2081   0.356   0.611   0.190
  394SOL    HW2 2082   0.320   0.453   0.215
  395SOL     OW 2083   5.231   4.213   2.486
  395SOL    HW1 2084   5.141   4.229   2.447
  395SOL    HW2 2085   5.245   4.114   2.499
  396SOL     OW 2086   4.063   3.776   2.201
  396SOL    HW1 2087   4.134   3.844   2.186
  396SOL    HW2 2088   4.065   3.708   2.128
  397SOL     OW 2089   3.886   2.550   5.779
  397SOL    HW1 2090   3.929   2.608   5.711
  397SOL    HW2 2091   3.805   2.505   5.740
  398SOL     OW 2092   0.482   6.548   2.269
  398SOL    HW1 2093   0.482   6.569   2.171
  398SOL    HW2 2094   0.572   6.568   2.307
  399SOL     OW 2095   4.645   6.106   2.517
  399SOL    HW1 2096   4.724   6.045   2.525
  399SOL    HW2 2097   4.579   6.083   2.589
  400SOL     OW 2098   6.440   0.108   5.219
  400SOL    HW1 2099   6.426   0.145   5.311
  400SOL    HW2 2100   6.521   0.051   5.218
  401SOL     OW 2101   4.484   0.949   6.099
  401SOL    HW1 2102   4.478   0.965   6.198
  401SOL    HW2 2103   4.457   1.032   6.050
  402SOL     OW 2104   6.093   6.579   2.771
  402SOL    HW1 2105   6.062   6.501   2.825
  402SOL    HW2 2106   6.029   6.654   2.781
  403SOL     OW 2107   3.753   2.346   5.312
  403SOL    HW1 2108   3.659   2.346   5.279
  403SOL    HW2 2109   3.796   2.258   5.290
  404SOL     OW 2110   1.655   6.380   3.932
  404SOL    HW1 2111   1.702   6.457   3.888
  404SOL    HW2 2112   1.679   6.295   3.886
  405SOL     OW 2113   1.423   3.481   1.829
  405SOL    HW1 2114   1.499   3.517   1.775
  405SOL    HW2 2115   1.452   3.398   1.876
  406SOL     OW 2116   0.728   3.739   3.565
  406SOL    HW1 2117   0.722   3.640   3.554
  406SOL    HW2 2118   0.642   3.782   3.536
  407SOL     OW 2119   1.744   0.456   4.145
  407SOL    HW1 2120   1.839   0.479   4.166
  407SOL    HW2 2121   1.740   0.366   4.102
  408SOL     OW 2122   1.167   0.949   2.960
  408SOL    HW1 2123   1.257   0.989   2.941
  408SOL    HW2 2124   1.179   0.860   3.002
  409SOL     OW 2125   6.061   3.103   1.721
  409SOL    HW1 2126   6.152   3.118   1.682
  409SOL    HW2 2127   6.067   3.036   1.794
  410SOL     OW 2128   2.253   0.364   6.858
  410SOL    HW1 2129   2.236   0.286   6.797
  410SOL    HW2 2130   2.335   0.413   6.827
  411SOL     OW 2131   5.787   6.960   6.920
  411SOL    HW1 2132   5.782   6.954   6.821
  411SOL    HW2 2133   5.879   6.986   6.947
  412SOL     OW 2134   4.868   6.649   3.721
  412SOL    HW1 2135   4.950   6.616   3.675
  412SOL    HW2 2136   4.835   6.579   3.784
  413SOL     OW 2137   5.464   4.669   1.607
  413SOL    HW1 2138   5.544   4.662   1.548
  413SOL    HW2 2139   5.425   4.578   1.622
  414SOL     OW 2140   3.657   5.344   3.908
  414SOL    HW1 2141   3.587   5.342   3.980
  414SOL    HW2 2142   3.714   5.262   3.915
  415SOL     OW 2143   0.847   5.941   6.908
  415SOL    HW1 2144   0.896   5.984   6.983
  415SOL    HW2 2145   0.910   5.883   6.855
  416SOL     OW 2146   5.151   5.201   4.710
  416SOL    HW1 2147   5.128   5.240   4.799
  416SOL    HW2 2148   5.153   5.101   4.717
  417SOL     OW 2149   2.579   5.720   0.901
  417SOL    HW1 2150   2.603   5.706   0.997
  417SOL    HW2 2151   2.489   5.764   0.895
  418SOL     OW 2152   4.177   6.001   1.632
  418SOL    HW1 2153   4.247   5.932   1.610
  418SOL    HW2 2154   4.130   6.028   1.548
  419SOL     OW 2155   1.614   0.399   1.592
  419SOL    HW1 2156   1.710   0.429   1.594
  419SOL    HW2 2157   1.558   0.467   1.639
  420SOL     OW 2158   6.380   3.060   1.375
  420SOL    HW1 2159   6.364   3.128   1.303
  420SOL    HW2 2160   6.338   2.973   1.349
  421SOL     OW 2161   6.770   4.665   5.854
  421SOL    HW1 2162   6.688   4.623   5.891
  421SOL    HW2 2163   6.748   4.755   5.817
  422SOL     OW 2164   5.890   4.320   0.351
  422SOL    HW1 2165   5.834   4.394   0.315
  422SOL    HW2 2166   5.980   4.322   0.308
  423SOL     OW 2167   0.586   2.776   6.987
  423SOL    HW1 2168   0.581   2.864   6.939
  423SOL    HW2 2169   0.639   2.711   6.932
  424SOL     OW 2170   2.709   3.519   1.349
  424SOL    HW1 2171   2.710   3.579   1.429
  424SOL    HW2 2172   2.657   3.563   1.275
  425SOL     OW 2173   6.269   1.052   2.322
  425SOL    HW1 2174   6.258   1.143   2.282
  425SOL    HW2 2175   6.367   1.028   2.323
  426SOL     OW 2176   4.997   2.440   4.277
  426SOL    HW1 2177   5.034   2.375   4.212
  426SOL    HW2 2178   4.996   2.532   4.237
  427SOL     OW 2179   5.434   4.863   2.525
  427SOL    HW1 2180   5.424   4.822   2.434
  427SOL    HW2 2181   5.500   4.811   2.578
  428SOL     OW 2182   4.587   0.013   4.602
  428SOL    HW1 2183   4.552   0.034   4.693
  428SOL    HW2 2184   4.600   6.938   4.594
  429SOL     OW 2185   2.700   3.938   1.168
  429SOL    HW1 2186   2.761   4.007   1.206
  429SOL    HW2 2187   2.628   3.983   1.116
  430SOL     OW 2188   0.242   0.116   4.336
  430SOL    HW1 2189   0.218   0.082   4.427
  430SOL    HW2 2190   0.314   0.058   4.297
  431SOL     OW 2191   3.557   7.019   0.577
  431SOL    HW1 2192   3.559   6.923   0.549
  431SOL    HW2 2193   3.573   0.002   0.676
  432SOL     OW 2194   6.153   2.069   2.320
  432SOL    HW1 2195   6.096   2.042   2.242
  432SOL    HW2 2196   6.166   2.168   2.318
  433SOL     OW 2197   3.238   6.238   4.689
  433SOL    HW1 2198   3.331   6.262   4.716
  433SOL    HW2 2199   3.176   6.251   4.767
  434SOL     OW 2200   3.832   5.342   2.024
  434SOL    HW1 2201   3.858   5.437   2.039
  434SOL    HW2 2202   3.866   5.311   1.935
  435SOL     OW 2203   3.898   2.162   5.179
  435SOL    HW1 2204   3.965   2.097   5.214
  435SOL    HW2 2205   3.909   2.172   5.080
  436SOL     OW 2206   3.419   5.806   0.846
  436SOL    HW1 2207   3.390   5.716   0.878
  436SOL    HW2 2208   3.519   5.811   0.846
  437SOL     OW 2209   0.911   6.454   6.776
  437SOL    HW1 2210   1.005   6.421   6.787
  437SOL    HW2 2211   0.911   6.554   6.771
  438SOL     OW 2212   1.917   2.922   2.265
  438SOL    HW1 2213   1.946   2.893   2.356
  438SOL    HW2 2214   1.935   2.848   2.199
  439SOL     OW 2215   6.293   4.564   3.299
  439SOL    HW1 2216   6.291   4.495   3.371
  439SOL    HW2 2217   6.239   4.643   3.327
  440SOL     OW 2218   1.394   1.545   5.018
  440SOL    HW1 2219   1.448   1.583   5.093
  440SOL    HW2 2220   1.353   1.619   4.965
  441SOL     OW 2221   0.801   2.296   3.898
  441SOL    HW1 2222   0.850   2.364   3.953
  441SOL    HW2 2223   0.785   2.332   3.807
  442SOL     OW 2224   2.438   5.241   6.855
  442SOL    HW1 2225   2.514   5.185   6.887
  442SOL    HW2 2226   2.361   5.233   6.918
  443SOL     OW 2227   0.742   4.283   4.528
  443SOL    HW1 2228   0.779   4.233   4.606
  443SOL    HW2 2229   0.807   4.353   4.499
  444SOL     OW 2230   5.113   2.315   5.979
  444SOL    HW1 2231   5.016   2.335   5.963
  444SOL    HW2 2232   5.124   2.276   6.070
  445SOL     OW 2233   1.371   5.594   3.286
  445SOL    HW1 2234   1.423   5.653   3.348
  445SOL    HW2 2235   1.423   5.579   3.202
  446SOL     OW 2236   3.718   4.906   4.102
  446SOL    HW1 2237   3.765   4.896   4.190
  446SOL    HW2 2238   3.781   4.940   4.034
  447SOL     OW 2239   0.791   2.660   6.804
  447SOL    HW1 2240   0.886   2.652   6.833
  447SOL    HW2 2241   0.786   2.715   6.720
  448SOL     OW 2242   2.798   1.007   4.329
  448SOL    HW1 2243   2.855   1.057   4.394
  448SOL    HW2 2244   2.772   0.919   4.369
  449SOL     OW 2245   4.228   0.423   4.713
  449SOL    HW1 2246   4.193   0.450   4.623
  449SOL    HW2 2247   4.292   0.347   4.703
  450SOL     OW 2248   1.646   5.692   3.936
  450SOL    HW1 2249   1.648   5.727   4.030
  450SOL    HW2 2250   1.734   5.710   3.892
  451SOL     OW 2251   1.983   2.119   3.565
  451SOL    HW1 2252   1.960   2.058   3.489
  451SOL    HW2 2253   2.076   2.154   3.553
  452SOL     OW 2254   6.378   6.138   1.492
  452SOL    HW1 2255   6.343   6.054   1.532
  452SOL    HW2 2256   6.459   6.118   1.437
  453SOL     OW 2257   3.358   0.825   4.625
  453SOL    HW1 2258   3.453   0.855   4.639
  453SOL    HW2 2259   3.310   0.892   4.567
  454SOL     OW 2260   0.095   4.720   6.379
  454SOL    HW1 2261   0.189   4.753   6.378
  454SOL    HW2 2262   0.079   4.663   6.298
  455SOL     OW 2263   6.538   2.370   3.354
  455SOL    HW1 2264   6.542   2.292   3.416
  455SOL    HW2 2265   6.593   2.445   3.390
  456SOL     OW 2266   5.360   5.791   4.494
  456SOL    HW1 2267   5.439   5.810   4.435
  456SOL    HW2 2268   5.387   5.725   4.565
  457SOL     OW 2269   2.174   3.560   3.785
  457SOL    HW1 2270   2.146   3.532   3.693
  457SOL    HW2 2271   2.216   3.650   3.780
  458SOL     OW 2272   4.231   5.701   3.761
  458SOL    HW1 2273   4.265   5.785   3.718
  458SOL    HW2 2274   4.307   5.652   3.803
  459SOL     OW 2275   2.007   6.611   4.810
  459SOL    HW1 2276   2.061   6.596   4.893
  459SOL    HW2 2277   1.926   6.552   4.812
  460SOL     OW 2278   1.566   0.076   3.758
  460SOL    HW1 2279   1.515   0.160   3.739
  460SOL    HW2 2280   1.552   0.011   3.684
  461SOL     OW 2281   5.974   6.749   5.368
  461SOL    HW1 2282   5.930   6.774   5.282
  461SOL    HW2 2283   5.906   6.749   5.441
  462SOL     OW 2284   3.924   2.682   6.026
  462SOL    HW1 2285   3.887   2.645   5.941
  462SOL    HW2 2286   3.901   2.620   6.101
  463SOL     OW 2287   6.525   5.253   3.365
  463SOL    HW1 2288   6.536   5.163   3.407
  463SOL    HW2 2289   6.468   5.245   3.283
  464SOL     OW 2290   2.636   2.619   5.979
  464SOL    HW1 2291   2.684   2.543   6.022
  464SOL    HW2 2292   2.702   2.692   5.957
  465SOL     OW 2293   1.212   2.509   4.174
  465SOL    HW1 2294   1.186   2.506   4.270
  465SOL    HW2 2295   1.292   2.569   4.162
  466SOL     OW 2296   1.575   5.237   3.027
  466SOL    HW1 2297   1.653   5.245   2.965
  466SOL    HW2 2298   1.494   5.209   2.976
  467SOL     OW 2299   1.088   1.248   0.298
  467SOL    HW1 2300   1.111   1.151   0.290
  467SOL    HW2 2301   1.172   1.302   0.302
  468SOL     OW 2302   3.334   6.356   6.799
  468SOL    HW1 2303   3.364   6.404   6.882
  468SOL    HW2 2304   3.234   6.350   6.799
  469SOL     OW 2305   3.238   4.770   7.018
  469SOL    HW1 2306   3.263   4.866   7.006
  469SOL    HW2 2307   3.156   4.750   6.965
  470SOL     OW 2308   4.507   0.353   2.363
  470SOL    HW1 2309   4.485   0.425   2.429
  470SOL    HW2 2310   4.425   0.297   2.346
  471SOL     OW 2311   1.781   2.297   4.074
  471SOL    HW1 2312   1.829   2.212   4.094
  471SOL    HW2 2313   1.781   2.314   3.976
  472SOL     OW 2314   5.033   4.116   6.495
  472SOL    HW1 2315   5.068   4.199   6.453
  472SOL    HW2 2316   4.991   4.138   6.583
  473SOL     OW 2317   0.847   3.166   2.131
  473SOL    HW1 2318   0.907   3.091   2.102
  473SOL    HW2 2319   0.816   3.150   2.224
  474SOL     OW 2320   5.164   5.268   3.945
  474SOL    HW1 2321   5.073   5.228   3.931
  474SOL    HW2 2322   5.155   5.368   3.948
  475SOL     OW 2323   5.603   0.632   6.638
  475SOL    HW1 2324   5.539   0.557   6.652
  475SOL    HW2 2325   5.593   0.667   6.544
  476SOL     OW 2326   6.624   3.916   2.979
  476SOL    HW1 2327   6.663   3.902   3.071
  476SOL    HW2 2328   6.589   4.009   2.972
  477SOL     OW 2329   1.214   4.652   4.333
  477SOL    HW1 2330   1.239   4.745   4.306
  477SOL    HW2 2331   1.286   4.589   4.306
  478SOL     OW 2332   3.263   6.711   2.002
  478SOL    HW1 2333   3.240   6.698   2.098
  478SOL    HW2 2334   3.206   6.653   1.945
  479SOL     OW 2335   4.205   2.376   6.657
  479SOL    HW1 2336   4.142   2.439   6.702
  479SOL    HW2 2337   4.263   2.427   6.593
  480SOL     OW 2338   2.080   1.327   0.266
  480SOL    HW1 2339   1.994   1.375   0.247
  480SOL    HW2 2340   2.156   1.376   0.224
  481SOL     OW 2341   1.358   0.487   0.677
  481SOL    HW1 2342   1.412   0.557   0.629
  481SOL    HW2 2343   1.291   0.448   0.614
  482SOL     OW 2344   4.869   4.913   3.144
  482SOL    HW1 2345   4.894   4.887   3.051
  482SOL    HW2 2346   4.778   4.876   3.165
  483SOL     OW 2347   6.828   1.564   1.872
  483SOL    HW1 2348   6.794   1.518   1.953
  483SOL    HW2 2349   6.882   1.644   1.899
  484SOL     OW 2350   1.289   3.035   4.742
  484SOL    HW1 2351   1.195   3.030   4.775
  484SOL    HW2 2352   1.291   3.079   4.653
  485SOL     OW 2353   3.835   5.418   2.642
  485SOL    HW1 2354   3.813   5.496   2.584
  485SOL    HW2 2355   3.934   5.414   2.655
  486SOL     OW 2356   6.827   2.004   0.765
  486SOL    HW1 2357   6.766   2.017   0.843
  486SOL    HW2 2358   6.778   2.025   0.680
  487SOL     OW 2359   1.353   2.195   1.502
  487SOL    HW1 2360   1.441   2.242   1.494
  487SOL    HW2 2361   1.294   2.221   1.426
  488SOL     OW 2362   0.711   1.992   1.833
  488SOL    HW1 2363   0.708   1.922   1.905
  488SOL    HW2 2364   0.755   1.953   1.752
  489SOL     OW 2365   3.150   6.281   6.458
  489SOL    HW1 2366   3.220   6.218   6.424
  489SOL    HW2 2367   3.181   6.375   6.447
  490SOL     OW 2368   6.839   5.935   3.177
  490SOL    HW1 2369   6.802   6.016   3.131
  490SOL    HW2 2370   6.859   5.865   3.109
  491SOL     OW 2371   0.383   3.187   2.525
  491SOL    HW1 2372   0.297   3.140   2.543
  491SOL    HW2 2373   0.408   3.243   2.604
  492SOL     OW 2374   2.482   0.233   5.401
  492SOL    HW1 2375   2.422   0.252   5.323
  492SOL    HW2 2376   2.498   0.318   5.451
  493SOL     OW 2377   4.947   6.587   5.727
  493SOL    HW1 2378   4.927   6.681   5.700
  493SOL    HW2 2379   4.886   6.525   5.677
  494SOL     OW 2380   6.835   1.018   6.671
  494SOL    HW1 2381   6.850   0.970   6.757
  494SOL    HW2 2382   6.769   1.092   6.685
  495SOL     OW 2383   4.863   5.973   3.633
  495SOL    HW1 2384   4.894   5.962   3.538
  495SOL    HW2 2385   4.896   6.061   3.668
  496SOL     OW 2386   5.275   3.364   2.007
  496SOL    HW1 2387   5.263   3.402   2.098
  496SOL    HW2 2388   5.281   3.439   1.940
  497SOL     OW 2389   3.541   1.336   4.353
  497SOL    HW1 2390   3.493   1.267   4.299
  497SOL    HW2 2391   3.482   1.417   4.363
  498SOL     OW 2392   2.030   4.167   1.428
  498SOL    HW1 2393   1.960   4.158   1.499
  498SOL    HW2 2394   2.004   4.113   1.348
  499SOL     OW 2395   2.777   0.378   4.330
  499SOL    HW1 2396   2.677   0.373   4.321
  499SOL    HW2 2397   2.811   0.458   4.280
  500SOL     OW 2398   0.712   3.327   3.853
  500SOL    HW1 2399   0.806   3.362   3.845
  500SOL    HW2 2400   0.680   3.296   3.763
  501SOL     OW 2401   2.599   6.533   0.164
  501SOL    HW1 2402   2.577   6.439   0.138
  501SOL    HW2 2403   2.620   6.586   0.082
  502SOL     OW 2404   6.678   4.002   0.155
  502SOL    HW1 2405   6.722   3.932   0.099
  502SOL    HW2 2406   6.658   4.082   0.099
  503SOL     OW 2407   6.171   6.015   6.147
  503SOL    HW1 2408   6.248   5.953   6.163
  503SOL    HW2 2409   6.154   6.069   6.229
  504SOL     OW 2410   1.946   5.429   2.978
  504SOL    HW1 2411   2.026   5.426   2.918
  504SOL    HW2 2412   1.959   5.499   3.048
  505SOL     OW 2413   3.566   6.337   4.724
  505SOL    HW1 2414   3.625   6.355   4.646
  505SOL    HW2 2415   3.562   6.419   4.782
  506SOL     OW 2416   1.696   5.203   5.072
  506SOL    HW1 2417   1.752   5.280   5.100
  506SOL    HW2 2418   1.697   5.196   4.972
  507SOL     OW 2419   3.873   0.239   3.398
  507SOL    HW1 2420   3.915   0.158   3.357
  507SOL    HW2 2421   3.943   0.299   3.436
  508SOL     OW 2422   6.679   3.870   2.202
  508SOL    HW1 2423   6.591   3.855   2.247
  508SOL    HW2 2424   6.676   3.956   2.150
  509SOL     OW 2425   3.587   1.202   1.760
  509SOL    HW1 2426   3.665   1.248   1.803
  509SOL    HW2 2427   3.516   1.186   1.829
  510SOL     OW 2428   6.507   5.080   0.055
  510SOL    HW1 2429   6.513   5.027   6.994
  510SOL    HW2 2430   6.414   5.073   0.092
  511SOL     OW 2431   0.428   1.423   6.100
  511SOL    HW1 2432   0.472   1.504   6.138
  511SOL    HW2 2433   0.394   1.366   6.175
  512SOL     OW 2434   6.941   2.949   6.683
  512SOL    HW1 2435   6.920   3.043   6.709
  512SOL    HW2 2436   6.857   2.896   6.676
  513SOL     OW 2437   6.267   6.035   2.820
  513SOL    HW1 2438   6.179   6.079   2.802
  513SOL    HW2 2439   6.254   5.956   2.880
  514SOL     OW 2440   6.781   2.854   4.207
  514SOL    HW1 2441   6.852   2.797   4.248
  514SOL    HW2 2442   6.692   2.807   4.215
  515SOL     OW 2443   1.833   0.537   6.585
  515SOL    HW1 2444   1.825   0.593   6.502
  515SOL    HW2 2445   1.752   0.548   6.641
  516SOL     OW 2446   2.572   4.531   1.791
  516SOL    HW1 2447   2.535   4.438   1.793
  516SOL    HW2 2448   2.670   4.528   1.809
  517SOL     OW 2449   4.820   5.662   2.388
  517SOL    HW1 2450   4.724   5.659   2.361
  517SOL    HW2 2451   4.828   5.703   2.479
  518SOL     OW 2452   2.050   2.017   2.699
  518SOL    HW1 2453   2.146   2.036   2.678
  518SOL    HW2 2454   1.993   2.091   2.664
  519SOL     OW 2455   0.906   0.642   4.165
  519SOL    HW1 2456   0.832   0.576   4.179
  519SOL    HW2 2457   0.869   0.734   4.171
  520SOL     OW 2458   6.123   4.334   0.206
  520SOL    HW1 2459   6.166   4.392   0.276
  520SOL    HW2 2460   6.173   4.248   0.200
  521SOL     OW 2461   0.151   3.855   6.021
  521SOL    HW1 2462   0.131   3.793   5.944
  521SOL    HW2 2463   0.206   3.807   6.089
  522SOL     OW 2464   3.814   3.470   5.229
  522SOL    HW1 2465   3.840   3.567   5.228
  522SOL    HW2 2466   3.745   3.456   5.300
  523SOL     OW 2467   0.976   4.913   1.424
  523SOL    HW1 2468   0.974   4.901   1.523
  523SOL    HW2 2469   0.897   4.967   1.395
  524SOL     OW 2470   0.820   1.687   0.626
  524SOL    HW1 2471   0.781   1.693   0.718
  524SOL    HW2 2472   0.872   1.601   0.618
  525SOL     OW 2473   1.864   3.682   6.671
  525SOL    HW1 2474   1.939   3.737   6.636
  525SOL    HW2 2475   1.854   3.599   6.616
  526SOL     OW 2476   4.275   6.637   4.284
  526SOL    HW1 2477   4.218   6.677   4.213
  526SOL    HW2 2478   4.363   6.609   4.245
  527SOL     OW 2479   6.646   3.308   6.814
  527SOL    HW1 2480   6.686   3.377   6.754
  527SOL    HW2 2481   6.717   3.243   6.842
  528SOL     OW 2482   0.868   1.349   3.774
  528SOL    HW1 2483   0.925   1.271   3.801
  528SOL    HW2 2484   0.826   1.388   3.856
  529SOL     OW 2485   1.085   6.496   4.193
  529SOL    HW1 2486   1.069   6.419   4.254
  529SOL    HW2 2487   1.175   6.536   4.213
  530SOL     OW 2488   3.021   3.243   4.877
  530SOL    HW1 2489   3.073   3.163   4.845
  530SOL    HW2 2490   2.929   3.240   4.840
  531SOL     OW 2491   0.450   0.327   2.697
  531SOL    HW1 2492   0.454   0.417   2.739
  531SOL    HW2 2493   0.391   0.267   2.751
  532SOL     OW 2494   1.330   2.317   0.240
  532SOL    HW1 2495   1.295   2.367   0.320
  532SOL    HW2 2496   1.430   2.316   0.243
  533SOL     OW 2497   4.585   6.621   3.379
  533SOL    HW1 2498   4.609   6.700   3.435
  533SOL    HW2 2499   4.499   6.582   3.411
  534SOL     OW 2500   5.136   5.359   3.365
  534SOL    HW1 2501   5.094   5.376   3.276
  534SOL    HW2 2502   5.160   5.262   3.373
  535SOL     OW 2503   0.505   3.802   4.574
  535SOL    HW1 2504   0.604   3.802   4.584
  535SOL    HW2 2505   0.481   3.791   4.478
  536SOL     OW 2506   0.081   5.075   1.900
  536SOL    HW1 2507   0.008   5.142   1.909
  536SOL    HW2 2508   0.170   5.119   1.912
  537SOL     OW 2509   2.040   6.390   3.596
  537SOL    HW1 2510   2.138   6.370   3.587
  537SOL    HW2 2511   1.991   6.350   3.519
  538SOL     OW 2512   1.255   3.891   2.597
  538SOL    HW1 2513   1.282   3.954   2.524
  538SOL    HW2 2514   1.155   3.890   2.604
  539SOL     OW 2515   0.820   6.195   0.223
  539SOL    HW1 2516   0.851   6.284   0.189
  539SOL    HW2 2517   0.824   6.195   0.323
  540SOL     OW 2518   0.492   1.321   2.380
  540SOL    HW1 2519   0.448   1.234   2.356
  540SOL    HW2 2520   0.555   1.348   2.307
  541SOL     OW 2521   3.625   6.236   4.045
  541SOL    HW1 2522   3.569   6.282   4.114
  541SOL    HW2 2523   3.631   6.138   4.066
  542SOL     OW 2524   6.519   0.234   0.097
  542SOL    HW1 2525   6.552   0.140   0.104
  542SOL    HW2 2526   6.596   0.296   0.083
  543SOL     OW 2527   1.657   4.787   5.552
  543SOL    HW1 2528   1.635   4.708   5.495
  543SOL    HW2 2529   1.751   4.780   5.585
  544SOL     OW 2530   1.833   4.167   1.204
  544SOL    HW1 2531   1.869   4.187   1.113
  544SOL    HW2 2532   1.784   4.247   1.239
  545SOL     OW 2533   3.164   0.277   3.146
  545SOL    HW1 2534   3.149   0.190   3.193
  545SOL    HW2 2535   3.185   0.349   3.213
  546SOL     OW 2536   1.556   2.878   0.300
  546SOL    HW1 2537   1.565   2.832   0.212
  546SOL    HW2 2538   1.637   2.933   0.318
  547SOL     OW 2539   3.056   1.400   6.991
  547SOL    HW1 2540   3.056   1.302   6.969
  547SOL    HW2 2541   2.964   1.427   7.020
  548SOL     OW 2542   3.688   3.097   2.069
  548SOL    HW1 2543   3.726   3.189   2.067
  548SOL    HW2 2544   3.642   3.082   2.156
  549SOL     OW 2545   4.578   3.299   0.992
  549SOL    HW1 2546   4.542   3.383   0.951
  549SOL    HW2 2547   4.516   3.268   1.064
  550SOL     OW 2548   6.151   4.776   3.391
  550SOL    HW1 2549   6.202   4.818   3.466
  550SOL    HW2 2550   6.058   4.756   3.422
  551SOL     OW 2551   1.013   0.796   1.404
  551SOL    HW1 2552   0.949   0.762   1.335
  551SOL    HW2 2553   0.981   0.769   1.495
  552SOL     OW 2554   4.521   5.019   0.458
  552SOL    HW1 2555   4.597   4.971   0.414
  552SOL    HW2 2556   4.542   5.116   0.466
  553SOL     OW 2557   2.643   6.611   1.849
  553SOL    HW1 2558   2.661   6.709   1.857
  553SOL    HW2 2559   2.607   6.590   1.758
  554SOL     OW 2560   5.971   6.416   5.555
  554SOL    HW1 2561   6.031   6.365   5.492
  554SOL    HW2 2562   5.930   6.353   5.620
  555SOL     OW 2563   2.064   5.060   3.054
  555SOL    HW1 2564   2.063   5.082   3.151
  555SOL    HW2 2565   2.112   4.974   3.040
  556SOL     OW 2566   5.854   2.425   3.910
  556SOL    HW1 2567   5.931   2.489   3.913
  556SOL    HW2 2568   5.778   2.462   3.963
  557SOL     OW 2569   0.296   4.749   0.287
  557SOL    HW1 2570   0.279   4.680   0.217
  557SOL    HW2 2571   0.378   4.801   0.264
  558SOL     OW 2572   3.272   4.067   4.916
  558SOL    HW1 2573   3.294   3.971   4.904
  558SOL    HW2 2574   3.223   4.080   5.002
  559SOL     OW 2575   6.591   6.125   6.493
  559SOL    HW1 2576   6.541   6.101   6.410
  559SOL    HW2 2577   6.610   6.042   6.545
  560SOL     OW 2578   4.166   5.819   0.041
  560SOL    HW1 2579   4.161   5.831   0.140
  560SOL    HW2 2580   4.261   5.825   0.011
  561SOL     OW 2581   6.407   1.057   6.922
  561SOL    HW1 2582   6.405   1.149   6.961
  561SOL    HW2 2583   6.407   1.063   6.822
  562SOL     OW 2584   4.506   0.683   6.247
  562SOL    HW1 2585   4.447   0.617   6.201
  562SOL    HW2 2586   4.518   0.763   6.188
  563SOL     OW 2587   2.241   6.704   3.259
  563SOL    HW1 2588   2.172   6.766   3.297
  563SOL    HW2 2589   2.201   6.613   3.247
  564SOL     OW 2590   2.854   1.855   6.458
  564SOL    HW1 2591   2.785   1.901   6.513
  564SOL    HW2 2592   2.884   1.772   6.504
  565SOL     OW 2593   4.010   3.518   5.784
  565SOL    HW1 2594   3.924   3.514   5.732
  565SOL    HW2 2595   3.996   3.476   5.874
  566SOL     OW 2596   6.319   3.989   4.063
  566SOL    HW1 2597   6.265   4.050   4.122
  566SOL    HW2 2598   6.291   3.894   4.079
  567SOL     OW 2599   3.852   3.971   3.269
  567SOL    HW1 2600   3.848   3.982   3.368
  567SOL    HW2 2601   3.929   3.912   3.245
  568SOL     OW 2602   3.691   2.438   0.239
  568SOL    HW1 2603   3.633   2.383   0.299
  568SOL    HW2 2604   3.702   2.529   0.278
  569SOL     OW 2605   1.529   3.504   0.336
  569SOL    HW1 2606   1.547   3.406   0.327
  569SOL    HW2 2607   1.570   3.553   0.259
  570SOL     OW 2608   2.026   6.678   6.294
  570SOL    HW1 2609   2.084   6.690   6.214
  570SOL    HW2 2610   2.080   6.641   6.369
  571SOL     OW 2611   3.312   6.961   3.152
  571SOL    HW1 2612   3.355   6.966   3.242
  571SOL    HW2 2613   3.224   7.009   3.154
  572SOL     OW 2614   2.256   4.916   5.698
  572SOL    HW1 2615   2.231   4.837   5.754
  572SOL    HW2 2616   2.228   4.901   5.604
  573SOL     OW 2617   4.425   1.242   5.351
  573SOL    HW1 2618   4.364   1.167   5.325
  573SOL    HW2 2619   4.376   1.329   5.346
  574SOL     OW 2620   2.438   2.130   3.696
  574SOL    HW1 2621   2.382   2.205   3.661
  574SOL    HW2 2622   2.427   2.050   3.636
  575SOL     OW 2623   6.639   3.313   6.336
  575SOL    HW1 2624   6.588   3.269   6.263
  575SOL    HW2 2625   6.583   3.386   6.377
  576SOL     OW 2626   1.358   2.467   2.122
  576SOL    HW1 2627   1.408   2.547   2.154
  576SOL    HW2 2628   1.266   2.493   2.095
  577SOL     OW 2629   1.660   0.918   3.111
  577SOL    HW1 2630   1.608   0.935   3.195
  577SOL    HW2 2631   1.757   0.939   3.127
  578SOL     OW 2632   6.568   4.190   3.505
  578SOL    HW1 2633   6.654   4.172   3.552
  578SOL    HW2 2634   6.491   4.164   3.564
  579SOL     OW 2635   2.976   2.498   1.037
  579SOL    HW1 2636   3.009   2.534   1.124
  579SOL    HW2 2637   2.974   2.398   1.041
  580SOL     OW 2638   0.628   4.408   0.033
  580SOL    HW1 2639   0.601   4.429   6.962
  580SOL    HW2 2640   0.672   4.488   0.073
  581SOL     OW 2641   3.307   3.443   2.571
  581SOL    HW1 2642   3.224   3.490   2.601
  581SOL    HW2 2643   3.284   3.351   2.540
  582SOL     OW 2644   5.466   5.122   2.616
  582SOL    HW1 2645   5.444   5.036   2.570
  582SOL    HW2 2646   5.544   5.165   2.571
  583SOL     OW 2647   2.344   5.057   6.399
  583SOL    HW1 2648   2.293   5.101   6.326
  583SOL    HW2 2649   2.384   5.126   6.459
  584SOL     OW 2650   1.140   4.971   5.579
  584SOL    HW1 2651   1.152   4.963   5.678
  584SOL    HW2 2652   1.100   5.060   5.558
  585SOL     OW 2653   6.067   2.974   6.097
  585SOL    HW1 2654   6.051   3.070   6.076
  585SOL    HW2 2655   6.085   2.924   6.012
  586SOL     OW 2656   3.110   0.667   6.408
  586SOL    HW1 2657   3.066   0.616   6.334
  586SOL    HW2 2658   3.099   0.765   6.391
  587SOL     OW 2659   2.721   2.369   5.102
  587SOL    HW1 2660   2.750   2.276   5.081
  587SOL    HW2 2661   2.685   2.412   5.019
  588SOL     OW 2662   2.740   5.413   0.732
  588SOL    HW1 2663   2.790   5.483   0.682
  588SOL    HW2 2664   2.697   5.453   0.813
  589SOL     OW 2665   3.763   5.043   1.793
  589SOL    HW1 2666   3.664   5.036   1.801
  589SOL    HW2 2667   3.787   5.084   1.705
  590SOL     OW 2668   5.762   2.915   1.468
  590SOL    HW1 2669   5.673   2.925   1.424
  590SOL    HW2 2670   5.776   2.989   1.532
  591SOL     OW 2671   4.320   6.298   3.814
  591SOL    HW1 2672   4.260   6.298   3.735
  591SOL    HW2 2673   4.372   6.212   3.817
  592SOL     OW 2674   4.228   0.041   1.210
  592SOL    HW1 2675   4.272   6.978   1.185
  592SOL    HW2 2676   4.281   0.084   1.284
  593SOL     OW 2677   4.447   2.017   3.474
  593SOL    HW1 2678   4.492   2.055   3.555
  593SOL    HW2 2679   4.477   1.922   3.462
  594SOL     OW 2680   4.436   2.353   6.134
  594SOL    HW1 2681   4.451   2.254   6.136
  594SOL    HW2 2682   4.524   2.400   6.143
  595SOL     OW 2683   5.065   6.470   3.638
  595SOL    HW1 2684   5.108   6.416   3.565
  595SOL    HW2 2685   5.134   6.492   3.707
  596SOL     OW 2686   0.696   3.813   1.838
  596SOL    HW1 2687   0.699   3.852   1.930
  596SOL    HW2 2688   0.691   3.713   1.844
  597SOL     OW 2689   4.929   0.101   5.423
  597SOL    HW1 2690   4.993   0.083   5.348
  597SOL    HW2 2691   4.848   0.146   5.387
  598SOL     OW 2692   3.399   4.280   6.927
  598SOL    HW1 2693   3.444   4.251   7.011
  598SOL    HW2 2694   3.447   4.359   6.888
  599SOL     OW 2695   1.318   6.922   3.008
  599SOL    HW1 2696   1.394   6.952   2.951
  599SOL    HW2 2697   1.249   6.994   3.011
  600SOL     OW 2698   1.368   0.965   1.115
  600SOL    HW1 2699   1.426   1.036   1.074
  600SOL    HW2 2700   1.281   1.005   1.144
  601SOL     OW 2701   2.960   6.050   4.257
  601SOL    HW1 2702   2.867   6.017   4.246
  601SOL    HW2 2703   2.986   6.105   4.177
  602SOL     OW 2704   1.128   2.230   0.078
  602SOL    HW1 2705   1.216   2.235   0.126
  602SOL    HW2 2706   1.105   2.134   0.060
  603SOL     OW 2707   4.144   1.956   3.675
  603SOL    HW1 2708   4.204   1.876   3.680
  603SOL    HW2 2709   4.190   2.035   3.717
  604SOL     OW 2710   0.319   3.944   1.166
  604SOL    HW1 2711   0.394   3.914   1.106
  604SOL    HW2 2712   0.254   3.869   1.178
  605SOL     OW 2713   6.554   5.080   2.955
  605SOL    HW1 2714   6.492   5.125   3.019
  605SOL    HW2 2715   6.649   5.096   2.983
  606SOL     OW 2716   5.137   0.339   5.333
  606SOL    HW1 2717   5.118   0.249   5.371
  606SOL    HW2 2718   5.086   0.408   5.383
  607SOL     OW 2719   5.435   0.445   5.390
  607SOL    HW1 2720   5.431   0.446   5.490
  607SOL    HW2 2721   5.378   0.519   5.354
  608SOL     OW 2722   3.936   6.396   0.250
  608SOL    HW1 2723   3.993   6.419   0.172
  608SOL    HW2 2724   3.844   6.433   0.238
  609SOL     OW 2725   3.263   3.614   3.873
  609SOL    HW1 2726   3.267   3.520   3.838
  609SOL    HW2 2727   3.172   3.651   3.858
  610SOL     OW 2728   5.585   2.355   2.971
  610SOL    HW1 2729   5.612   2.424   3.039
  610SOL    HW2 2730   5.494   2.320   2.994
  611SOL     OW 2731   1.132   0.184   6.573
  611SOL    HW1 2732   1.202   0.237   6.621
  611SOL    HW2 2733   1.164   0.090   6.561
  612SOL     OW 2734   3.567   5.410   5.753
  612SOL    HW1 2735   3.572   5.399   5.654
  612SOL    HW2 2736   3.649   5.371   5.795
  613SOL     OW 2737   4.953   6.834   5.378
  613SOL    HW1 2738   4.916   6.877   5.460
  613SOL    HW2 2739   4.880   6.785   5.330
  614SOL     OW 2740   6.186   4.432   0.959
  614SOL    HW1 2741   6.132   4.354   0.990
  614SOL    HW2 2742   6.242   4.405   0.881
  615SOL     OW 2743   0.866   1.900   1.037
  615SOL    HW1 2744   0.959   1.866   1.026
  615SOL    HW2 2745   0.842   1.901   1.134
  616SOL     OW 2746   5.915   1.681   2.722
  616SOL    HW1 2747   5.958   1.701   2.810
  616SOL    HW2 2748   5.868   1.762   2.688
  617SOL     OW 2749   0.263   3.718   6.885
  617SOL    HW1 2750   0.164   3.710   6.898
  617SOL    HW2 2751   0.284   3.702   6.788
  618SOL     OW 2752   6.587   3.037   0.683
  618SOL    HW1 2753   6.654   2.962   0.681
  618SOL    HW2 2754   6.496   3.001   0.703
  619SOL     OW 2755   4.100   0.065   6.532
  619SOL    HW1 2756   4.002   0.064   6.547
  619SOL    HW2 2757   4.140   0.145   6.579
  620SOL     OW 2758   5.893   2.728   0.868
  620SOL    HW1 2759   5.910   2.806   0.928
  620SOL    HW2 2760   5.805   2.687   0.890
  621SOL     OW 2761   1.671   0.070   5.354
  621SOL    HW1 2762   1.573   0.069   5.374
  621SOL    HW2 2763   1.723   0.087   5.438
  622SOL     OW 2764   0.478   1.868   5.233
  622SOL    HW1 2765   0.399   1.926   5.250
  622SOL    HW2 2766   0.479   1.838   5.137
  623SOL     OW 2767   0.777   0.328   4.906
  623SOL    HW1 2768   0.761   0.396   4.979
  623SOL    HW2 2769   0.717   0.250   4.920
  624SOL     OW 2770   6.512   1.296   0.005
  624SOL    HW1 2771   6.523   1.363   6.954
  624SOL    HW2 2772   6.599   1.284   0.052
  625SOL     OW 2773   1.433   1.716   0.992
  625SOL    HW1 2774   1.395   1.808   0.982
  625SOL    HW2 2775   1.533   1.721   0.992
  626SOL     OW 2776   0.977   5.408   2.641
  626SOL    HW1 2777   0.991   5.313   2.667
  626SOL    HW2 2778   1.035   5.430   2.562
  627SOL     OW 2779   6.330   6.599   0.210
  627SOL    HW1 2780   6.381   6.518   0.180
  627SOL    HW2 2781   6.373   6.637   0.291
  628SOL     OW 2782   5.513   3.763   5.240
  628SOL    HW1 2783   5.592   3.705   5.262
  628SOL    HW2 2784   5.491   3.822   5.318
  629SOL     OW 2785   0.559   1.142   6.834
  629SOL    HW1 2786   0.469   1.101   6.821
  629SOL    HW2 2787   0.616   1.123   6.754
  630SOL     OW 2788   0.066   2.293   0.711
  630SOL    HW1 2789   0.095   2.252   0.797
  630SOL    HW2 2790   6.989   2.292   0.706
  631SOL     OW 2791   3.933   1.427   4.652
  631SOL    HW1 2792   3.959   1.492   4.723
  631SOL    HW2 2793   3.861   1.467   4.595
  632SOL     OW 2794   4.074   2.995   0.823
  632SOL    HW1 2795   4.053   2.911   0.873
  632SOL    HW2 2796   4.077   2.976   0.725
  633SOL     OW 2797   3.097   4.437   6.784
  633SOL    HW1 2798   3.054   4.367   6.841
  633SOL    HW2 2799   3.168   4.396   6.728
  634SOL     OW 2800   3.730   3.293   2.960
  634SOL    HW1 2801   3.678   3.368   2.919
  634SOL    HW2 2802   3.767   3.234   2.888
  635SOL     OW 2803   4.447   6.800   0.400
  635SOL    HW1 2804   4.518   6.737   0.368
  635SOL    HW2 2805   4.386   6.753   0.463
  636SOL     OW 2806   2.890   6.980   5.902
  636SOL    HW1 2807   2.914   6.937   5.989
  636SOL    HW2 2808   2.839   6.914   5.846
  637SOL     OW 2809   6.325   2.672   2.076
  637SOL    HW1 2810   6.391   2.597   2.069
  637SOL    HW2 2811   6.242   2.648   2.026
  638SOL     OW 2812   5.583   3.823   3.911
  638SOL    HW1 2813   5.581   3.723   3.908
  638SOL    HW2 2814   5.621   3.854   3.998
  639SOL     OW 2815   5.339   4.415   3.885
  639SOL    HW1 2816   5.240   4.401   3.877
  639SOL    HW2 2817   5.386   4.347   3.828
  640SOL     OW 2818   6.899   4.632   3.601
  640SOL    HW1 2819   6.982   4.581   3.577
  640SOL    HW2 2820   6.911   4.675   3.690
  641SOL     OW 2821   0.586   4.618   4.666
  641SOL    HW1 2822   0.527   4.698   4.666
  641SOL    HW2 2823   0.674   4.641   4.625
  642SOL     OW 2824   1.376   2.641   4.630
  642SOL    HW1 2825   1.379   2.547   4.663
  642SOL    HW2 2826   1.461   2.688   4.656
  643SOL     OW 2827   6.225   0.252   6.283
  643SOL    HW1 2828   6.134   0.228   6.317
  643SOL    HW2 2829   6.247   0.197   6.202
  644SOL     OW 2830   1.972   0.557   4.566
  644SOL    HW1 2831   1.917   0.536   4.648
  644SOL    HW2 2832   1.965   0.655   4.546
  645SOL     OW 2833   3.197   5.302   4.154
  645SOL    HW1 2834   3.146   5.354   4.222
  645SOL    HW2 2835   3.189   5.346   4.064
  646SOL     OW 2836   3.829   0.705   4.572
  646SOL    HW1 2837   3.853   0.704   4.475
  646SOL    HW2 2838   3.902   0.662   4.625
  647SOL     OW 2839   5.646   2.076   4.867
  647SOL    HW1 2840   5.655   2.171   4.840
  647SOL    HW2 2841   5.591   2.070   4.951
  648SOL     OW 2842   6.914   3.587   3.615
  648SOL    HW1 2843   6.855   3.586   3.534
  648SOL    HW2 2844   6.891   3.666   3.673
  649SOL     OW 2845   2.449   4.016   0.680
  649SOL    HW1 2846   2.519   4.065   0.628
  649SOL    HW2 2847   2.493   3.952   0.743
  650SOL     OW 2848   6.642   5.665   0.724
  650SOL    HW1 2849   6.727   5.612   0.713
  650SOL    HW2 2850   6.565   5.611   0.691
  651SOL     OW 2851   1.894   0.493   5.333
  651SOL    HW1 2852   1.829   0.514   5.260
  651SOL    HW2 2853   1.844   0.472   5.417
  652SOL     OW 2854   4.264   6.582   2.185
  652SOL    HW1 2855   4.300   6.675   2.196
  652SOL    HW2 2856   4.301   6.541   2.102
  653SOL     OW 2857   0.504   6.215   0.596
  653SOL    HW1 2858   0.450   6.131   0.592
  653SOL    HW2 2859   0.550   6.221   0.684
  654SOL     OW 2860   6.665   6.576   6.259
  654SOL    HW1 2861   6.694   6.668   6.286
  654SOL    HW2 2862   6.665   6.517   6.340
  655SOL     OW 2863   6.852   5.718   1.658
  655SOL    HW1 2864   6.836   5.629   1.616
  655SOL    HW2 2865   6.768   5.749   1.703
  656SOL     OW 2866   2.060   5.905   0.054
  656SOL    HW1 2867   2.024   5.882   6.986
  656SOL    HW2 2868   2.094   5.999   0.054
  657SOL     OW 2869   3.419   3.685   0.802
  657SOL    HW1 2870   3.412   3.717   0.896
  657SOL    HW2 2871   3.437   3.587   0.801
  658SOL     OW 2872   1.396   4.187   5.604
  658SOL    HW1 2873   1.419   4.108   5.661
  658SOL    HW2 2874   1.360   4.260   5.661
  659SOL     OW 2875   2.434   5.932   4.733
  659SOL    HW1 2876   2.344   5.976   4.728
  659SOL    HW2 2877   2.503   5.991   4.692
  660SOL     OW 2878   4.264   4.666   2.411
  660SOL    HW1 2879   4.237   4.682   2.316
  660SOL    HW2 2880   4.350   4.617   2.414
  661SOL     OW 2881   4.790   4.024   4.438
  661SOL    HW1 2882   4.874   4.052   4.392
  661SOL    HW2 2883   4.712   4.070   4.396
  662SOL     OW 2884   4.413   1.162   5.911
  662SOL    HW1 2885   4.411   1.194   5.816
  662SOL    HW2 2886   4.401   1.240   5.972
  663SOL     OW 2887   0.266   4.578   0.068
  663SOL    HW1 2888   0.281   4.481   0.051
  663SOL    HW2 2889   0.276   4.629   7.006
  664SOL     OW 2890   1.265   5.822   6.626
  664SOL    HW1 2891   1.313   5.908   6.609
  664SOL    HW2 2892   1.211   5.797   6.546
  665SOL     OW 2893   4.164   5.228   0.716
  665SOL    HW1 2894   4.213   5.167   0.778
  665SOL    HW2 2895   4.184   5.323   0.739
  666SOL     OW 2896   4.230   2.551   1.208
  666SOL    HW1 2897   4.245   2.591   1.118
  666SOL    HW2 2898   4.164   2.476   1.201
  667SOL     OW 2899   0.574   4.115   3.794
  667SOL    HW1 2900   0.478   4.102   3.820
  667SOL    HW2 2901   0.633   4.079   3.867
  668SOL     OW 2902   4.778   5.544   0.373
  668SOL    HW1 2903   4.775   5.546   0.273
  668SOL    HW2 2904   4.873   5.543   0.403
  669SOL     OW 2905   2.505   6.113   3.049
  669SOL    HW1 2906   2.459   6.202   3.062
  669SOL    HW2 2907   2.603   6.128   3.034
  670SOL     OW 2908   3.219   3.657   1.981
  670SOL    HW1 2909   3.225   3.559   1.999
  670SOL    HW2 2910   3.211   3.706   2.068
  671SOL     OW 2911   2.388   6.132   6.455
  671SOL    HW1 2912   2.464   6.198   6.458
  671SOL    HW2 2913   2.424   6.039   6.459
  672SOL     OW 2914   0.721   4.072   2.270
  672SOL    HW1 2915   0.722   3.975   2.248
  672SOL    HW2 2916   0.777   4.122   2.204
  673SOL     OW 2917   4.718   0.300   0.916
  673SOL    HW1 2918   4.715   0.216   0.863
  673SOL    HW2 2919   4.626   0.339   0.922
  674SOL     OW 2920   6.958   3.063   4.223
  674SOL    HW1 2921   6.930   3.151   4.185
  674SOL    HW2 2922   6.911   2.989   4.175
  675SOL     OW 2923   0.611   1.466   5.077
  675SOL    HW1 2924   0.611   1.452   4.978
  675SOL    HW2 2925   0.519   1.452   5.114
  676SOL     OW 2926   3.125   5.124   3.469
  676SOL    HW1 2927   3.191   5.050   3.452
  676SOL    HW2 2928   3.084   5.152   3.383
  677SOL     OW 2929   6.020   1.350   6.365
  677SOL    HW1 2930   6.019   1.402   6.451
  677SOL    HW2 2931   6.114   1.323   6.344
  678SOL     OW 2932   2.117   1.319   4.986
  678SOL    HW1 2933   2.187   1.390   4.980
  678SOL    HW2 2934   2.144   1.251   5.054
  679SOL     OW 2935   4.495   0.754   4.638
  679SOL    HW1 2936   4.466   0.799   4.722
  679SOL    HW2 2937   4.501   0.821   4.564
  680SOL     OW 2938   6.021   5.010   5.945
  680SOL    HW1 2939   6.016   4.910   5.945
  680SOL    HW2 2940   6.016   5.043   6.040
  681SOL     OW 2941   5.735   0.245   0.817
  681SOL    HW1 2942   5.712   0.149   0.808
  681SOL    HW2 2943   5.817   0.265   0.763
  682SOL     OW 2944   1.498   6.616   6.684
  682SOL    HW1 2945   1.529   6.521   6.690
  682SOL    HW2 2946   1.569   6.672   6.642
  683SOL     OW 2947   3.000   0.797   5.791
  683SOL    HW1 2948   3.011   0.892   5.821
  683SOL    HW2 2949   2.906   0.783   5.759
  684SOL     OW 2950   6.220   1.579   6.367
  684SOL    HW1 2951   6.125   1.592   6.396
  684SOL    HW2 2952   6.276   1.559   6.448
  685SOL     OW 2953   4.853   6.875   5.650
  685SOL    HW1 2954   4.763   6.835   5.670
  685SOL    HW2 2955   4.853   6.971   5.677
  686SOL     OW 2956   5.694   2.867   3.085
  686SOL    HW1 2957   5.764   2.918   3.036
  686SOL    HW2 2958   5.731   2.837   3.174
  687SOL     OW 2959   6.679   2.875   5.558
  687SOL    HW1 2960   6.666   2.787   5.511
  687SOL    HW2 2961   6.694   2.946   5.490
  688SOL     OW 2962   1.715   4.252   0.288
  688SOL    HW1 2963   1.814   4.267   0.283
  688SOL    HW2 2964   1.671   4.336   0.320
  689SOL     OW 2965   0.888   4.280   5.472
  689SOL    HW1 2966   0.807   4.275   5.531
  689SOL    HW2 2967   0.869   4.232   5.386
  690SOL     OW 2968   0.241   3.631   3.415
  690SOL    HW1 2969   0.263   3.674   3.502
  690SOL    HW2 2970   0.234   3.532   3.426
  691SOL     OW 2971   2.379   1.446   6.782
  691SOL    HW1 2972   2.354   1.418   6.689
  691SOL    HW2 2973   2.307   1.417   6.845
  692SOL     OW 2974   3.205   6.699   3.949
  692SOL    HW1 2975   3.153   6.763   3.892
  692SOL    HW2 2976   3.227   6.743   4.037
  693SOL     OW 2977   6.723   1.332   3.223
  693SOL    HW1 2978   6.804   1.377   3.262
  693SOL    HW2 2979   6.667   1.295   3.297
  694SOL     OW 2980   3.075   5.788   2.269
  694SOL    HW1 2981   3.146   5.748   2.327
  694SOL    HW2 2982   3.059   5.728   2.191
  695SOL     OW 2983   5.017   4.699   5.761
  695SOL    HW1 2984   5.051   4.761   5.691
  695SOL    HW2 2985   5.094   4.653   5.806
  696SOL     OW 2986   3.284   5.192   1.529
  696SOL    HW1 2987   3.375   5.164   1.496
  696SOL    HW2 2988   3.278   5.177   1.627
  697SOL     OW 2989   1.218   2.916   5.755
  697SOL    HW1 2990   1.231   2.819   5.772
  697SOL    HW2 2991   1.174   2.929   5.665
  698SOL     OW 2992   6.195   0.594   5.653
  698SOL    HW1 2993   6.261   0.641   5.595
  698SOL    HW2 2994   6.134   0.661   5.695
  699SOL     OW 2995   0.604   4.241   0.243
  699SOL    HW1 2996   0.621   4.293   0.326
  699SOL    HW2 2997   0.609   4.302   0.163
  700SOL     OW 2998   3.232   1.807   3.736
  700SOL    HW1 2999   3.208   1.744   3.810
  700SOL    HW2 3000   3.255   1.754   3.654
  701SOL     OW 3001   0.518   4.244   6.059
  701SOL    HW1 3002   0.559   4.307   5.993
  701SOL    HW2 3003   0.440   4.198   6.017
  702SOL     OW 3004   5.714   6.143   6.472
  702SOL    HW1 3005   5.701   6.171   6.568
  702SOL    HW2 3006   5.732   6.224   6.416
  703SOL     OW 3007   4.502   3.828   6.419
  703SOL    HW1 3008   4.539   3.863   6.332
  703SOL    HW2 3009   4.534   3.885   6.494
  704SOL     OW 3010   1.859   1.347   6.103
  704SOL    HW1 3011   1.775   1.294   6.118
  704SOL    HW2 3012   1.862   1.423   6.167
  705SOL     OW 3013   5.398   6.960   3.721
  705SOL    HW1 3014   5.473   0.002   3.728
  705SOL    HW2 3015   5.431   6.875   3.681
  706SOL     OW 3016   3.825   2.146   3.172
  706SOL    HW1 3017   3.765   2.223   3.149
  706SOL    HW2 3018   3.797   2.107   3.259
  707SOL     OW 3019   4.540   0.245   2.706
  707SOL    HW1 3020   4.603   0.248   2.784
  707SOL    HW2 3021   4.513   0.338   2.681
  708SOL     OW 3022   4.240   0.300   1.094
  708SOL    HW1 3023   4.220   0.213   1.140
  708SOL    HW2 3024   4.310   0.285   1.024
  709SOL     OW 3025   1.364   5.649   0.425
  709SOL    HW1 3026   1.349   5.615   0.333
  709SOL    HW2 3027   1.340   5.578   0.491
  710SOL     OW 3028   4.108   3.309   2.529
  710SOL    HW1 3029   4.192   3.261   2.553
  710SOL    HW2 3030   4.114   3.404   2.557
  711SOL     OW 3031   1.235   2.168   6.123
  711SOL    HW1 3032   1.143   2.194   6.153
  711SOL    HW2 3033   1.300   2.184   6.198
  712SOL     OW 3034   2.163   4.534   0.602
  712SOL    HW1 3035   2.174   4.448   0.653
  712SOL    HW2 3036   2.200   4.609   0.657
  713SOL     OW 3037   2.884   3.624   0.260
  713SOL    HW1 3038   2.854   3.716   0.234
  713SOL    HW2 3039   2.956   3.631   0.328
  714SOL     OW 3040   6.659   4.804   4.872
  714SOL    HW1 3041   6.689   4.790   4.778
  714SOL    HW2 3042   6.733   4.780   4.935
  715SOL     OW 3043   5.106   6.238   0.566
  715SOL    HW1 3044   5.070   6.329   0.545
  715SOL    HW2 3045   5.034   6.183   0.609
  716SOL     OW 3046   0.764   6.560   0.806
  716SOL    HW1 3047   0.721   6.471   0.817
  716SOL    HW2 3048   0.837   6.553   0.737
  717SOL     OW 3049   5.896   5.380   6.492
  717SOL    HW1 3050   5.951   5.374   6.409
  717SOL    HW2 3051   5.833   5.457   6.485
  718SOL     OW 3052   4.328   2.170   5.875
  718SOL    HW1 3053   4.340   2.229   5.954
  718SOL    HW2 3054   4.353   2.076   5.899
  719SOL     OW 3055   5.827   2.637   1.233
  719SOL    HW1 3056   5.841   2.539   1.251
  719SOL    HW2 3057   5.911   2.676   1.196
  720SOL     OW 3058   3.096   0.938   6.435
  720SOL    HW1 3059   3.170   0.986   6.387
  720SOL    HW2 3060   3.012   0.993   6.431
  721SOL     OW 3061   1.958   6.890   4.614
  721SOL    HW1 3062   1.939   6.983   4.581
  721SOL    HW2 3063   2.053   6.883   4.644
  722SOL     OW 3064   3.242   6.975   5.208
  722SOL    HW1 3065   3.341   6.986   5.192
  722SOL    HW2 3066   3.196   0.039   5.191
  723SOL     OW 3067   2.125   3.210   2.589
  723SOL    HW1 3068   2.153   3.306   2.597
  723SOL    HW2 3069   2.170   3.156   2.661
  724SOL     OW 3070   1.336   1.183   4.390
  724SOL    HW1 3071   1.424   1.136   4.376
  724SOL    HW2 3072   1.283   1.133   4.458
  725SOL     OW 3073   3.035   5.064   1.468
  725SOL    HW1 3074   2.991   5.087   1.555
  725SOL    HW2 3075   3.122   5.113   1.461
  726SOL     OW 3076   4.497   4.435   0.751
  726SOL    HW1 3077   4.506   4.345   0.795
  726SOL    HW2 3078   4.570   4.495   0.783
  727SOL     OW 3079   4.749   5.663   5.237
  727SOL    HW1 3080   4.757   5.698   5.330
  727SOL    HW2 3081   4.678   5.714   5.188
  728SOL     OW 3082   0.690   3.970   5.531
  728SOL    HW1 3083   0.704   3.887   5.586
  728SOL    HW2 3084   0.701   4.050   5.590
  729SOL     OW 3085   2.197   0.718   0.282
  729SOL    HW1 3086   2.204   0.805   0.331
  729SOL    HW2 3087   2.285   0.696   0.241
  730SOL     OW 3088   5.585   0.114   3.732
  730SOL    HW1 3089   5.602   0.134   3.636
  730SOL    HW2 3090   5.524   0.183   3.770
  731SOL     OW 3091   6.034   3.463   6.056
  731SOL    HW1 3092   6.099   3.462   5.981
  731SOL    HW2 3093   6.050   3.544   6.113
  732SOL     OW 3094   0.223   3.590   0.933
  732SOL    HW1 3095   0.227   3.689   0.919
  732SOL    HW2 3096   0.270   3.566   1.018
  733SOL     OW 3097   5.853   4.684   4.966
  733SOL    HW1 3098   5.904   4.617   4.912
  733SOL    HW2 3099   5.771   4.713   4.916
  734SOL     OW 3100   6.461   4.645   2.576
  734SOL    HW1 3101   6.429   4.695   2.495
  734SOL    HW2 3102   6.386   4.635   2.641
  735SOL     OW 3103   3.398   2.801   0.875
  735SOL    HW1 3104   3.308   2.806   0.919
  735SOL    HW2 3105   3.463   2.761   0.939
  736SOL     OW 3106   6.463   5.783   2.580
  736SOL    HW1 3107   6.526   5.847   2.624
  736SOL    HW2 3108   6.505   5.693   2.575
  737SOL     OW 3109   4.492   2.993   0.472
  737SOL    HW1 3110   4.533   2.957   0.556
  737SOL    HW2 3111   4.418   3.056   0.496
  738SOL     OW 3112   2.216   4.590   3.075
  738SOL    HW1 3113   2.239   4.687   3.075
  738SOL    HW2 3114   2.295   4.537   3.046
  739SOL     OW 3115   4.789   6.395   5.586
  739SOL    HW1 3116   4.738   6.309   5.588
  739SOL    HW2 3117   4.828   6.409   5.495
  740SOL     OW 3118   4.989   0.178   0.841
  740SOL    HW1 3119   4.992   0.093   0.894
  740SOL    HW2 3120   4.905   0.228   0.862
  741SOL     OW 3121   2.144   6.216   2.894
  741SOL    HW1 3122   2.075   6.268   2.944
  741SOL    HW2 3123   2.144   6.121   2.924
  742SOL     OW 3124   2.343   6.676   1.537
  742SOL    HW1 3125   2.268   6.674   1.604
  742SOL    HW2 3126   2.311   6.637   1.451
  743SOL     OW 3127   1.536   3.722   4.477
  743SOL    HW1 3128   1.630   3.697   4.453
  743SOL    HW2 3129   1.525   3.821   4.470
  744SOL     OW 3130   6.052   0.069   6.412
  744SOL    HW1 3131   6.141   0.024   6.405
  744SOL    HW2 3132   6.001   0.031   6.489
  745SOL     OW 3133   0.940   5.272   4.364
  745SOL    HW1 3134   1.021   5.299   4.312
  745SOL    HW2 3135   0.927   5.334   4.441
  746SOL     OW 3136   0.854   5.947   5.387
  746SOL    HW1 3137   0.861   5.859   5.341
  746SOL    HW2 3138   0.771   5.994   5.357
  747SOL     OW 3139   4.690   4.668   5.115
  747SOL    HW1 3140   4.683   4.662   5.016
  747SOL    HW2 3141   4.784   4.692   5.141
  748SOL     OW 3142   3.733   5.608   2.861
  748SOL    HW1 3143   3.735   5.614   2.961
  748SOL    HW2 3144   3.807   5.664   2.823
  749SOL     OW 3145   6.633   3.555   4.922
  749SOL    HW1 3146   6.640   3.547   4.823
  749SOL    HW2 3147   6.643   3.651   4.949
  750SOL     OW 3148   1.868   3.438   0.540
  750SOL    HW1 3149   1.958   3.407   0.571
  750SOL    HW2 3150   1.867   3.445   0.440
  751SOL     OW 3151   3.920   1.911   6.562
  751SOL    HW1 3152   3.941   2.009   6.561
  751SOL    HW2 3153   3.833   1.896   6.514
  752SOL     OW 3154   4.216   2.416   1.849
  752SOL    HW1 3155   4.159   2.334   1.856
  752SOL    HW2 3156   4.186   2.471   1.771
  753SOL     OW 3157   2.106   2.876   4.220
  753SOL    HW1 3158   2.128   2.964   4.261
  753SOL    HW2 3159   2.047   2.824   4.282
  754SOL     OW 3160   5.702   3.171   6.608
  754SOL    HW1 3161   5.759   3.145   6.529
  754SOL    HW2 3162   5.756   3.228   6.670
  755SOL     OW 3163   1.524   5.678   6.458
  755SOL    HW1 3164   1.433   5.718   6.442
  755SOL    HW2 3165   1.589   5.714   6.392
  756SOL     OW 3166   4.208   6.779   1.584
  756SOL    HW1 3167   4.172   6.702   1.637
  756SOL    HW2 3168   4.207   6.862   1.640
  757SOL     OW 3169   0.682   6.351   2.916
  757SOL    HW1 3170   0.656   6.353   3.012
  757SOL    HW2 3171   0.663   6.261   2.878
  758SOL     OW 3172   4.011   0.976   1.730
  758SOL    HW1 3173   4.015   1.046   1.659
  758SOL    HW2 3174   3.938   0.911   1.709
  759SOL     OW 3175   0.346   0.914   0.533
  759SOL    HW1 3176   0.372   1.003   0.570
  759SOL    HW2 3177   0.273   0.875   0.589
  760SOL     OW 3178   4.692   1.008   6.401
  760SOL    HW1 3179   4.734   1.023   6.491
  760SOL    HW2 3180   4.594   1.027   6.406
  761SOL     OW 3181   5.810   3.968   5.623
  761SOL    HW1 3182   5.813   3.946   5.526
  761SOL    HW2 3183   5.714   3.972   5.653
  762SOL     OW 3184   2.391   6.692   4.230
  762SOL    HW1 3185   2.421   6.633   4.305
  762SOL    HW2 3186   2.450   6.676   4.150
  763SOL     OW 3187   4.162   4.944   6.412
  763SOL    HW1 3188   4.201   4.906   6.495
  763SOL    HW2 3189   4.195   4.892   6.333
  764SOL     OW 3190   4.492   0.632   3.893
  764SOL    HW1 3191   4.470   0.573   3.816
  764SOL    HW2 3192   4.515   0.723   3.860
  765SOL     OW 3193   1.462   6.802   1.066
  765SOL    HW1 3194   1.552   6.839   1.089
  765SOL    HW2 3195   1.467   6.752   0.979
  766SOL     OW 3196   0.760   2.457   0.827
  766SOL    HW1 3197   0.684   2.512   0.791
  766SOL    HW2 3198   0.730   2.408   0.909
  767SOL     OW 3199   6.867   5.907   2.452
  767SOL    HW1 3200   6.789   5.969   2.455
  767SOL    HW2 3201   6.940   5.947   2.396
  768SOL     OW 3202   2.962   6.763   2.205
  768SOL    HW1 3203   2.961   6.692   2.135
  768SOL    HW2 3204   2.944   6.722   2.294
  769SOL     OW 3205   3.092   0.682   4.136
  769SOL    HW1 3206   3.004   0.657   4.175
  769SOL    HW2 3207   3.164   0.625   4.174
  770SOL     OW 3208   1.345   4.625   3.017
  770SOL    HW1 3209   1.422   4.561   3.009
  770SOL    HW2 3210   1.325   4.664   2.927
  771SOL     OW 3211   2.137   5.402   2.527
  771SOL    HW1 3212   2.060   5.442   2.477
  771SOL    HW2 3213   2.218   5.458   2.515
  772SOL     OW 3214   0.026   5.325   0.915
  772SOL    HW1 3215   0.118   5.317   0.954
  772SOL    HW2 3216   6.984   5.274   0.972
  773SOL     OW 3217   0.144   3.997   3.524
  773SOL    HW1 3218   0.091   4.080   3.540
  773SOL    HW2 3219   0.113   3.954   3.439
  774SOL     OW 3220   1.248   1.343   2.472
  774SOL    HW1 3221   1.272   1.401   2.394
  774SOL    HW2 3222   1.250   1.398   2.556
  775SOL     OW 3223   0.564   2.048   3.263
  775SOL    HW1 3224   0.506   2.078   3.187
  775SOL    HW2 3225   0.636   2.115   3.279
  776SOL     OW 3226   6.762   0.995   5.434
  776SOL    HW1 3227   6.716   1.028   5.352
  776SOL    HW2 3228   6.703   1.011   5.514
  777SOL     OW 3229   3.261   6.189   1.119
  777SOL    HW1 3230   3.340   6.248   1.137
  777SOL    HW2 3231   3.288   6.117   1.055
  778SOL     OW 3232   3.539   1.083   3.033
  778SOL    HW1 3233   3.512   1.179   3.022
  778SOL    HW2 3234   3.509   1.051   3.123
  779SOL     OW 3235   0.710   1.937   2.677
  779SOL    HW1 3236   0.795   1.974   2.639
  779SOL    HW2 3237   0.708   1.955   2.776
  780SOL     OW 3238   6.713   3.970   4.254
  780SOL    HW1 3239   6.794   3.943   4.305
  780SOL    HW2 3240   6.632   3.959   4.311
  781SOL     OW 3241   5.269   1.951   6.438
  781SOL    HW1 3242   5.175   1.934   6.410
  781SOL    HW2 3243   5.298   1.882   6.504
  782SOL     OW 3244   0.642   3.735   0.129
  782SOL    HW1 3245   0.678   3.812   0.076
  782SOL    HW2 3246   0.605   3.667   0.066
  783SOL     OW 3247   3.846   4.829   0.727
  783SOL    HW1 3248   3.940   4.839   0.696
  783SOL    HW2 3249   3.835   4.742   0.775
  784SOL     OW 3250   4.879   6.888   6.430
  784SOL    HW1 3251   4.820   6.959   6.392
  784SOL    HW2 3252   4.918   6.919   6.517
  785SOL     OW 3253   6.790   2.254   3.568
  785SOL    HW1 3254   6.763   2.347   3.541
  785SOL    HW2 3255   6.734   2.188   3.517
  786SOL     OW 3256   1.812   1.567   1.209
  786SOL    HW1 3257   1.859   1.542   1.124
  786SOL    HW2 3258   1.780   1.661   1.203
  787SOL     OW 3259   3.190   1.665   6.400
  787SOL    HW1 3260   3.226   1.587   6.351
  787SOL    HW2 3261   3.264   1.712   6.449
  788SOL     OW 3262   2.413   2.234   4.933
  788SOL    HW1 3263   2.340   2.217   4.866
  788SOL    HW2 3264   2.378   2.217   5.025
  789SOL     OW 3265   5.311   3.789   0.726
  789SOL    HW1 3266   5.342   3.881   0.751
  789SOL    HW2 3267   5.233   3.796   0.665
  790SOL     OW 3268   2.710   1.234   3.894
  790SOL    HW1 3269   2.713   1.161   3.963
  790SOL    HW2 3270   2.701   1.322   3.940
  791SOL     OW 3271   3.647   6.792   3.264
  791SOL    HW1 3272   3.729   6.823   3.313
  791SOL    HW2 3273   3.663   6.799   3.165
  792SOL     OW 3274   0.315   0.372   1.868
  792SOL    HW1 3275   0.282   0.436   1.936
  792SOL    HW2 3276   0.251   0.367   1.791
  793SOL     OW 3277   4.492   6.316   2.395
  793SOL    HW1 3278   4.452   6.288   2.308
  793SOL    HW2 3279   4.543   6.240   2.434
  794SOL     OW 3280   3.165   3.429   5.044
  794SOL    HW1 3281   3.143   3.421   5.141
  794SOL    HW2 3282   3.131   3.348   4.996
  795SOL     OW 3283   3.502   5.632   4.838
  795SOL    HW1 3284   3.480   5.721   4.799
  795SOL    HW2 3285   3.593   5.635   4.880
  796SOL     OW 3286   1.265   2.396   6.415
  796SOL    HW1 3287   1.333   2.419   6.346
  796SOL    HW2 3288   1.303   2.329   6.479
  797SOL     OW 3289   4.845   2.203   2.395
  797SOL    HW1 3290   4.913   2.216   2.467
  797SOL    HW2 3291   4.763   2.256   2.417
  798SOL     OW 3292   5.382   6.823   1.165
  798SOL    HW1 3293   5.425   6.910   1.191
  798SOL    HW2 3294   5.303   6.842   1.107
  799SOL     OW 3295   6.038   1.468   4.466
  799SOL    HW1 3296   6.076   1.377   4.487
  799SOL    HW2 3297   6.069   1.497   4.376
  800SOL     OW 3298   5.556   1.334   2.499
  800SOL    HW1 3299   5.535   1.383   2.583
  800SOL    HW2 3300   5.499   1.368   2.424
  801SOL     OW 3301   1.829   3.040   3.396
  801SOL    HW1 3302   1.766   3.029   3.473
  801SOL    HW2 3303   1.795   3.112   3.335
  802SOL     OW 3304   4.221   0.003   0.382
  802SOL    HW1 3305   4.186   0.034   0.470
  802SOL    HW2 3306   4.320   7.013   0.387
  803SOL     OW 3307   0.567   5.302   4.855
  803SOL    HW1 3308   0.481   5.351   4.870
  803SOL    HW2 3309   0.552   5.227   4.791
  804SOL     OW 3310   6.030   6.192   6.878
  804SOL    HW1 3311   6.117   6.190   6.830
  804SOL    HW2 3312   6.012   6.103   6.918
  805SOL     OW 3313   3.250   1.998   5.460
  805SOL    HW1 3314   3.175   2.056   5.491
  805SOL    HW2 3315   3.221   1.902   5.462
  806SOL     OW 3316   4.459   0.982   4.480
  806SOL    HW1 3317   4.431   1.050   4.548
  806SOL    HW2 3318   4.496   1.029   4.399
  807SOL     OW 3319   0.621   1.882   3.847
  807SOL    HW1 3320   0.701   1.929   3.884
  807SOL    HW2 3321   0.545   1.947   3.840
  808SOL     OW 3322   4.636   3.859   6.189
  808SOL    HW1 3323   4.667   3.764   6.191
  808SOL    HW2 3324   4.715   3.920   6.191
  809SOL     OW 3325   0.473   4.734   1.631
  809SOL    HW1 3326   0.546   4.728   1.563
  809SOL    HW2 3327   0.510   4.713   1.722
  810SOL     OW 3328   3.819   2.466   1.253
  810SOL    HW1 3329   3.900   2.427   1.211
  810SOL    HW2 3330   3.741   2.456   1.191
  811SOL     OW 3331   4.118   5.732   4.236
  811SOL    HW1 3332   4.179   5.756   4.312
  811SOL    HW2 3333   4.023   5.749   4.262
  812SOL     OW 3334   0.677   1.474   2.250
  812SOL    HW1 3335   0.656   1.558   2.300
  812SOL    HW2 3336   0.756   1.429   2.292
  813SOL     OW 3337   3.846   4.928   4.684
  813SOL    HW1 3338   3.750   4.954   4.672
  813SOL    HW2 3339   3.904   5.008   4.675
  814SOL     OW 3340   5.213   6.121   3.477
  814SOL    HW1 3341   5.184   6.149   3.569
  814SOL    HW2 3342   5.190   6.025   3.462
  815SOL     OW 3343   0.007   3.063   3.105
  815SOL    HW1 3344   0.086   3.016   3.064
  815SOL    HW2 3345   6.961   3.077   3.035
  816SOL     OW 3346   6.457   6.724   0.403
  816SOL    HW1 3347   6.493   6.797   0.460
  816SOL    HW2 3348   6.474   6.636   0.447
  817SOL     OW 3349   2.276   4.001   2.002
  817SOL    HW1 3350   2.235   4.072   1.944
  817SOL    HW2 3351   2.310   3.927   1.944
  818SOL     OW 3352   6.266   3.452   1.496
  818SOL    HW1 3353   6.234   3.397   1.573
  818SOL    HW2 3354   6.357   3.420   1.469
  819SOL     OW 3355   5.494   3.459   3.537
  819SOL    HW1 3356   5.583   3.437   3.576
  819SOL    HW2 3357   5.502   3.470   3.438
  820SOL     OW 3358   1.852   2.539   6.646
  820SOL    HW1 3359   1.871   2.544   6.744
  820SOL    HW2 3360   1.765   2.585   6.627
  821SOL     OW 3361   2.190   4.738   0.806
  821SOL    HW1 3362   2.092   4.757   0.807
  821SOL    HW2 3363   2.224   4.732   0.899
  822SOL     OW 3364   0.786   4.807   4.458
  822SOL    HW1 3365   0.716   4.808   4.386
  822SOL    HW2 3366   0.871   4.769   4.421
  823SOL     OW 3367   4.948   4.151   6.871
  823SOL    HW1 3368   4.935   4.060   6.832
  823SOL    HW2 3369   4.867   4.206   6.852
  824SOL     OW 3370   5.050   0.749   5.107
  824SOL    HW1 3371   5.124   0.682   5.099
  824SOL    HW2 3372   5.088   0.842   5.101
  825SOL     OW 3373   1.382   4.115   1.716
  825SOL    HW1 3374   1.313   4.160   1.660
  825SOL    HW2 3375   1.385   4.018   1.694
  826SOL     OW 3376   5.766   3.375   0.261
  826SOL    HW1 3377   5.861   3.364   0.229
  826SOL    HW2 3378   5.724   3.285   0.270
  827SOL     OW 3379   3.340   5.716   6.142
  827SOL    HW1 3380   3.280   5.792   6.168
  827SOL    HW2 3381   3.387   5.738   6.057
  828SOL     OW 3382   6.054   0.085   5.613
  828SOL    HW1 3383   6.046   0.181   5.641
  828SOL    HW2 3384   6.106   0.079   5.528
  829SOL     OW 3385   3.001   3.792   3.812
  829SOL    HW1 3386   2.979   3.809   3.908
  829SOL    HW2 3387   2.962   3.704   3.784
  830SOL     OW 3388   5.137   4.997   6.674
  830SOL    HW1 3389   5.213   5.024   6.734
  830SOL    HW2 3390   5.092   4.916   6.712
  831SOL     OW 3391   6.659   0.596   5.274
  831SOL    HW1 3392   6.562   0.613   5.295
  831SOL    HW2 3393   6.691   0.517   5.326
  832SOL     OW 3394   2.094   1.035   0.740
  832SOL    HW1 3395   2.088   1.072   0.647
  832SOL    HW2 3396   2.017   0.974   0.757
  833SOL     OW 3397   0.361   4.895   6.116
  833SOL    HW1 3398   0.435   4.865   6.056
  833SOL    HW2 3399   0.281   4.836   6.102
  834SOL     OW 3400   3.092   3.478   1.245
  834SOL    HW1 3401   3.051   3.567   1.267
  834SOL    HW2 3402   3.091   3.420   1.326
  835SOL     OW 3403   3.522   6.774   4.211
  835SOL    HW1 3404   3.581   6.793   4.132
  835SOL    HW2 3405   3.520   6.853   4.271
  836SOL     OW 3406   3.537   6.679   6.767
  836SOL    HW1 3407   3.575   6.640   6.851
  836SOL    HW2 3408   3.534   6.608   6.696
  837SOL     OW 3409   5.146   6.622   0.026
  837SOL    HW1 3410   5.092   6.582   6.975
  837SOL    HW2 3411   5.206   6.693   7.012
  838SOL     OW 3412   1.157   0.617   4.988
  838SOL    HW1 3413   1.222   0.653   5.054
  838SOL    HW2 3414   1.203   0.554   4.926
  839SOL     OW 3415   2.517   2.558   2.111
  839SOL    HW1 3416   2.451   2.550   2.035
  839SOL    HW2 3417   2.609   2.538   2.077
  840SOL     OW 3418   6.057   0.262   6.000
  840SOL    HW1 3419   5.991   0.194   6.029
  840SOL    HW2 3420   6.122   0.221   5.936
  841SOL     OW 3421   5.989   4.675   0.351
  841SOL    HW1 3422   5.987   4.774   0.338
  841SOL    HW2 3423   5.926   4.631   0.286
  842SOL     OW 3424   4.543   4.882   4.328
  842SOL    HW1 3425   4.482   4.811   4.363
  842SOL    HW2 3426   4.604   4.914   4.401
  843SOL     OW 3427   4.247   2.107   6.706
  843SOL    HW1 3428   4.240   2.206   6.694
  843SOL    HW2 3429   4.342   2.078   6.691
  844SOL     OW 3430   4.378   6.866   1.111
  844SOL    HW1 3431   4.380   6.789   1.047
  844SOL    HW2 3432   4.469   6.906   1.118
  845SOL     OW 3433   6.171   3.765   4.498
  845SOL    HW1 3434   6.231   3.689   4.525
  845SOL    HW2 3435   6.187   3.843   4.559
  846SOL     OW 3436   4.695   2.017   6.777
  846SOL    HW1 3437   4.613   1.960   6.784
  846SOL    HW2 3438   4.766   1.967   6.728
  847SOL     OW 3439   6.908   3.412   7.021
  847SOL    HW1 3440   6.935   3.320   0.024
  847SOL    HW2 3441   6.855   3.454   0.071
  848SOL     OW 3442   6.570   1.853   6.444
  848SOL    HW1 3443   6.545   1.948   6.462
  848SOL    HW2 3444   6.648   1.851   6.382
  849SOL     OW 3445   1.141   4.751   5.982
  849SOL    HW1 3446   1.064   4.700   5.943
  849SOL    HW2 3447   1.185   4.806   5.911
  850SOL     OW 3448   5.358   0.957   3.434
  850SOL    HW1 3449   5.261   0.981   3.444
  850SOL    HW2 3450   5.413   1.041   3.438
  851SOL     OW 3451   0.309   1.806   1.869
  851SOL    HW1 3452   0.343   1.857   1.790
  851SOL    HW2 3453   0.348   1.714   1.869
  852SOL     OW 3454   2.807   2.587   0.169
  852SOL    HW1 3455   2.805   2.524   0.091
  852SOL    HW2 3456   2.758   2.671   0.146
  853SOL     OW 3457   1.107   4.012   1.970
  853SOL    HW1 3458   1.200   3.995   2.003
  853SOL    HW2 3459   1.068   3.928   1.934
  854SOL     OW 3460   4.763   5.816   2.145
  854SOL    HW1 3461   4.832   5.784   2.209
  854SOL    HW2 3462   4.807   5.852   2.063
  855SOL     OW 3463   6.548   0.233   1.226
  855SOL    HW1 3464   6.451   0.239   1.204
  855SOL    HW2 3465   6.563   0.162   1.295
  856SOL     OW 3466   1.960   1.600   4.681
  856SOL    HW1 3467   1.911   1.589   4.595
  856SOL    HW2 3468   1.945   1.692   4.718
  857SOL     OW 3469   6.138   5.270   1.212
  857SOL    HW1 3470   6.210   5.270   1.142
  857SOL    HW2 3471   6.131   5.361   1.253
  858SOL     OW 3472   2.062   4.445   1.454
  858SOL    HW1 3473   2.052   4.350   1.423
  858SOL    HW2 3474   1.992   4.502   1.411
  859SOL     OW 3475   5.143   5.321   6.847
  859SOL    HW1 3476   5.210   5.251   6.872
  859SOL    HW2 3477   5.179   5.412   6.869
  860SOL     OW 3478   4.473   4.210   0.897
  860SOL    HW1 3479   4.546   4.258   0.946
  860SOL    HW2 3480   4.498   4.113   0.888
  861SOL     OW 3481   2.281   0.445   4.689
  861SOL    HW1 3482   2.302   0.514   4.758
  861SOL    HW2 3483   2.268   0.356   4.733
  862SOL     OW 3484   6.649   4.552   5.522
  862SOL    HW1 3485   6.611   4.502   5.444
  862SOL    HW2 3486   6.661   4.649   5.497
  863SOL     OW 3487   1.129   0.465   0.445
  863SOL    HW1 3488   1.033   0.440   0.442
  863SOL    HW2 3489   1.169   0.455   0.354
  864SOL     OW 3490   4.919   4.632   3.468
  864SOL    HW1 3491   4.886   4.667   3.380
  864SOL    HW2 3492   5.017   4.650   3.476
  865SOL     OW 3493   1.586   6.318   5.455
  865SOL    HW1 3494   1.596   6.417   5.448
  865SOL    HW2 3495   1.555   6.281   5.367
  866SOL     OW 3496   1.914   2.943   1.308
  866SOL    HW1 3497   1.872   3.033   1.294
  866SOL    HW2 3498   1.958   2.914   1.223
  867SOL     OW 3499   3.884   2.795   1.026
  867SOL    HW1 3500   3.841   2.860   0.963
  867SOL    HW2 3501   3.873   2.702   0.991
  868SOL     OW 3502   6.213   6.625   1.347
  868SOL    HW1 3503   6.223   6.609   1.249
  868SOL    HW2 3504   6.204   6.538   1.395
  869SOL     OW 3505   6.551   5.066   2.569
  869SOL    HW1 3506   6.531   5.139   2.503
  869SOL    HW2 3507   6.584   5.107   2.654
  870SOL     OW 3508   5.957   3.611   0.396
  870SOL    HW1 3509   6.025   3.564   0.452
  870SOL    HW2 3510   5.907   3.544   0.341
  871SOL     OW 3511   6.722   3.445   2.103
  871SOL    HW1 3512   6.791   3.380   2.133
  871SOL    HW2 3513   6.749   3.483   2.014
  872SOL     OW 3514   6.515   4.281   3.862
  872SOL    HW1 3515   6.497   4.208   3.927
  872SOL    HW2 3516   6.474   4.366   3.894
  873SOL     OW 3517   4.543   6.987   3.734
  873SOL    HW1 3518   4.471   0.033   3.739
  873SOL    HW2 3519   4.597   6.988   3.818
  874SOL     OW 3520   1.792   4.237   5.383
  874SOL    HW1 3521   1.707   4.289   5.374
  874SOL    HW2 3522   1.795   4.192   5.472
  875SOL     OW 3523   4.917   3.577   1.111
  875SOL    HW1 3524   4.937   3.544   1.019
  875SOL    HW2 3525   4.821   3.559   1.133
  876SOL     OW 3526   0.186   5.311   3.486
  876SOL    HW1 3527   0.125   5.235   3.462
  876SOL    HW2 3528   0.173   5.385   3.420
  877SOL     OW 3529   3.986   4.410   6.776
  877SOL    HW1 3530   3.943   4.486   6.727
  877SOL    HW2 3531   3.954   4.323   6.738
  878SOL     OW 3532   3.986   5.704   6.503
  878SOL    HW1 3533   4.045   5.765   6.556
  878SOL    HW2 3534   4.039   5.661   6.430
  879SOL     OW 3535   3.719   2.108   2.257
  879SOL    HW1 3536   3.747   2.163   2.178
  879SOL    HW2 3537   3.620   2.096   2.257
  880SOL     OW 3538   2.934   4.954   6.929
  880SOL    HW1 3539   2.870   4.939   7.005
  880SOL    HW2 3540   2.998   4.878   6.923
  881SOL     OW 3541   4.073   4.540   5.301
  881SOL    HW1 3542   4.144   4.483   5.260
  881SOL    HW2 3543   4.004   4.482   5.345
  882SOL     OW 3544   2.081   0.980   3.813
  882SOL    HW1 3545   2.078   1.080   3.807
  882SOL    HW2 3546   2.172   0.948   3.787
  883SOL     OW 3547   4.853   5.382   5.374
  883SOL    HW1 3548   4.804   5.440   5.309
  883SOL    HW2 3549   4.948   5.412   5.381
  884SOL     OW 3550   6.705   3.713   1.972
  884SOL    HW1 3551   6.695   3.748   2.065
  884SOL    HW2 3552   6.742   3.785   1.913
  885SOL     OW 3553   5.311   5.940   6.824
  885SOL    HW1 3554   5.273   5.884   6.750
  885SOL    HW2 3555   5.359   6.018   6.785
  886SOL     OW 3556   4.099   0.600   0.333
  886SOL    HW1 3557   4.192   0.635   0.329
  886SOL    HW2 3558   4.077   0.572   0.426
  887SOL     OW 3559   4.413   6.298   5.375
  887SOL    HW1 3560   4.499   6.265   5.336
  887SOL    HW2 3561   4.357   6.338   5.302
  888SOL     OW 3562   6.776   6.408   3.220
  888SOL    HW1 3563   6.818   6.325   3.257
  888SOL    HW2 3564   6.681   6.388   3.193
  889SOL     OW 3565   0.213   6.582   5.803
  889SOL    HW1 3566   0.189   6.506   5.863
  889SOL    HW2 3567   0.150   6.658   5.817
  890SOL     OW 3568   2.679   4.742   2.015
  890SOL    HW1 3569   2.729   4.668   1.971
  890SOL    HW2 3570   2.736   4.824   2.016
  891SOL     OW 3571   5.576   3.753   1.073
  891SOL    HW1 3572   5.634   3.674   1.095
  891SOL    HW2 3573   5.480   3.725   1.073
  892SOL     OW 3574   4.078   3.785   0.352
  892SOL    HW1 3575   3.990   3.782   0.398
  892SOL    HW2 3576   4.123   3.696   0.359
  893SOL     OW 3577   2.187   0.819   1.395
  893SOL    HW1 3578   2.168   0.727   1.429
  893SOL    HW2 3579   2.103   0.872   1.393
  894SOL     OW 3580   2.245   3.979   3.978
  894SOL    HW1 3581   2.206   3.898   4.023
  894SOL    HW2 3582   2.256   4.052   4.046
  895SOL     OW 3583   1.904   6.280   4.936
  895SOL    HW1 3584   1.894   6.183   4.915
  895SOL    HW2 3585   1.822   6.330   4.905
  896SOL     OW 3586   5.093   5.659   3.287
  896SOL    HW1 3587   5.043   5.660   3.200
  896SOL    HW2 3588   5.191   5.654   3.269
  897SOL     OW 3589   4.808   1.260   0.289
  897SOL    HW1 3590   4.778   1.347   0.329
  897SOL    HW2 3591   4.750   1.186   0.322
  898SOL     OW 3592   4.206   6.035   3.575
  898SOL    HW1 3593   4.299   6.066   3.593
  898SOL    HW2 3594   4.141   6.101   3.613
  899SOL     OW 3595   0.503   5.384   0.172
  899SOL    HW1 3596   0.417   5.427   0.197
  899SOL    HW2 3597   0.512   5.380   0.073
  900SOL     OW 3598   5.182   5.847   1.510
  900SOL    HW1 3599   5.182   5.829   1.412
  900SOL    HW2 3600   5.275   5.870   1.540
  901SOL     OW 3601   6.808   1.303   5.159
  901SOL    HW1 3602   6.713   1.274   5.167
  901SOL    HW2 3603   6.867   1.223   5.154
  902SOL     OW 3604   0.276   1.333   6.387
  902SOL    HW1 3605   0.202   1.400   6.396
  902SOL    HW2 3606   0.247   1.260   6.325
  903SOL     OW 3607   6.643   4.681   6.975
  903SOL    HW1 3608   6.563   4.620   6.972
  903SOL    HW2 3609   6.713   4.647   6.912
  904SOL     OW 3610   1.555   2.040   4.126
  904SOL    HW1 3611   1.544   2.109   4.054
  904SOL    HW2 3612   1.639   2.059   4.177
  905SOL     OW 3613   5.293   2.722   6.778
  905SOL    HW1 3614   5.333   2.787   6.713
  905SOL    HW2 3615   5.207   2.760   6.814
  906SOL     OW 3616   0.400   3.803   6.148
  906SOL    HW1 3617   0.443   3.722   6.186
  906SOL    HW2 3618   0.464   3.880   6.152
  907SOL     OW 3619   5.879   2.629   3.177
  907SOL    HW1 3620   5.893   2.662   3.270
  907SOL    HW2 3621   5.784   2.599   3.166
  908SOL     OW 3622   1.249   6.970   4.159
  908SOL    HW1 3623   1.286   7.020   4.238
  908SOL    HW2 3624   1.316   6.970   4.085
  909SOL     OW 3625   2.502   0.988   0.957
  909SOL    HW1 3626   2.596   0.966   0.932
  909SOL    HW2 3627   2.499   1.028   1.048
  910SOL     OW 3628   2.339   0.870   0.798
  910SOL    HW1 3629   2.259   0.929   0.788
  910SOL    HW2 3630   2.398   0.907   0.870
  911SOL     OW 3631   0.303   5.147   1.170
  911SOL    HW1 3632   0.325   5.213   1.098
  911SOL    HW2 3633   0.342   5.178   1.256
  912SOL     OW 3634   0.118   1.094   5.333
  912SOL    HW1 3635   0.062   1.029   5.385
  912SOL    HW2 3636   0.141   1.172   5.392
  913SOL     OW 3637   2.244   0.434   3.558
  913SOL    HW1 3638   2.190   0.477   3.485
  913SOL    HW2 3639   2.282   0.348   3.524
  914SOL     OW 3640   2.363   5.373   5.449
  914SOL    HW1 3641   2.456   5.392   5.418
  914SOL    HW2 3642   2.366   5.305   5.522
  915SOL     OW 3643   0.550   3.408   1.050
  915SOL    HW1 3644   0.643   3.373   1.047
  915SOL    HW2 3645   0.485   3.335   1.028
  916SOL     OW 3646   1.689   2.120   2.329
  916SOL    HW1 3647   1.647   2.034   2.300
  916SOL    HW2 3648   1.688   2.185   2.253
  917SOL     OW 3649   3.822   1.175   1.421
  917SOL    HW1 3650   3.739   1.131   1.454
  917SOL    HW2 3651   3.891   1.175   1.494
  918SOL     OW 3652   3.022   6.094   0.213
  918SOL    HW1 3653   2.990   6.181   0.251
  918SOL    HW2 3654   2.946   6.030   0.207
  919SOL     OW 3655   1.753   6.604   1.934
  919SOL    HW1 3656   1.787   6.578   2.025
  919SOL    HW2 3657   1.829   6.606   1.870
  920SOL     OW 3658   2.344   0.209   3.452
  920SOL    HW1 3659   2.436   0.209   3.411
  920SOL    HW2 3660   2.306   0.117   3.448
  921SOL     OW 3661   4.766   4.933   3.570
  921SOL    HW1 3662   4.740   5.026   3.546
  921SOL    HW2 3663   4.702   4.868   3.528
  922SOL     OW 3664   3.449   2.912   6.487
  922SOL    HW1 3665   3.544   2.881   6.480
  922SOL    HW2 3666   3.446   3.004   6.526
  923SOL     OW 3667   3.186   5.858   0.668
  923SOL    HW1 3668   3.173   5.810   0.581
  923SOL    HW2 3669   3.271   5.827   0.710
  924SOL     OW 3670   5.235   3.491   2.604
  924SOL    HW1 3671   5.333   3.473   2.607
  924SOL    HW2 3672   5.186   3.406   2.589
  925SOL     OW 3673   6.912   1.900   5.311
  925SOL    HW1 3674   6.839   1.831   5.311
  925SOL    HW2 3675   6.996   1.861   5.273
  926SOL     OW 3676   5.924   1.242   6.829
  926SOL    HW1 3677   5.846   1.204   6.879
  926SOL    HW2 3678   5.957   1.174   6.763
  927SOL     OW 3679   4.858   3.828   4.096
  927SOL    HW1 3680   4.771   3.863   4.128
  927SOL    HW2 3681   4.847   3.790   4.003
  928SOL     OW 3682   1.672   0.546   0.570
  928SOL    HW1 3683   1.617   0.470   0.604
  928SOL    HW2 3684   1.672   0.620   0.637
  929SOL     OW 3685   6.862   2.450   1.595
  929SOL    HW1 3686   6.932   2.440   1.523
  929SOL    HW2 3687   6.870   2.541   1.636
  930SOL     OW 3688   6.620   5.659   4.650
  930SOL    HW1 3689   6.589   5.673   4.744
  930SOL    HW2 3690   6.713   5.696   4.640
  931SOL     OW 3691   0.115   3.846   3.307
  931SOL    HW1 3692   0.071   3.805   3.227
  931SOL    HW2 3693   0.165   3.775   3.357
  932SOL     OW 3694   3.137   6.389   1.547
  932SOL    HW1 3695   3.159   6.455   1.475
  932SOL    HW2 3696   3.130   6.298   1.506
  933SOL     OW 3697   0.657   4.825   2.491
  933SOL    HW1 3698   0.697   4.753   2.548
  933SOL    HW2 3699   0.558   4.814   2.487
  934SOL     OW 3700   2.462   1.316   4.249
  934SOL    HW1 3701   2.550   1.301   4.294
  934SOL    HW2 3702   2.471   1.385   4.178
  935SOL     OW 3703   4.805   3.474   5.615
  935SOL    HW1 3704   4.868   3.529   5.670
  935SOL    HW2 3705   4.712   3.485   5.651
  936SOL     OW 3706   0.444   6.740   0.060
  936SOL    HW1 3707   0.518   6.803   0.040
  936SOL    HW2 3708   0.451   6.711   0.156
  937SOL     OW 3709   4.485   2.062   5.058
  937SOL    HW1 3710   4.560   2.030   4.999
  937SOL    HW2 3711   4.414   2.104   5.001
  938SOL     OW 3712   6.782   4.707   6.199
  938SOL    HW1 3713   6.713   4.716   6.271
  938SOL    HW2 3714   6.860   4.765   6.222
  939SOL     OW 3715   5.043   1.427   5.662
  939SOL    HW1 3716   4.977   1.470   5.723
  939SOL    HW2 3717   5.134   1.466   5.677
  940SOL     OW 3718   6.616   2.116   3.052
  940SOL    HW1 3719   6.658   2.207   3.059
  940SOL    HW2 3720   6.661   2.054   3.115
  941SOL     OW 3721   6.140   0.760   4.187
  941SOL    HW1 3722   6.075   0.811   4.243
  941SOL    HW2 3723   6.227   0.810   4.182
  942SOL     OW 3724   4.953   0.887   4.847
  942SOL    HW1 3725   4.942   0.826   4.925
  942SOL    HW2 3726   4.872   0.883   4.789
  943SOL     OW 3727   0.527   3.243   2.762
  943SOL    HW1 3728   0.552   3.174   2.830
  943SOL    HW2 3729   0.603   3.258   2.699
  944SOL     OW 3730   6.197   3.505   5.856
  944SOL    HW1 3731   6.249   3.452   5.790
  944SOL    HW2 3732   6.112   3.537   5.813
  945SOL     OW 3733   5.836   4.916   5.124
  945SOL    HW1 3734   5.740   4.908   5.153
  945SOL    HW2 3735   5.863   4.832   5.076
  946SOL     OW 3736   5.700   2.463   6.576
  946SOL    HW1 3737   5.674   2.549   6.532
  946SOL    HW2 3738   5.623   2.427   6.629
  947SOL     OW 3739   3.104   3.425   5.310
  947SOL    HW1 3740   3.035   3.391   5.373
  947SOL    HW2 3741   3.109   3.525   5.315
  948SOL     OW 3742   4.251   0.802   1.286
  948SOL    HW1 3743   4.253   0.874   1.356
  948SOL    HW2 3744   4.261   0.713   1.330
  949SOL     OW 3745   6.464   6.399   6.101
  949SOL    HW1 3746   6.494   6.401   6.006
  949SOL    HW2 3747   6.519   6.463   6.155
  950SOL     OW 3748   4.174   5.035   2.575
  950SOL    HW1 3749   4.080   5.003   2.582
  950SOL    HW2 3750   4.207   5.061   2.666
  951SOL     OW 3751   1.913   0.621   2.006
  951SOL    HW1 3752   1.978   0.656   1.938
  951SOL    HW2 3753   1.859   0.547   1.965
  952SOL     OW 3754   5.943   1.722   2.360
  952SOL    HW1 3755   5.991   1.774   2.430
  952SOL    HW2 3756   5.909   1.636   2.398
  953SOL     OW 3757   4.798   5.788   5.480
  953SOL    HW1 3758   4.796   5.776   5.579
  953SOL    HW2 3759   4.886   5.825   5.452
  954SOL     OW 3760   5.519   0.421   0.790
  954SOL    HW1 3761   5.465   0.421   0.874
  954SOL    HW2 3762   5.593   0.354   0.798
  955SOL     OW 3763   1.067   4.960   3.720
  955SOL    HW1 3764   1.086   4.863   3.707
  955SOL    HW2 3765   1.129   5.015   3.664
  956SOL     OW 3766   1.175   1.806   2.096
  956SOL    HW1 3767   1.214   1.723   2.057
  956SOL    HW2 3768   1.079   1.791   2.117
  957SOL     OW 3769   1.350   4.427   5.159
  957SOL    HW1 3770   1.380   4.519   5.136
  957SOL    HW2 3771   1.395   4.398   5.244
  958SOL     OW 3772   4.927   2.059   0.873
  958SOL    HW1 3773   4.885   1.979   0.914
  958SOL    HW2 3774   4.870   2.139   0.890
  959SOL     OW 3775   3.270   5.102   3.125
  959SOL    HW1 3776   3.355   5.088   3.176
  959SOL    HW2 3777   3.209   5.025   3.140
  960SOL     OW 3778   0.507   5.861   3.917
  960SOL    HW1 3779   0.422   5.892   3.959
  960SOL    HW2 3780   0.516   5.762   3.928
  961SOL     OW 3781   4.732   6.185   2.886
  961SOL    HW1 3782   4.764   6.178   2.981
  961SOL    HW2 3783   4.693   6.276   2.871
  962SOL     OW 3784   1.681   1.302   3.666
  962SOL    HW1 3785   1.715   1.225   3.719
  962SOL    HW2 3786   1.683   1.279   3.569
  963SOL     OW 3787   5.951   0.639   0.426
  963SOL    HW1 3788   6.001   0.724   0.413
  963SOL    HW2 3789   5.928   0.599   0.337
  964SOL     OW 3790   6.233   3.327   0.915
  964SOL    HW1 3791   6.278   3.408   0.877
  964SOL    HW2 3792   6.215   3.261   0.842
  965SOL     OW 3793   6.008   1.719   0.920
  965SOL    HW1 3794   5.924   1.679   0.886
  965SOL    HW2 3795   6.077   1.719   0.848
  966SOL     OW 3796   6.226   1.562   2.342
  966SOL    HW1 3797   6.188   1.545   2.433
  966SOL    HW2 3798   6.183   1.643   2.302
  967SOL     OW 3799   1.454   5.320   0.275
  967SOL    HW1 3800   1.518   5.288   0.345
  967SOL    HW2 3801   1.360   5.299   0.303
  968SOL     OW 3802   4.650   2.571   2.070
  968SOL    HW1 3803   4.741   2.536   2.045
  968SOL    HW2 3804   4.585   2.547   1.997
  969SOL     OW 3805   3.377   5.944   5.736
  969SOL    HW1 3806   3.308   5.897   5.792
  969SOL    HW2 3807   3.415   6.021   5.788
  970SOL     OW 3808   4.779   1.159   5.020
  970SOL    HW1 3809   4.732   1.210   5.092
  970SOL    HW2 3810   4.714   1.135   4.948
  971SOL     OW 3811   0.434   1.489   2.671
  971SOL    HW1 3812   0.487   1.547   2.609
  971SOL    HW2 3813   0.378   1.547   2.731
  972SOL     OW 3814   5.796   3.935   0.972
  972SOL    HW1 3815   5.864   3.866   0.997
  972SOL    HW2 3816   5.708   3.911   1.013
  973SOL     OW 3817   0.337   4.837   6.389
  973SOL    HW1 3818   0.408   4.883   6.444
  973SOL    HW2 3819   0.357   4.850   6.292
  974SOL     OW 3820   4.143   0.671   2.174
  974SOL    HW1 3821   4.062   0.617   2.148
  974SOL    HW2 3822   4.158   0.662   2.272
  975SOL     OW 3823   1.875   6.105   6.692
  975SOL    HW1 3824   1.871   6.185   6.752
  975SOL    HW2 3825   1.786   6.090   6.650
  976SOL     OW 3826   6.654   3.043   2.761
  976SOL    HW1 3827   6.638   3.138   2.735
  976SOL    HW2 3828   6.573   2.988   2.739
  977SOL     OW 3829   2.453   1.583   3.971
  977SOL    HW1 3830   2.393   1.507   3.948
  977SOL    HW2 3831   2.400   1.657   4.013
  978SOL     OW 3832   5.075   4.079   5.263
  978SOL    HW1 3833   5.145   4.131   5.215
  978SOL    HW2 3834   4.993   4.070   5.205
  979SOL     OW 3835   6.595   1.244   2.815
  979SOL    HW1 3836   6.510   1.224   2.767
  979SOL    HW2 3837   6.658   1.166   2.804
  980SOL     OW 3838   4.865   1.752   3.726
  980SOL    HW1 3839   4.929   1.790   3.792
  980SOL    HW2 3840   4.809   1.682   3.770
  981SOL     OW 3841   1.282   1.753   4.888
  981SOL    HW1 3842   1.222   1.806   4.948
  981SOL    HW2 3843   1.227   1.700   4.824
  982SOL     OW 3844   1.998   2.657   3.513
  982SOL    HW1 3845   2.019   2.562   3.487
  982SOL    HW2 3846   2.074   2.716   3.489
  983SOL     OW 3847   5.715   2.630   3.593
  983SOL    HW1 3848   5.815   2.633   3.592
  983SOL    HW2 3849   5.685   2.538   3.617
  984SOL     OW 3850   3.826   0.779   4.900
  984SOL    HW1 3851   3.884   0.834   4.959
  984SOL    HW2 3852   3.871   0.764   4.812
  985SOL     OW 3853   5.575   4.978   6.735
  985SOL    HW1 3854   5.505   5.047   6.755
  985SOL    HW2 3855   5.665   5.021   6.737
  986SOL     OW 3856   5.543   5.507   0.239
  986SOL    HW1 3857   5.572   5.473   0.329
  986SOL    HW2 3858   5.624   5.518   0.181
  987SOL     OW 3859   3.842   6.187   1.245
  987SOL    HW1 3860   3.809   6.237   1.165
  987SOL    HW2 3861   3.769   6.127   1.278
  988SOL     OW 3862   3.998   2.958   1.774
  988SOL    HW1 3863   4.041   3.031   1.827
  988SOL    HW2 3864   3.904   2.945   1.805
  989SOL     OW 3865   0.478   0.749   5.584
  989SOL    HW1 3866   0.441   0.842   5.577
  989SOL    HW2 3867   0.422   0.687   5.530
  990SOL     OW 3868   4.718   0.353   3.610
  990SOL    HW1 3869   4.632   0.303   3.611
  990SOL    HW2 3870   4.782   0.309   3.547
  991SOL     OW 3871   1.764   1.411   5.286
  991SOL    HW1 3872   1.713   1.339   5.239
  991SOL    HW2 3873   1.783   1.486   5.223
  992SOL     OW 3874   0.970   3.344   0.789
  992SOL    HW1 3875   0.901   3.319   0.721
  992SOL    HW2 3876   0.988   3.442   0.783
  993SOL     OW 3877   1.915   5.343   2.183
  993SOL    HW1 3878   1.945   5.386   2.268
  993SOL    HW2 3879   1.816   5.330   2.185
  994SOL     OW 3880   3.932   3.861   2.570
  994SOL    HW1 3881   4.005   3.916   2.609
  994SOL    HW2 3882   3.843   3.900   2.595
  995SOL     OW 3883   2.663   2.251   6.219
  995SOL    HW1 3884   2.622   2.167   6.183
  995SOL    HW2 3885   2.601   2.327   6.204
  996SOL     OW 3886   1.778   4.084   3.848
  996SOL    HW1 3887   1.733   4.026   3.780
  996SOL    HW2 3888   1.709   4.127   3.906
  997SOL     OW 3889   6.849   0.196   1.378
  997SOL    HW1 3890   6.749   0.200   1.382
  997SOL    HW2 3891   6.882   0.123   1.437
  998SOL     OW 3892   4.570   0.036   4.016
  998SOL    HW1 3893   4.516   0.095   4.076
  998SOL    HW2 3894   4.667   0.052   4.032
  999SOL     OW 3895   5.335   5.339   1.169
  999SOL    HW1 3896   5.415   5.282   1.148
  999SOL    HW2 3897   5.364   5.418   1.222
 1000SOL     OW 3898   1.252   0.790   2.591
 1000SOL    HW1 3899   1.314   0.835   2.528
 1000SOL    HW2 3900   1.178   0.852   2.617
 1001SOL     OW 3901   4.841   6.743   6.889
 1001SOL    HW1 3902   4.827   6.651   6.853
 1001SOL    HW2 3903   4.914   6.742   6.957
 1002SOL     OW 3904   5.615   2.130   6.273
 1002SOL    HW1 3905   5.669   2.148   6.191
 1002SOL    HW2 3906   5.592   2.033   6.277
 1003SOL     OW 3907   2.537   6.899   1.482
 1003SOL    HW1 3908   2.531   6.985   1.534
 1003SOL    HW2 3909   2.466   6.836   1.513
 1004SOL     OW 3910   6.898   0.432   0.690
 1004SOL    HW1 3911   6.844   0.512   0.713
 1004SOL    HW2 3912   6.840   0.350   0.691
 1005SOL     OW 3913   0.200   1.067   3.250
 1005SOL    HW1 3914   0.290   1.098   3.220
 1005SOL    HW2 3915   0.140   1.056   3.171
 1006SOL     OW 3916   1.938   6.391   1.563
 1006SOL    HW1 3917   1.841   6.409   1.581
 1006SOL    HW2 3918   1.954   6.394   1.464
 1007SOL     OW 3919   6.223   6.884   3.678
 1007SOL    HW1 3920   6.141   6.941   3.674
 1007SOL    HW2 3921   6.262   6.875   3.586
 1008SOL     OW 3922   1.638   2.740   4.691
 1008SOL    HW1 3923   1.671   2.651   4.661
 1008SOL    HW2 3924   1.642   2.805   4.615
 1009SOL     OW 3925   0.260   5.964   3.999
 1009SOL    HW1 3926   0.253   6.016   3.914
 1009SOL    HW2 3927   0.180   5.906   4.010
 1010SOL     OW 3928   3.594   2.447   6.814
 1010SOL    HW1 3929   3.521   2.458   6.747
 1010SOL    HW2 3930   3.595   2.526   6.876
 1011SOL     OW 3931   2.722   5.306   2.568
 1011SOL    HW1 3932   2.720   5.285   2.470
 1011SOL    HW2 3933   2.815   5.295   2.603
 1012SOL     OW 3934   6.697   5.858   0.388
 1012SOL    HW1 3935   6.714   5.768   0.427
 1012SOL    HW2 3936   6.783   5.908   0.379
 1013SOL     OW 3937   0.263   0.879   6.369
 1013SOL    HW1 3938   0.196   0.914   6.435
 1013SOL    HW2 3939   0.246   0.781   6.353
 1014SOL     OW 3940   5.165   5.598   6.894
 1014SOL    HW1 3941   5.207   5.672   6.947
 1014SOL    HW2 3942   5.079   5.630   6.854
 1015SOL     OW 3943   2.218   6.437   5.465
 1015SOL    HW1 3944   2.223   6.392   5.554
 1015SOL    HW2 3945   2.141   6.398   5.413
 1016SOL     OW 3946   2.375   3.364   0.883
 1016SOL    HW1 3947   2.276   3.366   0.898
 1016SOL    HW2 3948   2.395   3.401   0.792
 1017SOL     OW 3949   4.534   2.567   0.876
 1017SOL    HW1 3950   4.587   2.623   0.812
 1017SOL    HW2 3951   4.438   2.569   0.852
 1018SOL     OW 3952   1.936   3.549   4.021
 1018SOL    HW1 3953   1.938   3.625   3.955
 1018SOL    HW2 3954   1.868   3.482   3.992
 1019SOL     OW 3955   1.295   0.808   0.471
 1019SOL    HW1 3956   1.371   0.864   0.505
 1019SOL    HW2 3957   1.214   0.823   0.528
 1020SOL     OW 3958   1.695   6.917   1.117
 1020SOL    HW1 3959   1.681   7.002   1.169
 1020SOL    HW2 3960   1.737   6.939   1.029
 1021SOL     OW 3961   6.302   0.657   0.376
 1021SOL    HW1 3962   6.237   0.730   0.397
 1021SOL    HW2 3963   6.253   0.575   0.348
 1022SOL     OW 3964   4.070   4.384   6.013
 1022SOL    HW1 3965   4.017   4.429   5.941
 1022SOL    HW2 3966   4.039   4.417   6.103
 1023SOL     OW 3967   5.903   0.048   2.795
 1023SOL    HW1 3968   5.950   0.126   2.835
 1023SOL    HW2 3969   5.833   0.080   2.731
 1024SOL     OW 3970   6.370   2.903   4.185
 1024SOL    HW1 3971   6.405   2.988   4.224
 1024SOL    HW2 3972   6.447   2.841   4.166
 1025SOL     OW 3973   3.436   4.129   0.136
 1025SOL    HW1 3974   3.528   4.110   0.172
 1025SOL    HW2 3975   3.378   4.049   0.151
 1026SOL     OW 3976   1.533   2.028   1.122
 1026SOL    HW1 3977   1.509   2.038   1.025
 1026SOL    HW2 3978   1.594   1.950   1.133
 1027SOL     OW 3979   2.686   6.259   1.101
 1027SOL    HW1 3980   2.665   6.255   1.003
 1027SOL    HW2 3981   2.771   6.210   1.119
 1028SOL     OW 3982   3.332   5.873   0.015
 1028SOL    HW1 3983   3.286   5.942   0.070
 1028SOL    HW2 3984   3.416   5.845   0.061
 1029SOL     OW 3985   1.769   0.318   0.367
 1029SOL    HW1 3986   1.867   0.324   0.386
 1029SOL    HW2 3987   1.718   0.344   0.450
 1030SOL     OW 3988   2.978   3.124   2.358
 1030SOL    HW1 3989   2.879   3.116   2.344
 1030SOL    HW2 3990   3.025   3.113   2.271
 1031SOL     OW 3991   5.140   5.275   0.482
 1031SOL    HW1 3992   5.058   5.249   0.533
 1031SOL    HW2 3993   5.193   5.193   0.461
 1032SOL     OW 3994   1.346   1.783   4.553
 1032SOL    HW1 3995   1.338   1.693   4.595
 1032SOL    HW2 3996   1.322   1.776   4.456
 1033SOL     OW 3997   0.995   6.813   1.342
 1033SOL    HW1 3998   1.083   6.830   1.298
 1033SOL    HW2 3999   0.972   6.890   1.401
 1034SOL     OW 4000   1.320   6.177   4.917
 1034SOL    HW1 4001   1.313   6.246   4.844
 1034SOL    HW2 4002   1.368   6.217   4.995
 1035SOL     OW 4003   2.925   1.519   3.642
 1035SOL    HW1 4004   3.015   1.495   3.605
 1035SOL    HW2 4005   2.873   1.567   3.572
 1036SOL     OW 4006   2.955   0.185   1.238
 1036SOL    HW1 4007   2.993   0.241   1.164
 1036SOL    HW2 4008   2.877   0.233   1.278
 1037SOL     OW 4009   1.331   1.000   1.522
 1037SOL    HW1 4010   1.371   1.085   1.558
 1037SOL    HW2 4011   1.251   0.975   1.576
 1038SOL     OW 4012   1.180   1.120   5.440
 1038SOL    HW1 4013   1.100   1.061   5.438
 1038SOL    HW2 4014   1.231   1.109   5.355
 1039SOL     OW 4015   4.227   2.513   5.545
 1039SOL    HW1 4016   4.172   2.581   5.593
 1039SOL    HW2 4017   4.322   2.545   5.539
 1040SOL     OW 4018   5.281   2.928   2.771
 1040SOL    HW1 4019   5.292   3.004   2.706
 1040SOL    HW2 4020   5.338   2.945   2.851
 1041SOL     OW 4021   6.539   6.721   4.259
 1041SOL    HW1 4022   6.622   6.718   4.315
 1041SOL    HW2 4023   6.564   6.728   4.163
 1042SOL     OW 4024   3.236   4.875   2.296
 1042SOL    HW1 4025   3.159   4.856   2.356
 1042SOL    HW2 4026   3.271   4.967   2.313
 1043SOL     OW 4027   4.715   1.196   5.683
 1043SOL    HW1 4028   4.672   1.259   5.619
 1043SOL    HW2 4029   4.684   1.215   5.776
 1044SOL     OW 4030   4.115   2.797   1.580
 1044SOL    HW1 4031   4.077   2.866   1.641
 1044SOL    HW2 4032   4.060   2.713   1.586
 1045SOL     OW 4033   2.732   0.134   1.686
 1045SOL    HW1 4034   2.661   0.154   1.619
 1045SOL    HW2 4035   2.796   0.067   1.648
 1046SOL     OW 4036   2.033   6.877   6.970
 1046SOL    HW1 4037   2.010   6.790   6.927
 1046SOL    HW2 4038   1.987   6.951   6.922
 1047SOL     OW 4039   1.638   5.554   2.711
 1047SOL    HW1 4040   1.700   5.477   2.726
 1047SOL    HW2 4041   1.684   5.639   2.736
 1048SOL     OW 4042   4.514   5.582   5.496
 1048SOL    HW1 4043   4.441   5.560   5.561
 1048SOL    HW2 4044   4.529   5.681   5.495
 1049SOL     OW 4045   6.751   4.388   4.885
 1049SOL    HW1 4046   6.696   4.305   4.883
 1049SOL    HW2 4047   6.692   4.467   4.870
 1050SOL     OW 4048   3.098   5.227   0.962
 1050SOL    HW1 4049   3.138   5.316   0.939
 1050SOL    HW2 4050   3.136   5.157   0.901
 1051SOL     OW 4051   3.616   4.912   0.068
 1051SOL    HW1 4052   3.697   4.896   0.123
 1051SOL    HW2 4053   3.642   4.945   7.001
 1052SOL     OW 4054   4.130   0.567   4.097
 1052SOL    HW1 4055   4.224   0.598   4.114
 1052SOL    HW2 4056   4.113   0.565   3.999
 1053SOL     OW 4057   5.349   5.810   3.300
 1053SOL    HW1 4058   5.441   5.770   3.304
 1053SOL    HW2 4059   5.305   5.799   3.389
 1054SOL     OW 4060   2.793   4.573   5.534
 1054SOL    HW1 4061   2.755   4.558   5.626
 1054SOL    HW2 4062   2.801   4.485   5.487
 1055SOL     OW 4063   5.613   6.748   4.235
 1055SOL    HW1 4064   5.631   6.829   4.291
 1055SOL    HW2 4065   5.689   6.735   4.171
 1056SOL     OW 4066   1.799   6.214   5.188
 1056SOL    HW1 4067   1.792   6.207   5.089
 1056SOL    HW2 4068   1.769   6.129   5.230
 1057SOL     OW 4069   3.390   3.765   2.860
 1057SOL    HW1 4070   3.294   3.772   2.833
 1057SOL    HW2 4071   3.416   3.846   2.913
 1058SOL     OW 4072   5.060   1.658   2.398
 1058SOL    HW1 4073   4.978   1.627   2.351
 1058SOL    HW2 4074   5.058   1.625   2.493
 1059SOL     OW 4075   2.983   0.463   2.117
 1059SOL    HW1 4076   3.051   0.487   2.186
 1059SOL    HW2 4077   2.965   0.365   2.119
 1060SOL     OW 4078   0.298   3.179   5.093
 1060SOL    HW1 4079   0.224   3.214   5.150
 1060SOL    HW2 4080   0.266   3.171   4.998
 1061SOL     OW 4081   4.637   3.933   1.415
 1061SOL    HW1 4082   4.647   4.000   1.489
 1061SOL    HW2 4083   4.567   3.866   1.441
 1062SOL     OW 4084   6.552   5.438   6.194
 1062SOL    HW1 4085   6.488   5.507   6.230
 1062SOL    HW2 4086   6.629   5.427   6.256
 1063SOL     OW 4087   1.127   4.485   1.150
 1063SOL    HW1 4088   1.085   4.519   1.234
 1063SOL    HW2 4089   1.057   4.448   1.089
 1064SOL     OW 4090   0.846   4.111   2.521
 1064SOL    HW1 4091   0.935   4.148   2.495
 1064SOL    HW2 4092   0.785   4.114   2.442
 1065SOL     OW 4093   5.088   0.504   4.618
 1065SOL    HW1 4094   4.991   0.477   4.618
 1065SOL    HW2 4095   5.142   0.434   4.665
 1066SOL     OW 4096   5.358   0.872   4.275
 1066SOL    HW1 4097   5.396   0.960   4.246
 1066SOL    HW2 4098   5.262   0.885   4.301
 1067SOL     OW 4099   1.582   2.301   0.238
 1067SOL    HW1 4100   1.638   2.246   0.176
 1067SOL    HW2 4101   1.639   2.337   0.311
 1068SOL     OW 4102   5.525   4.409   1.971
 1068SOL    HW1 4103   5.449   4.365   2.020
 1068SOL    HW2 4104   5.608   4.356   1.987
 1069SOL     OW 4105   4.946   4.937   1.317
 1069SOL    HW1 4106   4.992   4.851   1.296
 1069SOL    HW2 4107   4.920   4.939   1.413
 1070SOL     OW 4108   1.108   1.518   0.006
 1070SOL    HW1 4109   1.179   1.448   0.002
 1070SOL    HW2 4110   1.143   1.604   6.992
 1071SOL     OW 4111   4.068   0.424   3.481
 1071SOL    HW1 4112   4.087   0.519   3.503
 1071SOL    HW2 4113   4.103   0.403   3.389
 1072SOL     OW 4114   1.942   6.067   1.811
 1072SOL    HW1 4115   1.938   6.045   1.713
 1072SOL    HW2 4116   1.881   6.144   1.830
 1073SOL     OW 4117   3.788   5.871   2.597
 1073SOL    HW1 4118   3.880   5.865   2.636
 1073SOL    HW2 4119   3.762   5.782   2.559
 1074SOL     OW 4120   1.705   5.236   1.853
 1074SOL    HW1 4121   1.652   5.230   1.769
 1074SOL    HW2 4122   1.725   5.332   1.873
 1075SOL     OW 4123   4.994   5.497   3.563
 1075SOL    HW1 4124   5.056   5.560   3.609
 1075SOL    HW2 4125   5.046   5.437   3.502
 1076SOL     OW 4126   0.597   4.446   4.897
 1076SOL    HW1 4127   0.556   4.362   4.864
 1076SOL    HW2 4128   0.591   4.517   4.827
 1077SOL     OW 4129   5.895   0.080   0.257
 1077SOL    HW1 4130   5.962   0.095   0.184
 1077SOL    HW2 4131   5.896   7.007   0.283
 1078SOL     OW 4132   1.481   0.870   2.458
 1078SOL    HW1 4133   1.506   0.935   2.529
 1078SOL    HW2 4134   1.540   0.883   2.378
 1079SOL     OW 4135   1.761   5.293   2.844
 1079SOL    HW1 4136   1.813   5.347   2.911
 1079SOL    HW2 4137   1.822   5.264   2.770
 1080SOL     OW 4138   1.575   4.222   3.487
 1080SOL    HW1 4139   1.536   4.166   3.560
 1080SOL    HW2 4140   1.672   4.238   3.505
 1081SOL     OW 4141   0.309   0.875   5.160
 1081SOL    HW1 4142   0.405   0.849   5.160
 1081SOL    HW2 4143   0.291   0.938   5.236
 1082SOL     OW 4144   1.458   0.186   5.880
 1082SOL    HW1 4145   1.408   0.268   5.907
 1082SOL    HW2 4146   1.435   0.111   5.942
 1083SOL     OW 4147   3.474   4.176   2.078
 1083SOL    HW1 4148   3.391   4.146   2.032
 1083SOL    HW2 4149   3.476   4.275   2.084
 1084SOL     OW 4150   6.860   6.061   1.224
 1084SOL    HW1 4151   6.942   6.119   1.231
 1084SOL    HW2 4152   6.854   6.003   1.306
 1085SOL     OW 4153   1.833   3.998   3.379
 1085SOL    HW1 4154   1.870   3.932   3.314
 1085SOL    HW2 4155   1.862   4.090   3.353
 1086SOL     OW 4156   6.549   5.793   3.151
 1086SOL    HW1 4157   6.599   5.773   3.234
 1086SOL    HW2 4158   6.612   5.795   3.073
 1087SOL     OW 4159   5.353   2.696   5.467
 1087SOL    HW1 4160   5.383   2.728   5.557
 1087SOL    HW2 4161   5.368   2.768   5.399
 1088SOL     OW 4162   6.256   4.955   3.576
 1088SOL    HW1 4163   6.336   4.962   3.516
 1088SOL    HW2 4164   6.189   5.024   3.550
 1089SOL     OW 4165   1.140   0.032   4.509
 1089SOL    HW1 4166   1.076   0.066   4.578
 1089SOL    HW2 4167   1.191   0.110   4.470
 1090SOL     OW 4168   2.911   1.190   3.718
 1090SOL    HW1 4169   2.986   1.140   3.762
 1090SOL    HW2 4170   2.840   1.209   3.786
 1091SOL     OW 4171   1.854   1.857   4.194
 1091SOL    HW1 4172   1.824   1.812   4.278
 1091SOL    HW2 4173   1.909   1.794   4.139
 1092SOL     OW 4174   2.274   3.532   1.399
 1092SOL    HW1 4175   2.363   3.533   1.353
 1092SOL    HW2 4176   2.204   3.565   1.336
 1093SOL     OW 4177   2.501   1.623   3.230
 1093SOL    HW1 4178   2.589   1.650   3.193
 1093SOL    HW2 4179   2.514   1.579   3.319
 1094SOL     OW 4180   6.961   6.606   2.542
 1094SOL    HW1 4181   6.964   6.676   2.614
 1094SOL    HW2 4182   0.023   6.610   2.489
 1095SOL     OW 4183   6.614   2.228   5.820
 1095SOL    HW1 4184   6.664   2.302   5.865
 1095SOL    HW2 4185   6.649   2.216   5.728
 1096SOL     OW 4186   3.615   4.473   1.379
 1096SOL    HW1 4187   3.526   4.439   1.411
 1096SOL    HW2 4188   3.663   4.400   1.331
 1097SOL     OW 4189   0.973   4.545   4.373
 1097SOL    HW1 4190   0.943   4.539   4.278
 1097SOL    HW2 4191   1.063   4.587   4.377
 1098SOL     OW 4192   5.635   2.618   0.933
 1098SOL    HW1 4193   5.604   2.664   1.017
 1098SOL    HW2 4194   5.633   2.519   0.948
 1099SOL     OW 4195   4.191   1.346   4.799
 1099SOL    HW1 4196   4.104   1.338   4.750
 1099SOL    HW2 4197   4.192   1.281   4.875
 1100SOL     OW 4198   1.876   1.334   6.551
 1100SOL    HW1 4199   1.953   1.396   6.536
 1100SOL    HW2 4200   1.803   1.355   6.487
 1101SOL     OW 4201   5.363   2.637   1.295
 1101SOL    HW1 4202   5.302   2.706   1.333
 1101SOL    HW2 4203   5.426   2.605   1.366
 1102SOL     OW 4204   1.691   4.745   3.049
 1102SOL    HW1 4205   1.697   4.839   3.017
 1102SOL    HW2 4206   1.722   4.683   2.976
 1103SOL     OW 4207   2.397   0.632   0.940
 1103SOL    HW1 4208   2.409   0.673   0.850
 1103SOL    HW2 4209   2.344   0.693   0.998
 1104SOL     OW 4210   1.443   3.710   6.342
 1104SOL    HW1 4211   1.524   3.756   6.306
 1104SOL    HW2 4212   1.399   3.657   6.270
 1105SOL     OW 4213   5.022   3.863   5.610
 1105SOL    HW1 4214   5.104   3.914   5.584
 1105SOL    HW2 4215   4.945   3.926   5.620
 1106SOL     OW 4216   1.131   1.710   0.333
 1106SOL    HW1 4217   1.052   1.662   0.295
 1106SOL    HW2 4218   1.104   1.802   0.361
 1107SOL     OW 4219   0.432   0.500   6.814
 1107SOL    HW1 4220   0.489   0.467   6.889
 1107SOL    HW2 4221   0.434   0.600   6.813
 1108SOL     OW 4222   2.755   0.613   5.738
 1108SOL    HW1 4223   2.768   0.610   5.639
 1108SOL    HW2 4224   2.788   0.528   5.779
 1109SOL     OW 4225   4.546   5.659   4.758
 1109SOL    HW1 4226   4.632   5.645   4.806
 1109SOL    HW2 4227   4.559   5.638   4.661
 1110SOL     OW 4228   3.125   1.773   2.439
 1110SOL    HW1 4229   3.178   1.857   2.440
 1110SOL    HW2 4230   3.183   1.697   2.468
 1111SOL     OW 4231   5.556   6.091   0.414
 1111SOL    HW1 4232   5.643   6.127   0.445
 1111SOL    HW2 4233   5.498   6.068   0.492
 1112SOL     OW 4234   6.407   1.254   2.611
 1112SOL    HW1 4235   6.338   1.256   2.539
 1112SOL    HW2 4236   6.497   1.272   2.572
 1113SOL     OW 4237   5.975   3.284   2.623
 1113SOL    HW1 4238   6.039   3.302   2.697
 1113SOL    HW2 4239   5.991   3.348   2.548
 1114SOL     OW 4240   4.737   0.718   6.461
 1114SOL    HW1 4241   4.678   0.706   6.381
 1114SOL    HW2 4242   4.691   0.776   6.528
 1115SOL     OW 4243   4.194   3.646   6.937
 1115SOL    HW1 4244   4.231   3.679   0.001
 1115SOL    HW2 4245   4.268   3.605   6.882
 1116SOL     OW 4246   5.404   5.432   4.407
 1116SOL    HW1 4247   5.396   5.414   4.309
 1116SOL    HW2 4248   5.313   5.439   4.447
 1117SOL     OW 4249   2.643   2.477   1.371
 1117SOL    HW1 4250   2.705   2.499   1.447
 1117SOL    HW2 4251   2.557   2.526   1.383
 1118SOL     OW 4252   1.773   4.929   2.348
 1118SOL    HW1 4253   1.859   4.894   2.386
 1118SOL    HW2 4254   1.773   4.916   2.249
 1119SOL     OW 4255   3.713   3.829   1.056
 1119SOL    HW1 4256   3.669   3.824   1.146
 1119SOL    HW2 4257   3.675   3.905   1.003
 1120SOL     OW 4258   5.830   6.272   5.730
 1120SOL    HW1 4259   5.837   6.193   5.790
 1120SOL    HW2 4260   5.734   6.291   5.711
 1121SOL     OW 4261   4.912   3.411   2.631
 1121SOL    HW1 4262   4.946   3.481   2.569
 1121SOL    HW2 4263   4.872   3.336   2.579
 1122SOL     OW 4264   5.394   2.918   6.317
 1122SOL    HW1 4265   5.424   2.890   6.226
 1122SOL    HW2 4266   5.390   3.018   6.321
 1123SOL     OW 4267   4.858   1.487   2.290
 1123SOL    HW1 4268   4.777   1.526   2.334
 1123SOL    HW2 4269   4.879   1.399   2.332
 1124SOL     OW 4270   6.754   4.036   5.048
 1124SOL    HW1 4271   6.729   3.949   5.090
 1124SOL    HW2 4272   6.848   4.031   5.015
 1125SOL     OW 4273   2.505   1.831   4.951
 1125SOL    HW1 4274   2.536   1.893   5.024
 1125SOL    HW2 4275   2.472   1.885   4.874
 1126SOL     OW 4276   5.189   0.335   6.886
 1126SOL    HW1 4277   5.146   0.331   6.796
 1126SOL    HW2 4278   5.163   0.420   6.931
 1127SOL     OW 4279   3.726   5.401   5.093
 1127SOL    HW1 4280   3.675   5.363   5.016
 1127SOL    HW2 4281   3.689   5.492   5.116
 1128SOL     OW 4282   4.950   2.627   4.928
 1128SOL    HW1 4283   4.888   2.705   4.928
 1128SOL    HW2 4284   4.897   2.542   4.934
 1129SOL     OW 4285   3.864   6.829   6.948
 1129SOL    HW1 4286   3.926   6.865   6.879
 1129SOL    HW2 4287   3.915   6.776   7.015
 1130SOL     OW 4288   2.074   4.055   0.689
 1130SOL    HW1 4289   2.028   3.967   0.678
 1130SOL    HW2 4290   2.070   4.106   0.602
 1131SOL     OW 4291   0.208   6.172   5.643
 1131SOL    HW1 4292   0.191   6.115   5.723
 1131SOL    HW2 4293   0.305   6.197   5.640
 1132SOL     OW 4294   4.453   0.237   7.004
 1132SOL    HW1 4295   4.460   0.290   6.919
 1132SOL    HW2 4296   4.535   0.181   7.015
 1133SOL     OW 4297   6.622   2.176   0.602
 1133SOL    HW1 4298   6.704   2.223   0.636
 1133SOL    HW2 4299   6.576   2.235   0.536
 1134SOL     OW 4300   5.661   1.851   0.552
 1134SOL    HW1 4301   5.750   1.866   0.593
 1134SOL    HW2 4302   5.655   1.901   0.466
 1135SOL     OW 4303   2.912   1.799   2.255
 1135SOL    HW1 4304   2.989   1.779   2.316
 1135SOL    HW2 4305   2.842   1.729   2.267
 1136SOL     OW 4306   2.977   5.139   4.885
 1136SOL    HW1 4307   2.931   5.196   4.816
 1136SOL    HW2 4308   2.934   5.049   4.888
 1137SOL     OW 4309   1.022   3.346   0.451
 1137SOL    HW1 4310   1.115   3.374   0.428
 1137SOL    HW2 4311   1.021   3.251   0.479
 1138SOL     OW 4312   1.515   1.803   6.110
 1138SOL    HW1 4313   1.548   1.892   6.080
 1138SOL    HW2 4314   1.474   1.755   6.032
 1139SOL     OW 4315   2.394   0.107   2.297
 1139SOL    HW1 4316   2.471   0.161   2.332
 1139SOL    HW2 4317   2.409   0.010   2.319
 1140SOL     OW 4318   3.947   2.008   2.406
 1140SOL    HW1 4319   3.938   2.056   2.493
 1140SOL    HW2 4320   3.876   2.040   2.343
 1141SOL     OW 4321   6.564   5.826   5.876
 1141SOL    HW1 4322   6.627   5.788   5.808
 1141SOL    HW2 4323   6.483   5.863   5.830
 1142SOL     OW 4324   4.824   0.395   4.621
 1142SOL    HW1 4325   4.849   0.322   4.684
 1142SOL    HW2 4326   4.727   0.417   4.631
 1143SOL     OW 4327   3.273   1.985   2.475
 1143SOL    HW1 4328   3.364   2.024   2.483
 1143SOL    HW2 4329   3.208   2.040   2.527
 1144SOL     OW 4330   6.629   4.692   4.565
 1144SOL    HW1 4331   6.728   4.702   4.550
 1144SOL    HW2 4332   6.580   4.720   4.483
 1145SOL     OW 4333   0.481   5.202   3.274
 1145SOL    HW1 4334   0.401   5.146   3.248
 1145SOL    HW2 4335   0.480   5.287   3.222
 1146SOL     OW 4336   5.117   1.152   1.198
 1146SOL    HW1 4337   5.133   1.248   1.223
 1146SOL    HW2 4338   5.023   1.141   1.167
 1147SOL     OW 4339   1.245   4.057   0.779
 1147SOL    HW1 4340   1.216   3.981   0.838
 1147SOL    HW2 4341   1.175   4.128   0.778
 1148SOL     OW 4342   2.782   6.853   0.071
 1148SOL    HW1 4343   2.816   6.941   0.104
 1148SOL    HW2 4344   2.822   6.779   0.125
 1149SOL     OW 4345   5.268   3.247   3.240
 1149SOL    HW1 4346   5.244   3.273   3.147
 1149SOL    HW2 4347   5.366   3.229   3.245
 1150SOL     OW 4348   1.892   4.035   0.916
 1150SOL    HW1 4349   1.992   4.044   0.926
 1150SOL    HW2 4350   1.868   4.042   0.819
 1151SOL     OW 4351   5.224   5.732   6.662
 1151SOL    HW1 4352   5.222   5.697   6.569
 1151SOL    HW2 4353   5.192   5.661   6.725
 1152SOL     OW 4354   0.963   6.798   5.105
 1152SOL    HW1 4355   0.914   6.804   5.191
 1152SOL    HW2 4356   0.966   6.888   5.061
 1153SOL     OW 4357   2.847   6.463   1.942
 1153SOL    HW1 4358   2.844   6.451   2.041
 1153SOL    HW2 4359   2.764   6.510   1.911
 1154SOL     OW 4360   0.357   3.707   1.601
 1154SOL    HW1 4361   0.259   3.693   1.607
 1154SOL    HW2 4362   0.403   3.620   1.586
 1155SOL     OW 4363   3.874   5.023   6.400
 1155SOL    HW1 4364   3.823   4.994   6.481
 1155SOL    HW2 4365   3.965   4.982   6.401
 1156SOL     OW 4366   2.014   0.465   4.294
 1156SOL    HW1 4367   2.084   0.525   4.255
 1156SOL    HW2 4368   1.983   0.502   4.381
 1157SOL     OW 4369   6.438   2.128   4.475
 1157SOL    HW1 4370   6.375   2.181   4.419
 1157SOL    HW2 4371   6.521   2.181   4.492
 1158SOL     OW 4372   6.184   5.350   5.696
 1158SOL    HW1 4373   6.106   5.401   5.661
 1158SOL    HW2 4374   6.269   5.391   5.662
 1159SOL     OW 4375   4.514   0.729   2.901
 1159SOL    HW1 4376   4.608   0.752   2.925
 1159SOL    HW2 4377   4.460   0.719   2.985
 1160SOL     OW 4378   3.552   3.269   1.197
 1160SOL    HW1 4379   3.622   3.333   1.227
 1160SOL    HW2 4380   3.535   3.202   1.269
 1161SOL     OW 4381   5.223   0.532   5.130
 1161SOL    HW1 4382   5.297   0.476   5.092
 1161SOL    HW2 4383   5.173   0.478   5.199
 1162SOL     OW 4384   3.909   3.253   0.717
 1162SOL    HW1 4385   3.916   3.155   0.737
 1162SOL    HW2 4386   3.983   3.280   0.655
 1163SOL     OW 4387   5.513   2.280   2.082
 1163SOL    HW1 4388   5.502   2.240   2.174
 1163SOL    HW2 4389   5.458   2.228   2.017
 1164SOL     OW 4390   5.583   2.806   3.765
 1164SOL    HW1 4391   5.599   2.901   3.738
 1164SOL    HW2 4392   5.625   2.745   3.698
 1165SOL     OW 4393   1.987   4.249   3.789
 1165SOL    HW1 4394   1.937   4.163   3.800
 1165SOL    HW2 4395   2.069   4.248   3.847
 1166SOL     OW 4396   4.046   0.928   6.893
 1166SOL    HW1 4397   4.003   0.948   6.980
 1166SOL    HW2 4398   4.132   0.980   6.885
 1167SOL     OW 4399   3.039   0.347   5.818
 1167SOL    HW1 4400   3.036   0.278   5.890
 1167SOL    HW2 4401   2.962   0.332   5.755
 1168SOL     OW 4402   5.750   0.362   2.401
 1168SOL    HW1 4403   5.840   0.400   2.379
 1168SOL    HW2 4404   5.679   0.423   2.366
 1169SOL     OW 4405   0.309   3.029   0.202
 1169SOL    HW1 4406   0.403   3.062   0.197
 1169SOL    HW2 4407   0.284   2.988   0.114
 1170SOL     OW 4408   4.182   0.937   2.132
 1170SOL    HW1 4409   4.269   0.981   2.150
 1170SOL    HW2 4410   4.195   0.839   2.121
 1171SOL     OW 4411   2.448   5.857   0.606
 1171SOL    HW1 4412   2.400   5.851   0.694
 1171SOL    HW2 4413   2.543   5.829   0.619
 1172SOL     OW 4414   3.372   4.101   3.439
 1172SOL    HW1 4415   3.399   4.134   3.530
 1172SOL    HW2 4416   3.436   4.137   3.371
 1173SOL     OW 4417   3.524   6.575   6.181
 1173SOL    HW1 4418   3.453   6.638   6.212
 1173SOL    HW2 4419   3.547   6.511   6.255
 1174SOL     OW 4420   3.082   5.456   0.830
 1174SOL    HW1 4421   3.155   5.522   0.845
 1174SOL    HW2 4422   2.995   5.493   0.863
 1175SOL     OW 4423   4.983   3.920   6.737
 1175SOL    HW1 4424   4.945   3.907   6.646
 1175SOL    HW2 4425   5.079   3.893   6.738
 1176SOL     OW 4426   6.209   4.521   0.390
 1176SOL    HW1 4427   6.117   4.558   0.375
 1176SOL    HW2 4428   6.276   4.595   0.381
 1177SOL     OW 4429   0.273   2.074   5.273
 1177SOL    HW1 4430   0.188   2.093   5.323
 1177SOL    HW2 4431   0.333   2.153   5.278
 1178SOL     OW 4432   4.451   3.497   1.643
 1178SOL    HW1 4433   4.475   3.416   1.589
 1178SOL    HW2 4434   4.404   3.563   1.584
 1179SOL     OW 4435   3.207   5.191   0.547
 1179SOL    HW1 4436   3.222   5.139   0.632
 1179SOL    HW2 4437   3.162   5.132   0.480
 1180SOL     OW 4438   2.539   0.216   3.777
 1180SOL    HW1 4439   2.519   0.131   3.826
 1180SOL    HW2 4440   2.518   0.205   3.680
 1181SOL     OW 4441   0.599   3.396   4.588
 1181SOL    HW1 4442   0.585   3.368   4.683
 1181SOL    HW2 4443   0.693   3.428   4.576
 1182SOL     OW 4444   2.263   4.853   3.016
 1182SOL    HW1 4445   2.259   4.847   2.916
 1182SOL    HW2 4446   2.357   4.870   3.045
 1183SOL     OW 4447   4.156   5.268   2.437
 1183SOL    HW1 4448   4.198   5.187   2.479
 1183SOL    HW2 4449   4.117   5.243   2.348
 1184SOL     OW 4450   3.479   2.284   5.324
 1184SOL    HW1 4451   3.472   2.318   5.418
 1184SOL    HW2 4452   3.391   2.296   5.278
 1185SOL     OW 4453   2.187   0.558   0.528
 1185SOL    HW1 4454   2.133   0.593   0.605
 1185SOL    HW2 4455   2.199   0.631   0.461
 1186SOL     OW 4456   5.896   0.064   6.115
 1186SOL    HW1 4457   5.805   0.023   6.112
 1186SOL    HW2 4458   5.940   0.043   6.202
 1187SOL     OW 4459   5.609   5.943   5.028
 1187SOL    HW1 4460   5.620   6.036   5.062
 1187SOL    HW2 4461   5.575   5.884   5.102
 1188SOL     OW 4462   3.237   6.526   6.399
 1188SOL    HW1 4463   3.186   6.607   6.428
 1188SOL    HW2 4464   3.237   6.521   6.299
 1189SOL     OW 4465   5.466   1.356   1.962
 1189SOL    HW1 4466   5.396   1.382   1.895
 1189SOL    HW2 4467   5.513   1.273   1.932
 1190SOL     OW 4468   4.136   4.839   4.673
 1190SOL    HW1 4469   4.195   4.787   4.735
 1190SOL    HW2 4470   4.043   4.842   4.710
 1191SOL     OW 4471   3.617   5.627   5.403
 1191SOL    HW1 4472   3.598   5.547   5.461
 1191SOL    HW2 4473   3.547   5.635   5.332
 1192SOL     OW 4474   5.663   4.519   3.236
 1192SOL    HW1 4475   5.673   4.431   3.189
 1192SOL    HW2 4476   5.723   4.521   3.316
 1193SOL     OW 4477   6.402   0.749   3.983
 1193SOL    HW1 4478   6.391   0.790   4.073
 1193SOL    HW2 4479   6.312   0.736   3.941
 1194SOL     OW 4480   0.428   1.250   1.008
 1194SOL    HW1 4481   0.398   1.155   1.007
 1194SOL    HW2 4482   0.514   1.259   0.959
 1195SOL     OW 4483   6.508   1.747   0.594
 1195SOL    HW1 4484   6.417   1.776   0.625
 1195SOL    HW2 4485   6.526   1.785   0.503
 1196SOL     OW 4486   0.100   4.739   2.270
 1196SOL    HW1 4487   0.106   4.838   2.260
 1196SOL    HW2 4488   0.123   4.694   2.184
 1197SOL     OW 4489   3.786   6.030   5.685
 1197SOL    HW1 4490   3.735   6.051   5.601
 1197SOL    HW2 4491   3.773   6.104   5.751
 1198SOL     OW 4492   2.279   2.721   2.175
 1198SOL    HW1 4493   2.375   2.739   2.196
 1198SOL    HW2 4494   2.273   2.654   2.101
 1199SOL     OW 4495   3.871   3.097   2.817
 1199SOL    HW1 4496   3.865   3.147   2.731
 1199SOL    HW2 4497   3.925   3.014   2.803
 1200SOL     OW 4498   4.093   3.512   5.040
 1200SOL    HW1 4499   4.107   3.516   4.941
 1200SOL    HW2 4500   4.039   3.430   5.062
 1201SOL     OW 4501   0.339   1.273   4.193
 1201SOL    HW1 4502   0.253   1.258   4.145
 1201SOL    HW2 4503   0.405   1.315   4.132
 1202SOL     OW 4504   6.315   0.718   5.996
 1202SOL    HW1 4505   6.402   0.742   6.040
 1202SOL    HW2 4506   6.304   0.771   5.912
 1203SOL     OW 4507   5.551   6.757   0.707
 1203SOL    HW1 4508   5.525   6.721   0.797
 1203SOL    HW2 4509   5.646   6.733   0.688
 1204SOL     OW 4510   4.077   1.308   0.461
 1204SOL    HW1 4511   4.096   1.229   0.519
 1204SOL    HW2 4512   3.993   1.353   0.491
 1205SOL     OW 4513   4.504   3.217   6.742
 1205SOL    HW1 4514   4.583   3.277   6.732
 1205SOL    HW2 4515   4.535   3.127   6.772
 1206SOL     OW 4516   1.637   1.515   4.831
 1206SOL    HW1 4517   1.640   1.615   4.828
 1206SOL    HW2 4518   1.594   1.486   4.916
 1207SOL     OW 4519   6.853   6.608   1.304
 1207SOL    HW1 4520   6.937   6.653   1.274
 1207SOL    HW2 4521   6.784   6.678   1.325
 1208SOL     OW 4522   3.645   3.926   2.583
 1208SOL    HW1 4523   3.630   3.857   2.513
 1208SOL    HW2 4524   3.588   4.006   2.564
 1209SOL     OW 4525   5.765   6.644   4.607
 1209SOL    HW1 4526   5.703   6.707   4.559
 1209SOL    HW2 4527   5.794   6.571   4.546
 1210SOL     OW 4528   4.943   6.520   3.175
 1210SOL    HW1 4529   4.932   6.456   3.099
 1210SOL    HW2 4530   4.898   6.483   3.256
 1211SOL     OW 4531   1.825   3.423   3.730
 1211SOL    HW1 4532   1.812   3.511   3.685
 1211SOL    HW2 4533   1.736   3.378   3.743
 1212SOL     OW 4534   0.092   2.164   5.518
 1212SOL    HW1 4535   0.042   2.110   5.585
 1212SOL    HW2 4536   0.028   2.207   5.454
 1213SOL     OW 4537   5.822   2.936   4.876
 1213SOL    HW1 4538   5.892   2.864   4.873
 1213SOL    HW2 4539   5.823   2.981   4.965
 1214SOL     OW 4540   1.438   3.385   4.405
 1214SOL    HW1 4541   1.534   3.401   4.386
 1214SOL    HW2 4542   1.384   3.462   4.372
 1215SOL     OW 4543   2.073   4.756   2.263
 1215SOL    HW1 4544   2.089   4.807   2.347
 1215SOL    HW2 4545   2.118   4.804   2.187
 1216SOL     OW 4546   0.352   0.150   1.536
 1216SOL    HW1 4547   0.328   0.195   1.450
 1216SOL    HW2 4548   0.450   0.157   1.551
 1217SOL     OW 4549   1.733   6.434   0.842
 1217SOL    HW1 4550   1.768   6.346   0.876
 1217SOL    HW2 4551   1.810   6.496   0.827
 1218SOL     OW 4552   1.027   2.987   4.840
 1218SOL    HW1 4553   0.998   3.031   4.925
 1218SOL    HW2 4554   0.949   2.940   4.799
 1219SOL     OW 4555   4.506   4.836   1.164
 1219SOL    HW1 4556   4.431   4.773   1.182
 1219SOL    HW2 4557   4.508   4.858   1.066
 1220SOL     OW 4558   5.145   4.219   2.102
 1220SOL    HW1 4559   5.071   4.161   2.138
 1220SOL    HW2 4560   5.227   4.206   2.157
 1221SOL     OW 4561   5.735   3.640   6.756
 1221SOL    HW1 4562   5.737   3.740   6.752
 1221SOL    HW2 4563   5.701   3.604   6.669
 1222SOL     OW 4564   0.076   0.523   0.916
 1222SOL    HW1 4565   0.166   0.492   0.888
 1222SOL    HW2 4566   0.020   0.541   0.835
 1223SOL     OW 4567   5.318   1.151   0.656
 1223SOL    HW1 4568   5.256   1.073   0.662
 1223SOL    HW2 4569   5.275   1.223   0.601
 1224SOL     OW 4570   3.422   5.892   6.784
 1224SOL    HW1 4571   3.504   5.944   6.807
 1224SOL    HW2 4572   3.373   5.868   6.868
 1225SOL     OW 4573   3.927   2.132   1.258
 1225SOL    HW1 4574   3.852   2.148   1.193
 1225SOL    HW2 4575   3.936   2.034   1.275
 1226SOL     OW 4576   5.505   6.436   1.278
 1226SOL    HW1 4577   5.492   6.430   1.378
 1226SOL    HW2 4578   5.427   6.485   1.238
 1227SOL     OW 4579   6.050   5.095   5.700
 1227SOL    HW1 4580   6.040   5.075   5.797
 1227SOL    HW2 4581   6.075   5.191   5.688
 1228SOL     OW 4582   3.619   3.020   0.388
 1228SOL    HW1 4583   3.595   3.114   0.360
 1228SOL    HW2 4584   3.585   3.003   0.480
 1229SOL     OW 4585   1.424   0.120   1.694
 1229SOL    HW1 4586   1.416   0.194   1.761
 1229SOL    HW2 4587   1.429   0.158   1.602
 1230SOL     OW 4588   5.191   5.782   2.924
 1230SOL    HW1 4589   5.226   5.829   3.006
 1230SOL    HW2 4590   5.135   5.845   2.870
 1231SOL     OW 4591   1.328   2.667   5.974
 1231SOL    HW1 4592   1.423   2.688   5.997
 1231SOL    HW2 4593   1.319   2.570   5.953
 1232SOL     OW 4594   4.621   0.969   5.279
 1232SOL    HW1 4595   4.721   0.976   5.287
 1232SOL    HW2 4596   4.581   1.061   5.284
 1233SOL     OW 4597   1.255   5.346   3.863
 1233SOL    HW1 4598   1.233   5.358   3.766
 1233SOL    HW2 4599   1.289   5.253   3.878
 1234SOL     OW 4600   0.105   2.592   6.660
 1234SOL    HW1 4601   0.173   2.521   6.645
 1234SOL    HW2 4602   0.044   2.598   6.581
 1235SOL     OW 4603   6.538   5.369   0.027
 1235SOL    HW1 4604   6.583   5.407   6.969
 1235SOL    HW2 4605   6.552   5.270   0.030
 1236SOL     OW 4606   3.514   2.031   0.476
 1236SOL    HW1 4607   3.612   2.021   0.458
 1236SOL    HW2 4608   3.462   1.986   0.403
 1237SOL     OW 4609   1.780   6.450   4.735
 1237SOL    HW1 4610   1.727   6.521   4.781
 1237SOL    HW2 4611   1.759   6.450   4.637
 1238SOL     OW 4612   0.429   6.963   3.433
 1238SOL    HW1 4613   0.469   0.026   3.463
 1238SOL    HW2 4614   0.352   6.940   3.492
 1239SOL     OW 4615   6.496   5.422   4.535
 1239SOL    HW1 4616   6.558   5.491   4.569
 1239SOL    HW2 4617   6.446   5.380   4.611
 1240SOL     OW 4618   5.732   5.022   2.114
 1240SOL    HW1 4619   5.699   4.981   2.028
 1240SOL    HW2 4620   5.656   5.069   2.159
 1241SOL     OW 4621   6.888   4.689   4.961
 1241SOL    HW1 4622   6.948   4.671   5.039
 1241SOL    HW2 4623   6.927   4.647   4.879
 1242SOL     OW 4624   2.240   3.940   0.498
 1242SOL    HW1 4625   2.300   3.949   0.577
 1242SOL    HW2 4626   2.195   4.028   0.480
 1243SOL     OW 4627   0.104   1.810   4.797
 1243SOL    HW1 4628   0.060   1.729   4.758
 1243SOL    HW2 4629   0.198   1.817   4.763
 1244SOL     OW 4630   5.377   6.917   5.234
 1244SOL    HW1 4631   5.390   7.016   5.225
 1244SOL    HW2 4632   5.457   6.869   5.198
 1245SOL     OW 4633   5.163   5.954   1.245
 1245SOL    HW1 4634   5.094   6.015   1.285
 1245SOL    HW2 4635   5.234   6.008   1.201
 1246SOL     OW 4636   3.888   1.308   2.247
 1246SOL    HW1 4637   3.925   1.239   2.310
 1246SOL    HW2 4638   3.907   1.399   2.283
 1247SOL     OW 4639   6.264   6.794   4.696
 1247SOL    HW1 4640   6.229   6.884   4.724
 1247SOL    HW2 4641   6.200   6.753   4.631
 1248SOL     OW 4642   0.805   6.205   3.830
 1248SOL    HW1 4643   0.742   6.277   3.801
 1248SOL    HW2 4644   0.759   6.116   3.820
 1249SOL     OW 4645   6.682   4.313   1.682
 1249SOL    HW1 4646   6.601   4.276   1.727
 1249SOL    HW2 4647   6.764   4.269   1.719
 1250SOL     OW 4648   6.630   2.961   5.276
 1250SOL    HW1 4649   6.655   2.946   5.180
 1250SOL    HW2 4650   6.571   3.042   5.283
 1251SOL     OW 4651   2.224   0.666   2.662
 1251SOL    HW1 4652   2.128   0.692   2.650
 1251SOL    HW2 4653   2.244   0.585   2.606
 1252SOL     OW 4654   3.454   5.291   6.460
 1252SOL    HW1 4655   3.398   5.370   6.483
 1252SOL    HW2 4656   3.529   5.282   6.526
 1253SOL     OW 4657   2.665   0.736   1.736
 1253SOL    HW1 4658   2.623   0.645   1.729
 1253SOL    HW2 4659   2.639   0.791   1.657
 1254SOL     OW 4660   6.444   1.471   3.279
 1254SOL    HW1 4661   6.377   1.545   3.287
 1254SOL    HW2 4662   6.510   1.494   3.207
 1255SOL     OW 4663   5.807   2.730   5.189
 1255SOL    HW1 4664   5.746   2.667   5.140
 1255SOL    HW2 4665   5.831   2.807   5.129
 1256SOL     OW 4666   0.085   5.959   2.943
 1256SOL    HW1 4667   0.109   5.939   3.038
 1256SOL    HW2 4668   7.011   5.943   2.929
 1257SOL     OW 4669   6.693   4.534   4.318
 1257SOL    HW1 4670   6.751   4.611   4.345
 1257SOL    HW2 4671   6.657   4.549   4.226
 1258SOL     OW 4672   2.394   5.917   2.543
 1258SOL    HW1 4673   2.382   5.899   2.640
 1258SOL    HW2 4674   2.309   5.898   2.494
 1259SOL     OW 4675   3.599   6.566   4.926
 1259SOL    HW1 4676   3.500   6.565   4.943
 1259SOL    HW2 4677   3.640   6.647   4.967
 1260SOL     OW 4678   3.211   0.988   1.578
 1260SOL    HW1 4679   3.224   1.072   1.527
 1260SOL    HW2 4680   3.121   0.990   1.623
 1261SOL     OW 4681   6.820   3.521   0.239
 1261SOL    HW1 4682   6.915   3.534   0.268
 1261SOL    HW2 4683   6.770   3.472   0.311
 1262SOL     OW 4684   4.747   4.725   1.207
 1262SOL    HW1 4685   4.664   4.776   1.185
 1262SOL    HW2 4686   4.803   4.778   1.271
 1263SOL     OW 4687   6.303   1.955   0.826
 1263SOL    HW1 4688   6.334   2.000   0.743
 1263SOL    HW2 4689   6.369   1.972   0.900
 1264SOL     OW 4690   0.451   4.146   2.808
 1264SOL    HW1 4691   0.440   4.181   2.901
 1264SOL    HW2 4692   0.548   4.131   2.790
 1265SOL     OW 4693   6.634   4.737   3.606
 1265SOL    HW1 4694   6.581   4.652   3.603
 1265SOL    HW2 4695   6.729   4.716   3.628
 1266SOL     OW 4696   2.415   1.100   3.942
 1266SOL    HW1 4697   2.464   1.040   4.005
 1266SOL    HW2 4698   2.391   1.185   3.989
 1267SOL     OW 4699   5.712   5.790   1.591
 1267SOL    HW1 4700   5.626   5.770   1.638
 1267SOL    HW2 4701   5.783   5.808   1.658
 1268SOL     OW 4702   5.248   2.303   7.006
 1268SOL    HW1 4703   5.232   2.368   6.931
 1268SOL    HW2 4704   5.169   2.243   7.016
 1269SOL     OW 4705   6.051   6.294   5.074
 1269SOL    HW1 4706   5.984   6.366   5.094
 1269SOL    HW2 4707   6.010   6.205   5.093
 1270SOL     OW 4708   2.195   4.129   4.293
 1270SOL    HW1 4709   2.199   4.108   4.390
 1270SOL    HW2 4710   2.263   4.200   4.271
 1271SOL     OW 4711   3.423   1.663   3.076
 1271SOL    HW1 4712   3.362   1.710   3.011
 1271SOL    HW2 4713   3.390   1.677   3.169
 1272SOL     OW 4714   0.207   6.136   1.011
 1272SOL    HW1 4715   0.147   6.069   0.968
 1272SOL    HW2 4716   0.165   6.169   1.096
 1273SOL     OW 4717   1.896   4.130   7.017
 1273SOL    HW1 4718   1.834   4.081   0.054
 1273SOL    HW2 4719   1.986   4.138   0.037
 1274SOL     OW 4720   6.780   3.346   1.263
 1274SOL    HW1 4721   6.862   3.310   1.216
 1274SOL    HW2 4722   6.764   3.292   1.346
 1275SOL     OW 4723   4.374   0.305   3.234
 1275SOL    HW1 4724   4.412   0.239   3.299
 1275SOL    HW2 4725   4.359   0.259   3.146
 1276SOL     OW 4726   6.894   0.508   3.431
 1276SOL    HW1 4727   6.804   0.510   3.388
 1276SOL    HW2 4728   6.953   0.577   3.389
 1277SOL     OW 4729   0.811   0.472   4.419
 1277SOL    HW1 4730   0.742   0.438   4.483
 1277SOL    HW2 4731   0.776   0.463   4.326
 1278SOL     OW 4732   1.479   1.623   5.495
 1278SOL    HW1 4733   1.384   1.600   5.516
 1278SOL    HW2 4734   1.540   1.553   5.531
 1279SOL     OW 4735   2.064   6.992   0.870
 1279SOL    HW1 4736   2.147   6.964   0.823
 1279SOL    HW2 4737   2.089   0.011   0.958
 1280SOL     OW 4738   2.383   6.185   3.308
 1280SOL    HW1 4739   2.390   6.239   3.224
 1280SOL    HW2 4740   2.303   6.124   3.301
 1281SOL     OW 4741   1.188   5.608   2.949
 1281SOL    HW1 4742   1.238   5.693   2.963
 1281SOL    HW2 4743   1.254   5.532   2.945
 1282SOL     OW 4744   1.215   1.026   0.828
 1282SOL    HW1 4745   1.157   1.100   0.862
 1282SOL    HW2 4746   1.298   1.064   0.789
 1283SOL     OW 4747   5.497   2.855   5.281
 1283SOL    HW1 4748   5.595   2.867   5.296
 1283SOL    HW2 4749   5.449   2.939   5.308
 1284SOL     OW 4750   3.481   3.032   1.749
 1284SOL    HW1 4751   3.436   2.948   1.718
 1284SOL    HW2 4752   3.427   3.111   1.721
 1285SOL     OW 4753   5.756   3.647   6.363
 1285SOL    HW1 4754   5.852   3.623   6.377
 1285SOL    HW2 4755   5.697   3.578   6.407
 1286SOL     OW 4756   4.686   4.313   2.518
 1286SOL    HW1 4757   4.672   4.386   2.451
 1286SOL    HW2 4758   4.642   4.338   2.604
 1287SOL     OW 4759   5.437   4.494   6.202
 1287SOL    HW1 4760   5.452   4.567   6.269
 1287SOL    HW2 4761   5.397   4.415   6.248
 1288SOL     OW 4762   6.590   3.725   1.344
 1288SOL    HW1 4763   6.601   3.784   1.264
 1288SOL    HW2 4764   6.495   3.729   1.375
 1289SOL     OW 4765   0.694   6.055   1.839
 1289SOL    HW1 4766   0.686   6.010   1.928
 1289SOL    HW2 4767   0.706   6.153   1.852
 1290SOL     OW 4768   0.432   1.101   0.210
 1290SOL    HW1 4769   0.482   1.027   0.253
 1290SOL    HW2 4770   0.495   1.161   0.160
 1291SOL     OW 4771   1.427   4.102   6.167
 1291SOL    HW1 4772   1.465   4.189   6.196
 1291SOL    HW2 4773   1.491   4.057   6.105
 1292SOL     OW 4774   6.526   5.169   2.039
 1292SOL    HW1 4775   6.436   5.212   2.048
 1292SOL    HW2 4776   6.593   5.220   2.094
 1293SOL     OW 4777   2.773   1.471   6.466
 1293SOL    HW1 4778   2.848   1.508   6.521
 1293SOL    HW2 4779   2.688   1.473   6.520
 1294SOL     OW 4780   0.648   3.140   1.191
 1294SOL    HW1 4781   0.690   3.224   1.156
 1294SOL    HW2 4782   0.694   3.061   1.150
 1295SOL     OW 4783   6.236   3.270   2.734
 1295SOL    HW1 4784   6.279   3.358   2.718
 1295SOL    HW2 4785   6.262   3.206   2.661
 1296SOL     OW 4786   4.288   0.861   5.534
 1296SOL    HW1 4787   4.386   0.881   5.536
 1296SOL    HW2 4788   4.246   0.891   5.620
 1297SOL     OW 4789   5.910   0.719   6.367
 1297SOL    HW1 4790   5.942   0.814   6.363
 1297SOL    HW2 4791   5.922   0.684   6.460
 1298SOL     OW 4792   6.138   3.400   3.402
 1298SOL    HW1 4793   6.139   3.447   3.314
 1298SOL    HW2 4794   6.179   3.309   3.393
 1299SOL     OW 4795   1.081   3.490   2.579
 1299SOL    HW1 4796   0.995   3.518   2.535
 1299SOL    HW2 4797   1.153   3.555   2.555
 1300SOL     OW 4798   3.026   3.948   2.369
 1300SOL    HW1 4799   2.982   4.001   2.296
 1300SOL    HW2 4800   3.035   3.853   2.340
 1301SOL     OW 4801   1.006   5.966   2.571
 1301SOL    HW1 4802   1.067   5.982   2.493
 1301SOL    HW2 4803   0.920   6.015   2.557
 1302SOL     OW 4804   3.407   0.327   4.936
 1302SOL    HW1 4805   3.436   0.308   4.843
 1302SOL    HW2 4806   3.461   0.403   4.973
 1303SOL     OW 4807   4.182   1.843   0.362
 1303SOL    HW1 4808   4.169   1.785   0.442
 1303SOL    HW2 4809   4.273   1.884   0.365
 1304SOL     OW 4810   1.675   1.240   6.754
 1304SOL    HW1 4811   1.707   1.167   6.814
 1304SOL    HW2 4812   1.743   1.257   6.682
 1305SOL     OW 4813   5.752   5.619   6.415
 1305SOL    HW1 4814   5.824   5.673   6.459
 1305SOL    HW2 4815   5.700   5.678   6.354
 1306SOL     OW 4816   0.532   4.888   5.171
 1306SOL    HW1 4817   0.600   4.839   5.116
 1306SOL    HW2 4818   0.515   4.838   5.256
 1307SOL     OW 4819   1.906   2.739   4.331
 1307SOL    HW1 4820   1.900   2.751   4.430
 1307SOL    HW2 4821   1.908   2.641   4.309
 1308SOL     OW 4822   3.661   5.734   4.543
 1308SOL    HW1 4823   3.724   5.696   4.611
 1308SOL    HW2 4824   3.604   5.662   4.505
 1309SOL     OW 4825   5.369   3.079   5.328
 1309SOL    HW1 4826   5.400   3.149   5.263
 1309SOL    HW2 4827   5.270   3.070   5.323
 1310SOL     OW 4828   6.377   3.802   5.081
 1310SOL    HW1 4829   6.304   3.751   5.036
 1310SOL    HW2 4830   6.432   3.849   5.012
 1311SOL     OW 4831   6.623   6.416   3.919
 1311SOL    HW1 4832   6.683   6.464   3.983
 1311SOL    HW2 4833   6.531   6.409   3.959
 1312SOL     OW 4834   0.889   0.310   6.624
 1312SOL    HW1 4835   0.806   0.282   6.577
 1312SOL    HW2 4836   0.959   0.238   6.615
 1313SOL     OW 4837   2.016   5.469   5.586
 1313SOL    HW1 4838   1.998   5.529   5.508
 1313SOL    HW2 4839   2.053   5.382   5.553
 1314SOL     OW 4840   2.074   1.807   5.264
 1314SOL    HW1 4841   2.057   1.869   5.340
 1314SOL    HW2 4842   2.161   1.760   5.278
 1315SOL     OW 4843   0.863   1.117   0.445
 1315SOL    HW1 4844   0.952   1.117   0.399
 1315SOL    HW2 4845   0.843   1.025   0.479
 1316SOL     OW 4846   2.091   6.829   3.648
 1316SOL    HW1 4847   2.078   6.910   3.704
 1316SOL    HW2 4848   2.128   6.755   3.704
 1317SOL     OW 4849   1.236   3.996   4.430
 1317SOL    HW1 4850   1.187   4.082   4.413
 1317SOL    HW2 4851   1.316   3.991   4.370
 1318SOL     OW 4852   6.883   0.733   0.709
 1318SOL    HW1 4853   6.887   0.777   0.620
 1318SOL    HW2 4854   6.800   0.761   0.757
 1319SOL     OW 4855   6.643   1.804   0.031
 1319SOL    HW1 4856   6.735   1.810   7.016
 1319SOL    HW2 4857   6.578   1.844   6.989
 1320SOL     OW 4858   6.014   3.728   0.149
 1320SOL    HW1 4859   6.025   3.666   0.227
 1320SOL    HW2 4860   5.953   3.686   0.082
 1321SOL     OW 4861   4.206   2.879   6.530
 1321SOL    HW1 4862   4.201   2.787   6.492
 1321SOL    HW2 4863   4.301   2.909   6.534
 1322SOL     OW 4864   5.301   0.738   3.610
 1322SOL    HW1 4865   5.378   0.677   3.627
 1322SOL    HW2 4866   5.334   0.821   3.564
 1323SOL     OW 4867   5.161   2.084   5.405
 1323SOL    HW1 4868   5.246   2.064   5.454
 1323SOL    HW2 4869   5.138   2.006   5.346
 1324SOL     OW 4870   0.924   2.689   1.608
 1324SOL    HW1 4871   0.897   2.613   1.667
 1324SOL    HW2 4872   0.891   2.673   1.515
 1325SOL     OW 4873   2.758   6.867   1.867
 1325SOL    HW1 4874   2.742   6.953   1.819
 1325SOL    HW2 4875   2.855   6.843   1.863
 1326SOL     OW 4876   4.695   2.793   4.876
 1326SOL    HW1 4877   4.732   2.872   4.923
 1326SOL    HW2 4878   4.699   2.808   4.777
 1327SOL     OW 4879   2.998   5.304   2.636
 1327SOL    HW1 4880   3.019   5.380   2.575
 1327SOL    HW2 4881   3.039   5.320   2.725
 1328SOL     OW 4882   0.980   3.029   0.738
 1328SOL    HW1 4883   1.010   3.059   0.647
 1328SOL    HW2 4884   1.053   2.978   0.782
 1329SOL     OW 4885   6.965   2.031   0.446
 1329SOL    HW1 4886   6.966   2.039   0.546
 1329SOL    HW2 4887   6.908   1.954   0.419
 1330SOL     OW 4888   6.729   0.357   1.039
 1330SOL    HW1 4889   6.666   0.317   1.105
 1330SOL    HW2 4890   6.793   0.418   1.085
 1331SOL     OW 4891   4.530   2.204   2.917
 1331SOL    HW1 4892   4.599   2.132   2.924
 1331SOL    HW2 4893   4.444   2.172   2.956
 1332SOL     OW 4894   3.428   6.936   0.157
 1332SOL    HW1 4895   3.476   6.996   0.220
 1332SOL    HW2 4896   3.467   6.946   0.065
 1333SOL     OW 4897   3.687   4.073   6.178
 1333SOL    HW1 4898   3.674   4.120   6.091
 1333SOL    HW2 4899   3.600   4.072   6.228
 1334SOL     OW 4900   0.179   2.985   4.647
 1334SOL    HW1 4901   0.255   2.930   4.683
 1334SOL    HW2 4902   0.207   3.030   4.562
 1335SOL     OW 4903   3.051   6.515   3.127
 1335SOL    HW1 4904   2.986   6.501   3.052
 1335SOL    HW2 4905   3.126   6.449   3.119
 1336SOL     OW 4906   1.649   1.076   6.461
 1336SOL    HW1 4907   1.635   1.174   6.477
 1336SOL    HW2 4908   1.565   1.036   6.423
 1337SOL     OW 4909   0.891   1.554   4.965
 1337SOL    HW1 4910   0.973   1.565   5.023
 1337SOL    HW2 4911   0.810   1.549   5.023
 1338SOL     OW 4912   4.486   3.503   5.723
 1338SOL    HW1 4913   4.483   3.597   5.690
 1338SOL    HW2 4914   4.399   3.481   5.767
 1339SOL     OW 4915   6.911   6.710   0.209
 1339SOL    HW1 4916   6.911   6.790   0.269
 1339SOL    HW2 4917   6.980   6.645   0.241
 1340SOL     OW 4918   1.100   1.523   2.236
 1340SOL    HW1 4919   1.066   1.504   2.144
 1340SOL    HW2 4920   1.035   1.488   2.304
 1341SOL     OW 4921   3.766   0.208   5.142
 1341SOL    HW1 4922   3.701   0.197   5.217
 1341SOL    HW2 4923   3.735   0.282   5.081
 1342SOL     OW 4924   1.283   4.939   6.211
 1342SOL    HW1 4925   1.373   4.983   6.207
 1342SOL    HW2 4926   1.237   4.948   6.123
 1343SOL     OW 4927   4.118   6.687   2.630
 1343SOL    HW1 4928   4.085   6.701   2.537
 1343SOL    HW2 4929   4.210   6.648   2.628
 1344SOL     OW 4930   6.746   3.946   3.504
 1344SOL    HW1 4931   6.782   3.904   3.588
 1344SOL    HW2 4932   6.649   3.924   3.495
 1345SOL     OW 4933   0.864   1.874   3.481
 1345SOL    HW1 4934   0.929   1.831   3.544
 1345SOL    HW2 4935   0.775   1.881   3.525
 1346SOL     OW 4936   1.882   6.972   3.084
 1346SOL    HW1 4937   1.856   6.987   2.989
 1346SOL    HW2 4938   1.809   6.924   3.132
 1347SOL     OW 4939   6.316   6.350   3.770
 1347SOL    HW1 4940   6.353   6.285   3.703
 1347SOL    HW2 4941   6.377   6.355   3.849
 1348SOL     OW 4942   5.642   5.228   2.896
 1348SOL    HW1 4943   5.687   5.312   2.927
 1348SOL    HW2 4944   5.543   5.242   2.896
 1349SOL     OW 4945   4.738   2.485   6.390
 1349SOL    HW1 4946   4.664   2.487   6.457
 1349SOL    HW2 4947   4.801   2.560   6.408
 1350SOL     OW 4948   3.735   4.839   6.814
 1350SOL    HW1 4949   3.810   4.788   6.855
 1350SOL    HW2 4950   3.672   4.776   6.769
 1351SOL     OW 4951   0.236   1.615   2.962
 1351SOL    HW1 4952   0.227   1.699   3.016
 1351SOL    HW2 4953   0.151   1.563   2.968
 1352SOL     OW 4954   0.699   0.859   3.404
 1352SOL    HW1 4955   0.777   0.865   3.342
 1352SOL    HW2 4956   0.676   0.762   3.419
 1353SOL     OW 4957   0.041   4.215   5.768
 1353SOL    HW1 4958   0.062   4.155   5.691
 1353SOL    HW2 4959   6.966   4.228   5.776
 1354SOL     OW 4960   6.814   2.284   0.309
 1354SOL    HW1 4961   6.877   2.218   0.350
 1354SOL    HW2 4962   6.843   2.377   0.334
 1355SOL     OW 4963   5.527   3.376   6.040
 1355SOL    HW1 4964   5.477   3.316   5.978
 1355SOL    HW2 4965   5.519   3.471   6.009
 1356SOL     OW 4966   3.324   3.932   4.042
 1356SOL    HW1 4967   3.325   3.961   4.137
 1356SOL    HW2 4968   3.325   4.012   3.983
 1357SOL     OW 4969   2.858   3.364   5.861
 1357SOL    HW1 4970   2.904   3.431   5.802
 1357SOL    HW2 4971   2.788   3.316   5.808
 1358SOL     OW 4972   3.087   1.960   6.263
 1358SOL    HW1 4973   3.177   1.984   6.300
 1358SOL    HW2 4974   3.024   1.940   6.339
 1359SOL     OW 4975   6.766   4.742   0.818
 1359SOL    HW1 4976   6.809   4.832   0.830
 1359SOL    HW2 4977   6.836   4.674   0.795
 1360SOL     OW 4978   4.105   3.552   2.625
 1360SOL    HW1 4979   4.140   3.621   2.561
 1360SOL    HW2 4980   4.061   3.597   2.702
 1361SOL     OW 4981   6.861   6.946   6.577
 1361SOL    HW1 4982   6.947   6.924   6.530
 1361SOL    HW2 4983   6.864   6.909   6.670
 1362SOL     OW 4984   2.934   3.793   4.482
 1362SOL    HW1 4985   2.852   3.794   4.424
 1362SOL    HW2 4986   2.935   3.709   4.536
 1363SOL     OW 4987   6.914   6.053   3.791
 1363SOL    HW1 4988   6.900   6.020   3.884
 1363SOL    HW2 4989   6.882   6.147   3.784
 1364SOL     OW 4990   0.236   2.461   6.879
 1364SOL    HW1 4991   0.215   2.371   6.840
 1364SOL    HW2 4992   0.175   2.529   6.839
 1365SOL     OW 4993   1.667   3.650   5.739
 1365SOL    HW1 4994   1.761   3.667   5.707
 1365SOL    HW2 4995   1.620   3.592   5.673
 1366SOL     OW 4996   0.286   4.111   0.897
 1366SOL    HW1 4997   0.247   4.198   0.927
 1366SOL    HW2 4998   0.375   4.097   0.941
 1367SOL     OW 4999   1.405   5.451   2.871
 1367SOL    HW1 5000   1.495   5.444   2.827
 1367SOL    HW2 5001   1.335   5.418   2.809
 1368SOL     OW 5002   6.657   0.332   4.389
 1368SOL    HW1 5003   6.734   0.361   4.334
 1368SOL    HW2 5004   6.608   0.258   4.343
 1369SOL     OW 5005   2.488   6.655   2.135
 1369SOL    HW1 5006   2.547   6.708   2.197
 1369SOL    HW2 5007   2.527   6.656   2.043
 1370SOL     OW 5008   6.345   2.043   3.926
 1370SOL    HW1 5009   6.347   2.023   3.828
 1370SOL    HW2 5010   6.254   2.074   3.951
 1371SOL     OW 5011   4.564   1.104   4.819
 1371SOL    HW1 5012   4.509   1.022   4.835
 1371SOL    HW2 5013   4.517   1.183   4.859
 1372SOL     OW 5014   0.109   1.899   1.187
 1372SOL    HW1 5015   0.020   1.873   1.149
 1372SOL    HW2 5016   0.110   1.882   1.285
 1373SOL     OW 5017   4.689   2.170   0.505
 1373SOL    HW1 5018   4.749   2.125   0.572
 1373SOL    HW2 5019   4.698   2.123   0.417
 1374SOL     OW 5020   5.232   4.175   6.942
 1374SOL    HW1 5021   5.224   4.137   0.010
 1374SOL    HW2 5022   5.147   4.160   6.891
 1375SOL     OW 5023   0.102   6.879   6.469
 1375SOL    HW1 5024   0.136   6.904   6.378
 1375SOL    HW2 5025   0.165   6.815   6.512
 1376SOL     OW 5026   3.574   4.777   5.454
 1376SOL    HW1 5027   3.594   4.854   5.394
 1376SOL    HW2 5028   3.504   4.804   5.521
 1377SOL     OW 5029   1.174   2.928   3.522
 1377SOL    HW1 5030   1.211   2.847   3.477
 1377SOL    HW2 5031   1.125   2.900   3.604
 1378SOL     OW 5032   5.242   2.372   5.206
 1378SOL    HW1 5033   5.260   2.278   5.234
 1378SOL    HW2 5034   5.150   2.379   5.168
 1379SOL     OW 5035   4.301   5.283   3.103
 1379SOL    HW1 5036   4.327   5.379   3.116
 1379SOL    HW2 5037   4.380   5.225   3.119
 1380SOL     OW 5038   0.114   6.233   3.045
 1380SOL    HW1 5039   0.033   6.267   2.997
 1380SOL    HW2 5040   0.130   6.137   3.019
 1381SOL     OW 5041   5.880   1.782   0.058
 1381SOL    HW1 5042   5.895   1.862   0.116
 1381SOL    HW2 5043   5.795   1.793   0.007
 1382SOL     OW 5044   5.062   3.055   1.134
 1382SOL    HW1 5045   5.146   3.030   1.084
 1382SOL    HW2 5046   5.057   3.154   1.143
 1383SOL     OW 5047   0.981   0.480   1.673
 1383SOL    HW1 5048   1.025   0.425   1.601
 1383SOL    HW2 5049   0.964   0.422   1.753
 1384SOL     OW 5050   5.092   6.726   1.678
 1384SOL    HW1 5051   5.025   6.666   1.635
 1384SOL    HW2 5052   5.137   6.781   1.607
 1385SOL     OW 5053   2.900   4.919   3.463
 1385SOL    HW1 5054   2.971   4.986   3.444
 1385SOL    HW2 5055   2.851   4.946   3.546
 1386SOL     OW 5056   3.388   0.441   4.009
 1386SOL    HW1 5057   3.411   0.344   4.020
 1386SOL    HW2 5058   3.335   0.452   3.924
 1387SOL     OW 5059   3.517   5.790   2.811
 1387SOL    HW1 5060   3.598   5.743   2.846
 1387SOL    HW2 5061   3.530   5.889   2.817
 1388SOL     OW 5062   6.492   0.004   1.899
 1388SOL    HW1 5063   6.487   6.968   1.980
 1388SOL    HW2 5064   6.415   7.008   1.839
 1389SOL     OW 5065   6.362   1.676   4.421
 1389SOL    HW1 5066   6.341   1.697   4.326
 1389SOL    HW2 5067   6.431   1.604   4.425
 1390SOL     OW 5068   0.495   3.897   6.665
 1390SOL    HW1 5069   0.589   3.919   6.639
 1390SOL    HW2 5070   0.486   3.798   6.677
 1391SOL     OW 5071   6.159   6.447   4.439
 1391SOL    HW1 5072   6.175   6.350   4.456
 1391SOL    HW2 5073   6.212   6.502   4.503
 1392SOL     OW 5074   6.152   6.200   6.350
 1392SOL    HW1 5075   6.206   6.223   6.430
 1392SOL    HW2 5076   6.131   6.283   6.298
 1393SOL     OW 5077   6.358   4.773   5.188
 1393SOL    HW1 5078   6.407   4.691   5.158
 1393SOL    HW2 5079   6.422   4.833   5.237
 1394SOL     OW 5080   3.550   5.366   5.487
 1394SOL    HW1 5081   3.459   5.325   5.483
 1394SOL    HW2 5082   3.611   5.321   5.422
 1395SOL     OW 5083   2.402   4.291   5.536
 1395SOL    HW1 5084   2.386   4.193   5.546
 1395SOL    HW2 5085   2.473   4.319   5.601
 1396SOL     OW 5086   0.854   1.283   5.001
 1396SOL    HW1 5087   0.887   1.377   4.988
 1396SOL    HW2 5088   0.932   1.220   4.997
 1397SOL     OW 5089   0.277   6.969   3.673
 1397SOL    HW1 5090   0.364   7.017   3.682
 1397SOL    HW2 5091   0.240   6.949   3.763
 1398SOL     OW 5092   3.005   0.495   6.188
 1398SOL    HW1 5093   3.027   0.504   6.091
 1398SOL    HW2 5094   3.085   0.460   6.238
 1399SOL     OW 5095   3.772   5.345   0.444
 1399SOL    HW1 5096   3.759   5.318   0.348
 1399SOL    HW2 5097   3.786   5.263   0.500
 1400SOL     OW 5098   0.097   1.322   2.926
 1400SOL    HW1 5099   0.088   1.228   2.958
 1400SOL    HW2 5100   0.056   1.331   2.835
 1401SOL     OW 5101   6.292   1.264   4.397
 1401SOL    HW1 5102   6.315   1.323   4.320
 1401SOL    HW2 5103   6.274   1.172   4.364
 1402SOL     OW 5104   6.751   3.805   6.939
 1402SOL    HW1 5105   6.810   3.762   6.871
 1402SOL    HW2 5106   6.674   3.849   6.893
 1403SOL     OW 5107   2.238   2.670   1.284
 1403SOL    HW1 5108   2.278   2.590   1.329
 1403SOL    HW2 5109   2.298   2.750   1.299
 1404SOL     OW 5110   5.838   6.824   0.223
 1404SOL    HW1 5111   5.768   6.782   0.166
 1404SOL    HW2 5112   5.920   6.767   0.223
 1405SOL     OW 5113   2.295   3.776   1.119
 1405SOL    HW1 5114   2.206   3.745   1.153
 1405SOL    HW2 5115   2.352   3.802   1.196
 1406SOL     OW 5116   1.016   5.286   0.912
 1406SOL    HW1 5117   0.940   5.245   0.963
 1406SOL    HW2 5118   1.103   5.261   0.956
 1407SOL     OW 5119   0.353   2.331   2.565
 1407SOL    HW1 5120   0.448   2.342   2.535
 1407SOL    HW2 5121   0.298   2.293   2.491
 1408SOL     OW 5122   5.584   1.206   6.111
 1408SOL    HW1 5123   5.634   1.286   6.077
 1408SOL    HW2 5124   5.494   1.203   6.068
 1409SOL     OW 5125   0.390   0.422   5.294
 1409SOL    HW1 5126   0.338   0.494   5.339
 1409SOL    HW2 5127   0.327   0.359   5.248
 1410SOL     OW 5128   1.679   3.348   6.678
 1410SOL    HW1 5129   1.658   3.254   6.650
 1410SOL    HW2 5130   1.653   3.411   6.605
 1411SOL     OW 5131   3.256   6.493   1.206
 1411SOL    HW1 5132   3.241   6.557   1.281
 1411SOL    HW2 5133   3.169   6.463   1.170
 1412SOL     OW 5134   0.430   1.863   1.135
 1412SOL    HW1 5135   0.330   1.856   1.132
 1412SOL    HW2 5136   0.470   1.790   1.079
 1413SOL     OW 5137   1.316   1.885   5.217
 1413SOL    HW1 5138   1.360   1.969   5.249
 1413SOL    HW2 5139   1.382   1.809   5.221
 1414SOL     OW 5140   2.427   1.318   2.125
 1414SOL    HW1 5141   2.433   1.371   2.041
 1414SOL    HW2 5142   2.489   1.240   2.119
 1415SOL     OW 5143   2.748   1.073   4.622
 1415SOL    HW1 5144   2.735   1.122   4.708
 1415SOL    HW2 5145   2.692   0.989   4.622
 1416SOL     OW 5146   5.183   5.100   4.418
 1416SOL    HW1 5147   5.277   5.116   4.446
 1416SOL    HW2 5148   5.128   5.073   4.498
 1417SOL     OW 5149   2.868   2.113   0.383
 1417SOL    HW1 5150   2.809   2.157   0.314
 1417SOL    HW2 5151   2.953   2.083   0.339
 1418SOL     OW 5152   3.028   3.952   3.233
 1418SOL    HW1 5153   3.093   3.875   3.232
 1418SOL    HW2 5154   3.030   3.998   3.144
 1419SOL     OW 5155   2.835   5.546   4.681
 1419SOL    HW1 5156   2.771   5.584   4.748
 1419SOL    HW2 5157   2.923   5.591   4.691
 1420SOL     OW 5158   3.092   6.956   1.102
 1420SOL    HW1 5159   3.065   0.028   1.115
 1420SOL    HW2 5160   3.055   6.900   1.177
 1421SOL     OW 5161   1.865   4.308   3.237
 1421SOL    HW1 5162   1.952   4.328   3.280
 1421SOL    HW2 5163   1.878   4.243   3.162
 1422SOL     OW 5164   1.386   3.761   1.271
 1422SOL    HW1 5165   1.325   3.694   1.228
 1422SOL    HW2 5166   1.373   3.759   1.371
 1423SOL     OW 5167   5.284   6.199   3.226
 1423SOL    HW1 5168   5.283   6.168   3.321
 1423SOL    HW2 5169   5.295   6.299   3.224
 1424SOL     OW 5170   6.186   5.206   6.441
 1424SOL    HW1 5171   6.172   5.271   6.515
 1424SOL    HW2 5172   6.277   5.219   6.401
 1425SOL     OW 5173   1.116   5.848   5.144
 1425SOL    HW1 5174   1.133   5.923   5.208
 1425SOL    HW2 5175   1.084   5.885   5.057
 1426SOL     OW 5176   1.854   3.245   6.051
 1426SOL    HW1 5177   1.922   3.181   6.013
 1426SOL    HW2 5178   1.834   3.219   6.146
 1427SOL     OW 5179   0.274   0.499   3.610
 1427SOL    HW1 5180   0.242   0.559   3.684
 1427SOL    HW2 5181   0.200   0.438   3.583
 1428SOL     OW 5182   6.834   3.309   0.420
 1428SOL    HW1 5183   6.741   3.310   0.456
 1428SOL    HW2 5184   6.871   3.216   0.426
 1429SOL     OW 5185   4.475   2.265   7.000
 1429SOL    HW1 5186   4.559   2.288   0.025
 1429SOL    HW2 5187   4.415   2.213   0.038
 1430SOL     OW 5188   1.779   4.598   3.791
 1430SOL    HW1 5189   1.810   4.532   3.859
 1430SOL    HW2 5190   1.787   4.558   3.700
 1431SOL     OW 5191   2.680   1.897   0.568
 1431SOL    HW1 5192   2.765   1.937   0.605
 1431SOL    HW2 5193   2.695   1.872   0.472
 1432SOL     OW 5194   2.767   1.601   2.307
 1432SOL    HW1 5195   2.774   1.592   2.406
 1432SOL    HW2 5196   2.803   1.519   2.262
 1433SOL     OW 5197   3.863   0.706   5.225
 1433SOL    HW1 5198   3.830   0.783   5.280
 1433SOL    HW2 5199   3.963   0.701   5.232
 1434SOL     OW 5200   0.182   0.258   5.551
 1434SOL    HW1 5201   0.246   0.185   5.529
 1434SOL    HW2 5202   0.231   0.346   5.552
 1435SOL     OW 5203   6.332   0.439   2.996
 1435SOL    HW1 5204   6.275   0.387   3.060
 1435SOL    HW2 5205   6.286   0.445   2.908
 1436SOL     OW 5206   5.467   3.875   6.959
 1436SOL    HW1 5207   5.554   3.922   6.951
 1436SOL    HW2 5208   5.423   3.901   0.022
 1437SOL     OW 5209   2.723   2.319   3.437
 1437SOL    HW1 5210   2.823   2.313   3.433
 1437SOL    HW2 5211   2.694   2.312   3.532
 1438SOL     OW 5212   2.985   5.958   1.374
 1438SOL    HW1 5213   2.955   5.862   1.367
 1438SOL    HW2 5214   2.935   6.003   1.448
 1439SOL     OW 5215   6.931   5.863   1.430
 1439SOL    HW1 5216   6.936   5.823   1.522
 1439SOL    HW2 5217   6.946   5.792   1.362
 1440SOL     OW 5218   3.225   2.814   6.639
 1440SOL    HW1 5219   3.316   2.784   6.611
 1440SOL    HW2 5220   3.221   2.913   6.643
 1441SOL     OW 5221   6.473   0.369   3.751
 1441SOL    HW1 5222   6.399   0.384   3.686
 1441SOL    HW2 5223   6.510   0.277   3.741
 1442SOL     OW 5224   0.387   5.930   0.312
 1442SOL    HW1 5225   0.411   5.839   0.349
 1442SOL    HW2 5226   0.471   5.979   0.291
 1443SOL     OW 5227   0.418   3.389   3.943
 1443SOL    HW1 5228   0.348   3.322   3.918
 1443SOL    HW2 5229   0.506   3.362   3.903
 1444SOL     OW 5230   5.015   6.047   0.887
 1444SOL    HW1 5231   4.989   6.116   0.954
 1444SOL    HW2 5232   4.964   6.063   0.802
 1445SOL     OW 5233   1.307   2.726   3.399
 1445SOL    HW1 5234   1.337   2.777   3.319
 1445SOL    HW2 5235   1.387   2.699   3.453
 1446SOL     OW 5236   6.254   1.616   6.796
 1446SOL    HW1 5237   6.239   1.696   6.738
 1446SOL    HW2 5238   6.182   1.611   6.866
 1447SOL     OW 5239   5.897   6.408   4.487
 1447SOL    HW1 5240   5.991   6.433   4.467
 1447SOL    HW2 5241   5.895   6.327   4.546
 1448SOL     OW 5242   6.961   2.965   5.295
 1448SOL    HW1 5243   6.868   2.969   5.257
 1448SOL    HW2 5244   6.978   3.047   5.350
 1449SOL     OW 5245   1.474   2.966   6.208
 1449SOL    HW1 5246   1.531   2.952   6.127
 1449SOL    HW2 5247   1.461   3.065   6.222
 1450SOL     OW 5248   0.564   1.924   0.417
 1450SOL    HW1 5249   0.591   1.917   0.513
 1450SOL    HW2 5250   0.593   1.843   0.368
 1451SOL     OW 5251   0.794   6.119   2.616
 1451SOL    HW1 5252   0.747   6.132   2.529
 1451SOL    HW2 5253   0.728   6.120   2.691
 1452SOL     OW 5254   4.409   1.709   5.324
 1452SOL    HW1 5255   4.345   1.633   5.313
 1452SOL    HW2 5256   4.382   1.764   5.403
 1453SOL     OW 5257   0.689   4.209   5.660
 1453SOL    HW1 5258   0.618   4.174   5.721
 1453SOL    HW2 5259   0.716   4.301   5.689
 1454SOL     OW 5260   0.457   2.835   2.083
 1454SOL    HW1 5261   0.537   2.791   2.124
 1454SOL    HW2 5262   0.382   2.835   2.149
 1455SOL     OW 5263   1.427   0.276   1.451
 1455SOL    HW1 5264   1.489   0.310   1.522
 1455SOL    HW2 5265   1.435   0.334   1.370
 1456SOL     OW 5266   6.469   0.299   6.390
 1456SOL    HW1 5267   6.442   0.329   6.482
 1456SOL    HW2 5268   6.387   0.288   6.333
 1457SOL     OW 5269   0.760   6.368   1.092
 1457SOL    HW1 5270   0.855   6.352   1.064
 1457SOL    HW2 5271   0.758   6.396   1.188
 1458SOL     OW 5272   5.901   5.289   4.510
 1458SOL    HW1 5273   5.909   5.200   4.464
 1458SOL    HW2 5274   5.809   5.326   4.496
 1459SOL     OW 5275   3.743   6.106   5.992
 1459SOL    HW1 5276   3.767   6.130   6.086
 1459SOL    HW2 5277   3.776   6.014   5.972
 1460SOL     OW 5278   1.084   0.189   5.160
 1460SOL    HW1 5279   1.106   0.163   5.254
 1460SOL    HW2 5280   1.008   0.254   5.160
 1461SOL     OW 5281   6.311   4.181   2.769
 1461SOL    HW1 5282   6.360   4.255   2.815
 1461SOL    HW2 5283   6.334   4.094   2.812
 1462SOL     OW 5284   1.326   1.368   0.220
 1462SOL    HW1 5285   1.350   1.272   0.203
 1462SOL    HW2 5286   1.396   1.427   0.180
 1463SOL     OW 5287   0.240   5.697   5.977
 1463SOL    HW1 5288   0.182   5.629   6.022
 1463SOL    HW2 5289   0.184   5.776   5.952
 1464SOL     OW 5290   0.363   5.748   2.070
 1464SOL    HW1 5291   0.386   5.840   2.040
 1464SOL    HW2 5292   0.329   5.751   2.164
 1465SOL     OW 5293   1.689   0.859   4.075
 1465SOL    HW1 5294   1.617   0.926   4.054
 1465SOL    HW2 5295   1.664   0.809   4.157
 1466SOL     OW 5296   2.768   2.018   2.396
 1466SOL    HW1 5297   2.672   1.992   2.392
 1466SOL    HW2 5298   2.819   1.965   2.329
 1467SOL     OW 5299   2.144   1.454   3.334
 1467SOL    HW1 5300   2.059   1.459   3.386
 1467SOL    HW2 5301   2.190   1.368   3.353
 1468SOL     OW 5302   2.402   5.531   2.542
 1468SOL    HW1 5303   2.464   5.608   2.557
 1468SOL    HW2 5304   2.423   5.459   2.608
 1469SOL     OW 5305   7.004   0.652   2.609
 1469SOL    HW1 5306   7.014   0.572   2.668
 1469SOL    HW2 5307   0.071   0.684   2.581
 1470SOL     OW 5308   1.404   1.646   2.569
 1470SOL    HW1 5309   1.406   1.634   2.469
 1470SOL    HW2 5310   1.367   1.563   2.611
 1471SOL     OW 5311   0.599   0.414   0.688
 1471SOL    HW1 5312   0.590   0.402   0.589
 1471SOL    HW2 5313   0.575   0.508   0.712
 1472SOL     OW 5314   2.232   5.609   5.710
 1472SOL    HW1 5315   2.159   5.540   5.711
 1472SOL    HW2 5316   2.316   5.569   5.746
 1473SOL     OW 5317   3.393   5.689   5.277
 1473SOL    HW1 5318   3.335   5.608   5.277
 1473SOL    HW2 5319   3.349   5.763   5.225
 1474SOL     OW 5320   5.224   5.091   1.873
 1474SOL    HW1 5321   5.225   5.155   1.796
 1474SOL    HW2 5322   5.207   5.140   1.958
 1475SOL     OW 5323   5.473   0.599   1.463
 1475SOL    HW1 5324   5.446   0.652   1.383
 1475SOL    HW2 5325   5.397   0.541   1.492
 1476SOL     OW 5326   2.558   1.045   1.589
 1476SOL    HW1 5327   2.626   0.984   1.547
 1476SOL    HW2 5328   2.567   1.136   1.549
 1477SOL     OW 5329   3.269   6.512   6.104
 1477SOL    HW1 5330   3.348   6.451   6.099
 1477SOL    HW2 5331   3.292   6.600   6.063
 1478SOL     OW 5332   6.378   5.590   5.415
 1478SOL    HW1 5333   6.307   5.627   5.356
 1478SOL    HW2 5334   6.439   5.663   5.445
 1479SOL     OW 5335   2.373   2.515   0.987
 1479SOL    HW1 5336   2.360   2.583   1.060
 1479SOL    HW2 5337   2.441   2.448   1.016
 1480SOL     OW 5338   3.304   0.771   4.903
 1480SOL    HW1 5339   3.351   0.779   4.815
 1480SOL    HW2 5340   3.361   0.811   4.975
 1481SOL     OW 5341   6.062   3.321   6.579
 1481SOL    HW1 5342   6.074   3.260   6.501
 1481SOL    HW2 5343   6.086   3.273   6.663
 1482SOL     OW 5344   4.760   1.366   1.528
 1482SOL    HW1 5345   4.815   1.364   1.611
 1482SOL    HW2 5346   4.731   1.272   1.505
 1483SOL     OW 5347   4.951   2.483   5.691
 1483SOL    HW1 5348   4.889   2.471   5.769
 1483SOL    HW2 5349   4.917   2.429   5.614
 1484SOL     OW 5350   4.646   4.878   4.060
 1484SOL    HW1 5351   4.609   4.862   4.152
 1484SOL    HW2 5352   4.668   4.975   4.049
 1485SOL     OW 5353   4.246   0.808   4.397
 1485SOL    HW1 5354   4.326   0.819   4.456
 1485SOL    HW2 5355   4.184   0.885   4.410
 1486SOL     OW 5356   5.882   0.738   2.725
 1486SOL    HW1 5357   5.918   0.660   2.674
 1486SOL    HW2 5358   5.783   0.728   2.737
 1487SOL     OW 5359   0.120   2.667   0.223
 1487SOL    HW1 5360   0.201   2.674   0.166
 1487SOL    HW2 5361   0.042   2.708   0.176
 1488SOL     OW 5362   5.763   6.937   3.791
 1488SOL    HW1 5363   5.838   7.002   3.806
 1488SOL    HW2 5364   5.677   6.987   3.787
 1489SOL     OW 5365   4.404   5.320   6.105
 1489SOL    HW1 5366   4.375   5.226   6.084
 1489SOL    HW2 5367   4.503   5.326   6.096
 1490SOL     OW 5368   0.255   3.629   1.205
 1490SOL    HW1 5369   0.267   3.534   1.235
 1490SOL    HW2 5370   0.308   3.689   1.263
 1491SOL     OW 5371   6.195   4.912   1.932
 1491SOL    HW1 5372   6.214   4.852   2.009
 1491SOL    HW2 5373   6.123   4.870   1.875
 1492SOL     OW 5374   6.264   0.135   2.411
 1492SOL    HW1 5375   6.312   0.182   2.485
 1492SOL    HW2 5376   6.303   0.043   2.400
 1493SOL     OW 5377   3.984   6.804   6.255
 1493SOL    HW1 5378   3.960   6.713   6.287
 1493SOL    HW2 5379   4.073   6.802   6.210
 1494SOL     OW 5380   5.132   2.428   6.542
 1494SOL    HW1 5381   5.095   2.370   6.615
 1494SOL    HW2 5382   5.085   2.517   6.543
 1495SOL     OW 5383   0.839   3.670   5.323
 1495SOL    HW1 5384   0.935   3.647   5.339
 1495SOL    HW2 5385   0.833   3.755   5.271
 1496SOL     OW 5386   0.751   1.477   0.866
 1496SOL    HW1 5387   0.848   1.487   0.890
 1496SOL    HW2 5388   0.695   1.512   0.941
 1497SOL     OW 5389   5.188   3.130   2.423
 1497SOL    HW1 5390   5.259   3.143   2.493
 1497SOL    HW2 5391   5.107   3.090   2.465
 1498SOL     OW 5392   2.329   4.609   6.287
 1498SOL    HW1 5393   2.411   4.592   6.232
 1498SOL    HW2 5394   2.308   4.529   6.343
 1499SOL     OW 5395   0.925   2.165   5.161
 1499SOL    HW1 5396   0.931   2.080   5.109
 1499SOL    HW2 5397   0.835   2.207   5.147
 1500SOL     OW 5398   0.526   0.202   0.225
 1500SOL    HW1 5399   0.466   0.123   0.238
 1500SOL    HW2 5400   0.562   0.202   0.132
 1501SOL     OW 5401   5.375   2.458   6.342
 1501SOL    HW1 5402   5.297   2.430   6.285
 1501SOL    HW2 5403   5.395   2.385   6.408
 1502SOL     OW 5404   4.069   0.536   0.036
 1502SOL    HW1 5405   4.086   0.559   0.132
 1502SOL    HW2 5406   4.027   0.445   0.031
 1503SOL     OW 5407   1.456   2.640   2.445
 1503SOL    HW1 5408   1.537   2.691   2.414
 1503SOL    HW2 5409   1.374   2.685   2.410
 1504SOL     OW 5410   0.331   0.373   4.254
 1504SOL    HW1 5411   0.324   0.275   4.274
 1504SOL    HW2 5412   0.333   0.425   4.340
 1505SOL     OW 5413   4.494   0.315   4.893
 1505SOL    HW1 5414   4.511   0.373   4.814
 1505SOL    HW2 5415   4.425   0.358   4.951
 1506SOL     OW 5416   0.640   6.431   0.464
 1506SOL    HW1 5417   0.705   6.446   0.539
 1506SOL    HW2 5418   0.578   6.356   0.487
 1507SOL     OW 5419   6.861   1.789   5.938
 1507SOL    HW1 5420   6.887   1.740   5.855
 1507SOL    HW2 5421   6.913   1.874   5.943
 1508SOL     OW 5422   6.290   1.237   0.754
 1508SOL    HW1 5423   6.235   1.315   0.723
 1508SOL    HW2 5424   6.378   1.270   0.787
 1509SOL     OW 5425   4.284   1.813   5.136
 1509SOL    HW1 5426   4.339   1.792   5.217
 1509SOL    HW2 5427   4.331   1.780   5.054
 1510SOL     OW 5428   5.059   1.109   4.525
 1510SOL    HW1 5429   5.023   1.171   4.595
 1510SOL    HW2 5430   4.987   1.046   4.497
 1511SOL     OW 5431   4.057   3.143   3.670
 1511SOL    HW1 5432   3.969   3.098   3.656
 1511SOL    HW2 5433   4.113   3.088   3.732
 1512SOL     OW 5434   6.743   6.359   0.818
 1512SOL    HW1 5435   6.757   6.372   0.917
 1512SOL    HW2 5436   6.831   6.338   0.775
 1513SOL     OW 5437   4.009   0.610   4.765
 1513SOL    HW1 5438   4.103   0.582   4.786
 1513SOL    HW2 5439   3.945   0.543   4.803
 1514SOL     OW 5440   3.633   2.642   5.365
 1514SOL    HW1 5441   3.544   2.666   5.403
 1514SOL    HW2 5442   3.655   2.548   5.390
 1515SOL     OW 5443   5.522   2.086   2.308
 1515SOL    HW1 5444   5.602   2.039   2.270
 1515SOL    HW2 5445   5.532   2.094   2.407
 1516SOL     OW 5446   6.446   5.473   5.713
 1516SOL    HW1 5447   6.463   5.433   5.803
 1516SOL    HW2 5448   6.499   5.423   5.644
 1517SOL     OW 5449   4.291   5.564   2.646
 1517SOL    HW1 5450   4.248   5.638   2.699
 1517SOL    HW2 5451   4.384   5.591   2.621
 1518SOL     OW 5452   0.396   2.510   0.358
 1518SOL    HW1 5453   0.312   2.473   0.395
 1518SOL    HW2 5454   0.376   2.559   0.273
 1519SOL     OW 5455   6.634   4.506   1.504
 1519SOL    HW1 5456   6.556   4.565   1.524
 1519SOL    HW2 5457   6.652   4.447   1.583
 1520SOL     OW 5458   0.306   4.451   1.819
 1520SOL    HW1 5459   0.358   4.418   1.740
 1520SOL    HW2 5460   0.221   4.493   1.787
 1521SOL     OW 5461   2.150   4.183   6.215
 1521SOL    HW1 5462   2.196   4.230   6.291
 1521SOL    HW2 5463   2.090   4.112   6.252
 1522SOL     OW 5464   5.674   6.170   5.156
 1522SOL    HW1 5465   5.596   6.224   5.189
 1522SOL    HW2 5466   5.721   6.220   5.084
 1523SOL     OW 5467   4.240   6.421   6.803
 1523SOL    HW1 5468   4.249   6.520   6.805
 1523SOL    HW2 5469   4.191   6.393   6.720
 1524SOL     OW 5470   2.261   1.531   2.827
 1524SOL    HW1 5471   2.194   1.597   2.861
 1524SOL    HW2 5472   2.321   1.576   2.761
 1525SOL     OW 5473   6.397   3.527   0.537
 1525SOL    HW1 5474   6.416   3.600   0.470
 1525SOL    HW2 5475   6.469   3.458   0.532
 1526SOL     OW 5476   6.862   0.958   6.934
 1526SOL    HW1 5477   6.781   0.920   6.979
 1526SOL    HW2 5478   6.943   0.937   6.989
 1527SOL     OW 5479   4.009   1.570   4.848
 1527SOL    HW1 5480   3.977   1.647   4.904
 1527SOL    HW2 5481   4.107   1.578   4.832
 1528SOL     OW 5482   3.847   4.897   2.709
 1528SOL    HW1 5483   3.859   4.870   2.614
 1528SOL    HW2 5484   3.907   4.842   2.767
 1529SOL     OW 5485   3.978   0.041   0.084
 1529SOL    HW1 5486   4.074   0.058   0.106
 1529SOL    HW2 5487   3.972   6.994   0.013
 1530SOL     OW 5488   4.210   1.991   2.378
 1530SOL    HW1 5489   4.110   1.994   2.367
 1530SOL    HW2 5490   4.253   2.030   2.296
 1531SOL     OW 5491   4.572   6.711   5.402
 1531SOL    HW1 5492   4.595   6.686   5.495
 1531SOL    HW2 5493   4.649   6.759   5.360
 1532SOL     OW 5494   3.237   3.562   6.379
 1532SOL    HW1 5495   3.189   3.518   6.303
 1532SOL    HW2 5496   3.276   3.649   6.350
 1533SOL     OW 5497   5.917   4.995   6.565
 1533SOL    HW1 5498   5.911   5.036   6.474
 1533SOL    HW2 5499   5.854   5.041   6.627
 1534SOL     OW 5500   2.883   6.037   6.947
 1534SOL    HW1 5501   2.888   5.998   6.855
 1534SOL    HW2 5502   2.854   5.967   7.011
 1535SOL     OW 5503   4.977   6.014   4.306
 1535SOL    HW1 5504   4.964   6.107   4.343
 1535SOL    HW2 5505   4.888   5.977   4.278
 1536SOL     OW 5506   3.765   4.022   5.725
 1536SOL    HW1 5507   3.742   4.019   5.628
 1536SOL    HW2 5508   3.739   3.935   5.768
 1537SOL     OW 5509   4.014   5.837   3.603
 1537SOL    HW1 5510   4.048   5.743   3.612
 1537SOL    HW2 5511   4.090   5.901   3.605
 1538SOL     OW 5512   2.963   0.090   6.349
 1538SOL    HW1 5513   2.912   0.022   6.401
 1538SOL    HW2 5514   3.028   0.137   6.409
 1539SOL     OW 5515   4.875   3.887   1.754
 1539SOL    HW1 5516   4.803   3.825   1.787
 1539SOL    HW2 5517   4.944   3.834   1.705
 1540SOL     OW 5518   0.691   6.095   5.158
 1540SOL    HW1 5519   0.660   6.030   5.088
 1540SOL    HW2 5520   0.785   6.123   5.137
 1541SOL     OW 5521   3.021   3.245   3.563
 1541SOL    HW1 5522   2.971   3.312   3.508
 1541SOL    HW2 5523   3.036   3.283   3.655
 1542SOL     OW 5524   6.509   7.005   2.654
 1542SOL    HW1 5525   6.603   0.014   2.662
 1542SOL    HW2 5526   6.453   0.024   2.725
 1543SOL     OW 5527   3.240   5.010   5.293
 1543SOL    HW1 5528   3.210   5.101   5.321
 1543SOL    HW2 5529   3.182   4.976   5.219
 1544SOL     OW 5530   3.113   3.671   2.667
 1544SOL    HW1 5531   3.034   3.613   2.686
 1544SOL    HW2 5532   3.084   3.766   2.660
 1545SOL     OW 5533   5.124   0.485   3.032
 1545SOL    HW1 5534   5.153   0.513   2.940
 1545SOL    HW2 5535   5.202   0.449   3.082
 1546SOL     OW 5536   3.878   6.656   5.625
 1546SOL    HW1 5537   3.972   6.623   5.617
 1546SOL    HW2 5538   3.871   6.747   5.584
 1547SOL     OW 5539   1.898   4.122   1.892
 1547SOL    HW1 5540   1.895   4.074   1.980
 1547SOL    HW2 5541   1.926   4.217   1.907
 1548SOL     OW 5542   5.572   3.671   5.914
 1548SOL    HW1 5543   5.653   3.689   5.970
 1548SOL    HW2 5544   5.595   3.680   5.817
 1549SOL     OW 5545   4.227   1.991   1.782
 1549SOL    HW1 5546   4.174   2.076   1.781
 1549SOL    HW2 5547   4.165   1.913   1.780
 1550SOL     OW 5548   2.398   3.662   7.016
 1550SOL    HW1 5549   2.393   3.647   0.092
 1550SOL    HW2 5550   2.366   3.580   6.969
 1551SOL     OW 5551   1.988   4.218   5.970
 1551SOL    HW1 5552   2.025   4.170   6.050
 1551SOL    HW2 5553   2.060   4.227   5.901
 1552SOL     OW 5554   1.418   5.993   0.316
 1552SOL    HW1 5555   1.402   5.912   0.373
 1552SOL    HW2 5556   1.342   6.057   0.327
 1553SOL     OW 5557   6.893   1.944   6.575
 1553SOL    HW1 5558   6.927   2.022   6.523
 1553SOL    HW2 5559   6.880   1.971   6.671
 1554SOL     OW 5560   3.854   2.004   2.687
 1554SOL    HW1 5561   3.905   1.928   2.727
 1554SOL    HW2 5562   3.881   2.089   2.732
 1555SOL     OW 5563   5.372   2.495   0.422
 1555SOL    HW1 5564   5.389   2.400   0.450
 1555SOL    HW2 5565   5.362   2.499   0.322
 1556SOL     OW 5566   3.134   1.827   0.342
 1556SOL    HW1 5567   3.204   1.897   0.354
 1556SOL    HW2 5568   3.109   1.821   0.246
 1557SOL     OW 5569   1.686   1.964   5.086
 1557SOL    HW1 5570   1.707   2.036   5.152
 1557SOL    HW2 5571   1.750   1.889   5.097
 1558SOL     OW 5572   5.967   0.418   5.071
 1558SOL    HW1 5573   5.944   0.436   4.975
 1558SOL    HW2 5574   6.030   0.488   5.104
 1559SOL     OW 5575   1.624   2.762   0.016
 1559SOL    HW1 5576   1.698   2.725   0.073
 1559SOL    HW2 5577   1.613   2.706   6.958
 1560SOL     OW 5578   0.023   1.292   5.820
 1560SOL    HW1 5579   0.003   1.333   5.731
 1560SOL    HW2 5580   0.120   1.306   5.842
 1561SOL     OW 5581   6.395   6.403   4.049
 1561SOL    HW1 5582   6.435   6.332   4.107
 1561SOL    HW2 5583   6.297   6.409   4.069
 1562SOL     OW 5584   4.562   5.281   2.994
 1562SOL    HW1 5585   4.628   5.210   2.972
 1562SOL    HW2 5586   4.475   5.261   2.949
 1563SOL     OW 5587   2.342   0.104   5.585
 1563SOL    HW1 5588   2.377   0.138   5.498
 1563SOL    HW2 5589   2.276   0.031   5.568
 1564SOL     OW 5590   1.231   2.436   3.846
 1564SOL    HW1 5591   1.221   2.370   3.920
 1564SOL    HW2 5592   1.293   2.509   3.875
 1565SOL     OW 5593   4.285   4.633   3.596
 1565SOL    HW1 5594   4.353   4.573   3.554
 1565SOL    HW2 5595   4.299   4.635   3.695
 1566SOL     OW 5596   5.784   4.878   2.815
 1566SOL    HW1 5597   5.684   4.884   2.808
 1566SOL    HW2 5598   5.824   4.878   2.724
 1567SOL     OW 5599   6.145   6.278   0.825
 1567SOL    HW1 5600   6.216   6.284   0.895
 1567SOL    HW2 5601   6.187   6.281   0.734
 1568SOL     OW 5602   1.596   6.530   7.016
 1568SOL    HW1 5603   1.688   6.562   0.014
 1568SOL    HW2 5604   1.590   6.506   6.919
 1569SOL     OW 5605   4.805   6.223   3.286
 1569SOL    HW1 5606   4.747   6.229   3.366
 1569SOL    HW2 5607   4.882   6.162   3.305
 1570SOL     OW 5608   1.817   0.418   1.277
 1570SOL    HW1 5609   1.749   0.398   1.348
 1570SOL    HW2 5610   1.906   0.381   1.305
 1571SOL     OW 5611   5.141   2.166   1.197
 1571SOL    HW1 5612   5.047   2.199   1.207
 1571SOL    HW2 5613   5.172   2.182   1.103
 1572SOL     OW 5614   0.592   6.663   1.000
 1572SOL    HW1 5615   0.658   6.634   0.930
 1572SOL    HW2 5616   0.636   6.661   1.090
 1573SOL     OW 5617   5.382   2.802   2.543
 1573SOL    HW1 5618   5.351   2.794   2.448
 1573SOL    HW2 5619   5.311   2.768   2.604
 1574SOL     OW 5620   6.342   0.607   1.387
 1574SOL    HW1 5621   6.427   0.653   1.363
 1574SOL    HW2 5622   6.339   0.590   1.486
 1575SOL     OW 5623   3.523   1.008   0.890
 1575SOL    HW1 5624   3.615   1.036   0.916
 1575SOL    HW2 5625   3.490   1.068   0.817
 1576SOL     OW 5626   0.746   6.899   3.523
 1576SOL    HW1 5627   0.730   6.991   3.488
 1576SOL    HW2 5628   0.806   6.903   3.603
 1577SOL     OW 5629   3.196   2.023   4.360
 1577SOL    HW1 5630   3.240   2.046   4.447
 1577SOL    HW2 5631   3.256   2.049   4.284
 1578SOL     OW 5632   6.387   3.134   5.855
 1578SOL    HW1 5633   6.335   3.121   5.940
 1578SOL    HW2 5634   6.362   3.222   5.814
 1579SOL     OW 5635   6.871   1.641   2.976
 1579SOL    HW1 5636   6.843   1.565   2.918
 1579SOL    HW2 5637   6.933   1.701   2.925
 1580SOL     OW 5638   2.934   4.091   5.370
 1580SOL    HW1 5639   2.897   4.184   5.369
 1580SOL    HW2 5640   2.864   4.026   5.340
 1581SOL     OW 5641   0.350   4.014   5.004
 1581SOL    HW1 5642   0.284   3.985   4.935
 1581SOL    HW2 5643   0.372   3.936   5.063
 1582SOL     OW 5644   1.600   6.980   4.516
 1582SOL    HW1 5645   1.535   6.987   4.591
 1582SOL    HW2 5646   1.635   6.886   4.511
 1583SOL     OW 5647   1.032   4.306   3.256
 1583SOL    HW1 5648   1.114   4.279   3.308
 1583SOL    HW2 5649   1.060   4.344   3.168
 1584SOL     OW 5650   1.672   6.669   4.877
 1584SOL    HW1 5651   1.703   6.763   4.861
 1584SOL    HW2 5652   1.638   6.660   4.971
 1585SOL     OW 5653   6.016   1.503   3.436
 1585SOL    HW1 5654   5.928   1.551   3.435
 1585SOL    HW2 5655   6.082   1.554   3.380
 1586SOL     OW 5656   3.327   4.001   1.134
 1586SOL    HW1 5657   3.328   4.019   1.036
 1586SOL    HW2 5658   3.272   3.920   1.153
 1587SOL     OW 5659   2.793   6.064   6.439
 1587SOL    HW1 5660   2.723   6.118   6.391
 1587SOL    HW2 5661   2.768   5.967   6.434
 1588SOL     OW 5662   5.139   1.715   3.327
 1588SOL    HW1 5663   5.095   1.681   3.410
 1588SOL    HW2 5664   5.079   1.783   3.284
 1589SOL     OW 5665   5.985   4.224   2.382
 1589SOL    HW1 5666   5.918   4.181   2.443
 1589SOL    HW2 5667   5.940   4.291   2.324
 1590SOL     OW 5668   2.606   6.346   6.483
 1590SOL    HW1 5669   2.702   6.362   6.460
 1590SOL    HW2 5670   2.556   6.432   6.480
 1591SOL     OW 5671   0.321   5.180   2.409
 1591SOL    HW1 5672   0.244   5.139   2.457
 1591SOL    HW2 5673   0.371   5.240   2.472
 1592SOL     OW 5674   1.936   4.309   0.978
 1592SOL    HW1 5675   1.837   4.314   0.965
 1592SOL    HW2 5676   1.980   4.295   0.889
 1593SOL     OW 5677   0.780   6.645   3.804
 1593SOL    HW1 5678   0.746   6.715   3.867
 1593SOL    HW2 5679   0.858   6.682   3.752
 1594SOL     OW 5680   6.800   5.765   2.683
 1594SOL    HW1 5681   6.725   5.822   2.718
 1594SOL    HW2 5682   6.834   5.803   2.598
 1595SOL     OW 5683   1.320   5.210   0.003
 1595SOL    HW1 5684   1.359   5.256   0.083
 1595SOL    HW2 5685   1.320   5.273   6.949
 1596SOL     OW 5686   0.792   3.184   4.656
 1596SOL    HW1 5687   0.869   3.203   4.596
 1596SOL    HW2 5688   0.806   3.231   4.744
 1597SOL     OW 5689   2.272   6.268   6.863
 1597SOL    HW1 5690   2.215   6.324   6.802
 1597SOL    HW2 5691   2.365   6.265   6.828
 1598SOL     OW 5692   0.925   3.710   0.128
 1598SOL    HW1 5693   0.931   3.611   0.137
 1598SOL    HW2 5694   0.830   3.740   0.143
 1599SOL     OW 5695   4.754   4.444   5.772
 1599SOL    HW1 5696   4.671   4.467   5.823
 1599SOL    HW2 5697   4.752   4.490   5.683
 1600SOL     OW 5698   5.178   1.820   5.131
 1600SOL    HW1 5699   5.243   1.751   5.100
 1600SOL    HW2 5700   5.138   1.791   5.218
 1601SOL     OW 5701   6.966   4.761   4.158
 1601SOL    HW1 5702   6.934   4.737   4.250
 1601SOL    HW2 5703   0.025   4.709   4.136
 1602SOL     OW 5704   2.211   5.304   4.177
 1602SOL    HW1 5705   2.265   5.389   4.172
 1602SOL    HW2 5706   2.183   5.289   4.272
 1603SOL     OW 5707   0.129   5.914   2.664
 1603SOL    HW1 5708   0.118   5.942   2.759
 1603SOL    HW2 5709   0.200   5.843   2.658
 1604SOL     OW 5710   6.429   4.500   6.934
 1604SOL    HW1 5711   6.440   4.453   7.022
 1604SOL    HW2 5712   6.461   4.441   6.860
 1605SOL     OW 5713   6.468   6.628   2.292
 1605SOL    HW1 5714   6.416   6.616   2.208
 1605SOL    HW2 5715   6.546   6.565   2.292
 1606SOL     OW 5716   3.229   0.789   5.238
 1606SOL    HW1 5717   3.148   0.803   5.180
 1606SOL    HW2 5718   3.300   0.855   5.211
 1607SOL     OW 5719   4.298   2.353   0.626
 1607SOL    HW1 5720   4.358   2.397   0.559
 1607SOL    HW2 5721   4.352   2.292   0.684
 1608SOL     OW 5722   1.823   0.368   5.042
 1608SOL    HW1 5723   1.733   0.406   5.062
 1608SOL    HW2 5724   1.827   0.273   5.073
 1609SOL     OW 5725   4.461   0.453   0.172
 1609SOL    HW1 5726   4.454   0.381   0.104
 1609SOL    HW2 5727   4.480   0.413   0.262
 1610SOL     OW 5728   5.870   4.356   5.631
 1610SOL    HW1 5729   5.900   4.269   5.592
 1610SOL    HW2 5730   5.780   4.345   5.673
 1611SOL     OW 5731   2.961   3.164   1.611
 1611SOL    HW1 5732   2.993   3.100   1.680
 1611SOL    HW2 5733   2.864   3.146   1.591
 1612SOL     OW 5734   2.638   1.379   5.066
 1612SOL    HW1 5735   2.589   1.443   5.006
 1612SOL    HW2 5736   2.720   1.424   5.102
 1613SOL     OW 5737   1.699   5.858   1.158
 1613SOL    HW1 5738   1.631   5.799   1.202
 1613SOL    HW2 5739   1.714   5.939   1.214
 1614SOL     OW 5740   6.231   3.844   0.329
 1614SOL    HW1 5741   6.196   3.871   0.419
 1614SOL    HW2 5742   6.157   3.801   0.276
 1615SOL     OW 5743   6.559   5.125   0.665
 1615SOL    HW1 5744   6.473   5.103   0.618
 1615SOL    HW2 5745   6.565   5.072   0.749
 1616SOL     OW 5746   4.014   1.885   5.162
 1616SOL    HW1 5747   4.112   1.871   5.154
 1616SOL    HW2 5748   3.970   1.871   5.073
 1617SOL     OW 5749   6.242   0.195   1.872
 1617SOL    HW1 5750   6.292   0.212   1.958
 1617SOL    HW2 5751   6.190   0.111   1.880
 1618SOL     OW 5752   1.038   3.709   1.332
 1618SOL    HW1 5753   1.070   3.803   1.347
 1618SOL    HW2 5754   1.113   3.653   1.298
 1619SOL     OW 5755   0.868   1.758   3.242
 1619SOL    HW1 5756   0.888   1.802   3.329
 1619SOL    HW2 5757   0.770   1.736   3.236
 1620SOL     OW 5758   2.353   5.400   1.278
 1620SOL    HW1 5759   2.391   5.346   1.354
 1620SOL    HW2 5760   2.282   5.461   1.313
 1621SOL     OW 5761   0.951   1.486   0.236
 1621SOL    HW1 5762   0.978   1.520   0.146
 1621SOL    HW2 5763   0.987   1.394   0.249
 1622SOL     OW 5764   0.540   2.510   4.530
 1622SOL    HW1 5765   0.493   2.490   4.615
 1622SOL    HW2 5766   0.601   2.588   4.543
 1623SOL     OW 5767   2.614   3.305   5.284
 1623SOL    HW1 5768   2.671   3.227   5.308
 1623SOL    HW2 5769   2.520   3.274   5.270
 1624SOL     OW 5770   2.954   1.227   5.630
 1624SOL    HW1 5771   3.051   1.219   5.609
 1624SOL    HW2 5772   2.935   1.181   5.717
 1625SOL     OW 5773   1.480   5.573   1.707
 1625SOL    HW1 5774   1.410   5.503   1.699
 1625SOL    HW2 5775   1.558   5.536   1.758
 1626SOL     OW 5776   3.076   2.411   6.310
 1626SOL    HW1 5777   3.046   2.318   6.292
 1626SOL    HW2 5778   2.997   2.468   6.334
 1627SOL     OW 5779   6.261   2.411   3.841
 1627SOL    HW1 5780   6.310   2.439   3.924
 1627SOL    HW2 5781   6.297   2.462   3.763
 1628SOL     OW 5782   4.439   4.592   6.798
 1628SOL    HW1 5783   4.527   4.594   6.846
 1628SOL    HW2 5784   4.454   4.608   6.700
 1629SOL     OW 5785   2.889   1.634   4.123
 1629SOL    HW1 5786   2.889   1.651   4.024
 1629SOL    HW2 5787   2.977   1.663   4.161
 1630SOL     OW 5788   0.880   6.348   5.609
 1630SOL    HW1 5789   0.835   6.372   5.523
 1630SOL    HW2 5790   0.979   6.348   5.597
 1631SOL     OW 5791   0.532   1.329   6.448
 1631SOL    HW1 5792   0.433   1.324   6.437
 1631SOL    HW2 5793   0.577   1.295   6.365
 1632SOL     OW 5794   0.013   1.887   0.195
 1632SOL    HW1 5795   0.105   1.849   0.198
 1632SOL    HW2 5796   7.005   1.909   0.287
 1633SOL     OW 5797   5.040   2.240   4.109
 1633SOL    HW1 5798   5.100   2.207   4.036
 1633SOL    HW2 5799   4.951   2.193   4.103
 1634SOL     OW 5800   3.880   4.510   5.876
 1634SOL    HW1 5801   3.825   4.558   5.945
 1634SOL    HW2 5802   3.911   4.575   5.807
 1635SOL     OW 5803   6.621   5.362   5.532
 1635SOL    HW1 5804   6.562   5.339   5.454
 1635SOL    HW2 5805   6.678   5.283   5.555
 1636SOL     OW 5806   2.492   3.829   1.330
 1636SOL    HW1 5807   2.548   3.884   1.268
 1636SOL    HW2 5808   2.549   3.791   1.402
 1637SOL     OW 5809   0.316   0.566   3.196
 1637SOL    HW1 5810   0.392   0.578   3.261
 1637SOL    HW2 5811   0.232   0.599   3.238
 1638SOL     OW 5812   0.772   3.996   3.930
 1638SOL    HW1 5813   0.863   3.983   3.969
 1638SOL    HW2 5814   0.703   3.972   3.997
 1639SOL     OW 5815   3.979   6.691   3.088
 1639SOL    HW1 5816   3.891   6.726   3.054
 1639SOL    HW2 5817   3.971   6.671   3.185
 1640SOL     OW 5818   5.914   1.938   1.300
 1640SOL    HW1 5819   5.915   1.916   1.398
 1640SOL    HW2 5820   5.918   2.037   1.288
 1641SOL     OW 5821   5.177   2.892   4.162
 1641SOL    HW1 5822   5.224   2.901   4.074
 1641SOL    HW2 5823   5.241   2.860   4.231
 1642SOL     OW 5824   5.878   3.236   6.840
 1642SOL    HW1 5825   5.965   3.277   6.867
 1642SOL    HW2 5826   5.811   3.249   6.914
 1643SOL     OW 5827   2.926   5.033   4.003
 1643SOL    HW1 5828   2.851   5.099   4.009
 1643SOL    HW2 5829   2.966   5.036   3.912
 1644SOL     OW 5830   1.012   3.240   1.357
 1644SOL    HW1 5831   0.988   3.294   1.438
 1644SOL    HW2 5832   1.080   3.171   1.382
 1645SOL     OW 5833   2.470   6.064   5.545
 1645SOL    HW1 5834   2.513   6.149   5.515
 1645SOL    HW2 5835   2.375   6.062   5.514
 1646SOL     OW 5836   2.183   6.767   1.093
 1646SOL    HW1 5837   2.130   6.852   1.099
 1646SOL    HW2 5838   2.266   6.784   1.039
 1647SOL     OW 5839   5.847   2.760   4.328
 1647SOL    HW1 5840   5.918   2.769   4.398
 1647SOL    HW2 5841   5.757   2.777   4.369
 1648SOL     OW 5842   6.018   5.942   0.956
 1648SOL    HW1 5843   6.046   5.876   0.886
 1648SOL    HW2 5844   6.091   6.009   0.969
 1649SOL     OW 5845   4.016   6.956   3.758
 1649SOL    HW1 5846   4.034   6.861   3.734
 1649SOL    HW2 5847   3.935   6.961   3.816
 1650SOL     OW 5848   2.151   6.937   4.936
 1650SOL    HW1 5849   2.090   6.858   4.950
 1650SOL    HW2 5850   2.209   6.947   5.017
 1651SOL     OW 5851   0.921   1.010   1.984
 1651SOL    HW1 5852   1.000   0.959   2.017
 1651SOL    HW2 5853   0.838   0.975   2.027
 1652SOL     OW 5854   1.584   3.184   1.647
 1652SOL    HW1 5855   1.668   3.222   1.610
 1652SOL    HW2 5856   1.567   3.221   1.738
 1653SOL     OW 5857   0.037   6.759   1.191
 1653SOL    HW1 5858   0.079   6.691   1.130
 1653SOL    HW2 5859   0.105   6.789   1.258
 1654SOL     OW 5860   6.414   3.179   2.071
 1654SOL    HW1 5861   6.500   3.184   2.121
 1654SOL    HW2 5862   6.433   3.164   1.974
 1655SOL     OW 5863   5.876   3.019   5.154
 1655SOL    HW1 5864   5.852   3.025   5.251
 1655SOL    HW2 5865   5.953   3.080   5.135
 1656SOL     OW 5866   1.794   4.546   2.865
 1656SOL    HW1 5867   1.885   4.506   2.878
 1656SOL    HW2 5868   1.789   4.588   2.774
 1657SOL     OW 5869   6.834   0.486   4.205
 1657SOL    HW1 5870   6.892   0.517   4.130
 1657SOL    HW2 5871   6.804   0.564   4.259
 1658SOL     OW 5872   0.823   0.792   2.546
 1658SOL    HW1 5873   0.917   0.776   2.516
 1658SOL    HW2 5874   0.802   0.733   2.624
 1659SOL     OW 5875   3.583   1.230   6.247
 1659SOL    HW1 5876   3.579   1.319   6.292
 1659SOL    HW2 5877   3.647   1.171   6.296
 1660SOL     OW 5878   1.738   4.813   3.958
 1660SOL    HW1 5879   1.778   4.755   3.887
 1660SOL    HW2 5880   1.660   4.766   3.999
 1661SOL     OW 5881   3.172   1.607   1.655
 1661SOL    HW1 5882   3.101   1.632   1.720
 1661SOL    HW2 5883   3.153   1.516   1.618
 1662SOL     OW 5884   6.721   1.079   4.380
 1662SOL    HW1 5885   6.667   1.071   4.464
 1662SOL    HW2 5886   6.670   1.041   4.303
 1663SOL     OW 5887   3.191   0.665   3.088
 1663SOL    HW1 5888   3.288   0.646   3.102
 1663SOL    HW2 5889   3.140   0.646   3.171
 1664SOL     OW 5890   1.754   0.195   4.061
 1664SOL    HW1 5891   1.816   0.179   3.985
 1664SOL    HW2 5892   1.683   0.125   4.062
 1665SOL     OW 5893   6.981   1.351   2.699
 1665SOL    HW1 5894   6.891   1.386   2.724
 1665SOL    HW2 5895   6.971   1.262   2.653
 1666SOL     OW 5896   5.298   3.235   0.429
 1666SOL    HW1 5897   5.286   3.334   0.437
 1666SOL    HW2 5898   5.350   3.215   0.346
 1667SOL     OW 5899   5.832   6.838   1.301
 1667SOL    HW1 5900   5.813   6.741   1.284
 1667SOL    HW2 5901   5.753   6.881   1.344
 1668SOL     OW 5902   5.074   5.724   5.618
 1668SOL    HW1 5903   5.153   5.695   5.673
 1668SOL    HW2 5904   5.097   5.810   5.572
 1669SOL     OW 5905   6.198   0.144   6.951
 1669SOL    HW1 5906   6.278   0.085   6.941
 1669SOL    HW2 5907   6.135   0.105   7.018
 1670SOL     OW 5908   6.944   5.145   6.595
 1670SOL    HW1 5909   6.896   5.062   6.622
 1670SOL    HW2 5910   0.003   5.121   6.544
 1671SOL     OW 5911   4.453   2.610   1.341
 1671SOL    HW1 5912   4.531   2.560   1.304
 1671SOL    HW2 5913   4.368   2.576   1.301
 1672SOL     OW 5914   2.132   3.872   2.419
 1672SOL    HW1 5915   2.033   3.887   2.416
 1672SOL    HW2 5916   2.174   3.913   2.339
 1673SOL     OW 5917   0.356   2.439   4.725
 1673SOL    HW1 5918   0.317   2.362   4.674
 1673SOL    HW2 5919   0.382   2.409   4.816
 1674SOL     OW 5920   0.212   4.243   1.993
 1674SOL    HW1 5921   0.254   4.305   1.926
 1674SOL    HW2 5922   0.191   4.156   1.948
 1675SOL     OW 5923   4.349   0.481   6.098
 1675SOL    HW1 5924   4.365   0.489   6.000
 1675SOL    HW2 5925   4.275   0.416   6.115
 1676SOL     OW 5926   3.132   1.119   2.119
 1676SOL    HW1 5927   3.047   1.070   2.103
 1676SOL    HW2 5928   3.190   1.112   2.038
 1677SOL     OW 5929   4.300   2.728   5.347
 1677SOL    HW1 5930   4.245   2.659   5.301
 1677SOL    HW2 5931   4.351   2.685   5.422
 1678SOL     OW 5932   4.931   4.425   4.972
 1678SOL    HW1 5933   4.888   4.412   4.883
 1678SOL    HW2 5934   4.932   4.522   4.996
 1679SOL     OW 5935   2.030   3.248   5.049
 1679SOL    HW1 5936   2.046   3.338   5.008
 1679SOL    HW2 5937   2.083   3.241   5.134
 1680SOL     OW 5938   0.495   1.974   4.237
 1680SOL    HW1 5939   0.541   2.057   4.204
 1680SOL    HW2 5940   0.563   1.910   4.273
 1681SOL     OW 5941   6.831   6.059   1.590
 1681SOL    HW1 5942   6.863   5.994   1.522
 1681SOL    HW2 5943   6.739   6.033   1.620
 1682SOL     OW 5944   6.861   2.544   4.788
 1682SOL    HW1 5945   6.891   2.599   4.711
 1682SOL    HW2 5946   6.909   2.457   4.788
 1683SOL     OW 5947   4.160   5.750   0.738
 1683SOL    HW1 5948   4.084   5.753   0.673
 1683SOL    HW2 5949   4.127   5.718   0.826
 1684SOL     OW 5950   1.403   5.951   2.541
 1684SOL    HW1 5951   1.453   6.037   2.544
 1684SOL    HW2 5952   1.321   5.962   2.484
 1685SOL     OW 5953   2.738   1.282   6.288
 1685SOL    HW1 5954   2.779   1.348   6.351
 1685SOL    HW2 5955   2.782   1.290   6.198
 1686SOL     OW 5956   1.836   4.925   5.267
 1686SOL    HW1 5957   1.749   4.972   5.252
 1686SOL    HW2 5958   1.872   4.948   5.357
 1687SOL     OW 5959   2.403   2.951   0.709
 1687SOL    HW1 5960   2.497   2.932   0.733
 1687SOL    HW2 5961   2.393   2.950   0.609
 1688SOL     OW 5962   1.576   2.470   3.900
 1688SOL    HW1 5963   1.659   2.499   3.948
 1688SOL    HW2 5964   1.515   2.549   3.889
 1689SOL     OW 5965   3.979   1.074   1.979
 1689SOL    HW1 5966   4.035   1.016   2.039
 1689SOL    HW2 5967   3.998   1.052   1.884
 1690SOL     OW 5968   1.676   2.995   3.657
 1690SOL    HW1 5969   1.588   2.998   3.610
 1690SOL    HW2 5970   1.697   2.901   3.683
 1691SOL     OW 5971   5.178   3.687   3.504
 1691SOL    HW1 5972   5.222   3.627   3.571
 1691SOL    HW2 5973   5.092   3.645   3.473
 1692SOL     OW 5974   6.522   0.514   1.597
 1692SOL    HW1 5975   6.565   0.508   1.506
 1692SOL    HW2 5976   6.485   0.424   1.621
 1693SOL     OW 5977   0.245   2.186   2.294
 1693SOL    HW1 5978   0.260   2.089   2.311
 1693SOL    HW2 5979   0.169   2.197   2.230
 1694SOL     OW 5980   5.152   0.023   3.677
 1694SOL    HW1 5981   5.145   0.120   3.700
 1694SOL    HW2 5982   5.241   7.011   3.704
 1695SOL     OW 5983   2.310   0.969   5.879
 1695SOL    HW1 5984   2.354   1.043   5.930
 1695SOL    HW2 5985   2.334   0.881   5.921
 1696SOL     OW 5986   5.336   5.081   0.438
 1696SOL    HW1 5987   5.362   5.030   0.520
 1696SOL    HW2 5988   5.415   5.092   0.379
 1697SOL     OW 5989   5.756   6.140   2.135
 1697SOL    HW1 5990   5.709   6.183   2.212
 1697SOL    HW2 5991   5.854   6.157   2.143
 1698SOL     OW 5992   4.508   0.736   0.546
 1698SOL    HW1 5993   4.509   0.835   0.562
 1698SOL    HW2 5994   4.571   0.714   0.472
 1699SOL     OW 5995   2.750   1.047   1.873
 1699SOL    HW1 5996   2.731   1.038   1.971
 1699SOL    HW2 5997   2.703   0.974   1.823
 1700SOL     OW 5998   6.268   1.691   3.328
 1700SOL    HW1 5999   6.251   1.726   3.420
 1700SOL    HW2 6000   6.280   1.767   3.265
 1701SOL     OW 6001   5.081   3.017   5.305
 1701SOL    HW1 6002   5.011   2.951   5.333
 1701SOL    HW2 6003   5.066   3.103   5.353
 1702SOL     OW 6004   6.867   2.759   0.868
 1702SOL    HW1 6005   6.768   2.750   0.864
 1702SOL    HW2 6006   6.896   2.761   0.964
 1703SOL     OW 6007   3.839   4.032   2.826
 1703SOL    HW1 6008   3.807   4.045   2.919
 1703SOL    HW2 6009   3.780   4.082   2.763
 1704SOL     OW 6010   0.653   1.443   1.985
 1704SOL    HW1 6011   0.671   1.459   2.082
 1704SOL    HW2 6012   0.712   1.369   1.952
 1705SOL     OW 6013   3.601   1.846   1.983
 1705SOL    HW1 6014   3.561   1.937   1.999
 1705SOL    HW2 6015   3.614   1.832   1.885
 1706SOL     OW 6016   4.653   0.026   1.699
 1706SOL    HW1 6017   4.617   0.095   1.636
 1706SOL    HW2 6018   4.681   0.070   1.784
 1707SOL     OW 6019   4.527   1.875   3.099
 1707SOL    HW1 6020   4.614   1.900   3.140
 1707SOL    HW2 6021   4.542   1.807   3.027
 1708SOL     OW 6022   4.616   5.164   2.145
 1708SOL    HW1 6023   4.518   5.151   2.127
 1708SOL    HW2 6024   4.631   5.167   2.244
 1709SOL     OW 6025   2.520   5.859   1.703
 1709SOL    HW1 6026   2.530   5.933   1.637
 1709SOL    HW2 6027   2.569   5.779   1.671
 1710SOL     OW 6028   5.653   4.395   3.956
 1710SOL    HW1 6029   5.562   4.361   3.931
 1710SOL    HW2 6030   5.714   4.387   3.877
 1711SOL     OW 6031   1.095   4.286   4.756
 1711SOL    HW1 6032   1.163   4.291   4.684
 1711SOL    HW2 6033   1.033   4.364   4.750
 1712SOL     OW 6034   0.989   3.139   6.679
 1712SOL    HW1 6035   1.086   3.138   6.703
 1712SOL    HW2 6036   0.961   3.232   6.658
 1713SOL     OW 6037   3.693   2.106   0.923
 1713SOL    HW1 6038   3.658   2.013   0.913
 1713SOL    HW2 6039   3.748   2.130   0.843
 1714SOL     OW 6040   4.957   1.823   5.869
 1714SOL    HW1 6041   4.894   1.879   5.924
 1714SOL    HW2 6042   5.051   1.848   5.891
 1715SOL     OW 6043   6.821   3.624   2.469
 1715SOL    HW1 6044   6.878   3.657   2.544
 1715SOL    HW2 6045   6.808   3.698   2.403
 1716SOL     OW 6046   5.209   6.690   1.909
 1716SOL    HW1 6047   5.293   6.653   1.869
 1716SOL    HW2 6048   5.148   6.723   1.837
 1717SOL     OW 6049   1.757   6.690   6.168
 1717SOL    HW1 6050   1.718   6.604   6.135
 1717SOL    HW2 6051   1.840   6.671   6.220
 1718SOL     OW 6052   1.920   1.993   1.579
 1718SOL    HW1 6053   1.953   2.050   1.654
 1718SOL    HW2 6054   1.966   1.904   1.581
 1719SOL     OW 6055   2.509   4.050   1.019
 1719SOL    HW1 6056   2.491   3.974   0.956
 1719SOL    HW2 6057   2.465   4.133   0.986
 1720SOL     OW 6058   6.488   1.261   1.096
 1720SOL    HW1 6059   6.487   1.286   0.999
 1720SOL    HW2 6060   6.579   1.277   1.134
 1721SOL     OW 6061   1.140   6.441   3.192
 1721SOL    HW1 6062   1.113   6.497   3.113
 1721SOL    HW2 6063   1.199   6.367   3.161
 1722SOL     OW 6064   4.668   1.545   3.792
 1722SOL    HW1 6065   4.620   1.576   3.874
 1722SOL    HW2 6066   4.729   1.470   3.816
 1723SOL     OW 6067   6.588   3.006   3.193
 1723SOL    HW1 6068   6.576   2.960   3.105
 1723SOL    HW2 6069   6.662   3.073   3.186
 1724SOL     OW 6070   6.059   2.028   0.986
 1724SOL    HW1 6071   6.136   2.029   0.923
 1724SOL    HW2 6072   6.027   1.934   0.998
 1725SOL     OW 6073   2.854   5.211   0.512
 1725SOL    HW1 6074   2.926   5.279   0.525
 1725SOL    HW2 6075   2.795   5.209   0.594
 1726SOL     OW 6076   5.637   4.146   5.099
 1726SOL    HW1 6077   5.732   4.177   5.101
 1726SOL    HW2 6078   5.634   4.047   5.085
 1727SOL     OW 6079   3.734   2.898   4.230
 1727SOL    HW1 6080   3.763   2.930   4.320
 1727SOL    HW2 6081   3.770   2.806   4.214
 1728SOL     OW 6082   5.576   5.441   4.748
 1728SOL    HW1 6083   5.634   5.452   4.829
 1728SOL    HW2 6084   5.633   5.432   4.667
 1729SOL     OW 6085   2.062   4.011   3.564
 1729SOL    HW1 6086   2.034   4.100   3.529
 1729SOL    HW2 6087   2.024   3.939   3.506
 1730SOL     OW 6088   6.856   0.072   5.190
 1730SOL    HW1 6089   6.912   0.141   5.236
 1730SOL    HW2 6090   6.838   7.019   5.252
 1731SOL     OW 6091   0.992   5.157   2.107
 1731SOL    HW1 6092   0.975   5.158   2.009
 1731SOL    HW2 6093   0.910   5.188   2.156
 1732SOL     OW 6094   1.964   4.406   5.739
 1732SOL    HW1 6095   2.020   4.450   5.808
 1732SOL    HW2 6096   2.005   4.420   5.649
 1733SOL     OW 6097   1.145   3.838   2.305
 1733SOL    HW1 6098   1.096   3.759   2.268
 1733SOL    HW2 6099   1.096   3.873   2.384
 1734SOL     OW 6100   4.939   3.067   1.795
 1734SOL    HW1 6101   5.029   3.088   1.834
 1734SOL    HW2 6102   4.875   3.045   1.868
 1735SOL     OW 6103   6.042   5.814   1.205
 1735SOL    HW1 6104   6.141   5.805   1.194
 1735SOL    HW2 6105   6.004   5.858   1.124
 1736SOL     OW 6106   4.353   1.969   1.086
 1736SOL    HW1 6107   4.411   2.031   1.138
 1736SOL    HW2 6108   4.321   1.896   1.145
 1737SOL     OW 6109   3.029   1.350   4.320
 1737SOL    HW1 6110   2.934   1.324   4.338
 1737SOL    HW2 6111   3.076   1.370   4.406
 1738SOL     OW 6112   1.989   1.724   3.533
 1738SOL    HW1 6113   1.894   1.755   3.533
 1738SOL    HW2 6114   2.044   1.784   3.474
 1739SOL     OW 6115   5.152   2.543   5.408
 1739SOL    HW1 6116   5.233   2.592   5.439
 1739SOL    HW2 6117   5.170   2.503   5.318
 1740SOL     OW 6118   0.281   1.751   6.167
 1740SOL    HW1 6119   0.198   1.746   6.111
 1740SOL    HW2 6120   0.261   1.797   6.253
 1741SOL     OW 6121   2.413   0.723   4.083
 1741SOL    HW1 6122   2.404   0.787   4.159
 1741SOL    HW2 6123   2.509   0.700   4.070
 1742SOL     OW 6124   4.624   5.991   6.493
 1742SOL    HW1 6125   4.629   6.081   6.535
 1742SOL    HW2 6126   4.578   5.998   6.404
 1743SOL     OW 6127   1.976   1.855   2.100
 1743SOL    HW1 6128   1.936   1.780   2.047
 1743SOL    HW2 6129   1.947   1.942   2.061
 1744SOL     OW 6130   0.750   0.454   1.321
 1744SOL    HW1 6131   0.742   0.372   1.378
 1744SOL    HW2 6132   0.669   0.465   1.265
 1745SOL     OW 6133   6.580   0.607   3.864
 1745SOL    HW1 6134   6.539   0.530   3.816
 1745SOL    HW2 6135   6.510   0.656   3.917
 1746SOL     OW 6136   2.186   5.254   4.785
 1746SOL    HW1 6137   2.138   5.218   4.865
 1746SOL    HW2 6138   2.154   5.207   4.703
 1747SOL     OW 6139   5.387   0.579   3.156
 1747SOL    HW1 6140   5.328   0.651   3.195
 1747SOL    HW2 6141   5.466   0.621   3.112
 1748SOL     OW 6142   0.573   1.153   3.780
 1748SOL    HW1 6143   0.648   1.157   3.714
 1748SOL    HW2 6144   0.535   1.061   3.782
 1749SOL     OW 6145   2.862   6.606   5.459
 1749SOL    HW1 6146   2.952   6.572   5.433
 1749SOL    HW2 6147   2.871   6.674   5.531
 1750SOL     OW 6148   6.439   0.061   3.204
 1750SOL    HW1 6149   6.489   0.074   3.290
 1750SOL    HW2 6150   6.504   0.050   3.129
 1751SOL     OW 6151   3.863   6.037   5.048
 1751SOL    HW1 6152   3.783   6.042   4.989
 1751SOL    HW2 6153   3.908   5.948   5.036
 1752SOL     OW 6154   6.725   2.214   2.592
 1752SOL    HW1 6155   6.791   2.156   2.544
 1752SOL    HW2 6156   6.682   2.163   2.666
 1753SOL     OW 6157   0.300   2.333   0.938
 1753SOL    HW1 6158   0.345   2.311   0.851
 1753SOL    HW2 6159   0.244   2.255   0.967
 1754SOL     OW 6160   3.373   3.144   1.035
 1754SOL    HW1 6161   3.428   3.217   1.074
 1754SOL    HW2 6162   3.412   3.117   0.946
 1755SOL     OW 6163   5.761   5.490   2.535
 1755SOL    HW1 6164   5.851   5.468   2.573
 1755SOL    HW2 6165   5.772   5.556   2.461
 1756SOL     OW 6166   4.346   4.376   6.124
 1756SOL    HW1 6167   4.368   4.466   6.162
 1756SOL    HW2 6168   4.251   4.375   6.093
 1757SOL     OW 6169   2.471   5.326   4.768
 1757SOL    HW1 6170   2.376   5.305   4.791
 1757SOL    HW2 6171   2.500   5.407   4.818
 1758SOL     OW 6172   2.377   0.374   3.983
 1758SOL    HW1 6173   2.335   0.455   3.943
 1758SOL    HW2 6174   2.445   0.337   3.920
 1759SOL     OW 6175   1.085   4.677   5.596
 1759SOL    HW1 6176   1.127   4.758   5.556
 1759SOL    HW2 6177   1.072   4.607   5.525
 1760SOL     OW 6178   6.550   1.848   1.564
 1760SOL    HW1 6179   6.640   1.867   1.526
 1760SOL    HW2 6180   6.489   1.817   1.491
 1761SOL     OW 6181   0.307   0.605   0.697
 1761SOL    HW1 6182   0.296   0.538   0.624
 1761SOL    HW2 6183   0.342   0.559   0.779
 1762SOL     OW 6184   6.251   1.523   4.945
 1762SOL    HW1 6185   6.242   1.619   4.970
 1762SOL    HW2 6186   6.169   1.493   4.895
 1763SOL     OW 6187   2.135   3.754   4.120
 1763SOL    HW1 6188   2.144   3.741   4.219
 1763SOL    HW2 6189   2.124   3.665   4.075
 1764SOL     OW 6190   1.530   3.923   2.651
 1764SOL    HW1 6191   1.434   3.934   2.677
 1764SOL    HW2 6192   1.582   3.892   2.730
 1765SOL     OW 6193   3.611   1.916   6.836
 1765SOL    HW1 6194   3.635   2.009   6.810
 1765SOL    HW2 6195   3.693   1.867   6.866
 1766SOL     OW 6196   4.847   3.166   3.767
 1766SOL    HW1 6197   4.918   3.219   3.813
 1766SOL    HW2 6198   4.762   3.218   3.768
 1767SOL     OW 6199   6.255   3.749   2.806
 1767SOL    HW1 6200   6.340   3.709   2.772
 1767SOL    HW2 6201   6.182   3.680   2.803
 1768SOL     OW 6202   3.681   1.345   4.815
 1768SOL    HW1 6203   3.696   1.268   4.877
 1768SOL    HW2 6204   3.765   1.361   4.762
 1769SOL     OW 6205   4.148   2.170   4.830
 1769SOL    HW1 6206   4.202   2.227   4.891
 1769SOL    HW2 6207   4.178   2.185   4.735
 1770SOL     OW 6208   0.574   5.136   4.628
 1770SOL    HW1 6209   0.653   5.074   4.624
 1770SOL    HW2 6210   0.589   5.212   4.565
 1771SOL     OW 6211   2.512   5.418   0.158
 1771SOL    HW1 6212   2.437   5.473   0.120
 1771SOL    HW2 6213   2.482   5.322   0.165
 1772SOL     OW 6214   2.582   6.610   3.632
 1772SOL    HW1 6215   2.678   6.633   3.617
 1772SOL    HW2 6216   2.542   6.579   3.546
 1773SOL     OW 6217   2.649   4.774   6.448
 1773SOL    HW1 6218   2.695   4.759   6.535
 1773SOL    HW2 6219   2.555   4.741   6.454
 1774SOL     OW 6220   4.315   0.011   1.757
 1774SOL    HW1 6221   4.414   0.010   1.745
 1774SOL    HW2 6222   4.273   0.069   1.687
 1775SOL     OW 6223   1.146   3.998   3.961
 1775SOL    HW1 6224   1.201   4.069   4.006
 1775SOL    HW2 6225   1.090   4.039   3.890
 1776SOL     OW 6226   3.565   0.663   4.374
 1776SOL    HW1 6227   3.533   0.657   4.469
 1776SOL    HW2 6228   3.648   0.717   4.370
 1777SOL     OW 6229   3.426   4.932   5.965
 1777SOL    HW1 6230   3.345   4.985   5.988
 1777SOL    HW2 6231   3.406   4.871   5.889
 1778SOL     OW 6232   4.725   2.789   6.093
 1778SOL    HW1 6233   4.808   2.802   6.147
 1778SOL    HW2 6234   4.715   2.867   6.030
 1779SOL     OW 6235   4.416   0.875   4.866
 1779SOL    HW1 6236   4.443   0.822   4.947
 1779SOL    HW2 6237   4.316   0.888   4.868
 1780SOL     OW 6238   3.314   3.097   5.973
 1780SOL    HW1 6239   3.376   3.156   6.025
 1780SOL    HW2 6240   3.219   3.123   5.992
 1781SOL     OW 6241   4.493   5.917   3.673
 1781SOL    HW1 6242   4.446   5.934   3.760
 1781SOL    HW2 6243   4.547   5.833   3.679
 1782SOL     OW 6244   2.929   2.046   2.845
 1782SOL    HW1 6245   2.917   1.969   2.783
 1782SOL    HW2 6246   3.023   2.080   2.838
 1783SOL     OW 6247   1.162   4.214   6.601
 1783SOL    HW1 6248   1.231   4.205   6.529
 1783SOL    HW2 6249   1.179   4.147   6.673
 1784SOL     OW 6250   3.739   1.361   5.214
 1784SOL    HW1 6251   3.825   1.366   5.163
 1784SOL    HW2 6252   3.755   1.312   5.300
 1785SOL     OW 6253   6.268   5.388   3.668
 1785SOL    HW1 6254   6.169   5.395   3.683
 1785SOL    HW2 6255   6.313   5.372   3.755
 1786SOL     OW 6256   1.162   2.987   1.446
 1786SOL    HW1 6257   1.168   2.943   1.357
 1786SOL    HW2 6258   1.252   3.020   1.474
 1787SOL     OW 6259   2.448   0.594   4.896
 1787SOL    HW1 6260   2.419   0.593   4.992
 1787SOL    HW2 6261   2.500   0.677   4.877
 1788SOL     OW 6262   3.251   2.848   0.017
 1788SOL    HW1 6263   3.272   2.926   0.076
 1788SOL    HW2 6264   3.163   2.808   0.045
 1789SOL     OW 6265   5.982   2.129   2.699
 1789SOL    HW1 6266   5.994   2.219   2.657
 1789SOL    HW2 6267   5.909   2.133   2.767
 1790SOL     OW 6268   3.686   6.457   3.895
 1790SOL    HW1 6269   3.595   6.494   3.877
 1790SOL    HW2 6270   3.679   6.384   3.962
 1791SOL     OW 6271   6.770   1.203   3.642
 1791SOL    HW1 6272   6.741   1.299   3.646
 1791SOL    HW2 6273   6.835   1.185   3.716
 1792SOL     OW 6274   0.044   2.658   3.928
 1792SOL    HW1 6275   0.062   2.626   3.835
 1792SOL    HW2 6276   0.129   2.662   3.979
 1793SOL     OW 6277   6.840   6.950   3.275
 1793SOL    HW1 6278   6.936   6.924   3.286
 1793SOL    HW2 6279   6.783   6.868   3.276
 1794SOL     OW 6280   6.055   6.432   6.209
 1794SOL    HW1 6281   6.143   6.480   6.213
 1794SOL    HW2 6282   6.037   6.403   6.115
 1795SOL     OW 6283   0.111   3.608   1.620
 1795SOL    HW1 6284   0.128   3.556   1.704
 1795SOL    HW2 6285   0.030   3.572   1.574
 1796SOL     OW 6286   2.511   0.430   4.313
 1796SOL    HW1 6287   2.500   0.426   4.214
 1796SOL    HW2 6288   2.430   0.394   4.358
 1797SOL     OW 6289   1.279   0.394   0.170
 1797SOL    HW1 6290   1.350   0.332   0.203
 1797SOL    HW2 6291   1.310   0.488   0.182
 1798SOL     OW 6292   5.204   2.185   4.623
 1798SOL    HW1 6293   5.254   2.271   4.637
 1798SOL    HW2 6294   5.270   2.111   4.612
 1799SOL     OW 6295   6.433   2.076   5.970
 1799SOL    HW1 6296   6.468   1.984   5.952
 1799SOL    HW2 6297   6.501   2.144   5.945
 1800SOL     OW 6298   3.936   4.840   2.440
 1800SOL    HW1 6299   3.985   4.788   2.509
 1800SOL    HW2 6300   3.997   4.861   2.364
 1801SOL     OW 6301   0.498   0.869   2.270
 1801SOL    HW1 6302   0.504   0.769   2.266
 1801SOL    HW2 6303   0.562   0.903   2.340
 1802SOL     OW 6304   5.081   5.660   2.264
 1802SOL    HW1 6305   5.068   5.707   2.176
 1802SOL    HW2 6306   4.993   5.653   2.311
 1803SOL     OW 6307   0.099   6.291   6.984
 1803SOL    HW1 6308   0.152   6.346   0.024
 1803SOL    HW2 6309   0.152   6.275   6.901
 1804SOL     OW 6310   2.355   3.657   5.618
 1804SOL    HW1 6311   2.422   3.676   5.547
 1804SOL    HW2 6312   2.399   3.661   5.708
 1805SOL     OW 6313   6.330   3.847   5.347
 1805SOL    HW1 6314   6.347   3.830   5.250
 1805SOL    HW2 6315   6.246   3.801   5.375
 1806SOL     OW 6316   1.178   1.564   0.582
 1806SOL    HW1 6317   1.191   1.609   0.494
 1806SOL    HW2 6318   1.116   1.487   0.571
 1807SOL     OW 6319   4.830   2.315   5.950
 1807SOL    HW1 6320   4.779   2.356   6.026
 1807SOL    HW2 6321   4.768   2.296   5.875
 1808SOL     OW 6322   0.246   3.315   5.492
 1808SOL    HW1 6323   0.282   3.294   5.584
 1808SOL    HW2 6324   0.201   3.404   5.494
 1809SOL     OW 6325   2.079   2.443   4.824
 1809SOL    HW1 6326   2.115   2.533   4.799
 1809SOL    HW2 6327   2.149   2.374   4.810
 1810SOL     OW 6328   2.821   0.612   4.194
 1810SOL    HW1 6329   2.771   0.639   4.112
 1810SOL    HW2 6330   2.774   0.647   4.275
 1811SOL     OW 6331   4.525   4.491   3.543
 1811SOL    HW1 6332   4.543   4.554   3.618
 1811SOL    HW2 6333   4.557   4.399   3.567
 1812SOL     OW 6334   4.113   6.508   5.598
 1812SOL    HW1 6335   4.196   6.550   5.633
 1812SOL    HW2 6336   4.127   6.409   5.590
 1813SOL     OW 6337   6.206   5.218   0.764
 1813SOL    HW1 6338   6.236   5.274   0.841
 1813SOL    HW2 6339   6.265   5.234   0.685
 1814SOL     OW 6340   6.701   1.629   0.233
 1814SOL    HW1 6341   6.611   1.650   0.270
 1814SOL    HW2 6342   6.712   1.675   0.145
 1815SOL     OW 6343   6.529   2.559   1.680
 1815SOL    HW1 6344   6.431   2.542   1.671
 1815SOL    HW2 6345   6.579   2.473   1.668
 1816SOL     OW 6346   2.768   3.791   0.579
 1816SOL    HW1 6347   2.706   3.763   0.506
 1816SOL    HW2 6348   2.766   3.891   0.588
 1817SOL     OW 6349   3.393   6.697   3.364
 1817SOL    HW1 6350   3.388   6.598   3.357
 1817SOL    HW2 6351   3.486   6.727   3.343
 1818SOL     OW 6352   1.822   6.533   2.186
 1818SOL    HW1 6353   1.767   6.556   2.266
 1818SOL    HW2 6354   1.882   6.456   2.209
 1819SOL     OW 6355   0.401   5.285   1.621
 1819SOL    HW1 6356   0.480   5.268   1.680
 1819SOL    HW2 6357   0.317   5.273   1.674
 1820SOL     OW 6358   4.889   0.821   1.855
 1820SOL    HW1 6359   4.907   0.740   1.911
 1820SOL    HW2 6360   4.974   0.869   1.836
 1821SOL     OW 6361   2.531   0.799   2.088
 1821SOL    HW1 6362   2.594   0.728   2.118
 1821SOL    HW2 6363   2.477   0.765   2.012
 1822SOL     OW 6364   1.639   2.675   1.881
 1822SOL    HW1 6365   1.612   2.580   1.866
 1822SOL    HW2 6366   1.696   2.706   1.804
 1823SOL     OW 6367   2.929   5.564   3.289
 1823SOL    HW1 6368   3.013   5.527   3.329
 1823SOL    HW2 6369   2.933   5.663   3.287
 1824SOL     OW 6370   3.397   2.886   1.388
 1824SOL    HW1 6371   3.450   2.851   1.311
 1824SOL    HW2 6372   3.300   2.882   1.366
 1825SOL     OW 6373   1.219   1.615   3.821
 1825SOL    HW1 6374   1.219   1.520   3.854
 1825SOL    HW2 6375   1.313   1.644   3.805
 1826SOL     OW 6376   3.320   6.963   0.949
 1826SOL    HW1 6377   3.265   6.947   1.030
 1826SOL    HW2 6378   3.373   6.880   0.928
 1827SOL     OW 6379   0.031   5.874   2.079
 1827SOL    HW1 6380   0.038   5.839   1.986
 1827SOL    HW2 6381   0.102   5.833   2.136
 1828SOL     OW 6382   1.363   2.817   0.657
 1828SOL    HW1 6383   1.375   2.784   0.563
 1828SOL    HW2 6384   1.420   2.897   0.672
 1829SOL     OW 6385   3.247   0.282   3.611
 1829SOL    HW1 6386   3.225   0.207   3.673
 1829SOL    HW2 6387   3.288   0.357   3.663
 1830SOL     OW 6388   5.567   6.092   3.943
 1830SOL    HW1 6389   5.604   6.037   4.018
 1830SOL    HW2 6390   5.512   6.167   3.980
 1831SOL     OW 6391   6.273   0.152   2.150
 1831SOL    HW1 6392   6.181   0.128   2.119
 1831SOL    HW2 6393   6.282   0.130   2.247
 1832SOL     OW 6394   5.283   1.309   1.007
 1832SOL    HW1 6395   5.220   1.241   1.045
 1832SOL    HW2 6396   5.327   1.272   0.925
 1833SOL     OW 6397   5.179   0.218   6.131
 1833SOL    HW1 6398   5.225   0.226   6.042
 1833SOL    HW2 6399   5.084   0.191   6.118
 1834SOL     OW 6400   2.709   4.266   0.347
 1834SOL    HW1 6401   2.744   4.356   0.372
 1834SOL    HW2 6402   2.782   4.213   0.303
 1835SOL     OW 6403   0.468   3.975   2.006
 1835SOL    HW1 6404   0.448   3.920   2.087
 1835SOL    HW2 6405   0.389   3.977   1.946
 1836SOL     OW 6406   4.993   2.041   0.580
 1836SOL    HW1 6407   4.994   2.053   0.679
 1836SOL    HW2 6408   4.998   1.943   0.559
 1837SOL     OW 6409   1.044   1.796   4.539
 1837SOL    HW1 6410   1.060   1.770   4.444
 1837SOL    HW2 6411   1.131   1.821   4.581
 1838SOL     OW 6412   0.070   1.175   4.155
 1838SOL    HW1 6413   0.024   1.262   4.174
 1838SOL    HW2 6414   0.014   1.099   4.187
 1839SOL     OW 6415   5.386   2.718   5.068
 1839SOL    HW1 6416   5.290   2.702   5.092
 1839SOL    HW2 6417   5.425   2.785   5.131
 1840SOL     OW 6418   3.425   5.730   1.520
 1840SOL    HW1 6419   3.458   5.823   1.503
 1840SOL    HW2 6420   3.489   5.664   1.479
 1841SOL     OW 6421   2.337   1.466   3.658
 1841SOL    HW1 6422   2.242   1.494   3.642
 1841SOL    HW2 6423   2.350   1.372   3.626
 1842SOL     OW 6424   1.500   5.570   0.160
 1842SOL    HW1 6425   1.500   5.479   0.202
 1842SOL    HW2 6426   1.577   5.623   0.196
 1843SOL     OW 6427   6.916   1.942   3.651
 1843SOL    HW1 6428   6.853   1.866   3.664
 1843SOL    HW2 6429   6.878   2.005   3.584
 1844SOL     OW 6430   3.565   0.165   5.330
 1844SOL    HW1 6431   3.481   0.214   5.352
 1844SOL    HW2 6432   3.543   0.080   5.282
 1845SOL     OW 6433   2.080   6.696   5.072
 1845SOL    HW1 6434   2.005   6.641   5.108
 1845SOL    HW2 6435   2.168   6.658   5.102
 1846SOL     OW 6436   4.394   2.093   0.379
 1846SOL    HW1 6437   4.389   2.098   0.479
 1846SOL    HW2 6438   4.486   2.067   0.352
 1847SOL     OW 6439   1.260   0.542   6.231
 1847SOL    HW1 6440   1.337   0.527   6.293
 1847SOL    HW2 6441   1.174   0.531   6.282
 1848SOL     OW 6442   1.215   6.900   2.689
 1848SOL    HW1 6443   1.197   6.801   2.689
 1848SOL    HW2 6444   1.145   6.946   2.743
 1849SOL     OW 6445   3.674   2.448   0.582
 1849SOL    HW1 6446   3.627   2.465   0.669
 1849SOL    HW2 6447   3.607   2.427   0.511
 1850SOL     OW 6448   0.852   2.765   2.380
 1850SOL    HW1 6449   0.864   2.665   2.384
 1850SOL    HW2 6450   0.940   2.808   2.362
 1851SOL     OW 6451   0.114   2.817   1.412
 1851SOL    HW1 6452   0.138   2.780   1.502
 1851SOL    HW2 6453   0.112   2.743   1.345
 1852SOL     OW 6454   5.795   3.880   2.488
 1852SOL    HW1 6455   5.729   3.832   2.545
 1852SOL    HW2 6456   5.795   3.840   2.396
 1853SOL     OW 6457   0.308   3.084   3.271
 1853SOL    HW1 6458   0.408   3.084   3.265
 1853SOL    HW2 6459   0.269   3.096   3.179
 1854SOL     OW 6460   2.663   6.060   3.656
 1854SOL    HW1 6461   2.661   6.043   3.754
 1854SOL    HW2 6462   2.587   6.011   3.612
 1855SOL     OW 6463   5.336   3.758   6.041
 1855SOL    HW1 6464   5.288   3.674   6.067
 1855SOL    HW2 6465   5.422   3.735   5.996
 1856SOL     OW 6466   6.288   3.790   5.668
 1856SOL    HW1 6467   6.250   3.713   5.617
 1856SOL    HW2 6468   6.223   3.866   5.669
 1857SOL     OW 6469   3.944   1.265   5.437
 1857SOL    HW1 6470   3.960   1.364   5.426
 1857SOL    HW2 6471   3.906   1.248   5.528
 1858SOL     OW 6472   6.227   3.357   3.663
 1858SOL    HW1 6473   6.195   3.368   3.569
 1858SOL    HW2 6474   6.327   3.351   3.664
 1859SOL     OW 6475   4.789   1.994   3.125
 1859SOL    HW1 6476   4.726   2.042   3.186
 1859SOL    HW2 6477   4.792   2.041   3.037
 1860SOL     OW 6478   6.716   0.421   4.647
 1860SOL    HW1 6479   6.695   0.357   4.722
 1860SOL    HW2 6480   6.730   0.370   4.563
 1861SOL     OW 6481   5.759   0.437   1.970
 1861SOL    HW1 6482   5.743   0.491   2.053
 1861SOL    HW2 6483   5.855   0.409   1.967
 1862SOL     OW 6484   2.394   0.502   6.059
 1862SOL    HW1 6485   2.389   0.444   6.140
 1862SOL    HW2 6486   2.301   0.523   6.027
 1863SOL     OW 6487   1.338   1.985   1.703
 1863SOL    HW1 6488   1.345   1.891   1.671
 1863SOL    HW2 6489   1.380   2.047   1.637
 1864SOL     OW 6490   0.872   0.211   5.551
 1864SOL    HW1 6491   0.889   0.268   5.631
 1864SOL    HW2 6492   0.888   0.265   5.468
 1865SOL     OW 6493   3.841   6.551   6.287
 1865SOL    HW1 6494   3.776   6.487   6.328
 1865SOL    HW2 6495   3.794   6.605   6.218
 1866SOL     OW 6496   4.124   4.793   3.433
 1866SOL    HW1 6497   4.177   4.733   3.494
 1866SOL    HW2 6498   4.174   4.877   3.417
 1867SOL     OW 6499   0.341   3.896   0.117
 1867SOL    HW1 6500   0.396   3.871   0.197
 1867SOL    HW2 6501   0.363   3.835   0.041
 1868SOL     OW 6502   4.732   4.611   6.903
 1868SOL    HW1 6503   4.702   4.682   6.967
 1868SOL    HW2 6504   4.831   4.613   6.895
 1869SOL     OW 6505   5.977   2.800   5.749
 1869SOL    HW1 6506   6.052   2.789   5.815
 1869SOL    HW2 6507   5.950   2.897   5.746
 1870SOL     OW 6508   2.107   2.893   5.542
 1870SOL    HW1 6509   2.147   2.970   5.591
 1870SOL    HW2 6510   2.033   2.854   5.597
 1871SOL     OW 6511   0.739   0.605   0.411
 1871SOL    HW1 6512   0.677   0.533   0.381
 1871SOL    HW2 6513   0.751   0.599   0.510
 1872SOL     OW 6514   3.528   2.194   6.512
 1872SOL    HW1 6515   3.609   2.175   6.457
 1872SOL    HW2 6516   3.497   2.287   6.495
 1873SOL     OW 6517   5.072   1.847   5.615
 1873SOL    HW1 6518   5.005   1.800   5.673
 1873SOL    HW2 6519   5.081   1.942   5.646
 1874SOL     OW 6520   3.397   1.258   1.026
 1874SOL    HW1 6521   3.475   1.275   1.086
 1874SOL    HW2 6522   3.427   1.214   0.942
 1875SOL     OW 6523   0.203   1.019   0.330
 1875SOL    HW1 6524   0.267   1.075   0.276
 1875SOL    HW2 6525   0.250   0.982   0.410
 1876SOL     OW 6526   4.174   6.374   6.023
 1876SOL    HW1 6527   4.137   6.467   6.020
 1876SOL    HW2 6528   4.132   6.320   5.950
 1877SOL     OW 6529   0.392   0.114   2.486
 1877SOL    HW1 6530   0.329   0.119   2.409
 1877SOL    HW2 6531   0.384   0.196   2.542
 1878SOL     OW 6532   6.736   2.509   3.488
 1878SOL    HW1 6533   6.788   2.552   3.415
 1878SOL    HW2 6534   6.685   2.578   3.539
 1879SOL     OW 6535   1.279   4.528   4.036
 1879SOL    HW1 6536   1.356   4.535   4.099
 1879SOL    HW2 6537   1.223   4.610   4.042
 1880SOL     OW 6538   6.550   1.476   4.230
 1880SOL    HW1 6539   6.566   1.557   4.174
 1880SOL    HW2 6540   6.473   1.425   4.192
 1881SOL     OW 6541   5.892   2.102   3.144
 1881SOL    HW1 6542   5.890   2.074   3.048
 1881SOL    HW2 6543   5.918   2.199   3.149
 1882SOL     OW 6544   1.230   3.898   6.175
 1882SOL    HW1 6545   1.264   3.820   6.123
 1882SOL    HW2 6546   1.292   3.976   6.163
 1883SOL     OW 6547   0.373   2.390   3.741
 1883SOL    HW1 6548   0.432   2.467   3.768
 1883SOL    HW2 6549   0.284   2.425   3.713
 1884SOL     OW 6550   6.799   2.601   0.588
 1884SOL    HW1 6551   6.715   2.655   0.587
 1884SOL    HW2 6552   6.836   2.595   0.496
 1885SOL     OW 6553   1.799   1.915   6.711
 1885SOL    HW1 6554   1.833   1.950   6.798
 1885SOL    HW2 6555   1.774   1.819   6.721
 1886SOL     OW 6556   1.873   1.106   1.675
 1886SOL    HW1 6557   1.820   1.041   1.729
 1886SOL    HW2 6558   1.812   1.174   1.635
 1887SOL     OW 6559   1.054   6.085   4.973
 1887SOL    HW1 6560   0.985   6.153   4.997
 1887SOL    HW2 6561   1.145   6.123   4.988
 1888SOL     OW 6562   2.464   2.021   0.427
 1888SOL    HW1 6563   2.431   1.967   0.505
 1888SOL    HW2 6564   2.559   1.995   0.407
 1889SOL     OW 6565   0.645   3.268   5.863
 1889SOL    HW1 6566   0.606   3.176   5.855
 1889SOL    HW2 6567   0.682   3.296   5.775
 1890SOL     OW 6568   1.944   6.213   4.555
 1890SOL    HW1 6569   1.995   6.268   4.621
 1890SOL    HW2 6570   1.875   6.159   4.602
 1891SOL     OW 6571   6.108   2.596   1.946
 1891SOL    HW1 6572   6.013   2.613   1.920
 1891SOL    HW2 6573   6.129   2.500   1.933
 1892SOL     OW 6574   2.542   0.261   2.911
 1892SOL    HW1 6575   2.620   0.324   2.916
 1892SOL    HW2 6576   2.531   0.230   2.816
 1893SOL     OW 6577   2.923   2.903   0.030
 1893SOL    HW1 6578   2.834   2.862   0.013
 1893SOL    HW2 6579   2.935   2.983   6.994
 1894SOL     OW 6580   3.607   4.144   4.018
 1894SOL    HW1 6581   3.628   4.141   4.116
 1894SOL    HW2 6582   3.533   4.209   4.002
 1895SOL     OW 6583   4.700   0.794   1.633
 1895SOL    HW1 6584   4.743   0.703   1.629
 1895SOL    HW2 6585   4.749   0.850   1.700
 1896SOL     OW 6586   5.293   0.300   1.342
 1896SOL    HW1 6587   5.229   0.245   1.288
 1896SOL    HW2 6588   5.343   0.240   1.405
 1897SOL     OW 6589   2.203   5.459   1.599
 1897SOL    HW1 6590   2.225   5.465   1.697
 1897SOL    HW2 6591   2.171   5.367   1.578
 1898SOL     OW 6592   2.206   5.720   3.146
 1898SOL    HW1 6593   2.274   5.701   3.075
 1898SOL    HW2 6594   2.208   5.648   3.214
 1899SOL     OW 6595   0.828   1.258   1.899
 1899SOL    HW1 6596   0.747   1.246   1.841
 1899SOL    HW2 6597   0.873   1.170   1.912
 1900SOL     OW 6598   1.743   0.386   6.358
 1900SOL    HW1 6599   1.798   0.427   6.431
 1900SOL    HW2 6600   1.804   0.346   6.289
 1901SOL     OW 6601   1.521   2.294   1.159
 1901SOL    HW1 6602   1.538   2.197   1.142
 1901SOL    HW2 6603   1.603   2.337   1.197
 1902SOL     OW 6604   2.215   1.144   5.189
 1902SOL    HW1 6605   2.149   1.145   5.264
 1902SOL    HW2 6606   2.307   1.154   5.226
 1903SOL     OW 6607   0.072   3.505   2.622
 1903SOL    HW1 6608   0.050   3.487   2.718
 1903SOL    HW2 6609   0.051   3.423   2.568
 1904SOL     OW 6610   5.453   5.527   3.514
 1904SOL    HW1 6611   5.503   5.440   3.522
 1904SOL    HW2 6612   5.370   5.512   3.461
 1905SOL     OW 6613   1.205   0.214   3.507
 1905SOL    HW1 6614   1.243   0.190   3.596
 1905SOL    HW2 6615   1.232   0.146   3.439
 1906SOL     OW 6616   2.684   0.004   4.820
 1906SOL    HW1 6617   2.721   6.935   4.822
 1906SOL    HW2 6618   2.644   0.026   4.910
 1907SOL     OW 6619   3.390   1.499   1.843
 1907SOL    HW1 6620   3.360   1.579   1.896
 1907SOL    HW2 6621   3.328   1.485   1.766
 1908SOL     OW 6622   3.495   6.955   5.680
 1908SOL    HW1 6623   3.578   6.961   5.624
 1908SOL    HW2 6624   3.477   0.021   5.721
 1909SOL     OW 6625   0.500   3.775   2.797
 1909SOL    HW1 6626   0.554   3.731   2.869
 1909SOL    HW2 6627   0.549   3.855   2.763
 1910SOL     OW 6628   0.210   4.668   6.824
 1910SOL    HW1 6629   0.258   4.597   6.772
 1910SOL    HW2 6630   0.169   4.734   6.762
 1911SOL     OW 6631   0.114   3.876   5.185
 1911SOL    HW1 6632   0.171   3.813   5.133
 1911SOL    HW2 6633   0.077   3.829   5.266
 1912SOL     OW 6634   3.368   5.574   0.378
 1912SOL    HW1 6635   3.410   5.502   0.433
 1912SOL    HW2 6636   3.286   5.537   0.332
 1913SOL     OW 6637   2.808   6.764   4.783
 1913SOL    HW1 6638   2.815   6.718   4.872
 1913SOL    HW2 6639   2.778   6.699   4.714
 1914SOL     OW 6640   3.704   2.777   6.364
 1914SOL    HW1 6641   3.724   2.747   6.271
 1914SOL    HW2 6642   3.685   2.697   6.421
 1915SOL     OW 6643   3.612   2.080   5.182
 1915SOL    HW1 6644   3.712   2.093   5.177
 1915SOL    HW2 6645   3.571   2.156   5.231
 1916SOL     OW 6646   3.881   5.400   1.221
 1916SOL    HW1 6647   3.884   5.469   1.149
 1916SOL    HW2 6648   3.974   5.377   1.250
 1917SOL     OW 6649   2.236   2.951   6.759
 1917SOL    HW1 6650   2.241   2.988   6.666
 1917SOL    HW2 6651   2.311   2.886   6.773
 1918SOL     OW 6652   1.330   1.296   4.898
 1918SOL    HW1 6653   1.232   1.283   4.881
 1918SOL    HW2 6654   1.346   1.388   4.933
 1919SOL     OW 6655   1.531   0.912   1.808
 1919SOL    HW1 6656   1.470   0.838   1.837
 1919SOL    HW2 6657   1.624   0.893   1.839
 1920SOL     OW 6658   0.415   4.264   3.064
 1920SOL    HW1 6659   0.466   4.317   3.132
 1920SOL    HW2 6660   0.354   4.201   3.111
 1921SOL     OW 6661   1.567   3.548   6.544
 1921SOL    HW1 6662   1.484   3.594   6.512
 1921SOL    HW2 6663   1.641   3.562   6.478
 1922SOL     OW 6664   2.359   3.171   1.527
 1922SOL    HW1 6665   2.407   3.189   1.441
 1922SOL    HW2 6666   2.402   3.093   1.573
 1923SOL     OW 6667   4.349   1.253   5.648
 1923SOL    HW1 6668   4.318   1.201   5.568
 1923SOL    HW2 6669   4.304   1.342   5.649
 1924SOL     OW 6670   4.741   6.500   0.489
 1924SOL    HW1 6671   4.731   6.406   0.458
 1924SOL    HW2 6672   4.725   6.563   0.413
 1925SOL     OW 6673   1.954   4.916   0.654
 1925SOL    HW1 6674   1.873   4.859   0.665
 1925SOL    HW2 6675   1.951   4.991   0.721
 1926SOL     OW 6676   2.996   6.872   2.970
 1926SOL    HW1 6677   3.015   6.790   2.915
 1926SOL    HW2 6678   2.977   6.845   3.064
 1927SOL     OW 6679   2.596   4.774   0.266
 1927SOL    HW1 6680   2.559   4.847   0.324
 1927SOL    HW2 6681   2.660   4.814   0.200
 1928SOL     OW 6682   6.070   4.068   4.662
 1928SOL    HW1 6683   5.997   4.135   4.650
 1928SOL    HW2 6684   6.151   4.098   4.611
 1929SOL     OW 6685   2.427   0.428   1.472
 1929SOL    HW1 6686   2.401   0.405   1.378
 1929SOL    HW2 6687   2.353   0.479   1.516
 1930SOL     OW 6688   4.779   3.944   6.556
 1930SOL    HW1 6689   4.691   3.940   6.603
 1930SOL    HW2 6690   4.771   4.001   6.475
 1931SOL     OW 6691   1.027   2.464   1.198
 1931SOL    HW1 6692   0.939   2.433   1.234
 1931SOL    HW2 6693   1.099   2.442   1.264
 1932SOL     OW 6694   4.879   2.319   2.812
 1932SOL    HW1 6695   4.799   2.364   2.772
 1932SOL    HW2 6696   4.926   2.382   2.873
 1933SOL     OW 6697   1.335   3.485   0.631
 1933SOL    HW1 6698   1.318   3.455   0.537
 1933SOL    HW2 6699   1.306   3.580   0.641
 1934SOL     OW 6700   6.988   0.510   4.917
 1934SOL    HW1 6701   0.036   0.564   4.961
 1934SOL    HW2 6702   6.899   0.534   4.956
 1935SOL     OW 6703   4.575   5.168   3.509
 1935SOL    HW1 6704   4.480   5.144   3.529
 1935SOL    HW2 6705   4.588   5.266   3.522
 1936SOL     OW 6706   4.975   4.514   3.991
 1936SOL    HW1 6707   5.062   4.543   4.031
 1936SOL    HW2 6708   4.915   4.593   3.983
 1937SOL     OW 6709   4.015   6.179   0.017
 1937SOL    HW1 6710   3.955   6.113   0.062
 1937SOL    HW2 6711   4.085   6.131   6.988
 1938SOL     OW 6712   1.305   1.615   1.928
 1938SOL    HW1 6713   1.296   1.516   1.929
 1938SOL    HW2 6714   1.271   1.650   1.840
 1939SOL     OW 6715   6.751   6.498   4.166
 1939SOL    HW1 6716   6.722   6.593   4.159
 1939SOL    HW2 6717   6.779   6.478   4.260
 1940SOL     OW 6718   6.427   5.513   0.637
 1940SOL    HW1 6719   6.342   5.565   0.627
 1940SOL    HW2 6720   6.444   5.460   0.554
 1941SOL     OW 6721   1.458   2.606   4.346
 1941SOL    HW1 6722   1.436   2.595   4.443
 1941SOL    HW2 6723   1.512   2.528   4.315
 1942SOL     OW 6724   5.787   2.367   2.402
 1942SOL    HW1 6725   5.848   2.375   2.323
 1942SOL    HW2 6726   5.702   2.417   2.383
 1943SOL     OW 6727   1.932   6.566   3.381
 1943SOL    HW1 6728   1.946   6.664   3.368
 1943SOL    HW2 6729   2.012   6.527   3.427
 1944SOL     OW 6730   6.082   3.936   7.018
 1944SOL    HW1 6731   6.010   4.002   0.015
 1944SOL    HW2 6732   6.066   3.852   0.045
 1945SOL     OW 6733   3.877   5.043   0.167
 1945SOL    HW1 6734   3.934   5.009   0.241
 1945SOL    HW2 6735   3.818   5.117   0.201
 1946SOL     OW 6736   5.555   6.669   1.015
 1946SOL    HW1 6737   5.648   6.650   1.049
 1946SOL    HW2 6738   5.502   6.711   1.089
 1947SOL     OW 6739   5.232   6.474   4.580
 1947SOL    HW1 6740   5.239   6.543   4.651
 1947SOL    HW2 6741   5.301   6.492   4.509
 1948SOL     OW 6742   5.928   5.025   2.993
 1948SOL    HW1 6743   5.877   4.960   2.936
 1948SOL    HW2 6744   5.923   5.116   2.952
 1949SOL     OW 6745   3.740   3.415   6.947
 1949SOL    HW1 6746   3.709   3.458   6.863
 1949SOL    HW2 6747   3.796   3.479   6.999
 1950SOL     OW 6748   3.401   3.127   2.006
 1950SOL    HW1 6749   3.446   3.216   2.015
 1950SOL    HW2 6750   3.431   3.083   1.922
 1951SOL     OW 6751   6.839   4.626   6.804
 1951SOL    HW1 6752   6.786   4.566   6.744
 1951SOL    HW2 6753   6.899   4.570   6.862
 1952SOL     OW 6754   5.371   4.310   1.035
 1952SOL    HW1 6755   5.395   4.225   1.082
 1952SOL    HW2 6756   5.401   4.387   1.090
 1953SOL     OW 6757   6.566   1.800   5.942
 1953SOL    HW1 6758   6.646   1.768   5.891
 1953SOL    HW2 6759   6.570   1.763   6.035
 1954SOL     OW 6760   6.334   0.402   1.205
 1954SOL    HW1 6761   6.332   0.477   1.271
 1954SOL    HW2 6762   6.241   0.380   1.176
 1955SOL     OW 6763   0.548   0.573   2.841
 1955SOL    HW1 6764   0.606   0.654   2.831
 1955SOL    HW2 6765   0.574   0.523   2.923
 1956SOL     OW 6766   4.923   0.434   1.789
 1956SOL    HW1 6767   5.012   0.410   1.752
 1956SOL    HW2 6768   4.880   0.503   1.730
 1957SOL     OW 6769   5.040   4.821   3.837
 1957SOL    HW1 6770   5.122   4.869   3.870
 1957SOL    HW2 6771   5.001   4.871   3.760
 1958SOL     OW 6772   4.582   1.766   1.503
 1958SOL    HW1 6773   4.631   1.816   1.431
 1958SOL    HW2 6774   4.568   1.826   1.581
 1959SOL     OW 6775   0.626   0.061   3.927
 1959SOL    HW1 6776   0.567   0.114   3.866
 1959SOL    HW2 6777   0.628   6.989   3.898
 1960SOL     OW 6778   0.251   3.896   2.876
 1960SOL    HW1 6779   0.349   3.875   2.880
 1960SOL    HW2 6780   0.236   3.978   2.820
 1961SOL     OW 6781   6.278   4.614   4.370
 1961SOL    HW1 6782   6.319   4.631   4.460
 1961SOL    HW2 6783   6.338   4.651   4.299
 1962SOL     OW 6784   1.432   6.829   2.175
 1962SOL    HW1 6785   1.367   6.864   2.242
 1962SOL    HW2 6786   1.386   6.815   2.088
 1963SOL     OW 6787   1.358   1.247   1.947
 1963SOL    HW1 6788   1.296   1.266   1.870
 1963SOL    HW2 6789   1.329   1.162   1.992
 1964SOL     OW 6790   4.263   4.698   1.144
 1964SOL    HW1 6791   4.285   4.611   1.101
 1964SOL    HW2 6792   4.164   4.708   1.152
 1965SOL     OW 6793   2.063   2.239   4.315
 1965SOL    HW1 6794   2.022   2.187   4.240
 1965SOL    HW2 6795   2.127   2.307   4.278
 1966SOL     OW 6796   0.779   6.029   1.573
 1966SOL    HW1 6797   0.744   6.008   1.664
 1966SOL    HW2 6798   0.856   5.969   1.551
 1967SOL     OW 6799   6.157   2.731   4.152
 1967SOL    HW1 6800   6.090   2.805   4.163
 1967SOL    HW2 6801   6.249   2.767   4.169
 1968SOL     OW 6802   2.041   0.277   5.489
 1968SOL    HW1 6803   2.108   0.301   5.560
 1968SOL    HW2 6804   2.018   0.358   5.436
 1969SOL     OW 6805   2.730   1.438   1.282
 1969SOL    HW1 6806   2.809   1.416   1.224
 1969SOL    HW2 6807   2.731   1.536   1.303
 1970SOL     OW 6808   0.969   0.025   4.982
 1970SOL    HW1 6809   1.026   0.071   5.050
 1970SOL    HW2 6810   0.961   0.082   4.901
 1971SOL     OW 6811   0.589   1.043   5.573
 1971SOL    HW1 6812   0.624   1.071   5.484
 1971SOL    HW2 6813   0.491   1.026   5.567
 1972SOL     OW 6814   5.723   2.373   1.325
 1972SOL    HW1 6815   5.696   2.302   1.391
 1972SOL    HW2 6816   5.749   2.329   1.239
 1973SOL     OW 6817   2.844   4.115   1.371
 1973SOL    HW1 6818   2.915   4.150   1.311
 1973SOL    HW2 6819   2.832   4.177   1.449
 1974SOL     OW 6820   4.914   0.228   4.819
 1974SOL    HW1 6821   5.012   0.242   4.836
 1974SOL    HW2 6822   4.902   0.159   4.747
 1975SOL     OW 6823   2.158   1.969   3.985
 1975SOL    HW1 6824   2.232   2.032   3.963
 1975SOL    HW2 6825   2.173   1.882   3.938
 1976SOL     OW 6826   5.882   6.253   0.818
 1976SOL    HW1 6827   5.852   6.207   0.901
 1976SOL    HW2 6828   5.981   6.261   0.819
 1977SOL     OW 6829   1.672   3.216   5.131
 1977SOL    HW1 6830   1.711   3.147   5.070
 1977SOL    HW2 6831   1.743   3.284   5.152
 1978SOL     OW 6832   1.803   6.087   2.948
 1978SOL    HW1 6833   1.796   5.993   2.915
 1978SOL    HW2 6834   1.863   6.089   3.028
 1979SOL     OW 6835   5.712   5.024   0.151
 1979SOL    HW1 6836   5.688   5.046   0.245
 1979SOL    HW2 6837   5.776   5.092   0.116
 1980SOL     OW 6838   4.105   0.170   3.887
 1980SOL    HW1 6839   4.081   0.092   3.829
 1980SOL    HW2 6840   4.118   0.251   3.830
 1981SOL     OW 6841   5.574   3.009   2.590
 1981SOL    HW1 6842   5.525   2.922   2.582
 1981SOL    HW2 6843   5.601   3.041   2.500
 1982SOL     OW 6844   6.843   3.814   3.756
 1982SOL    HW1 6845   6.898   3.897   3.755
 1982SOL    HW2 6846   6.808   3.799   3.849
 1983SOL     OW 6847   2.085   0.878   1.700
 1983SOL    HW1 6848   1.997   0.926   1.698
 1983SOL    HW2 6849   2.157   0.944   1.722
 1984SOL     OW 6850   4.418   2.366   4.893
 1984SOL    HW1 6851   4.323   2.387   4.916
 1984SOL    HW2 6852   4.459   2.444   4.845
 1985SOL     OW 6853   0.320   6.028   2.377
 1985SOL    HW1 6854   0.391   6.074   2.432
 1985SOL    HW2 6855   0.230   6.051   2.414
 1986SOL     OW 6856   2.906   1.140   6.469
 1986SOL    HW1 6857   2.902   1.191   6.556
 1986SOL    HW2 6858   2.831   1.170   6.410
 1987SOL     OW 6859   2.523   1.475   3.449
 1987SOL    HW1 6860   2.579   1.397   3.476
 1987SOL    HW2 6861   2.462   1.501   3.524
 1988SOL     OW 6862   0.043   2.664   0.686
 1988SOL    HW1 6863   6.979   2.688   0.644
 1988SOL    HW2 6864   0.040   2.686   0.784
 1989SOL     OW 6865   2.105   5.501   4.739
 1989SOL    HW1 6866   2.132   5.563   4.812
 1989SOL    HW2 6867   2.145   5.410   4.756
 1990SOL     OW 6868   3.524   5.770   0.188
 1990SOL    HW1 6869   3.510   5.854   0.240
 1990SOL    HW2 6870   3.552   5.697   0.251
 1991SOL     OW 6871   1.836   6.077   0.420
 1991SOL    HW1 6872   1.814   6.049   0.513
 1991SOL    HW2 6873   1.880   6.001   0.372
 1992SOL     OW 6874   0.136   0.830   0.697
 1992SOL    HW1 6875   0.039   0.834   0.675
 1992SOL    HW2 6876   0.173   0.742   0.670
 1993SOL     OW 6877   3.253   1.676   5.917
 1993SOL    HW1 6878   3.247   1.577   5.905
 1993SOL    HW2 6879   3.177   1.720   5.869
 1994SOL     OW 6880   5.999   2.450   1.592
 1994SOL    HW1 6881   6.088   2.462   1.548
 1994SOL    HW2 6882   5.944   2.532   1.578
 1995SOL     OW 6883   5.457   3.248   3.890
 1995SOL    HW1 6884   5.512   3.267   3.971
 1995SOL    HW2 6885   5.423   3.334   3.852
 1996SOL     OW 6886   2.800   1.859   1.051
 1996SOL    HW1 6887   2.727   1.925   1.070
 1996SOL    HW2 6888   2.788   1.822   0.959
 1997SOL     OW 6889   3.960   1.737   3.844
 1997SOL    HW1 6890   4.043   1.775   3.885
 1997SOL    HW2 6891   3.893   1.810   3.829
 1998SOL     OW 6892   1.811   3.853   0.685
 1998SOL    HW1 6893   1.732   3.822   0.739
 1998SOL    HW2 6894   1.780   3.885   0.596
 1999SOL     OW 6895   1.192   0.266   5.765
 1999SOL    HW1 6896   1.151   0.351   5.799
 1999SOL    HW2 6897   1.247   0.286   5.684
 2000SOL     OW 6898   3.680   2.825   5.751
 2000SOL    HW1 6899   3.719   2.886   5.820
 2000SOL    HW2 6900   3.747   2.809   5.678
 2001SOL     OW 6901   2.253   1.460   0.826
 2001SOL    HW1 6902   2.263   1.386   0.760
 2001SOL    HW2 6903   2.278   1.427   0.917
 2002SOL     OW 6904   0.708   4.938   0.902
 2002SOL    HW1 6905   0.635   4.941   0.970
 2002SOL    HW2 6906   0.679   4.883   0.823
 2003SOL     OW 6907   6.530   4.912   2.145
 2003SOL    HW1 6908   6.548   4.999   2.100
 2003SOL    HW2 6909   6.597   4.844   2.115
 2004SOL     OW 6910   4.735   0.894   4.687
 2004SOL    HW1 6911   4.680   0.972   4.716
 2004SOL    HW2 6912   4.680   0.810   4.690
 2005SOL     OW 6913   7.017   4.740   0.350
 2005SOL    HW1 6914   0.084   4.775   0.374
 2005SOL    HW2 6915   7.021   4.698   0.260
 2006SOL     OW 6916   5.797   6.682   3.850
 2006SOL    HW1 6917   5.827   6.641   3.764
 2006SOL    HW2 6918   5.780   6.780   3.836
 2007SOL     OW 6919   5.335   4.643   1.023
 2007SOL    HW1 6920   5.342   4.740   1.003
 2007SOL    HW2 6921   5.417   4.596   0.989
 2008SOL     OW 6922   2.072   3.464   3.289
 2008SOL    HW1 6923   2.103   3.457   3.384
 2008SOL    HW2 6924   1.981   3.504   3.287
 2009SOL     OW 6925   4.897   6.701   2.469
 2009SOL    HW1 6926   4.930   6.682   2.561
 2009SOL    HW2 6927   4.825   6.636   2.445
 2010SOL     OW 6928   2.516   1.717   1.911
 2010SOL    HW1 6929   2.565   1.772   1.844
 2010SOL    HW2 6930   2.459   1.776   1.968
 2011SOL     OW 6931   0.537   1.055   4.914
 2011SOL    HW1 6932   0.615   1.083   4.858
 2011SOL    HW2 6933   0.467   1.126   4.912
 2012SOL     OW 6934   1.409   3.701   2.287
 2012SOL    HW1 6935   1.456   3.639   2.224
 2012SOL    HW2 6936   1.340   3.753   2.236
 2013SOL     OW 6937   6.027   2.967   3.826
 2013SOL    HW1 6938   5.969   2.910   3.883
 2013SOL    HW2 6939   6.117   2.977   3.869
 2014SOL     OW 6940   3.080   0.075   3.288
 2014SOL    HW1 6941   3.032   0.113   3.367
 2014SOL    HW2 6942   3.062   7.000   3.282
 2015SOL     OW 6943   2.621   6.712   1.004
 2015SOL    HW1 6944   2.590   6.692   0.911
 2015SOL    HW2 6945   2.721   6.719   1.005
 2016SOL     OW 6946   1.578   5.576   5.273
 2016SOL    HW1 6947   1.500   5.514   5.274
 2016SOL    HW2 6948   1.589   5.617   5.363
 2017SOL     OW 6949   4.310   0.136   3.012
 2017SOL    HW1 6950   4.346   0.075   2.941
 2017SOL    HW2 6951   4.241   0.196   2.973
 2018SOL     OW 6952   6.309   3.035   3.607
 2018SOL    HW1 6953   6.271   2.943   3.619
 2018SOL    HW2 6954   6.346   3.068   3.693
 2019SOL     OW 6955   5.899   4.411   6.416
 2019SOL    HW1 6956   5.940   4.501   6.429
 2019SOL    HW2 6957   5.805   4.412   6.450
 2020SOL     OW 6958   2.001   6.561   5.956
 2020SOL    HW1 6959   1.946   6.644   5.958
 2020SOL    HW2 6960   1.961   6.493   6.018
 2021SOL     OW 6961   6.461   6.457   4.366
 2021SOL    HW1 6962   6.478   6.533   4.304
 2021SOL    HW2 6963   6.450   6.492   4.459
 2022SOL     OW 6964   1.568   4.752   4.154
 2022SOL    HW1 6965   1.625   4.684   4.200
 2022SOL    HW2 6966   1.503   4.790   4.220
 2023SOL     OW 6967   0.823   0.576   0.027
 2023SOL    HW1 6968   0.875   0.503   7.005
 2023SOL    HW2 6969   0.886   0.634   0.079
 2024SOL     OW 6970   0.102   5.756   4.013
 2024SOL    HW1 6971   0.167   5.716   4.078
 2024SOL    HW2 6972   0.010   5.750   4.051
 2025SOL     OW 6973   3.767   1.183   4.464
 2025SOL    HW1 6974   3.746   1.088   4.487
 2025SOL    HW2 6975   3.683   1.237   4.469
 2026SOL     OW 6976   6.660   2.231   6.658
 2026SOL    HW1 6977   6.718   2.303   6.621
 2026SOL    HW2 6978   6.604   2.192   6.585
 2027SOL     OW 6979   1.159   0.205   1.416
 2027SOL    HW1 6980   1.239   0.248   1.457
 2027SOL    HW2 6981   1.096   0.276   1.384
 2028SOL     OW 6982   3.215   5.414   3.907
 2028SOL    HW1 6983   3.149   5.467   3.853
 2028SOL    HW2 6984   3.297   5.469   3.921
 2029SOL     OW 6985   6.581   2.406   6.869
 2029SOL    HW1 6986   6.493   2.397   6.915
 2029SOL    HW2 6987   6.588   2.336   6.798
 2030SOL     OW 6988   3.380   0.211   2.951
 2030SOL    HW1 6989   3.385   0.121   2.994
 2030SOL    HW2 6990   3.294   0.256   2.978
 2031SOL     OW 6991   0.213   6.349   2.671
 2031SOL    HW1 6992   0.269   6.408   2.613
 2031SOL    HW2 6993   0.121   6.342   2.632
 2032SOL     OW 6994   3.314   1.305   1.591
 2032SOL    HW1 6995   3.318   1.359   1.506
 2032SOL    HW2 6996   3.405   1.298   1.631
 2033SOL     OW 6997   2.350   1.179   0.829
 2033SOL    HW1 6998   2.377   1.098   0.881
 2033SOL    HW2 6999   2.387   1.261   0.873
 2034SOL     OW 7000   1.882   4.867   5.937
 2034SOL    HW1 7001   1.963   4.877   5.880
 2034SOL    HW2 7002   1.848   4.958   5.962
 2035SOL     OW 7003   6.403   6.435   3.014
 2035SOL    HW1 7004   6.379   6.519   3.063
 2035SOL    HW2 7005   6.459   6.377   3.073
 2036SOL     OW 7006   1.200   3.578   3.241
 2036SOL    HW1 7007   1.230   3.653   3.183
 2036SOL    HW2 7008   1.145   3.513   3.187
 2037SOL     OW 7009   5.906   2.846   6.273
 2037SOL    HW1 7010   5.956   2.885   6.196
 2037SOL    HW2 7011   5.968   2.792   6.330
 2038SOL     OW 7012   2.566   1.491   0.577
 2038SOL    HW1 7013   2.527   1.551   0.646
 2038SOL    HW2 7014   2.626   1.424   0.621
 2039SOL     OW 7015   0.130   6.533   3.271
 2039SOL    HW1 7016   0.128   6.442   3.312
 2039SOL    HW2 7017   0.217   6.547   3.224
 2040SOL     OW 7018   2.375   1.908   0.172
 2040SOL    HW1 7019   2.336   1.818   0.153
 2040SOL    HW2 7020   2.401   1.913   0.269
 2041SOL     OW 7021   1.419   0.464   5.100
 2041SOL    HW1 7022   1.394   0.394   5.168
 2041SOL    HW2 7023   1.375   0.442   5.013
 2042SOL     OW 7024   4.992   0.257   5.905
 2042SOL    HW1 7025   4.930   0.227   5.977
 2042SOL    HW2 7026   5.007   0.182   5.840
 2043SOL     OW 7027   6.483   2.825   2.975
 2043SOL    HW1 7028   6.415   2.760   2.942
 2043SOL    HW2 7029   6.511   2.885   2.900
 2044SOL     OW 7030   5.958   0.630   0.740
 2044SOL    HW1 7031   5.906   0.698   0.793
 2044SOL    HW2 7032   5.920   0.623   0.648
 2045SOL     OW 7033   1.080   5.312   4.900
 2045SOL    HW1 7034   1.157   5.249   4.912
 2045SOL    HW2 7035   1.009   5.267   4.846
 2046SOL     OW 7036   6.395   1.980   5.347
 2046SOL    HW1 7037   6.381   1.882   5.338
 2046SOL    HW2 7038   6.420   2.001   5.442
 2047SOL     OW 7039   6.514   2.940   1.137
 2047SOL    HW1 7040   6.507   3.020   1.078
 2047SOL    HW2 7041   6.422   2.907   1.159
 2048SOL     OW 7042   0.373   0.583   5.023
 2048SOL    HW1 7043   0.289   0.637   5.026
 2048SOL    HW2 7044   0.378   0.535   4.935
 2049SOL     OW 7045   5.585   1.655   4.135
 2049SOL    HW1 7046   5.585   1.615   4.044
 2049SOL    HW2 7047   5.548   1.590   4.201
 2050SOL     OW 7048   0.056   2.498   4.504
 2050SOL    HW1 7049   0.119   2.460   4.436
 2050SOL    HW2 7050   0.020   2.424   4.561
 2051SOL     OW 7051   1.844   6.277   6.926
 2051SOL    HW1 7052   1.929   6.227   6.942
 2051SOL    HW2 7053   1.797   6.292   7.013
 2052SOL     OW 7054   1.533   3.002   0.725
 2052SOL    HW1 7055   1.554   2.965   0.816
 2052SOL    HW2 7056   1.495   3.094   0.733
 2053SOL     OW 7057   0.701   5.492   5.130
 2053SOL    HW1 7058   0.618   5.437   5.138
 2053SOL    HW2 7059   0.742   5.478   5.040
 2054SOL     OW 7060   3.284   4.065   2.766
 2054SOL    HW1 7061   3.250   4.159   2.763
 2054SOL    HW2 7062   3.311   4.041   2.859
 2055SOL     OW 7063   6.335   2.853   5.036
 2055SOL    HW1 7064   6.358   2.938   4.989
 2055SOL    HW2 7065   6.343   2.777   4.971
 2056SOL     OW 7066   4.224   4.770   1.419
 2056SOL    HW1 7067   4.162   4.849   1.415
 2056SOL    HW2 7068   4.247   4.742   1.326
 2057SOL     OW 7069   4.853   3.441   5.348
 2057SOL    HW1 7070   4.810   3.501   5.281
 2057SOL    HW2 7071   4.820   3.466   5.440
 2058SOL     OW 7072   0.811   6.338   2.126
 2058SOL    HW1 7073   0.790   6.330   2.029
 2058SOL    HW2 7074   0.727   6.344   2.179
 2059SOL     OW 7075   2.493   7.002   6.478
 2059SOL    HW1 7076   2.453   7.009   6.387
 2059SOL    HW2 7077   2.445   6.932   6.531
 2060SOL     OW 7078   0.098   4.037   1.851
 2060SOL    HW1 7079   0.057   3.953   1.888
 2060SOL    HW2 7080   0.118   4.024   1.754
 2061SOL     OW 7081   1.930   2.238   2.600
 2061SOL    HW1 7082   1.833   2.217   2.586
 2061SOL    HW2 7083   1.960   2.305   2.532
 2062SOL     OW 7084   6.893   5.657   5.487
 2062SOL    HW1 7085   6.988   5.675   5.461
 2062SOL    HW2 7086   6.831   5.691   5.416
 2063SOL     OW 7087   1.437   6.462   4.959
 2063SOL    HW1 7088   1.428   6.559   4.940
 2063SOL    HW2 7089   1.442   6.411   4.873
 2064SOL     OW 7090   6.969   3.083   4.507
 2064SOL    HW1 7091   0.035   3.038   4.505
 2064SOL    HW2 7092   6.930   3.086   4.415
 2065SOL     OW 7093   5.656   3.097   6.057
 2065SOL    HW1 7094   5.577   3.125   6.002
 2065SOL    HW2 7095   5.665   2.997   6.052
 2066SOL     OW 7096   6.455   4.206   5.638
 2066SOL    HW1 7097   6.449   4.175   5.543
 2066SOL    HW2 7098   6.445   4.128   5.699
 2067SOL     OW 7099   6.565   5.384   0.853
 2067SOL    HW1 7100   6.498   5.409   0.783
 2067SOL    HW2 7101   6.608   5.297   0.828
 2068SOL     OW 7102   3.846   0.649   4.303
 2068SOL    HW1 7103   3.891   0.717   4.245
 2068SOL    HW2 7104   3.885   0.558   4.284
 2069SOL     OW 7105   0.258   2.607   4.085
 2069SOL    HW1 7106   0.295   2.515   4.071
 2069SOL    HW2 7107   0.240   2.621   4.182
 2070SOL     OW 7108   1.164   2.820   0.836
 2070SOL    HW1 7109   1.126   2.728   0.831
 2070SOL    HW2 7110   1.242   2.828   0.774
 2071SOL     OW 7111   6.282   1.330   6.268
 2071SOL    HW1 7112   6.294   1.320   6.169
 2071SOL    HW2 7113   6.287   1.426   6.293
 2072SOL     OW 7114   4.640   5.086   4.711
 2072SOL    HW1 7115   4.588   5.003   4.693
 2072SOL    HW2 7116   4.602   5.133   4.790
 2073SOL     OW 7117   3.617   6.202   5.486
 2073SOL    HW1 7118   3.644   6.146   5.408
 2073SOL    HW2 7119   3.683   6.276   5.498
 2074SOL     OW 7120   1.983   2.295   6.646
 2074SOL    HW1 7121   1.946   2.388   6.641
 2074SOL    HW2 7122   2.014   2.277   6.740
 2075SOL     OW 7123   6.720   2.374   3.132
 2075SOL    HW1 7124   6.653   2.375   3.207
 2075SOL    HW2 7125   6.737   2.467   3.101
 2076SOL     OW 7126   5.766   0.621   5.688
 2076SOL    HW1 7127   5.692   0.687   5.699
 2076SOL    HW2 7128   5.767   0.559   5.767
 2077SOL     OW 7129   6.666   2.138   1.876
 2077SOL    HW1 7130   6.630   2.052   1.913
 2077SOL    HW2 7131   6.700   2.195   1.950
 2078SOL     OW 7132   1.314   4.668   6.324
 2078SOL    HW1 7133   1.317   4.757   6.277
 2078SOL    HW2 7134   1.282   4.682   6.418
 2079SOL     OW 7135   6.156   1.112   2.823
 2079SOL    HW1 7136   6.233   1.133   2.883
 2079SOL    HW2 7137   6.190   1.081   2.734
 2080SOL     OW 7138   3.555   1.718   4.853
 2080SOL    HW1 7139   3.522   1.786   4.788
 2080SOL    HW2 7140   3.486   1.647   4.867
 2081SOL     OW 7141   0.847   6.524   4.055
 2081SOL    HW1 7142   0.858   6.496   3.960
 2081SOL    HW2 7143   0.935   6.518   4.103
 2082SOL     OW 7144   0.704   6.662   3.199
 2082SOL    HW1 7145   0.747   6.650   3.288
 2082SOL    HW2 7146   0.667   6.574   3.168
 2083SOL     OW 7147   1.520   6.144   4.561
 2083SOL    HW1 7148   1.551   6.145   4.466
 2083SOL    HW2 7149   1.510   6.238   4.594
 2084SOL     OW 7150   0.533   3.168   1.623
 2084SOL    HW1 7151   0.582   3.230   1.562
 2084SOL    HW2 7152   0.597   3.130   1.690
 2085SOL     OW 7153   4.784   6.331   0.866
 2085SOL    HW1 7154   4.866   6.320   0.922
 2085SOL    HW2 7155   4.771   6.428   0.845
 2086SOL     OW 7156   3.643   6.019   6.876
 2086SOL    HW1 7157   3.644   6.114   6.907
 2086SOL    HW2 7158   3.734   5.978   6.889
 2087SOL     OW 7159   4.628   1.954   0.272
 2087SOL    HW1 7160   4.674   1.975   0.186
 2087SOL    HW2 7161   4.628   1.855   0.287
 2088SOL     OW 7162   1.062   6.048   5.867
 2088SOL    HW1 7163   1.154   6.085   5.854
 2088SOL    HW2 7164   1.067   5.965   5.923
 2089SOL     OW 7165   4.248   2.232   5.205
 2089SOL    HW1 7166   4.247   2.299   5.131
 2089SOL    HW2 7167   4.339   2.190   5.211
 2090SOL     OW 7168   4.953   3.062   5.699
 2090SOL    HW1 7169   4.888   2.990   5.723
 2090SOL    HW2 7170   4.918   3.114   5.621
 2091SOL     OW 7171   6.530   6.164   0.694
 2091SOL    HW1 7172   6.614   6.218   0.699
 2091SOL    HW2 7173   6.520   6.110   0.777
 2092SOL     OW 7174   5.421   4.078   1.143
 2092SOL    HW1 7175   5.482   4.030   1.206
 2092SOL    HW2 7176   5.365   4.012   1.093
 2093SOL     OW 7177   3.669   1.749   2.243
 2093SOL    HW1 7178   3.630   1.827   2.196
 2093SOL    HW2 7179   3.649   1.665   2.192
 2094SOL     OW 7180   5.373   2.095   0.913
 2094SOL    HW1 7181   5.437   2.142   0.973
 2094SOL    HW2 7182   5.294   2.154   0.895
 2095SOL     OW 7183   6.067   6.420   3.646
 2095SOL    HW1 7184   6.163   6.413   3.671
 2095SOL    HW2 7185   6.010   6.404   3.727
 2096SOL     OW 7186   4.555   5.492   2.712
 2096SOL    HW1 7187   4.576   5.560   2.642
 2096SOL    HW2 7188   4.505   5.416   2.671
 2097SOL     OW 7189   2.802   3.190   7.007
 2097SOL    HW1 7190   2.799   3.268   0.046
 2097SOL    HW2 7191   2.892   3.185   6.964
 2098SOL     OW 7192   3.820   5.646   3.124
 2098SOL    HW1 7193   3.794   5.679   3.215
 2098SOL    HW2 7194   3.890   5.575   3.133
 2099SOL     OW 7195   4.246   1.398   6.819
 2099SOL    HW1 7196   4.170   1.463   6.823
 2099SOL    HW2 7197   4.259   1.369   6.724
 2100SOL     OW 7198   4.963   1.668   0.313
 2100SOL    HW1 7199   4.986   1.725   0.393
 2100SOL    HW2 7200   4.887   1.608   0.336
 2101SOL     OW 7201   6.831   6.424   1.102
 2101SOL    HW1 7202   6.912   6.419   1.044
 2101SOL    HW2 7203   6.849   6.488   1.177
 2102SOL     OW 7204   4.925   3.596   1.434
 2102SOL    HW1 7205   4.901   3.507   1.473
 2102SOL    HW2 7206   4.872   3.611   1.351
 2103SOL     OW 7207   3.303   3.515   0.456
 2103SOL    HW1 7208   3.334   3.533   0.550
 2103SOL    HW2 7209   3.253   3.595   0.422
 2104SOL     OW 7210   1.453   4.780   1.883
 2104SOL    HW1 7211   1.518   4.704   1.889
 2104SOL    HW2 7212   1.435   4.816   1.975
 2105SOL     OW 7213   3.988   4.642   6.546
 2105SOL    HW1 7214   3.990   4.725   6.602
 2105SOL    HW2 7215   4.064   4.644   6.481
 2106SOL     OW 7216   5.291   3.692   1.093
 2106SOL    HW1 7217   5.257   3.765   1.034
 2106SOL    HW2 7218   5.219   3.665   1.157
 2107SOL     OW 7219   6.154   3.031   5.456
 2107SOL    HW1 7220   6.129   2.991   5.545
 2107SOL    HW2 7221   6.195   2.960   5.399
 2108SOL     OW 7222   5.493   6.145   5.698
 2108SOL    HW1 7223   5.482   6.133   5.797
 2108SOL    HW2 7224   5.445   6.228   5.669
 2109SOL     OW 7225   3.268   5.875   2.009
 2109SOL    HW1 7226   3.260   5.814   1.930
 2109SOL    HW2 7227   3.185   5.869   2.064
 2110SOL     OW 7228   3.686   0.657   5.863
 2110SOL    HW1 7229   3.708   0.723   5.935
 2110SOL    HW2 7230   3.587   0.646   5.857
 2111SOL     OW 7231   1.313   2.254   5.102
 2111SOL    HW1 7232   1.366   2.210   5.030
 2111SOL    HW2 7233   1.349   2.226   5.192
 2112SOL     OW 7234   5.510   2.300   6.685
 2112SOL    HW1 7235   5.502   2.265   6.592
 2112SOL    HW2 7236   5.423   2.339   6.714
 2113SOL     OW 7237   2.276   0.202   4.797
 2113SOL    HW1 7238   2.341   0.140   4.753
 2113SOL    HW2 7239   2.207   0.148   4.846
 2114SOL     OW 7240   2.056   2.809   6.894
 2114SOL    HW1 7241   2.127   2.856   6.842
 2114SOL    HW2 7242   1.974   2.866   6.898
 2115SOL     OW 7243   1.284   4.522   1.878
 2115SOL    HW1 7244   1.262   4.543   1.974
 2115SOL    HW2 7245   1.383   4.512   1.869
 2116SOL     OW 7246   0.779   2.923   1.096
 2116SOL    HW1 7247   0.785   2.851   1.026
 2116SOL    HW2 7248   0.859   2.981   1.090
 2117SOL     OW 7249   5.342   3.103   1.739
 2117SOL    HW1 7250   5.263   3.086   1.798
 2117SOL    HW2 7251   5.383   3.016   1.712
 2118SOL     OW 7252   5.954   3.900   2.709
 2118SOL    HW1 7253   6.047   3.918   2.675
 2118SOL    HW2 7254   5.900   3.856   2.637
 2119SOL     OW 7255   1.589   1.538   0.350
 2119SOL    HW1 7256   1.603   1.635   0.374
 2119SOL    HW2 7257   1.652   1.482   0.404
 2120SOL     OW 7258   6.836   2.781   2.468
 2120SOL    HW1 7259   6.887   2.698   2.447
 2120SOL    HW2 7260   6.741   2.758   2.487
 2121SOL     OW 7261   2.089   2.122   6.219
 2121SOL    HW1 7262   2.184   2.132   6.189
 2121SOL    HW2 7263   2.081   2.151   6.315
 2122SOL     OW 7264   5.834   6.725   6.146
 2122SOL    HW1 7265   5.909   6.770   6.195
 2122SOL    HW2 7266   5.827   6.762   6.054
 2123SOL     OW 7267   6.680   6.091   2.418
 2123SOL    HW1 7268   6.641   6.184   2.417
 2123SOL    HW2 7269   6.680   6.054   2.326
 2124SOL     OW 7270   2.934   1.552   5.722
 2124SOL    HW1 7271   2.874   1.629   5.746
 2124SOL    HW2 7272   2.894   1.467   5.755
 2125SOL     OW 7273   1.633   5.858   2.438
 2125SOL    HW1 7274   1.534   5.859   2.455
 2125SOL    HW2 7275   1.651   5.882   2.343
 2126SOL     OW 7276   4.199   2.809   6.803
 2126SOL    HW1 7277   4.187   2.851   6.713
 2126SOL    HW2 7278   4.138   2.852   6.869
 2127SOL     OW 7279   0.693   2.021   5.399
 2127SOL    HW1 7280   0.747   1.943   5.430
 2127SOL    HW2 7281   0.666   2.007   5.304
 2128SOL     OW 7282   6.311   2.906   0.670
 2128SOL    HW1 7283   6.373   2.841   0.626
 2128SOL    HW2 7284   6.221   2.901   0.628
 2129SOL     OW 7285   5.170   4.425   4.153
 2129SOL    HW1 7286   5.116   4.401   4.233
 2129SOL    HW2 7287   5.236   4.352   4.135
 2130SOL     OW 7288   2.324   1.727   1.115
 2130SOL    HW1 7289   2.309   1.751   1.019
 2130SOL    HW2 7290   2.414   1.684   1.125
 2131SOL     OW 7291   4.974   2.319   0.317
 2131SOL    HW1 7292   5.048   2.341   0.381
 2131SOL    HW2 7293   4.980   2.222   0.291
 2132SOL     OW 7294   3.602   1.581   6.869
 2132SOL    HW1 7295   3.605   1.487   6.902
 2132SOL    HW2 7296   3.602   1.644   6.947
 2133SOL     OW 7297   2.619   2.041   1.113
 2133SOL    HW1 7298   2.657   2.116   1.166
 2133SOL    HW2 7299   2.524   2.026   1.140
 2134SOL     OW 7300   1.263   0.908   4.827
 2134SOL    HW1 7301   1.347   0.963   4.826
 2134SOL    HW2 7302   1.285   0.814   4.854
 2135SOL     OW 7303   0.324   1.883   4.451
 2135SOL    HW1 7304   0.381   1.935   4.388
 2135SOL    HW2 7305   0.234   1.869   4.410
 2136SOL     OW 7306   1.163   3.916   4.713
 2136SOL    HW1 7307   1.224   3.939   4.638
 2136SOL    HW2 7308   1.068   3.928   4.684
 2137SOL     OW 7309   0.956   6.816   4.814
 2137SOL    HW1 7310   0.977   6.902   4.861
 2137SOL    HW2 7311   0.866   6.784   4.842
 2138SOL     OW 7312   5.477   2.856   1.667
 2138SOL    HW1 7313   5.539   2.857   1.746
 2138SOL    HW2 7314   5.438   2.764   1.658
 2139SOL     OW 7315   4.293   0.945   3.399
 2139SOL    HW1 7316   4.225   0.979   3.333
 2139SOL    HW2 7317   4.365   1.014   3.410
 2140SOL     OW 7318   3.061   6.339   2.849
 2140SOL    HW1 7319   3.109   6.368   2.766
 2140SOL    HW2 7320   2.962   6.339   2.832
 2141SOL     OW 7321   6.538   3.425   1.432
 2141SOL    HW1 7322   6.572   3.518   1.447
 2141SOL    HW2 7323   6.586   3.385   1.354
 2142SOL     OW 7324   1.152   2.171   3.111
 2142SOL    HW1 7325   1.082   2.180   3.181
 2142SOL    HW2 7326   1.220   2.243   3.123
 2143SOL     OW 7327   3.686   5.801   0.758
 2143SOL    HW1 7328   3.725   5.890   0.732
 2143SOL    HW2 7329   3.658   5.752   0.676
 2144SOL     OW 7330   1.858   0.707   3.357
 2144SOL    HW1 7331   1.878   0.798   3.392
 2144SOL    HW2 7332   1.840   0.712   3.259
 2145SOL     OW 7333   3.691   5.563   4.155
 2145SOL    HW1 7334   3.724   5.565   4.060
 2145SOL    HW2 7335   3.762   5.523   4.214
 2146SOL     OW 7336   3.443   4.118   2.562
 2146SOL    HW1 7337   3.376   4.131   2.488
 2146SOL    HW2 7338   3.400   4.071   2.639
 2147SOL     OW 7339   0.134   1.189   6.940
 2147SOL    HW1 7340   0.119   1.221   0.010
 2147SOL    HW2 7341   0.171   1.264   6.885
 2148SOL     OW 7342   4.876   3.003   4.451
 2148SOL    HW1 7343   4.849   3.100   4.448
 2148SOL    HW2 7344   4.955   2.992   4.510
 2149SOL     OW 7345   4.038   0.316   1.885
 2149SOL    HW1 7346   4.097   0.324   1.805
 2149SOL    HW2 7347   4.046   0.224   1.923
 2150SOL     OW 7348   3.111   2.118   2.614
 2150SOL    HW1 7349   3.051   2.168   2.552
 2150SOL    HW2 7350   3.110   2.162   2.704
 2151SOL     OW 7351   2.834   1.836   4.986
 2151SOL    HW1 7352   2.757   1.782   4.952
 2151SOL    HW2 7353   2.814   1.868   5.079
 2152SOL     OW 7354   4.885   6.520   2.076
 2152SOL    HW1 7355   4.971   6.505   2.028
 2152SOL    HW2 7356   4.872   6.447   2.144
 2153SOL     OW 7357   4.177   0.886   3.843
 2153SOL    HW1 7358   4.208   0.870   3.936
 2153SOL    HW2 7359   4.159   0.983   3.829
 2154SOL     OW 7360   3.288   6.017   4.540
 2154SOL    HW1 7361   3.286   6.092   4.606
 2154SOL    HW2 7362   3.313   6.053   4.450
 2155SOL     OW 7363   1.991   5.113   6.854
 2155SOL    HW1 7364   2.040   5.051   6.793
 2155SOL    HW2 7365   1.905   5.141   6.810
 2156SOL     OW 7366   2.785   0.220   1.948
 2156SOL    HW1 7367   2.781   0.203   1.850
 2156SOL    HW2 7368   2.876   0.196   1.983
 2157SOL     OW 7369   6.360   0.896   4.214
 2157SOL    HW1 7370   6.417   0.952   4.153
 2157SOL    HW2 7371   6.377   0.922   4.309
 2158SOL     OW 7372   3.296   6.529   0.322
 2158SOL    HW1 7373   3.316   6.556   0.416
 2158SOL    HW2 7374   3.198   6.518   0.310
 2159SOL     OW 7375   1.362   6.053   5.383
 2159SOL    HW1 7376   1.332   5.958   5.391
 2159SOL    HW2 7377   1.283   6.112   5.366
 2160SOL     OW 7378   4.297   3.743   1.527
 2160SOL    HW1 7379   4.298   3.817   1.593
 2160SOL    HW2 7380   4.263   3.777   1.439
 2161SOL     OW 7381   4.883   3.619   3.549
 2161SOL    HW1 7382   4.948   3.615   3.625
 2161SOL    HW2 7383   4.895   3.705   3.500
 2162SOL     OW 7384   1.781   0.820   0.405
 2162SOL    HW1 7385   1.818   0.903   0.362
 2162SOL    HW2 7386   1.821   0.739   0.363
 2163SOL     OW 7387   0.694   6.147   6.503
 2163SOL    HW1 7388   0.637   6.126   6.583
 2163SOL    HW2 7389   0.638   6.188   6.431
 2164SOL     OW 7390   1.677   0.899   6.704
 2164SOL    HW1 7391   1.710   0.950   6.624
 2164SOL    HW2 7392   1.578   0.889   6.699
 2165SOL     OW 7393   1.655   1.391   2.101
 2165SOL    HW1 7394   1.755   1.398   2.094
 2165SOL    HW2 7395   1.614   1.480   2.086
 2166SOL     OW 7396   2.298   2.367   5.875
 2166SOL    HW1 7397   2.396   2.384   5.870
 2166SOL    HW2 7398   2.248   2.450   5.848
 2167SOL     OW 7399   2.957   0.017   2.509
 2167SOL    HW1 7400   2.892   0.092   2.524
 2167SOL    HW2 7401   3.019   0.010   2.587
 2168SOL     OW 7402   6.345   2.791   5.305
 2168SOL    HW1 7403   6.334   2.805   5.207
 2168SOL    HW2 7404   6.404   2.863   5.342
 2169SOL     OW 7405   5.323   2.532   5.983
 2169SOL    HW1 7406   5.421   2.512   5.995
 2169SOL    HW2 7407   5.278   2.452   5.943
 2170SOL     OW 7408   5.377   4.415   5.130
 2170SOL    HW1 7409   5.346   4.442   5.039
 2170SOL    HW2 7410   5.476   4.425   5.136
 2171SOL     OW 7411   6.332   2.330   0.003
 2171SOL    HW1 7412   6.256   2.391   0.027
 2171SOL    HW2 7413   6.349   2.267   0.079
 2172SOL     OW 7414   3.395   1.152   0.684
 2172SOL    HW1 7415   3.313   1.205   0.704
 2172SOL    HW2 7416   3.455   1.206   0.624
 2173SOL     OW 7417   3.764   0.276   5.514
 2173SOL    HW1 7418   3.764   0.296   5.612
 2173SOL    HW2 7419   3.671   0.254   5.485
 2174SOL     OW 7420   6.325   4.348   5.953
 2174SOL    HW1 7421   6.291   4.402   5.877
 2174SOL    HW2 7422   6.425   4.350   5.954
 2175SOL     OW 7423   3.191   1.381   3.060
 2175SOL    HW1 7424   3.182   1.419   2.969
 2175SOL    HW2 7425   3.143   1.439   3.126
 2176SOL     OW 7426   1.076   1.999   1.844
 2176SOL    HW1 7427   1.153   2.009   1.781
 2176SOL    HW2 7428   1.102   1.940   1.920
 2177SOL     OW 7429   6.503   0.521   2.201
 2177SOL    HW1 7430   6.506   0.422   2.186
 2177SOL    HW2 7431   6.559   0.543   2.281
 2178SOL     OW 7432   1.398   3.972   0.548
 2178SOL    HW1 7433   1.362   3.879   0.537
 2178SOL    HW2 7434   1.360   4.013   0.631
 2179SOL     OW 7435   2.168   5.596   3.989
 2179SOL    HW1 7436   2.219   5.599   4.075
 2179SOL    HW2 7437   2.182   5.507   3.945
 2180SOL     OW 7438   2.897   3.462   2.745
 2180SOL    HW1 7439   2.828   3.533   2.759
 2180SOL    HW2 7440   2.895   3.430   2.650
 2181SOL     OW 7441   4.471   4.377   5.876
 2181SOL    HW1 7442   4.432   4.292   5.841
 2181SOL    HW2 7443   4.421   4.405   5.958
 2182SOL     OW 7444   0.265   3.757   6.398
 2182SOL    HW1 7445   0.350   3.777   6.349
 2182SOL    HW2 7446   0.210   3.693   6.344
 2183SOL     OW 7447   3.579   2.833   0.643
 2183SOL    HW1 7448   3.559   2.769   0.568
 2183SOL    HW2 7449   3.509   2.824   0.714
 2184SOL     OW 7450   3.785   0.346   5.808
 2184SOL    HW1 7451   3.769   0.438   5.843
 2184SOL    HW2 7452   3.866   0.307   5.852
 2185SOL     OW 7453   1.669   1.812   1.224
 2185SOL    HW1 7454   1.589   1.809   1.284
 2185SOL    HW2 7455   1.732   1.884   1.255
 2186SOL     OW 7456   6.904   4.519   2.380
 2186SOL    HW1 7457   6.876   4.561   2.466
 2186SOL    HW2 7458   6.957   4.584   2.326
 2187SOL     OW 7459   0.627   1.223   1.699
 2187SOL    HW1 7460   0.541   1.273   1.691
 2187SOL    HW2 7461   0.615   1.129   1.667
 2188SOL     OW 7462   4.677   5.986   3.898
 2188SOL    HW1 7463   4.690   5.990   3.799
 2188SOL    HW2 7464   4.656   5.892   3.925
 2189SOL     OW 7465   1.195   6.868   6.127
 2189SOL    HW1 7466   1.107   6.831   6.156
 2189SOL    HW2 7467   1.181   6.952   6.074
 2190SOL     OW 7468   5.794   3.132   1.624
 2190SOL    HW1 7469   5.886   3.137   1.665
 2190SOL    HW2 7470   5.727   3.165   1.690
 2191SOL     OW 7471   3.370   2.030   6.166
 2191SOL    HW1 7472   3.338   2.068   6.253
 2191SOL    HW2 7473   3.325   2.078   6.090
 2192SOL     OW 7474   4.403   6.732   5.168
 2192SOL    HW1 7475   4.441   6.700   5.255
 2192SOL    HW2 7476   4.304   6.722   5.169
 2193SOL     OW 7477   0.055   5.259   6.074
 2193SOL    HW1 7478   6.990   5.230   6.111
 2193SOL    HW2 7479   0.073   5.211   5.989
 2194SOL     OW 7480   1.932   5.830   0.560
 2194SOL    HW1 7481   1.957   5.842   0.464
 2194SOL    HW2 7482   1.845   5.782   0.566
 2195SOL     OW 7483   0.197   6.613   2.087
 2195SOL    HW1 7484   0.188   6.710   2.066
 2195SOL    HW2 7485   0.287   6.581   2.058
 2196SOL     OW 7486   2.466   0.489   5.550
 2196SOL    HW1 7487   2.469   0.588   5.549
 2196SOL    HW2 7488   2.498   0.455   5.638
 2197SOL     OW 7489   4.874   4.077   1.553
 2197SOL    HW1 7490   4.843   4.008   1.618
 2197SOL    HW2 7491   4.964   4.111   1.581
 2198SOL     OW 7492   0.005   3.576   6.830
 2198SOL    HW1 7493   0.098   3.547   6.811
 2198SOL    HW2 7494   6.990   3.521   6.904
 2199SOL     OW 7495   5.207   6.857   0.968
 2199SOL    HW1 7496   5.282   6.895   0.914
 2199SOL    HW2 7497   5.122   6.859   0.915
 2200SOL     OW 7498   4.140   0.526   4.472
 2200SOL    HW1 7499   4.141   0.622   4.445
 2200SOL    HW2 7500   4.073   0.477   4.417
 2201SOL     OW 7501   5.742   3.741   2.229
 2201SOL    HW1 7502   5.795   3.689   2.162
 2201SOL    HW2 7503   5.658   3.691   2.250
 2202SOL     OW 7504   3.243   5.013   4.046
 2202SOL    HW1 7505   3.269   5.106   4.074
 2202SOL    HW2 7506   3.176   4.976   4.110
 2203SOL     OW 7507   3.150   2.183   2.889
 2203SOL    HW1 7508   3.131   2.201   2.985
 2203SOL    HW2 7509   3.249   2.176   2.875
 2204SOL     OW 7510   3.897   1.104   6.702
 2204SOL    HW1 7511   3.820   1.044   6.724
 2204SOL    HW2 7512   3.979   1.071   6.748
 2205SOL     OW 7513   1.496   0.930   0.074
 2205SOL    HW1 7514   1.490   0.831   0.084
 2205SOL    HW2 7515   1.576   0.953   0.017
 2206SOL     OW 7516   3.309   3.913   5.654
 2206SOL    HW1 7517   3.252   3.907   5.572
 2206SOL    HW2 7518   3.337   4.008   5.668
 2207SOL     OW 7519   0.705   4.227   6.263
 2207SOL    HW1 7520   0.643   4.265   6.194
 2207SOL    HW2 7521   0.667   4.142   6.299
 2208SOL     OW 7522   1.592   4.231   2.310
 2208SOL    HW1 7523   1.667   4.297   2.310
 2208SOL    HW2 7524   1.519   4.263   2.250
 2209SOL     OW 7525   1.730   5.785   6.316
 2209SOL    HW1 7526   1.750   5.718   6.244
 2209SOL    HW2 7527   1.816   5.813   6.361
 2210SOL     OW 7528   1.034   5.148   2.896
 2210SOL    HW1 7529   1.111   5.121   2.955
 2210SOL    HW2 7530   0.956   5.089   2.915
 2211SOL     OW 7531   6.245   1.570   5.466
 2211SOL    HW1 7532   6.316   1.618   5.413
 2211SOL    HW2 7533   6.222   1.484   5.421
 2212SOL     OW 7534   0.532   6.244   6.293
 2212SOL    HW1 7535   0.593   6.233   6.214
 2212SOL    HW2 7536   0.451   6.296   6.265
 2213SOL     OW 7537   4.338   2.378   4.146
 2213SOL    HW1 7538   4.339   2.300   4.083
 2213SOL    HW2 7539   4.260   2.370   4.208
 2214SOL     OW 7540   4.639   0.431   5.647
 2214SOL    HW1 7541   4.645   0.471   5.738
 2214SOL    HW2 7542   4.613   0.502   5.581
 2215SOL     OW 7543   6.907   1.654   5.712
 2215SOL    HW1 7544   6.960   1.668   5.628
 2215SOL    HW2 7545   6.816   1.620   5.689
 2216SOL     OW 7546   1.103   0.576   0.850
 2216SOL    HW1 7547   1.101   0.562   0.949
 2216SOL    HW2 7548   1.196   0.561   0.816
 2217SOL     OW 7549   4.019   0.105   0.912
 2217SOL    HW1 7550   4.093   0.117   0.978
 2217SOL    HW2 7551   4.058   0.092   0.820
 2218SOL     OW 7552   1.049   6.295   0.052
 2218SOL    HW1 7553   1.115   6.334   0.116
 2218SOL    HW2 7554   1.020   6.366   7.011
 2219SOL     OW 7555   1.352   3.630   2.880
 2219SOL    HW1 7556   1.445   3.661   2.862
 2219SOL    HW2 7557   1.313   3.590   2.797
 2220SOL     OW 7558   0.163   1.309   4.561
 2220SOL    HW1 7559   0.098   1.379   4.530
 2220SOL    HW2 7560   0.127   1.263   4.642
 2221SOL     OW 7561   6.655   2.065   0.979
 2221SOL    HW1 7562   6.732   2.097   1.034
 2221SOL    HW2 7563   6.590   2.015   1.037
 2222SOL     OW 7564   4.288   0.510   1.298
 2222SOL    HW1 7565   4.199   0.534   1.335
 2222SOL    HW2 7566   4.278   0.439   1.228
 2223SOL     OW 7567   6.083   5.151   3.447
 2223SOL    HW1 7568   6.004   5.094   3.422
 2223SOL    HW2 7569   6.055   5.247   3.451
 2224SOL     OW 7570   1.814   4.592   1.448
 2224SOL    HW1 7571   1.746   4.633   1.386
 2224SOL    HW2 7572   1.832   4.654   1.523
 2225SOL     OW 7573   5.883   4.884   2.301
 2225SOL    HW1 7574   5.828   4.913   2.222
 2225SOL    HW2 7575   5.917   4.791   2.285
 2226SOL     OW 7576   3.738   3.363   0.903
 2226SOL    HW1 7577   3.745   3.280   0.958
 2226SOL    HW2 7578   3.797   3.356   0.823
 2227SOL     OW 7579   6.261   4.034   6.198
 2227SOL    HW1 7580   6.214   3.958   6.242
 2227SOL    HW2 7581   6.194   4.099   6.163
 2228SOL     OW 7582   3.142   5.373   0.294
 2228SOL    HW1 7583   3.115   5.393   0.388
 2228SOL    HW2 7584   3.065   5.391   0.233
 2229SOL     OW 7585   4.760   1.636   4.044
 2229SOL    HW1 7586   4.785   1.597   4.132
 2229SOL    HW2 7587   4.840   1.677   4.001
 2230SOL     OW 7588   1.452   5.147   3.757
 2230SOL    HW1 7589   1.494   5.133   3.847
 2230SOL    HW2 7590   1.510   5.209   3.703
 2231SOL     OW 7591   2.192   1.610   2.416
 2231SOL    HW1 7592   2.114   1.657   2.456
 2231SOL    HW2 7593   2.179   1.511   2.423
 2232SOL     OW 7594   0.611   3.286   3.599
 2232SOL    HW1 7595   0.608   3.189   3.576
 2232SOL    HW2 7596   0.632   3.340   3.518
 2233SOL     OW 7597   4.061   5.332   6.585
 2233SOL    HW1 7598   3.971   5.352   6.548
 2233SOL    HW2 7599   4.122   5.302   6.512
 2234SOL     OW 7600   3.912   2.599   0.847
 2234SOL    HW1 7601   3.909   2.620   0.749
 2234SOL    HW2 7602   3.971   2.520   0.862
 2235SOL     OW 7603   1.233   0.082   6.860
 2235SOL    HW1 7604   1.214   0.010   6.927
 2235SOL    HW2 7605   1.146   0.123   6.830
 2236SOL     OW 7606   0.552   4.069   0.944
 2236SOL    HW1 7607   0.549   3.996   0.876
 2236SOL    HW2 7608   0.579   4.031   1.033
 2237SOL     OW 7609   6.802   3.594   4.292
 2237SOL    HW1 7610   6.871   3.663   4.311
 2237SOL    HW2 7611   6.715   3.638   4.269
 2238SOL     OW 7612   0.011   5.469   2.010
 2238SOL    HW1 7613   0.092   5.411   2.014
 2238SOL    HW2 7614   7.001   5.486   2.102
 2239SOL     OW 7615   4.280   4.670   3.966
 2239SOL    HW1 7616   4.195   4.644   4.010
 2239SOL    HW2 7617   4.349   4.599   3.981
 2240SOL     OW 7618   6.380   5.206   3.145
 2240SOL    HW1 7619   6.286   5.239   3.144
 2240SOL    HW2 7620   6.383   5.113   3.181
 2241SOL     OW 7621   0.362   6.541   2.517
 2241SOL    HW1 7622   0.394   6.624   2.563
 2241SOL    HW2 7623   0.400   6.537   2.425
 2242SOL     OW 7624   5.504   1.445   2.742
 2242SOL    HW1 7625   5.574   1.414   2.807
 2242SOL    HW2 7626   5.501   1.545   2.743
 2243SOL     OW 7627   2.825   6.097   5.259
 2243SOL    HW1 7628   2.752   6.028   5.259
 2243SOL    HW2 7629   2.905   6.059   5.306
 2244SOL     OW 7630   4.047   0.842   3.614
 2244SOL    HW1 7631   4.100   0.853   3.697
 2244SOL    HW2 7632   4.099   0.789   3.547
 2245SOL     OW 7633   6.982   1.886   2.132
 2245SOL    HW1 7634   7.015   1.981   2.126
 2245SOL    HW2 7635   7.015   1.834   2.054
 2246SOL     OW 7636   1.722   2.917   5.416
 2246SOL    HW1 7637   1.816   2.914   5.382
 2246SOL    HW2 7638   1.714   2.988   5.487
 2247SOL     OW 7639   2.815   1.983   5.334
 2247SOL    HW1 7640   2.858   2.067   5.300
 2247SOL    HW2 7641   2.880   1.933   5.391
 2248SOL     OW 7642   5.225   3.972   5.492
 2248SOL    HW1 7643   5.198   3.917   5.413
 2248SOL    HW2 7644   5.206   4.069   5.474
 2249SOL     OW 7645   5.572   6.083   2.833
 2249SOL    HW1 7646   5.585   6.060   2.737
 2249SOL    HW2 7647   5.491   6.142   2.842
 2250SOL     OW 7648   5.219   3.881   1.351
 2250SOL    HW1 7649   5.176   3.791   1.359
 2250SOL    HW2 7650   5.317   3.870   1.337
 2251SOL     OW 7651   6.175   1.474   0.221
 2251SOL    HW1 7652   6.134   1.435   0.138
 2251SOL    HW2 7653   6.221   1.402   0.272
 2252SOL     OW 7654   6.036   3.340   5.277
 2252SOL    HW1 7655   6.127   3.381   5.273
 2252SOL    HW2 7656   6.037   3.262   5.339
 2253SOL     OW 7657   1.834   3.089   6.352
 2253SOL    HW1 7658   1.904   3.079   6.281
 2253SOL    HW2 7659   1.770   3.013   6.346
 2254SOL     OW 7660   2.319   3.312   6.107
 2254SOL    HW1 7661   2.363   3.252   6.040
 2254SOL    HW2 7662   2.299   3.400   6.065
 2255SOL     OW 7663   6.092   2.923   1.973
 2255SOL    HW1 7664   6.102   2.828   1.944
 2255SOL    HW2 7665   5.998   2.953   1.957
 2256SOL     OW 7666   3.301   5.195   1.794
 2256SOL    HW1 7667   3.267   5.126   1.857
 2256SOL    HW2 7668   3.391   5.227   1.825
 2257SOL     OW 7669   1.673   3.154   4.389
 2257SOL    HW1 7670   1.762   3.110   4.381
 2257SOL    HW2 7671   1.685   3.252   4.402
 2258SOL     OW 7672   1.783   4.784   4.951
 2258SOL    HW1 7673   1.765   4.780   4.853
 2258SOL    HW2 7674   1.779   4.691   4.990
 2259SOL     OW 7675   5.638   4.355   6.557
 2259SOL    HW1 7676   5.542   4.338   6.535
 2259SOL    HW2 7677   5.649   4.351   6.657
 2260SOL     OW 7678   4.098   4.723   2.618
 2260SOL    HW1 7679   4.147   4.719   2.706
 2260SOL    HW2 7680   4.148   4.670   2.550
 2261SOL     OW 7681   5.393   6.477   0.934
 2261SOL    HW1 7682   5.453   6.546   0.974
 2261SOL    HW2 7683   5.428   6.386   0.955
 2262SOL     OW 7684   5.502   1.941   4.091
 2262SOL    HW1 7685   5.571   2.015   4.088
 2262SOL    HW2 7686   5.547   1.856   4.118
 2263SOL     OW 7687   2.278   5.709   6.213
 2263SOL    HW1 7688   2.290   5.686   6.117
 2263SOL    HW2 7689   2.334   5.648   6.269
 2264SOL     OW 7690   3.027   3.686   2.302
 2264SOL    HW1 7691   2.979   3.600   2.317
 2264SOL    HW2 7692   3.126   3.672   2.311
 2265SOL     OW 7693   0.359   0.950   2.808
 2265SOL    HW1 7694   0.335   0.865   2.853
 2265SOL    HW2 7695   0.304   0.960   2.725
 2266SOL     OW 7696   6.526   1.344   0.851
 2266SOL    HW1 7697   6.615   1.300   0.837
 2266SOL    HW2 7698   6.539   1.442   0.863
 2267SOL     OW 7699   5.753   2.628   4.704
 2267SOL    HW1 7700   5.821   2.680   4.652
 2267SOL    HW2 7701   5.687   2.691   4.745
 2268SOL     OW 7702   6.808   6.134   0.615
 2268SOL    HW1 7703   6.873   6.188   0.669
 2268SOL    HW2 7704   6.833   6.037   0.622
 2269SOL     OW 7705   5.998   5.452   5.483
 2269SOL    HW1 7706   5.949   5.537   5.467
 2269SOL    HW2 7707   5.967   5.383   5.417
 2270SOL     OW 7708   3.492   3.831   1.624
 2270SOL    HW1 7709   3.424   3.898   1.594
 2270SOL    HW2 7710   3.571   3.833   1.562
 2271SOL     OW 7711   5.857   4.432   1.452
 2271SOL    HW1 7712   5.940   4.376   1.446
 2271SOL    HW2 7713   5.880   4.527   1.430
 2272SOL     OW 7714   5.698   2.375   4.835
 2272SOL    HW1 7715   5.743   2.458   4.801
 2272SOL    HW2 7716   5.612   2.361   4.787
 2273SOL     OW 7717   1.163   1.068   3.303
 2273SOL    HW1 7718   1.104   1.121   3.365
 2273SOL    HW2 7719   1.133   1.082   3.209
 2274SOL     OW 7720   1.725   3.918   4.795
 2274SOL    HW1 7721   1.688   3.832   4.830
 2274SOL    HW2 7722   1.796   3.952   4.857
 2275SOL     OW 7723   5.032   6.136   4.694
 2275SOL    HW1 7724   5.075   6.045   4.697
 2275SOL    HW2 7725   4.939   6.130   4.728
 2276SOL     OW 7726   3.776   4.719   1.069
 2276SOL    HW1 7727   3.683   4.732   1.103
 2276SOL    HW2 7728   3.775   4.657   0.991
 2277SOL     OW 7729   3.578   3.153   5.053
 2277SOL    HW1 7730   3.499   3.092   5.057
 2277SOL    HW2 7731   3.596   3.178   4.958
 2278SOL     OW 7732   4.562   6.025   2.767
 2278SOL    HW1 7733   4.622   6.094   2.807
 2278SOL    HW2 7734   4.581   5.936   2.810
 2279SOL     OW 7735   5.218   4.154   4.392
 2279SOL    HW1 7736   5.263   4.180   4.306
 2279SOL    HW2 7737   5.160   4.074   4.377
 2280SOL     OW 7738   6.449   6.285   5.164
 2280SOL    HW1 7739   6.446   6.221   5.241
 2280SOL    HW2 7740   6.374   6.265   5.101
 2281SOL     OW 7741   3.577   2.098   1.754
 2281SOL    HW1 7742   3.616   2.180   1.796
 2281SOL    HW2 7743   3.650   2.047   1.707
 2282SOL     OW 7744   4.904   5.814   4.627
 2282SOL    HW1 7745   4.895   5.716   4.611
 2282SOL    HW2 7746   5.001   5.840   4.619
 2283SOL     OW 7747   6.831   3.705   2.732
 2283SOL    HW1 7748   6.884   3.642   2.788
 2283SOL    HW2 7749   6.789   3.775   2.790
 2284SOL     OW 7750   2.497   2.250   2.024
 2284SOL    HW1 7751   2.398   2.248   2.034
 2284SOL    HW2 7752   2.539   2.279   2.110
 2285SOL     OW 7753   1.575   3.720   0.818
 2285SOL    HW1 7754   1.543   3.670   0.898
 2285SOL    HW2 7755   1.605   3.656   0.747
 2286SOL     OW 7756   6.729   5.780   5.278
 2286SOL    HW1 7757   6.655   5.805   5.341
 2286SOL    HW2 7758   6.732   5.681   5.267
 2287SOL     OW 7759   2.078   2.930   1.561
 2287SOL    HW1 7760   2.074   2.833   1.536
 2287SOL    HW2 7761   2.097   2.984   1.479
 2288SOL     OW 7762   0.758   5.785   3.590
 2288SOL    HW1 7763   0.700   5.704   3.591
 2288SOL    HW2 7764   0.755   5.827   3.500
 2289SOL     OW 7765   5.628   1.943   1.952
 2289SOL    HW1 7766   5.687   1.946   2.033
 2289SOL    HW2 7767   5.548   2.001   1.968
 2290SOL     OW 7768   3.102   3.518   3.059
 2290SOL    HW1 7769   3.141   3.465   2.984
 2290SOL    HW2 7770   3.108   3.465   3.144
 2291SOL     OW 7771   2.031   2.244   1.800
 2291SOL    HW1 7772   1.989   2.304   1.731
 2291SOL    HW2 7773   2.090   2.178   1.755
 2292SOL     OW 7774   5.078   2.868   3.696
 2292SOL    HW1 7775   5.135   2.947   3.671
 2292SOL    HW2 7776   5.049   2.877   3.792
 2293SOL     OW 7777   5.584   1.196   0.679
 2293SOL    HW1 7778   5.484   1.193   0.684
 2293SOL    HW2 7779   5.617   1.115   0.630
 2294SOL     OW 7780   2.691   1.840   5.551
 2294SOL    HW1 7781   2.637   1.878   5.476
 2294SOL    HW2 7782   2.785   1.827   5.521
 2295SOL     OW 7783   0.034   0.840   1.435
 2295SOL    HW1 7784   6.986   0.786   1.390
 2295SOL    HW2 7785   0.076   0.784   1.507
 2296SOL     OW 7786   3.014   5.156   3.228
 2296SOL    HW1 7787   2.927   5.204   3.215
 2296SOL    HW2 7788   3.053   5.135   3.138
 2297SOL     OW 7789   5.335   4.636   5.745
 2297SOL    HW1 7790   5.336   4.712   5.810
 2297SOL    HW2 7791   5.361   4.551   5.792
 2298SOL     OW 7792   4.014   3.805   3.494
 2298SOL    HW1 7793   3.968   3.892   3.510
 2298SOL    HW2 7794   4.035   3.796   3.397
 2299SOL     OW 7795   4.984   3.669   4.759
 2299SOL    HW1 7796   4.933   3.679   4.673
 2299SOL    HW2 7797   4.925   3.626   4.827
 2300SOL     OW 7798   3.072   6.890   3.738
 2300SOL    HW1 7799   2.989   6.936   3.708
 2300SOL    HW2 7800   3.076   6.798   3.698
 2301SOL     OW 7801   3.351   2.923   4.066
 2301SOL    HW1 7802   3.357   2.826   4.087
 2301SOL    HW2 7803   3.432   2.951   4.015
 2302SOL     OW 7804   3.914   0.999   0.128
 2302SOL    HW1 7805   3.895   0.907   0.163
 2302SOL    HW2 7806   3.845   1.063   0.162
 2303SOL     OW 7807   2.065   2.782   1.113
 2303SOL    HW1 7808   2.123   2.809   1.036
 2303SOL    HW2 7809   2.120   2.734   1.182
 2304SOL     OW 7810   6.745   5.551   3.815
 2304SOL    HW1 7811   6.716   5.637   3.775
 2304SOL    HW2 7812   6.685   5.477   3.784
 2305SOL     OW 7813   1.558   1.044   3.895
 2305SOL    HW1 7814   1.650   1.080   3.875
 2305SOL    HW2 7815   1.549   0.953   3.857
 2306SOL     OW 7816   1.506   5.195   2.397
 2306SOL    HW1 7817   1.554   5.189   2.484
 2306SOL    HW2 7818   1.503   5.104   2.355
 2307SOL     OW 7819   1.269   2.785   5.241
 2307SOL    HW1 7820   1.245   2.847   5.316
 2307SOL    HW2 7821   1.275   2.837   5.156
 2308SOL     OW 7822   2.161   5.007   1.100
 2308SOL    HW1 7823   2.210   4.941   1.043
 2308SOL    HW2 7824   2.103   4.957   1.165
 2309SOL     OW 7825   1.587   0.374   4.349
 2309SOL    HW1 7826   1.620   0.316   4.423
 2309SOL    HW2 7827   1.665   0.416   4.302
 2310SOL     OW 7828   5.405   6.661   2.386
 2310SOL    HW1 7829   5.361   6.719   2.318
 2310SOL    HW2 7830   5.471   6.715   2.438
 2311SOL     OW 7831   2.109   6.091   0.611
 2311SOL    HW1 7832   2.059   6.006   0.618
 2311SOL    HW2 7833   2.208   6.073   0.612
 2312SOL     OW 7834   3.709   5.380   3.198
 2312SOL    HW1 7835   3.622   5.422   3.222
 2312SOL    HW2 7836   3.699   5.327   3.114
 2313SOL     OW 7837   4.923   5.363   2.340
 2313SOL    HW1 7838   4.891   5.281   2.293
 2313SOL    HW2 7839   4.855   5.435   2.331
 2314SOL     OW 7840   3.413   5.808   3.271
 2314SOL    HW1 7841   3.480   5.836   3.202
 2314SOL    HW2 7842   3.395   5.710   3.262
 2315SOL     OW 7843   4.800   3.061   6.513
 2315SOL    HW1 7844   4.871   3.109   6.461
 2315SOL    HW2 7845   4.715   3.114   6.511
 2316SOL     OW 7846   4.750   2.756   3.529
 2316SOL    HW1 7847   4.682   2.730   3.597
 2316SOL    HW2 7848   4.828   2.694   3.534
 2317SOL     OW 7849   0.734   4.586   2.582
 2317SOL    HW1 7850   0.717   4.562   2.677
 2317SOL    HW2 7851   0.734   4.503   2.526
 2318SOL     OW 7852   0.732   2.361   3.640
 2318SOL    HW1 7853   0.639   2.346   3.606
 2318SOL    HW2 7854   0.763   2.453   3.614
 2319SOL     OW 7855   2.219   4.166   4.869
 2319SOL    HW1 7856   2.250   4.087   4.922
 2319SOL    HW2 7857   2.119   4.162   4.859
 2320SOL     OW 7858   0.024   2.378   4.027
 2320SOL    HW1 7859   0.017   2.458   3.967
 2320SOL    HW2 7860   7.012   2.298   3.979
 2321SOL     OW 7861   3.213   0.529   5.006
 2321SOL    HW1 7862   3.246   0.617   4.972
 2321SOL    HW2 7863   3.265   0.455   4.963
 2322SOL     OW 7864   1.258   1.906   5.739
 2322SOL    HW1 7865   1.349   1.867   5.728
 2322SOL    HW2 7866   1.209   1.902   5.652
 2323SOL     OW 7867   4.275   5.676   3.349
 2323SOL    HW1 7868   4.285   5.632   3.260
 2323SOL    HW2 7869   4.261   5.774   3.336
 2324SOL     OW 7870   1.057   6.204   2.253
 2324SOL    HW1 7871   1.109   6.271   2.306
 2324SOL    HW2 7872   0.981   6.250   2.206
 2325SOL     OW 7873   0.791   3.971   1.611
 2325SOL    HW1 7874   0.810   4.064   1.643
 2325SOL    HW2 7875   0.734   3.923   1.678
 2326SOL     OW 7876   1.824   4.084   6.411
 2326SOL    HW1 7877   1.848   4.085   6.508
 2326SOL    HW2 7878   1.759   4.158   6.392
 2327SOL     OW 7879   4.742   2.838   4.611
 2327SOL    HW1 7880   4.778   2.907   4.549
 2327SOL    HW2 7881   4.744   2.749   4.567
 2328SOL     OW 7882   5.098   1.321   3.282
 2328SOL    HW1 7883   5.006   1.360   3.282
 2328SOL    HW2 7884   5.097   1.233   3.330
 2329SOL     OW 7885   1.301   5.578   4.006
 2329SOL    HW1 7886   1.349   5.531   4.080
 2329SOL    HW2 7887   1.271   5.511   3.938
 2330SOL     OW 7888   0.325   4.981   1.618
 2330SOL    HW1 7889   0.391   5.050   1.647
 2330SOL    HW2 7890   0.364   4.890   1.633
 2331SOL     OW 7891   0.216   4.285   5.263
 2331SOL    HW1 7892   0.126   4.257   5.296
 2331SOL    HW2 7893   0.222   4.268   5.165
 2332SOL     OW 7894   4.979   2.873   6.239
 2332SOL    HW1 7895   5.065   2.822   6.236
 2332SOL    HW2 7896   4.998   2.970   6.223
 2333SOL     OW 7897   0.858   4.959   3.046
 2333SOL    HW1 7898   0.815   4.897   2.980
 2333SOL    HW2 7899   0.854   4.918   3.138
 2334SOL     OW 7900   3.401   6.910   6.829
 2334SOL    HW1 7901   3.435   6.818   6.807
 2334SOL    HW2 7902   3.478   6.970   6.849
 2335SOL     OW 7903   5.737   0.616   3.348
 2335SOL    HW1 7904   5.648   0.657   3.331
 2335SOL    HW2 7905   5.807   0.688   3.349
 2336SOL     OW 7906   5.005   1.155   5.623
 2336SOL    HW1 7907   4.906   1.144   5.620
 2336SOL    HW2 7908   5.027   1.252   5.612
 2337SOL     OW 7909   5.616   0.684   3.033
 2337SOL    HW1 7910   5.694   0.635   2.994
 2337SOL    HW2 7911   5.646   0.775   3.062
 2338SOL     OW 7912   6.728   6.529   0.083
 2338SOL    HW1 7913   6.718   6.607   0.144
 2338SOL    HW2 7914   6.822   6.494   0.089
 2339SOL     OW 7915   3.672   4.442   6.116
 2339SOL    HW1 7916   3.626   4.516   6.068
 2339SOL    HW2 7917   3.651   4.446   6.213
 2340SOL     OW 7918   3.377   6.101   5.512
 2340SOL    HW1 7919   3.472   6.131   5.510
 2340SOL    HW2 7920   3.359   6.054   5.599
 2341SOL     OW 7921   6.129   4.849   0.707
 2341SOL    HW1 7922   6.222   4.873   0.678
 2341SOL    HW2 7923   6.133   4.803   0.795
 2342SOL     OW 7924   0.083   6.545   5.385
 2342SOL    HW1 7925   0.047   6.548   5.292
 2342SOL    HW2 7926   0.044   6.466   5.433
 2343SOL     OW 7927   1.184   6.576   0.977
 2343SOL    HW1 7928   1.186   6.612   0.884
 2343SOL    HW2 7929   1.272   6.594   1.022
 2344SOL     OW 7930   2.659   1.609   2.769
 2344SOL    HW1 7931   2.572   1.601   2.720
 2344SOL    HW2 7932   2.642   1.648   2.860
 2345SOL     OW 7933   1.439   0.672   4.919
 2345SOL    HW1 7934   1.463   0.590   4.971
 2345SOL    HW2 7935   1.507   0.744   4.937
 2346SOL     OW 7936   4.721   3.166   5.597
 2346SOL    HW1 7937   4.716   3.210   5.687
 2346SOL    HW2 7938   4.669   3.220   5.530
 2347SOL     OW 7939   1.517   3.540   2.114
 2347SOL    HW1 7940   1.614   3.521   2.098
 2347SOL    HW2 7941   1.478   3.582   2.032
 2348SOL     OW 7942   2.295   6.303   3.547
 2348SOL    HW1 7943   2.336   6.296   3.456
 2348SOL    HW2 7944   2.365   6.286   3.616
 2349SOL     OW 7945   6.774   6.706   5.932
 2349SOL    HW1 7946   6.761   6.624   5.876
 2349SOL    HW2 7947   6.836   6.686   6.007
 2350SOL     OW 7948   3.053   1.198   5.322
 2350SOL    HW1 7949   3.057   1.280   5.379
 2350SOL    HW2 7950   3.086   1.120   5.375
 2351SOL     OW 7951   2.719   5.046   3.683
 2351SOL    HW1 7952   2.706   4.981   3.757
 2351SOL    HW2 7953   2.729   5.138   3.720
 2352SOL     OW 7954   6.340   4.092   3.178
 2352SOL    HW1 7955   6.313   4.008   3.131
 2352SOL    HW2 7956   6.407   4.141   3.122
 2353SOL     OW 7957   2.578   4.009   5.779
 2353SOL    HW1 7958   2.488   3.968   5.767
 2353SOL    HW2 7959   2.586   4.090   5.720
 2354SOL     OW 7960   3.716   2.687   0.052
 2354SOL    HW1 7961   3.668   2.701   0.139
 2354SOL    HW2 7962   3.786   2.757   0.042
 2355SOL     OW 7963   0.398   6.829   0.925
 2355SOL    HW1 7964   0.439   6.890   0.858
 2355SOL    HW2 7965   0.469   6.769   0.963
 2356SOL     OW 7966   2.456   4.882   2.287
 2356SOL    HW1 7967   2.410   4.966   2.257
 2356SOL    HW2 7968   2.553   4.902   2.306
 2357SOL     OW 7969   5.513   4.668   3.082
 2357SOL    HW1 7970   5.527   4.759   3.120
 2357SOL    HW2 7971   5.569   4.602   3.132
 2358SOL     OW 7972   3.594   7.021   4.334
 2358SOL    HW1 7973   3.621   0.062   4.262
 2358SOL    HW2 7974   3.675   6.976   4.370
 2359SOL     OW 7975   2.534   1.516   5.879
 2359SOL    HW1 7976   2.568   1.573   5.954
 2359SOL    HW2 7977   2.546   1.565   5.793
 2360SOL     OW 7978   3.751   4.397   0.627
 2360SOL    HW1 7979   3.701   4.314   0.653
 2360SOL    HW2 7980   3.849   4.381   0.634
 2361SOL     OW 7981   3.306   6.640   3.073
 2361SOL    HW1 7982   3.314   6.726   3.123
 2361SOL    HW2 7983   3.243   6.579   3.122
 2362SOL     OW 7984   4.522   5.885   4.901
 2362SOL    HW1 7985   4.547   5.794   4.868
 2362SOL    HW2 7986   4.504   5.945   4.823
 2363SOL     OW 7987   3.945   2.267   6.613
 2363SOL    HW1 7988   4.022   2.306   6.665
 2363SOL    HW2 7989   3.872   2.241   6.676
 2364SOL     OW 7990   5.258   1.630   1.737
 2364SOL    HW1 7991   5.222   1.625   1.830
 2364SOL    HW2 7992   5.317   1.710   1.728
 2365SOL     OW 7993   5.279   3.703   4.662
 2365SOL    HW1 7994   5.359   3.669   4.710
 2365SOL    HW2 7995   5.273   3.660   4.572
 2366SOL     OW 7996   1.847   3.979   5.261
 2366SOL    HW1 7997   1.803   3.899   5.302
 2366SOL    HW2 7998   1.802   4.062   5.294
 2367SOL     OW 7999   1.359   3.715   5.774
 2367SOL    HW1 8000   1.268   3.707   5.813
 2367SOL    HW2 8001   1.417   3.641   5.807
 2368SOL     OW 8002   4.605   1.091   4.298
 2368SOL    HW1 8003   4.612   1.045   4.209
 2368SOL    HW2 8004   4.612   1.189   4.285
 2369SOL     OW 8005   3.818   1.571   3.132
 2369SOL    HW1 8006   3.868   1.500   3.083
 2369SOL    HW2 8007   3.770   1.630   3.067
 2370SOL     OW 8008   4.712   2.634   0.575
 2370SOL    HW1 8009   4.681   2.704   0.640
 2370SOL    HW2 8010   4.771   2.677   0.506
 2371SOL     OW 8011   0.934   6.837   2.578
 2371SOL    HW1 8012   0.992   6.758   2.598
 2371SOL    HW2 8013   0.982   6.900   2.518
 2372SOL     OW 8014   6.359   1.192   5.933
 2372SOL    HW1 8015   6.425   1.245   5.879
 2372SOL    HW2 8016   6.287   1.253   5.966
 2373SOL     OW 8017   5.975   0.959   6.328
 2373SOL    HW1 8018   5.905   1.029   6.313
 2373SOL    HW2 8019   6.055   0.979   6.271
 2374SOL     OW 8020   6.136   5.675   3.203
 2374SOL    HW1 8021   6.145   5.762   3.154
 2374SOL    HW2 8022   6.163   5.600   3.143
 2375SOL     OW 8023   0.576   0.654   3.889
 2375SOL    HW1 8024   0.506   0.600   3.936
 2375SOL    HW2 8025   0.544   0.676   3.797
 2376SOL     OW 8026   0.026   2.166   3.424
 2376SOL    HW1 8027   0.044   2.216   3.508
 2376SOL    HW2 8028   0.110   2.124   3.391
 2377SOL     OW 8029   3.468   4.604   6.288
 2377SOL    HW1 8030   3.399   4.674   6.271
 2377SOL    HW2 8031   3.554   4.648   6.313
 2378SOL     OW 8032   5.910   2.013   0.608
 2378SOL    HW1 8033   6.002   2.051   0.623
 2378SOL    HW2 8034   5.845   2.087   0.592
 2379SOL     OW 8035   6.879   4.998   0.455
 2379SOL    HW1 8036   6.815   5.060   0.501
 2379SOL    HW2 8037   6.962   4.990   0.510
 2380SOL     OW 8038   5.953   2.583   5.382
 2380SOL    HW1 8039   5.887   2.642   5.336
 2380SOL    HW2 8040   5.952   2.604   5.480
 2381SOL     OW 8041   2.062   4.674   5.162
 2381SOL    HW1 8042   2.005   4.753   5.138
 2381SOL    HW2 8043   2.146   4.676   5.109
 2382SOL     OW 8044   1.862   5.747   2.595
 2382SOL    HW1 8045   1.781   5.771   2.541
 2382SOL    HW2 8046   1.883   5.822   2.658
 2383SOL     OW 8047   5.660   5.708   5.659
 2383SOL    HW1 8048   5.597   5.725   5.735
 2383SOL    HW2 8049   5.702   5.795   5.631
 2384SOL     OW 8050   0.316   1.849   1.537
 2384SOL    HW1 8051   0.371   1.902   1.601
 2384SOL    HW2 8052   0.230   1.896   1.520
 2385SOL     OW 8053   1.055   2.005   0.407
 2385SOL    HW1 8054   1.062   2.074   0.479
 2385SOL    HW2 8055   0.959   1.982   0.391
 2386SOL     OW 8056   3.030   5.061   4.470
 2386SOL    HW1 8057   3.120   5.064   4.514
 2386SOL    HW2 8058   2.967   5.007   4.526
 2387SOL     OW 8059   0.151   2.910   4.165
 2387SOL    HW1 8060   0.202   2.939   4.084
 2387SOL    HW2 8061   0.084   2.980   4.189
 2388SOL     OW 8062   0.340   2.042   5.614
 2388SOL    HW1 8063   0.270   2.078   5.552
 2388SOL    HW2 8064   0.423   2.096   5.605
 2389SOL     OW 8065   5.194   4.591   4.421
 2389SOL    HW1 8066   5.234   4.638   4.499
 2389SOL    HW2 8067   5.103   4.555   4.445
 2390SOL     OW 8068   4.171   3.735   5.846
 2390SOL    HW1 8069   4.129   3.781   5.924
 2390SOL    HW2 8070   4.120   3.652   5.825
 2391SOL     OW 8071   3.212   3.098   6.636
 2391SOL    HW1 8072   3.310   3.113   6.649
 2391SOL    HW2 8073   3.172   3.178   6.591
 2392SOL     OW 8074   3.402   4.340   5.778
 2392SOL    HW1 8075   3.487   4.343   5.725
 2392SOL    HW2 8076   3.397   4.422   5.835
 2393SOL     OW 8077   4.122   5.556   1.743
 2393SOL    HW1 8078   4.119   5.519   1.650
 2393SOL    HW2 8079   4.174   5.493   1.801
 2394SOL     OW 8080   0.119   4.286   3.994
 2394SOL    HW1 8081   0.036   4.236   4.018
 2394SOL    HW2 8082   0.102   4.342   3.913
 2395SOL     OW 8083   0.758   2.807   6.572
 2395SOL    HW1 8084   0.731   2.902   6.559
 2395SOL    HW2 8085   0.679   2.748   6.562
 2396SOL     OW 8086   5.560   0.732   6.403
 2396SOL    HW1 8087   5.522   0.744   6.311
 2396SOL    HW2 8088   5.583   0.821   6.442
 2397SOL     OW 8089   0.281   4.441   6.127
 2397SOL    HW1 8090   0.278   4.357   6.182
 2397SOL    HW2 8091   0.370   4.485   6.138
 2398SOL     OW 8092   2.723   5.703   4.062
 2398SOL    HW1 8093   2.816   5.683   4.093
 2398SOL    HW2 8094   2.682   5.773   4.120
 2399SOL     OW 8095   3.546   2.064   3.689
 2399SOL    HW1 8096   3.583   2.140   3.741
 2399SOL    HW2 8097   3.448   2.053   3.709
 2400SOL     OW 8098   2.211   3.674   0.449
 2400SOL    HW1 8099   2.133   3.662   0.387
 2400SOL    HW2 8100   2.219   3.770   0.474
 2401SOL     OW 8101   3.880   6.751   4.300
 2401SOL    HW1 8102   3.874   6.826   4.366
 2401SOL    HW2 8103   3.905   6.788   4.210
 2402SOL     OW 8104   0.764   2.563   3.240
 2402SOL    HW1 8105   0.827   2.539   3.166
 2402SOL    HW2 8106   0.694   2.625   3.206
 2403SOL     OW 8107   3.796   3.401   1.288
 2403SOL    HW1 8108   3.831   3.482   1.241
 2403SOL    HW2 8109   3.873   3.350   1.328
 2404SOL     OW 8110   5.991   1.581   1.463
 2404SOL    HW1 8111   6.083   1.594   1.501
 2404SOL    HW2 8112   5.979   1.641   1.384
 2405SOL     OW 8113   2.980   4.829   5.943
 2405SOL    HW1 8114   3.040   4.889   5.890
 2405SOL    HW2 8115   3.033   4.785   6.015
 2406SOL     OW 8116   2.284   6.936   3.485
 2406SOL    HW1 8117   2.221   6.893   3.550
 2406SOL    HW2 8118   2.258   6.911   3.391
 2407SOL     OW 8119   4.478   2.515   3.008
 2407SOL    HW1 8120   4.400   2.494   2.948
 2407SOL    HW2 8121   4.455   2.491   3.102
 2408SOL     OW 8122   2.759   5.275   3.136
 2408SOL    HW1 8123   2.716   5.327   3.210
 2408SOL    HW2 8124   2.766   5.332   3.055
 2409SOL     OW 8125   3.021   2.899   0.898
 2409SOL    HW1 8126   2.935   2.850   0.918
 2409SOL    HW2 8127   3.003   2.997   0.895
 2410SOL     OW 8128   6.429   3.525   6.039
 2410SOL    HW1 8129   6.378   3.470   6.105
 2410SOL    HW2 8130   6.365   3.568   5.975
 2411SOL     OW 8131   2.488   3.899   6.031
 2411SOL    HW1 8132   2.576   3.866   6.063
 2411SOL    HW2 8133   2.502   3.963   5.955
 2412SOL     OW 8134   2.594   3.036   6.978
 2412SOL    HW1 8135   2.643   2.952   6.954
 2412SOL    HW2 8136   2.658   3.106   7.007
 2413SOL     OW 8137   6.329   3.404   6.623
 2413SOL    HW1 8138   6.240   3.379   6.585
 2413SOL    HW2 8139   6.372   3.322   6.662
 2414SOL     OW 8140   5.435   1.884   3.808
 2414SOL    HW1 8141   5.457   1.941   3.887
 2414SOL    HW2 8142   5.480   1.922   3.727
 2415SOL     OW 8143   2.314   6.861   6.903
 2415SOL    HW1 8144   2.217   6.871   6.924
 2415SOL    HW2 8145   2.342   6.766   6.918
 2416SOL     OW 8146   1.006   3.081   3.349
 2416SOL    HW1 8147   0.960   3.164   3.382
 2416SOL    HW2 8148   1.058   3.040   3.423
 2417SOL     OW 8149   4.612   2.575   6.803
 2417SOL    HW1 8150   4.653   2.485   6.788
 2417SOL    HW2 8151   4.519   2.564   6.839
 2418SOL     OW 8152   3.669   3.971   5.476
 2418SOL    HW1 8153   3.700   3.992   5.383
 2418SOL    HW2 8154   3.667   3.872   5.488
 2419SOL     OW 8155   2.219   6.902   4.664
 2419SOL    HW1 8156   2.299   6.846   4.645
 2419SOL    HW2 8157   2.202   6.905   4.763
 2420SOL     OW 8158   3.293   5.497   1.906
 2420SOL    HW1 8159   3.267   5.432   1.835
 2420SOL    HW2 8160   3.364   5.558   1.871
 2421SOL     OW 8161   3.901   6.655   3.816
 2421SOL    HW1 8162   3.858   6.697   3.737
 2421SOL    HW2 8163   3.841   6.585   3.855
 2422SOL     OW 8164   3.804   6.985   0.991
 2422SOL    HW1 8165   3.824   6.996   1.089
 2422SOL    HW2 8166   3.874   0.008   0.937
 2423SOL     OW 8167   1.784   5.789   1.615
 2423SOL    HW1 8168   1.745   5.732   1.544
 2423SOL    HW2 8169   1.752   5.883   1.604
 2424SOL     OW 8170   5.821   6.386   6.840
 2424SOL    HW1 8171   5.904   6.332   6.848
 2424SOL    HW2 8172   5.835   6.476   6.882
 2425SOL     OW 8173   4.655   5.951   5.772
 2425SOL    HW1 8174   4.727   5.883   5.782
 2425SOL    HW2 8175   4.695   6.042   5.782
 2426SOL     OW 8176   1.163   5.598   5.264
 2426SOL    HW1 8177   1.151   5.677   5.204
 2426SOL    HW2 8178   1.082   5.539   5.258
 2427SOL     OW 8179   4.824   6.209   6.520
 2427SOL    HW1 8180   4.729   6.195   6.547
 2427SOL    HW2 8181   4.833   6.299   6.478
 2428SOL     OW 8182   0.465   1.177   3.140
 2428SOL    HW1 8183   0.495   1.152   3.048
 2428SOL    HW2 8184   0.422   1.267   3.137
 2429SOL     OW 8185   5.067   4.667   2.311
 2429SOL    HW1 8186   5.159   4.644   2.279
 2429SOL    HW2 8187   5.004   4.593   2.286
 2430SOL     OW 8188   5.983   2.416   0.759
 2430SOL    HW1 8189   5.979   2.328   0.711
 2430SOL    HW2 8190   5.948   2.488   0.700
 2431SOL     OW 8191   5.824   1.558   1.697
 2431SOL    HW1 8192   5.730   1.574   1.665
 2431SOL    HW2 8193   5.887   1.563   1.619
 2432SOL     OW 8194   3.143   5.678   1.627
 2432SOL    HW1 8195   3.226   5.719   1.588
 2432SOL    HW2 8196   3.111   5.605   1.567
 2433SOL     OW 8197   0.616   6.015   0.198
 2433SOL    HW1 8198   0.637   5.932   0.146
 2433SOL    HW2 8199   0.702   6.059   0.225
 2434SOL     OW 8200   4.936   1.785   2.065
 2434SOL    HW1 8201   5.024   1.741   2.045
 2434SOL    HW2 8202   4.944   1.838   2.149
 2435SOL     OW 8203   5.936   5.765   0.329
 2435SOL    HW1 8204   5.977   5.700   0.265
 2435SOL    HW2 8205   5.930   5.855   0.285
 2436SOL     OW 8206   1.701   1.277   1.556
 2436SOL    HW1 8207   1.617   1.252   1.605
 2436SOL    HW2 8208   1.710   1.220   1.475
 2437SOL     OW 8209   5.670   5.905   2.004
 2437SOL    HW1 8210   5.676   5.999   2.037
 2437SOL    HW2 8211   5.763   5.868   1.993
 2438SOL     OW 8212   4.138   1.738   4.279
 2438SOL    HW1 8213   4.050   1.760   4.322
 2438SOL    HW2 8214   4.128   1.656   4.223
 2439SOL     OW 8215   0.370   5.172   6.595
 2439SOL    HW1 8216   0.442   5.112   6.629
 2439SOL    HW2 8217   0.400   5.267   6.603
 2440SOL     OW 8218   4.027   6.980   5.347
 2440SOL    HW1 8219   4.057   0.049   5.322
 2440SOL    HW2 8220   4.106   6.920   5.353
 2441SOL     OW 8221   5.740   1.067   6.947
 2441SOL    HW1 8222   5.768   0.971   6.943
 2441SOL    HW2 8223   5.663   1.077   7.010
 2442SOL     OW 8224   5.857   4.432   2.847
 2442SOL    HW1 8225   5.790   4.439   2.772
 2442SOL    HW2 8226   5.919   4.355   2.828
 2443SOL     OW 8227   2.363   0.881   6.273
 2443SOL    HW1 8228   2.418   0.860   6.193
 2443SOL    HW2 8229   2.280   0.929   6.245
 2444SOL     OW 8230   4.153   4.697   0.133
 2444SOL    HW1 8231   4.112   4.620   0.182
 2444SOL    HW2 8232   4.144   4.780   0.187
 2445SOL     OW 8233   6.502   1.275   2.034
 2445SOL    HW1 8234   6.429   1.241   1.974
 2445SOL    HW2 8235   6.563   1.200   2.058
 2446SOL     OW 8236   0.981   2.723   3.410
 2446SOL    HW1 8237   1.054   2.791   3.398
 2446SOL    HW2 8238   0.926   2.719   3.326
 2447SOL     OW 8239   2.231   0.746   1.125
 2447SOL    HW1 8240   2.180   0.831   1.120
 2447SOL    HW2 8241   2.262   0.730   1.219
 2448SOL     OW 8242   6.187   1.734   4.187
 2448SOL    HW1 8243   6.092   1.713   4.211
 2448SOL    HW2 8244   6.214   1.680   4.107
 2449SOL     OW 8245   1.191   3.225   1.998
 2449SOL    HW1 8246   1.204   3.164   1.920
 2449SOL    HW2 8247   1.255   3.200   2.071
 2450SOL     OW 8248   2.626   5.383   6.613
 2450SOL    HW1 8249   2.662   5.361   6.704
 2450SOL    HW2 8250   2.601   5.298   6.566
 2451SOL     OW 8251   0.911   0.226   3.494
 2451SOL    HW1 8252   1.011   0.233   3.485
 2451SOL    HW2 8253   0.882   0.269   3.579
 2452SOL     OW 8254   2.707   1.896   3.875
 2452SOL    HW1 8255   2.684   1.928   3.967
 2452SOL    HW2 8256   2.747   1.971   3.823
 2453SOL     OW 8257   0.002   3.090   0.432
 2453SOL    HW1 8258   0.028   2.994   0.423
 2453SOL    HW2 8259   0.079   3.143   0.469
 2454SOL     OW 8260   2.541   6.255   6.772
 2454SOL    HW1 8261   2.617   6.303   6.817
 2454SOL    HW2 8262   2.556   6.252   6.674
 2455SOL     OW 8263   4.409   0.811   0.884
 2455SOL    HW1 8264   4.424   0.836   0.788
 2455SOL    HW2 8265   4.428   0.713   0.896
 2456SOL     OW 8266   0.785   2.379   6.554
 2456SOL    HW1 8267   0.881   2.363   6.579
 2456SOL    HW2 8268   0.762   2.476   6.568
 2457SOL     OW 8269   6.577   1.092   5.249
 2457SOL    HW1 8270   6.492   1.076   5.300
 2457SOL    HW2 8271   6.563   1.165   5.183
 2458SOL     OW 8272   0.911   6.923   3.739
 2458SOL    HW1 8273   0.961   7.009   3.751
 2458SOL    HW2 8274   0.867   6.898   3.825
 2459SOL     OW 8275   2.887   5.960   6.018
 2459SOL    HW1 8276   2.806   5.989   5.968
 2459SOL    HW2 8277   2.860   5.897   6.091
 2460SOL     OW 8278   1.644   1.402   0.730
 2460SOL    HW1 8279   1.549   1.431   0.721
 2460SOL    HW2 8280   1.696   1.473   0.779
 2461SOL     OW 8281   5.203   0.999   3.898
 2461SOL    HW1 8282   5.266   0.996   3.976
 2461SOL    HW2 8283   5.143   0.919   3.901
 2462SOL     OW 8284   2.395   5.176   0.221
 2462SOL    HW1 8285   2.303   5.150   0.250
 2462SOL    HW2 8286   2.425   5.117   0.146
 2463SOL     OW 8287   6.221   1.857   0.212
 2463SOL    HW1 8288   6.164   1.801   0.273
 2463SOL    HW2 8289   6.253   1.801   0.136
 2464SOL     OW 8290   1.620   2.965   3.154
 2464SOL    HW1 8291   1.625   2.906   3.235
 2464SOL    HW2 8292   1.708   3.009   3.139
 2465SOL     OW 8293   0.333   6.416   6.232
 2465SOL    HW1 8294   0.237   6.408   6.257
 2465SOL    HW2 8295   0.344   6.487   6.164
 2466SOL     OW 8296   1.900   1.305   2.742
 2466SOL    HW1 8297   1.831   1.308   2.814
 2466SOL    HW2 8298   1.860   1.334   2.655
 2467SOL     OW 8299   4.777   1.946   5.488
 2467SOL    HW1 8300   4.748   1.925   5.395
 2467SOL    HW2 8301   4.816   2.039   5.491
 2468SOL     OW 8302   4.132   6.738   0.723
 2468SOL    HW1 8303   4.180   6.793   0.792
 2468SOL    HW2 8304   4.069   6.675   0.768
 2469SOL     OW 8305   3.852   3.304   4.807
 2469SOL    HW1 8306   3.855   3.404   4.799
 2469SOL    HW2 8307   3.885   3.277   4.898
 2470SOL     OW 8308   3.982   4.752   5.723
 2470SOL    HW1 8309   3.906   4.744   5.658
 2470SOL    HW2 8310   4.069   4.744   5.674
 2471SOL     OW 8311   3.011   6.522   0.524
 2471SOL    HW1 8312   3.003   6.617   0.495
 2471SOL    HW2 8313   2.929   6.496   0.574
 2472SOL     OW 8314   4.611   2.123   3.272
 2472SOL    HW1 8315   4.614   2.220   3.297
 2472SOL    HW2 8316   4.558   2.073   3.340
 2473SOL     OW 8317   1.515   3.969   5.450
 2473SOL    HW1 8318   1.439   4.005   5.396
 2473SOL    HW2 8319   1.522   4.021   5.536
 2474SOL     OW 8320   1.040   6.315   1.009
 2474SOL    HW1 8321   1.092   6.400   0.999
 2474SOL    HW2 8322   1.056   6.256   0.930
 2475SOL     OW 8323   4.285   1.042   2.454
 2475SOL    HW1 8324   4.300   0.979   2.531
 2475SOL    HW2 8325   4.361   1.035   2.390
 2476SOL     OW 8326   5.530   0.502   2.210
 2476SOL    HW1 8327   5.436   0.469   2.200
 2476SOL    HW2 8328   5.551   0.565   2.136
 2477SOL     OW 8329   4.487   1.137   3.383
 2477SOL    HW1 8330   4.561   1.121   3.318
 2477SOL    HW2 8331   4.459   1.233   3.380
 2478SOL     OW 8332   6.408   1.386   1.492
 2478SOL    HW1 8333   6.487   1.432   1.451
 2478SOL    HW2 8334   6.439   1.323   1.563
 2479SOL     OW 8335   0.771   3.129   2.391
 2479SOL    HW1 8336   0.749   3.187   2.469
 2479SOL    HW2 8337   0.709   3.051   2.390
 2480SOL     OW 8338   4.586   3.396   0.672
 2480SOL    HW1 8339   4.501   3.428   0.714
 2480SOL    HW2 8340   4.664   3.430   0.724
 2481SOL     OW 8341   3.503   6.247   0.684
 2481SOL    HW1 8342   3.565   6.257   0.606
 2481SOL    HW2 8343   3.416   6.210   0.652
 2482SOL     OW 8344   5.114   3.601   6.203
 2482SOL    HW1 8345   5.137   3.685   6.252
 2482SOL    HW2 8346   5.025   3.612   6.159
 2483SOL     OW 8347   1.832   1.890   0.001
 2483SOL    HW1 8348   1.798   1.977   0.036
 2483SOL    HW2 8349   1.763   1.819   0.016
 2484SOL     OW 8350   3.734   0.676   6.918
 2484SOL    HW1 8351   3.701   0.651   7.009
 2484SOL    HW2 8352   3.827   0.640   6.906
 2485SOL     OW 8353   5.968   3.443   0.977
 2485SOL    HW1 8354   6.064   3.417   0.985
 2485SOL    HW2 8355   5.921   3.378   0.918
 2486SOL     OW 8356   1.319   4.971   5.131
 2486SOL    HW1 8357   1.321   4.982   5.230
 2486SOL    HW2 8358   1.283   4.881   5.108
 2487SOL     OW 8359   4.295   6.637   0.542
 2487SOL    HW1 8360   4.245   6.670   0.622
 2487SOL    HW2 8361   4.262   6.546   0.518
 2488SOL     OW 8362   1.125   4.236   2.151
 2488SOL    HW1 8363   1.091   4.152   2.109
 2488SOL    HW2 8364   1.114   4.230   2.251
 2489SOL     OW 8365   0.694   6.165   4.129
 2489SOL    HW1 8366   0.722   6.208   4.043
 2489SOL    HW2 8367   0.720   6.069   4.129
 2490SOL     OW 8368   0.057   5.041   1.106
 2490SOL    HW1 8369   0.149   5.070   1.133
 2490SOL    HW2 8370   7.013   5.104   1.145
 2491SOL     OW 8371   3.263   4.651   0.259
 2491SOL    HW1 8372   3.220   4.701   0.184
 2491SOL    HW2 8373   3.309   4.570   0.223
 2492SOL     OW 8374   4.706   3.583   0.463
 2492SOL    HW1 8375   4.759   3.508   0.424
 2492SOL    HW2 8376   4.634   3.546   0.523
 2493SOL     OW 8377   5.742   0.081   2.297
 2493SOL    HW1 8378   5.763   0.146   2.370
 2493SOL    HW2 8379   5.825   0.032   2.272
 2494SOL     OW 8380   5.498   4.257   3.191
 2494SOL    HW1 8381   5.411   4.272   3.144
 2494SOL    HW2 8382   5.569   4.237   3.124
 2495SOL     OW 8383   5.048   5.952   3.880
 2495SOL    HW1 8384   5.096   5.945   3.968
 2495SOL    HW2 8385   5.019   5.861   3.851
 2496SOL     OW 8386   0.231   2.198   6.356
 2496SOL    HW1 8387   0.308   2.176   6.296
 2496SOL    HW2 8388   0.169   2.260   6.308
 2497SOL     OW 8389   0.066   0.224   0.684
 2497SOL    HW1 8390   0.024   0.312   0.707
 2497SOL    HW2 8391   0.018   0.151   0.731
 2498SOL     OW 8392   3.142   1.839   5.002
 2498SOL    HW1 8393   3.066   1.891   4.962
 2498SOL    HW2 8394   3.179   1.890   5.080
 2499SOL     OW 8395   6.145   2.915   2.863
 2499SOL    HW1 8396   6.235   2.876   2.844
 2499SOL    HW2 8397   6.076   2.865   2.812
 2500SOL     OW 8398   4.026   4.376   0.026
 2500SOL    HW1 8399   4.096   4.318   0.069
 2500SOL    HW2 8400   4.009   4.344   6.957
 2501SOL     OW 8401   5.375   5.356   0.632
 2501SOL    HW1 8402   5.308   5.359   0.706
 2501SOL    HW2 8403   5.327   5.345   0.545
 2502SOL     OW 8404   0.834   0.618   3.898
 2502SOL    HW1 8405   0.738   0.638   3.914
 2502SOL    HW2 8406   0.879   0.595   3.984
 2503SOL     OW 8407   2.483   6.461   4.729
 2503SOL    HW1 8408   2.463   6.535   4.794
 2503SOL    HW2 8409   2.494   6.375   4.778
 2504SOL     OW 8410   3.935   5.462   4.207
 2504SOL    HW1 8411   3.985   5.478   4.292
 2504SOL    HW2 8412   3.997   5.472   4.129
 2505SOL     OW 8413   0.254   0.028   3.247
 2505SOL    HW1 8414   0.312   0.004   3.325
 2505SOL    HW2 8415   0.238   0.126   3.246
 2506SOL     OW 8416   6.463   3.973   6.039
 2506SOL    HW1 8417   6.386   4.030   6.067
 2506SOL    HW2 8418   6.530   3.969   6.113
 2507SOL     OW 8419   6.706   3.162   0.133
 2507SOL    HW1 8420   6.766   3.220   0.188
 2507SOL    HW2 8421   6.655   3.101   0.194
 2508SOL     OW 8422   3.096   1.483   3.438
 2508SOL    HW1 8423   3.118   1.390   3.411
 2508SOL    HW2 8424   3.077   1.538   3.357
 2509SOL     OW 8425   0.143   3.850   0.910
 2509SOL    HW1 8426   0.092   3.825   0.992
 2509SOL    HW2 8427   0.199   3.931   0.928
 2510SOL     OW 8428   3.190   5.086   1.187
 2510SOL    HW1 8429   3.164   5.090   1.091
 2510SOL    HW2 8430   3.111   5.110   1.244
 2511SOL     OW 8431   3.704   1.778   4.237
 2511SOL    HW1 8432   3.669   1.687   4.213
 2511SOL    HW2 8433   3.783   1.768   4.298
 2512SOL     OW 8434   4.637   3.257   5.847
 2512SOL    HW1 8435   4.701   3.266   5.923
 2512SOL    HW2 8436   4.589   3.344   5.833
 2513SOL     OW 8437   2.116   3.938   5.296
 2513SOL    HW1 8438   2.176   3.975   5.225
 2513SOL    HW2 8439   2.021   3.951   5.270
 2514SOL     OW 8440   0.607   3.873   5.279
 2514SOL    HW1 8441   0.678   3.873   5.208
 2514SOL    HW2 8442   0.649   3.889   5.368
 2515SOL     OW 8443   1.169   0.217   0.868
 2515SOL    HW1 8444   1.200   0.211   0.963
 2515SOL    HW2 8445   1.069   0.222   0.866
 2516SOL     OW 8446   5.813   2.111   2.471
 2516SOL    HW1 8447   5.789   2.195   2.421
 2516SOL    HW2 8448   5.882   2.132   2.541
 2517SOL     OW 8449   0.402   6.937   6.388
 2517SOL    HW1 8450   0.361   6.930   6.297
 2517SOL    HW2 8451   0.425   0.010   6.407
 2518SOL     OW 8452   1.471   4.557   0.127
 2518SOL    HW1 8453   1.539   4.619   0.088
 2518SOL    HW2 8454   1.424   4.508   0.053
 2519SOL     OW 8455   4.066   6.077   1.994
 2519SOL    HW1 8456   4.094   6.017   1.918
 2519SOL    HW2 8457   4.112   6.048   2.078
 2520SOL     OW 8458   3.426   1.650   0.717
 2520SOL    HW1 8459   3.394   1.572   0.770
 2520SOL    HW2 8460   3.364   1.665   0.639
 2521SOL     OW 8461   2.772   0.655   5.475
 2521SOL    HW1 8462   2.732   0.602   5.400
 2521SOL    HW2 8463   2.751   0.752   5.462
 2522SOL     OW 8464   0.896   2.881   5.130
 2522SOL    HW1 8465   0.930   2.973   5.150
 2522SOL    HW2 8466   0.966   2.829   5.080
 2523SOL     OW 8467   0.246   3.337   1.185
 2523SOL    HW1 8468   0.325   3.301   1.134
 2523SOL    HW2 8469   0.257   3.316   1.282
 2524SOL     OW 8470   0.610   6.377   4.843
 2524SOL    HW1 8471   0.546   6.341   4.911
 2524SOL    HW2 8472   0.570   6.371   4.752
 2525SOL     OW 8473   1.265   2.640   5.612
 2525SOL    HW1 8474   1.298   2.558   5.657
 2525SOL    HW2 8475   1.342   2.691   5.574
 2526SOL     OW 8476   0.896   4.395   6.388
 2526SOL    HW1 8477   0.925   4.353   6.474
 2526SOL    HW2 8478   0.857   4.324   6.329
 2527SOL     OW 8479   5.324   6.061   5.444
 2527SOL    HW1 8480   5.258   6.129   5.410
 2527SOL    HW2 8481   5.398   6.108   5.491
 2528SOL     OW 8482   6.267   5.076   0.171
 2528SOL    HW1 8483   6.265   4.993   0.226
 2528SOL    HW2 8484   6.184   5.081   0.115
 2529SOL     OW 8485   6.811   5.807   6.313
 2529SOL    HW1 8486   6.908   5.797   6.292
 2529SOL    HW2 8487   6.794   5.899   6.348
 2530SOL     OW 8488   2.795   6.546   5.005
 2530SOL    HW1 8489   2.740   6.463   4.994
 2530SOL    HW2 8490   2.774   6.588   5.093
 2531SOL     OW 8491   5.719   5.741   4.895
 2531SOL    HW1 8492   5.715   5.736   4.795
 2531SOL    HW2 8493   5.686   5.830   4.926
 2532SOL     OW 8494   0.516   5.787   1.016
 2532SOL    HW1 8495   0.528   5.873   1.066
 2532SOL    HW2 8496   0.589   5.779   0.948
 2533SOL     OW 8497   3.108   6.474   4.239
 2533SOL    HW1 8498   3.112   6.494   4.141
 2533SOL    HW2 8499   3.201   6.471   4.276
 2534SOL     OW 8500   3.894   0.461   2.801
 2534SOL    HW1 8501   3.826   0.529   2.830
 2534SOL    HW2 8502   3.939   0.493   2.718
 2535SOL     OW 8503   3.347   2.407   5.543
 2535SOL    HW1 8504   3.311   2.379   5.632
 2535SOL    HW2 8505   3.273   2.444   5.487
 2536SOL     OW 8506   1.457   1.469   4.431
 2536SOL    HW1 8507   1.458   1.466   4.331
 2536SOL    HW2 8508   1.364   1.487   4.462
 2537SOL     OW 8509   3.609   0.162   5.950
 2537SOL    HW1 8510   3.529   0.165   5.890
 2537SOL    HW2 8511   3.671   0.237   5.926
 2538SOL     OW 8512   0.636   4.503   3.192
 2538SOL    HW1 8513   0.557   4.552   3.154
 2538SOL    HW2 8514   0.684   4.455   3.118
 2539SOL     OW 8515   6.190   0.803   4.905
 2539SOL    HW1 8516   6.207   0.785   4.808
 2539SOL    HW2 8517   6.092   0.797   4.923
 2540SOL     OW 8518   4.008   1.796   2.795
 2540SOL    HW1 8519   4.077   1.765   2.730
 2540SOL    HW2 8520   4.049   1.805   2.886
 2541SOL     OW 8521   2.938   0.511   5.076
 2541SOL    HW1 8522   3.036   0.522   5.062
 2541SOL    HW2 8523   2.904   0.438   5.016
 2542SOL     OW 8524   3.398   1.751   6.147
 2542SOL    HW1 8525   3.402   1.851   6.153
 2542SOL    HW2 8526   3.325   1.725   6.085
 2543SOL     OW 8527   1.468   0.970   3.351
 2543SOL    HW1 8528   1.440   0.946   3.444
 2543SOL    HW2 8529   1.394   1.019   3.305
 2544SOL     OW 8530   0.288   7.013   1.106
 2544SOL    HW1 8531   0.299   6.934   1.046
 2544SOL    HW2 8532   0.208   7.001   1.164
 2545SOL     OW 8533   1.002   7.019   2.078
 2545SOL    HW1 8534   0.945   0.078   2.071
 2545SOL    HW2 8535   1.090   0.012   2.033
 2546SOL     OW 8536   0.140   0.959   2.009
 2546SOL    HW1 8537   0.043   0.952   1.985
 2546SOL    HW2 8538   0.193   0.985   1.928
 2547SOL     OW 8539   6.505   5.287   0.365
 2547SOL    HW1 8540   6.530   5.343   0.287
 2547SOL    HW2 8541   6.547   5.196   0.356
 2548SOL     OW 8542   1.323   6.652   6.015
 2548SOL    HW1 8543   1.255   6.579   6.019
 2548SOL    HW2 8544   1.290   6.730   6.068
 2549SOL     OW 8545   2.171   0.458   1.080
 2549SOL    HW1 8546   2.178   0.558   1.073
 2549SOL    HW2 8547   2.156   0.419   0.989
 2550SOL     OW 8548   6.715   0.376   6.960
 2550SOL    HW1 8549   6.735   0.383   6.863
 2550SOL    HW2 8550   6.694   0.468   6.996
 2551SOL     OW 8551   3.024   5.429   0.539
 2551SOL    HW1 8552   2.975   5.515   0.555
 2551SOL    HW2 8553   3.100   5.422   0.603
 2552SOL     OW 8554   1.597   5.822   5.107
 2552SOL    HW1 8555   1.515   5.831   5.051
 2552SOL    HW2 8556   1.593   5.735   5.158
 2553SOL     OW 8557   5.154   3.339   5.729
 2553SOL    HW1 8558   5.131   3.266   5.793
 2553SOL    HW2 8559   5.113   3.425   5.761
 2554SOL     OW 8560   2.128   6.985   0.210
 2554SOL    HW1 8561   2.073   6.947   0.285
 2554SOL    HW2 8562   2.097   6.946   0.123
 2555SOL     OW 8563   5.675   6.991   5.351
 2555SOL    HW1 8564   5.704   0.021   5.271
 2555SOL    HW2 8565   5.652   0.030   5.426
 2556SOL     OW 8566   4.114   5.860   0.307
 2556SOL    HW1 8567   4.039   5.823   0.361
 2556SOL    HW2 8568   4.185   5.894   0.368
 2557SOL     OW 8569   2.305   4.478   0.081
 2557SOL    HW1 8570   2.246   4.500   0.159
 2557SOL    HW2 8571   2.272   4.395   0.036
 2558SOL     OW 8572   5.384   1.736   4.785
 2558SOL    HW1 8573   5.381   1.717   4.883
 2558SOL    HW2 8574   5.476   1.719   4.751
 2559SOL     OW 8575   0.249   3.432   4.209
 2559SOL    HW1 8576   0.330   3.453   4.263
 2559SOL    HW2 8577   0.276   3.405   4.117
 2560SOL     OW 8578   5.922   3.469   4.115
 2560SOL    HW1 8579   5.912   3.558   4.071
 2560SOL    HW2 8580   5.873   3.400   4.062
 2561SOL     OW 8581   3.230   6.318   5.414
 2561SOL    HW1 8582   3.263   6.290   5.324
 2561SOL    HW2 8583   3.221   6.238   5.473
 2562SOL     OW 8584   1.998   5.684   1.749
 2562SOL    HW1 8585   1.931   5.725   1.687
 2562SOL    HW2 8586   2.081   5.740   1.751
 2563SOL     OW 8587   3.840   2.660   0.577
 2563SOL    HW1 8588   3.773   2.592   0.608
 2563SOL    HW2 8589   3.792   2.737   0.534
 2564SOL     OW 8590   2.024   5.927   5.724
 2564SOL    HW1 8591   2.099   5.902   5.784
 2564SOL    HW2 8592   2.059   5.946   5.632
 2565SOL     OW 8593   1.378   0.632   0.262
 2565SOL    HW1 8594   1.351   0.692   0.338
 2565SOL    HW2 8595   1.477   0.625   0.258
 2566SOL     OW 8596   2.711   6.965   0.832
 2566SOL    HW1 8597   2.753   6.887   0.878
 2566SOL    HW2 8598   2.750   6.974   0.740
 2567SOL     OW 8599   0.667   1.214   0.838
 2567SOL    HW1 8600   0.717   1.158   0.904
 2567SOL    HW2 8601   0.700   1.309   0.844
 2568SOL     OW 8602   3.840   0.209   6.670
 2568SOL    HW1 8603   3.744   0.197   6.696
 2568SOL    HW2 8604   3.845   0.241   6.576
 2569SOL     OW 8605   2.922   1.649   1.786
 2569SOL    HW1 8606   2.984   1.704   1.841
 2569SOL    HW2 8607   2.865   1.593   1.845
 2570SOL     OW 8608   5.635   0.287   6.480
 2570SOL    HW1 8609   5.584   0.360   6.434
 2570SOL    HW2 8610   5.609   0.284   6.576
 2571SOL     OW 8611   2.603   4.626   6.153
 2571SOL    HW1 8612   2.684   4.632   6.210
 2571SOL    HW2 8613   2.608   4.693   6.079
 2572SOL     OW 8614   2.375   5.163   0.822
 2572SOL    HW1 8615   2.302   5.116   0.772
 2572SOL    HW2 8616   2.400   5.109   0.902
 2573SOL     OW 8617   6.869   2.317   2.020
 2573SOL    HW1 8618   6.887   2.408   2.059
 2573SOL    HW2 8619   6.923   2.306   1.936
 2574SOL     OW 8620   5.844   3.846   0.498
 2574SOL    HW1 8621   5.903   3.885   0.569
 2574SOL    HW2 8622   5.880   3.757   0.469
 2575SOL     OW 8623   4.874   5.330   1.055
 2575SOL    HW1 8624   4.940   5.392   1.098
 2575SOL    HW2 8625   4.854   5.255   1.118
 2576SOL     OW 8626   4.141   6.502   4.491
 2576SOL    HW1 8627   4.212   6.510   4.420
 2576SOL    HW2 8628   4.070   6.570   4.473
 2577SOL     OW 8629   4.370   6.685   1.840
 2577SOL    HW1 8630   4.377   6.670   1.742
 2577SOL    HW2 8631   4.442   6.634   1.887
 2578SOL     OW 8632   4.670   1.909   5.242
 2578SOL    HW1 8633   4.601   1.974   5.210
 2578SOL    HW2 8634   4.627   1.820   5.259
 2579SOL     OW 8635   1.338   6.251   3.186
 2579SOL    HW1 8636   1.360   6.263   3.283
 2579SOL    HW2 8637   1.346   6.154   3.162
 2580SOL     OW 8638   2.872   3.756   6.205
 2580SOL    HW1 8639   2.909   3.752   6.298
 2580SOL    HW2 8640   2.819   3.840   6.194
 2581SOL     OW 8641   1.620   4.950   1.485
 2581SOL    HW1 8642   1.529   4.949   1.443
 2581SOL    HW2 8643   1.689   4.958   1.413
 2582SOL     OW 8644   0.427   4.247   1.683
 2582SOL    HW1 8645   0.472   4.160   1.701
 2582SOL    HW2 8646   0.383   4.244   1.594
 2583SOL     OW 8647   1.440   1.628   6.762
 2583SOL    HW1 8648   1.433   1.531   6.784
 2583SOL    HW2 8649   1.530   1.647   6.722
 2584SOL     OW 8650   4.226   5.033   6.081
 2584SOL    HW1 8651   4.176   5.119   6.067
 2584SOL    HW2 8652   4.162   4.957   6.079
 2585SOL     OW 8653   4.438   3.245   0.196
 2585SOL    HW1 8654   4.423   3.249   0.295
 2585SOL    HW2 8655   4.353   3.218   0.151
 2586SOL     OW 8656   4.362   1.291   3.166
 2586SOL    HW1 8657   4.392   1.196   3.164
 2586SOL    HW2 8658   4.270   1.296   3.205
 2587SOL     OW 8659   0.042   0.704   3.308
 2587SOL    HW1 8660   0.006   0.762   3.236
 2587SOL    HW2 8661   0.096   0.759   3.372
 2588SOL     OW 8662   5.048   1.492   6.381
 2588SOL    HW1 8663   5.000   1.518   6.297
 2588SOL    HW2 8664   5.003   1.412   6.422
 2589SOL     OW 8665   0.887   6.637   5.655
 2589SOL    HW1 8666   0.802   6.670   5.616
 2589SOL    HW2 8667   0.890   6.537   5.650
 2590SOL     OW 8668   3.145   5.160   0.090
 2590SOL    HW1 8669   3.239   5.130   0.076
 2590SOL    HW2 8670   3.142   5.227   0.164
 2591SOL     OW 8671   7.007   4.790   3.362
 2591SOL    HW1 8672   6.943   4.819   3.292
 2591SOL    HW2 8673   6.964   4.797   3.452
 2592SOL     OW 8674   3.411   5.525   0.011
 2592SOL    HW1 8675   3.370   5.478   6.956
 2592SOL    HW2 8676   3.345   5.589   0.050
 2593SOL     OW 8677   3.815   5.320   6.940
 2593SOL    HW1 8678   3.768   5.231   6.931
 2593SOL    HW2 8679   3.749   5.389   6.970
 2594SOL     OW 8680   1.715   4.502   5.869
 2594SOL    HW1 8681   1.617   4.515   5.884
 2594SOL    HW2 8682   1.732   4.493   5.771
 2595SOL     OW 8683   0.050   0.432   3.801
 2595SOL    HW1 8684   6.986   0.456   3.759
 2595SOL    HW2 8685   0.058   0.332   3.805
 2596SOL     OW 8686   3.304   2.183   1.772
 2596SOL    HW1 8687   3.402   2.166   1.757
 2596SOL    HW2 8688   3.262   2.101   1.810
 2597SOL     OW 8689   0.149   4.791   5.546
 2597SOL    HW1 8690   0.115   4.702   5.575
 2597SOL    HW2 8691   0.124   4.860   5.614
 2598SOL     OW 8692   6.316   1.508   2.857
 2598SOL    HW1 8693   6.232   1.459   2.883
 2598SOL    HW2 8694   6.388   1.441   2.839
 2599SOL     OW 8695   1.175   5.906   1.018
 2599SOL    HW1 8696   1.228   5.825   1.043
 2599SOL    HW2 8697   1.213   5.986   1.065
 2600SOL     OW 8698   5.737   3.079   4.665
 2600SOL    HW1 8699   5.778   3.020   4.734
 2600SOL    HW2 8700   5.643   3.051   4.649
 2601SOL     OW 8701   2.033   1.501   2.102
 2601SOL    HW1 8702   2.002   1.470   2.192
 2601SOL    HW2 8703   2.104   1.570   2.113
 2602SOL     OW 8704   1.113   4.708   4.980
 2602SOL    HW1 8705   1.028   4.675   4.939
 2602SOL    HW2 8706   1.188   4.691   4.916
 2603SOL     OW 8707   3.310   0.506   3.740
 2603SOL    HW1 8708   3.397   0.538   3.701
 2603SOL    HW2 8709   3.240   0.575   3.724
 2604SOL     OW 8710   4.727   2.424   2.552
 2604SOL    HW1 8711   4.690   2.470   2.471
 2604SOL    HW2 8712   4.655   2.411   2.620
 2605SOL     OW 8713   1.828   2.760   3.289
 2605SOL    HW1 8714   1.893   2.698   3.332
 2605SOL    HW2 8715   1.831   2.849   3.336
 2606SOL     OW 8716   5.562   4.953   1.364
 2606SOL    HW1 8717   5.613   4.947   1.278
 2606SOL    HW2 8718   5.468   4.923   1.349
 2607SOL     OW 8719   1.363   1.607   2.294
 2607SOL    HW1 8720   1.430   1.605   2.220
 2607SOL    HW2 8721   1.276   1.569   2.263
 2608SOL     OW 8722   4.082   5.155   0.470
 2608SOL    HW1 8723   4.162   5.138   0.413
 2608SOL    HW2 8724   4.111   5.179   0.562
 2609SOL     OW 8725   6.648   0.999   2.081
 2609SOL    HW1 8726   6.746   0.978   2.082
 2609SOL    HW2 8727   6.596   0.915   2.080
 2610SOL     OW 8728   0.848   3.938   4.194
 2610SOL    HW1 8729   0.897   3.908   4.276
 2610SOL    HW2 8730   0.791   4.017   4.217
 2611SOL     OW 8731   4.039   6.115   0.847
 2611SOL    HW1 8732   4.133   6.089   0.824
 2611SOL    HW2 8733   4.034   6.140   0.943
 2612SOL     OW 8734   6.388   6.562   4.595
 2612SOL    HW1 8735   6.420   6.490   4.657
 2612SOL    HW2 8736   6.364   6.643   4.648
 2613SOL     OW 8737   1.752   5.586   6.134
 2613SOL    HW1 8738   1.837   5.630   6.105
 2613SOL    HW2 8739   1.689   5.583   6.057
 2614SOL     OW 8740   6.361   2.123   0.173
 2614SOL    HW1 8741   6.316   2.037   0.197
 2614SOL    HW2 8742   6.459   2.115   0.191
 2615SOL     OW 8743   0.807   3.470   2.285
 2615SOL    HW1 8744   0.889   3.441   2.236
 2615SOL    HW2 8745   0.726   3.444   2.234
 2616SOL     OW 8746   2.373   2.928   6.277
 2616SOL    HW1 8747   2.356   2.830   6.262
 2616SOL    HW2 8748   2.471   2.946   6.267
 2617SOL     OW 8749   4.318   0.923   0.371
 2617SOL    HW1 8750   4.258   0.991   0.327
 2617SOL    HW2 8751   4.354   0.860   0.302
 2618SOL     OW 8752   6.793   0.232   4.014
 2618SOL    HW1 8753   6.770   0.329   4.016
 2618SOL    HW2 8754   6.890   0.220   4.036
 2619SOL     OW 8755   5.180   1.886   1.548
 2619SOL    HW1 8756   5.083   1.878   1.572
 2619SOL    HW2 8757   5.235   1.836   1.615
 2620SOL     OW 8758   6.997   6.733   3.631
 2620SOL    HW1 8759   0.007   6.738   3.537
 2620SOL    HW2 8760   6.991   6.824   3.670
 2621SOL     OW 8761   0.776   5.204   2.286
 2621SOL    HW1 8762   0.762   5.114   2.325
 2621SOL    HW2 8763   0.689   5.254   2.283
 2622SOL     OW 8764   1.972   3.937   6.197
 2622SOL    HW1 8765   1.921   3.882   6.131
 2622SOL    HW2 8766   1.913   3.958   6.275
 2623SOL     OW 8767   1.027   0.538   5.606
 2623SOL    HW1 8768   1.078   0.534   5.520
 2623SOL    HW2 8769   0.933   0.567   5.587
 2624SOL     OW 8770   0.548   1.401   4.763
 2624SOL    HW1 8771   0.473   1.338   4.785
 2624SOL    HW2 8772   0.524   1.455   4.683
 2625SOL     OW 8773   2.489   3.661   5.874
 2625SOL    HW1 8774   2.482   3.737   5.939
 2625SOL    HW2 8775   2.546   3.589   5.913
 2626SOL     OW 8776   6.977   0.424   6.424
 2626SOL    HW1 8777   7.000   0.505   6.478
 2626SOL    HW2 8778   6.889   0.387   6.454
 2627SOL     OW 8779   1.402   1.026   6.297
 2627SOL    HW1 8780   1.340   1.062   6.227
 2627SOL    HW2 8781   1.415   0.928   6.282
 2628SOL     OW 8782   2.457   4.018   5.498
 2628SOL    HW1 8783   2.378   3.958   5.514
 2628SOL    HW2 8784   2.505   3.989   5.416
 2629SOL     OW 8785   3.842   3.580   1.980
 2629SOL    HW1 8786   3.918   3.630   1.939
 2629SOL    HW2 8787   3.874   3.491   2.013
 2630SOL     OW 8788   3.605   1.232   2.466
 2630SOL    HW1 8789   3.620   1.225   2.564
 2630SOL    HW2 8790   3.683   1.191   2.417
 2631SOL     OW 8791   5.264   0.649   6.511
 2631SOL    HW1 8792   5.221   0.676   6.424
 2631SOL    HW2 8793   5.311   0.728   6.550
 2632SOL     OW 8794   5.822   3.023   0.798
 2632SOL    HW1 8795   5.772   2.963   0.736
 2632SOL    HW2 8796   5.792   3.007   0.892
 2633SOL     OW 8797   6.967   1.418   4.972
 2633SOL    HW1 8798   6.891   1.392   5.031
 2633SOL    HW2 8799   7.010   1.336   4.934
 2634SOL     OW 8800   0.985   5.266   3.519
 2634SOL    HW1 8801   1.005   5.189   3.459
 2634SOL    HW2 8802   1.070   5.312   3.544
 2635SOL     OW 8803   6.984   5.949   4.536
 2635SOL    HW1 8804   6.981   5.967   4.437
 2635SOL    HW2 8805   0.056   5.944   4.566
 2636SOL     OW 8806   3.936   0.514   6.642
 2636SOL    HW1 8807   3.965   0.575   6.716
 2636SOL    HW2 8808   3.968   0.421   6.661
 2637SOL     OW 8809   6.135   2.005   4.196
 2637SOL    HW1 8810   6.121   2.051   4.108
 2637SOL    HW2 8811   6.178   1.916   4.180
 2638SOL     OW 8812   6.873   6.451   4.416
 2638SOL    HW1 8813   6.856   6.412   4.506
 2638SOL    HW2 8814   6.924   6.386   4.360
 2639SOL     OW 8815   6.828   6.173   0.203
 2639SOL    HW1 8816   6.900   6.194   0.269
 2639SOL    HW2 8817   6.867   6.173   0.111
 2640SOL     OW 8818   6.741   6.517   5.512
 2640SOL    HW1 8819   6.753   6.475   5.422
 2640SOL    HW2 8820   6.646   6.507   5.541
 2641SOL     OW 8821   5.509   2.530   2.029
 2641SOL    HW1 8822   5.520   2.550   1.932
 2641SOL    HW2 8823   5.521   2.432   2.044
 2642SOL     OW 8824   6.076   0.453   3.748
 2642SOL    HW1 8825   6.016   0.533   3.751
 2642SOL    HW2 8826   6.105   0.430   3.841
 2643SOL     OW 8827   1.536   3.472   3.524
 2643SOL    HW1 8828   1.468   3.400   3.539
 2643SOL    HW2 8829   1.628   3.433   3.531
 2644SOL     OW 8830   4.804   5.029   4.919
 2644SOL    HW1 8831   4.829   5.124   4.936
 2644SOL    HW2 8832   4.773   5.018   4.825
 2645SOL     OW 8833   4.386   5.518   3.868
 2645SOL    HW1 8834   4.440   5.595   3.903
 2645SOL    HW2 8835   4.380   5.447   3.937
 2646SOL     OW 8836   6.624   2.035   0.208
 2646SOL    HW1 8837   6.673   1.978   0.142
 2646SOL    HW2 8838   6.681   2.113   0.234
 2647SOL     OW 8839   6.210   6.934   1.777
 2647SOL    HW1 8840   6.262   6.906   1.697
 2647SOL    HW2 8841   6.113   6.944   1.753
 2648SOL     OW 8842   0.014   6.055   4.256
 2648SOL    HW1 8843   7.001   6.148   4.249
 2648SOL    HW2 8844   0.114   6.059   4.268
 2649SOL     OW 8845   6.460   3.170   0.970
 2649SOL    HW1 8846   6.524   3.245   0.986
 2649SOL    HW2 8847   6.367   3.206   0.965
 2650SOL     OW 8848   2.013   4.914   3.992
 2650SOL    HW1 8849   1.956   4.832   3.998
 2650SOL    HW2 8850   1.969   4.989   4.042
 2651SOL     OW 8851   2.823   1.691   1.298
 2651SOL    HW1 8852   2.820   1.765   1.230
 2651SOL    HW2 8853   2.911   1.644   1.290
 2652SOL     OW 8854   4.343   3.185   5.538
 2652SOL    HW1 8855   4.306   3.276   5.552
 2652SOL    HW2 8856   4.332   3.131   5.622
 2653SOL     OW 8857   4.744   6.221   5.894
 2653SOL    HW1 8858   4.736   6.252   5.989
 2653SOL    HW2 8859   4.663   6.249   5.842
 2654SOL     OW 8860   4.474   6.928   1.489
 2654SOL    HW1 8861   4.402   6.884   1.543
 2654SOL    HW2 8862   4.556   6.871   1.490
 2655SOL     OW 8863   4.941   5.737   3.768
 2655SOL    HW1 8864   4.866   5.690   3.815
 2655SOL    HW2 8865   4.903   5.808   3.709
 2656SOL     OW 8866   3.535   5.490   4.433
 2656SOL    HW1 8867   3.567   5.414   4.377
 2656SOL    HW2 8868   3.498   5.562   4.374
 2657SOL     OW 8869   1.767   3.776   0.405
 2657SOL    HW1 8870   1.712   3.859   0.399
 2657SOL    HW2 8871   1.734   3.720   0.482
 2658SOL     OW 8872   4.934   4.695   0.127
 2658SOL    HW1 8873   4.989   4.631   0.072
 2658SOL    HW2 8874   4.852   4.648   0.160
 2659SOL     OW 8875   4.749   3.163   5.233
 2659SOL    HW1 8876   4.815   3.235   5.253
 2659SOL    HW2 8877   4.664   3.181   5.283
 2660SOL     OW 8878   0.828   0.428   1.912
 2660SOL    HW1 8879   0.763   0.423   1.836
 2660SOL    HW2 8880   0.827   0.342   1.963
 2661SOL     OW 8881   1.870   6.623   1.380
 2661SOL    HW1 8882   1.926   6.541   1.366
 2661SOL    HW2 8883   1.809   6.635   1.302
 2662SOL     OW 8884   3.193   0.342   4.435
 2662SOL    HW1 8885   3.289   0.371   4.441
 2662SOL    HW2 8886   3.135   0.409   4.482
 2663SOL     OW 8887   4.636   4.363   6.484
 2663SOL    HW1 8888   4.622   4.264   6.490
 2663SOL    HW2 8889   4.653   4.389   6.389
 2664SOL     OW 8890   4.546   3.260   5.372
 2664SOL    HW1 8891   4.471   3.223   5.427
 2664SOL    HW2 8892   4.545   3.360   5.376
 2665SOL     OW 8893   2.637   3.601   5.287
 2665SOL    HW1 8894   2.607   3.508   5.310
 2665SOL    HW2 8895   2.557   3.660   5.276
 2666SOL     OW 8896   1.448   4.562   1.586
 2666SOL    HW1 8897   1.495   4.475   1.571
 2666SOL    HW2 8898   1.352   4.545   1.609
 2667SOL     OW 8899   1.307   5.671   3.636
 2667SOL    HW1 8900   1.214   5.698   3.661
 2667SOL    HW2 8901   1.353   5.747   3.591
 2668SOL     OW 8902   6.249   2.773   4.682
 2668SOL    HW1 8903   6.320   2.829   4.640
 2668SOL    HW2 8904   6.292   2.697   4.731
 2669SOL     OW 8905   2.999   5.382   6.297
 2669SOL    HW1 8906   2.951   5.403   6.213
 2669SOL    HW2 8907   3.095   5.411   6.290
 2670SOL     OW 8908   5.652   3.331   4.793
 2670SOL    HW1 8909   5.646   3.263   4.720
 2670SOL    HW2 8910   5.687   3.287   4.876
 2671SOL     OW 8911   4.768   5.287   6.315
 2671SOL    HW1 8912   4.805   5.255   6.402
 2671SOL    HW2 8913   4.682   5.336   6.331
 2672SOL     OW 8914   2.871   6.485   1.370
 2672SOL    HW1 8915   2.874   6.426   1.450
 2672SOL    HW2 8916   2.789   6.542   1.373
 2673SOL     OW 8917   6.497   2.415   2.066
 2673SOL    HW1 8918   6.438   2.385   1.991
 2673SOL    HW2 8919   6.526   2.335   2.120
 2674SOL     OW 8920   0.858   4.680   3.999
 2674SOL    HW1 8921   0.956   4.696   3.999
 2674SOL    HW2 8922   0.811   4.762   4.032
 2675SOL     OW 8923   6.781   6.298   3.727
 2675SOL    HW1 8924   6.725   6.317   3.808
 2675SOL    HW2 8925   6.792   6.382   3.674
 2676SOL     OW 8926   3.153   3.220   1.399
 2676SOL    HW1 8927   3.088   3.179   1.463
 2676SOL    HW2 8928   3.170   3.156   1.324
 2677SOL     OW 8929   2.631   4.367   1.305
 2677SOL    HW1 8930   2.706   4.421   1.344
 2677SOL    HW2 8931   2.572   4.426   1.250
 2678SOL     OW 8932   0.269   2.871   2.327
 2678SOL    HW1 8933   0.201   2.839   2.261
 2678SOL    HW2 8934   0.293   2.797   2.389
 2679SOL     OW 8935   1.949   4.590   2.457
 2679SOL    HW1 8936   2.029   4.557   2.507
 2679SOL    HW2 8937   1.978   4.658   2.389
 2680SOL     OW 8938   0.917   2.398   0.508
 2680SOL    HW1 8939   0.880   2.322   0.562
 2680SOL    HW2 8940   0.904   2.380   0.411
 2681SOL     OW 8941   1.004   2.264   4.747
 2681SOL    HW1 8942   1.051   2.335   4.799
 2681SOL    HW2 8943   0.905   2.278   4.751
 2682SOL     OW 8944   4.658   4.244   3.594
 2682SOL    HW1 8945   4.657   4.244   3.693
 2682SOL    HW2 8946   4.671   4.150   3.561
 2683SOL     OW 8947   2.511   4.581   2.185
 2683SOL    HW1 8948   2.465   4.665   2.215
 2683SOL    HW2 8949   2.591   4.605   2.130
 2684SOL     OW 8950   4.593   0.045   2.153
 2684SOL    HW1 8951   4.506   0.091   2.138
 2684SOL    HW2 8952   4.653   0.104   2.208
 2685SOL     OW 8953   5.379   5.193   5.889
 2685SOL    HW1 8954   5.385   5.232   5.797
 2685SOL    HW2 8955   5.285   5.163   5.906
 2686SOL     OW 8956   1.124   1.532   5.115
 2686SOL    HW1 8957   1.220   1.542   5.091
 2686SOL    HW2 8958   1.115   1.465   5.189
 2687SOL     OW 8959   3.842   5.590   0.378
 2687SOL    HW1 8960   3.832   5.491   0.391
 2687SOL    HW2 8961   3.908   5.607   0.305
 2688SOL     OW 8962   2.229   2.564   0.536
 2688SOL    HW1 8963   2.192   2.478   0.571
 2688SOL    HW2 8964   2.313   2.586   0.586
 2689SOL     OW 8965   6.938   3.850   2.313
 2689SOL    HW1 8966   6.961   3.902   2.395
 2689SOL    HW2 8967   6.849   3.878   2.279
 2690SOL     OW 8968   2.938   3.302   6.315
 2690SOL    HW1 8969   2.839   3.288   6.311
 2690SOL    HW2 8970   2.968   3.354   6.235
 2691SOL     OW 8971   0.048   4.485   3.819
 2691SOL    HW1 8972   0.082   4.576   3.842
 2691SOL    HW2 8973   0.078   4.461   3.727
 2692SOL     OW 8974   2.468   6.872   3.165
 2692SOL    HW1 8975   2.378   6.832   3.180
 2692SOL    HW2 8976   2.467   6.968   3.192
 2693SOL     OW 8977   2.615   4.974   4.172
 2693SOL    HW1 8978   2.519   5.001   4.173
 2693SOL    HW2 8979   2.672   5.054   4.154
 2694SOL     OW 8980   3.700   6.756   3.624
 2694SOL    HW1 8981   3.610   6.800   3.627
 2694SOL    HW2 8982   3.689   6.661   3.596
 2695SOL     OW 8983   5.520   0.417   2.891
 2695SOL    HW1 8984   5.616   0.440   2.903
 2695SOL    HW2 8985   5.463   0.494   2.920
 2696SOL     OW 8986   4.559   3.814   5.718
 2696SOL    HW1 8987   4.632   3.809   5.650
 2696SOL    HW2 8988   4.470   3.811   5.672
 2697SOL     OW 8989   4.018   1.574   2.439
 2697SOL    HW1 8990   3.961   1.655   2.456
 2697SOL    HW2 8991   4.096   1.600   2.383
 2698SOL     OW 8992   1.893   4.672   6.671
 2698SOL    HW1 8993   1.948   4.597   6.707
 2698SOL    HW2 8994   1.953   4.743   6.634
 2699SOL     OW 8995   3.037   6.161   0.871
 2699SOL    HW1 8996   3.045   6.246   0.819
 2699SOL    HW2 8997   3.123   6.110   0.864
 2700SOL     OW 8998   2.774   1.749   0.811
 2700SOL    HW1 8999   2.788   1.821   0.744
 2700SOL    HW2 9000   2.791   1.660   0.768
 2701SOL     OW 9001   5.238   2.389   5.627
 2701SOL    HW1 9002   5.149   2.356   5.660
 2701SOL    HW2 9003   5.223   2.450   5.549
 2702SOL     OW 9004   0.958   2.532   3.042
 2702SOL    HW1 9005   0.943   2.603   2.973
 2702SOL    HW2 9006   1.046   2.548   3.088
 2703SOL     OW 9007   1.289   6.045   1.529
 2703SOL    HW1 9008   1.309   5.973   1.596
 2703SOL    HW2 9009   1.210   6.097   1.559
 2704SOL     OW 9010   6.585   6.414   2.054
 2704SOL    HW1 9011   6.493   6.391   2.084
 2704SOL    HW2 9012   6.581   6.487   1.985
 2705SOL     OW 9013   6.735   0.569   5.014
 2705SOL    HW1 9014   6.721   0.590   5.110
 2705SOL    HW2 9015   6.650   0.531   4.976
 2706SOL     OW 9016   6.488   4.738   3.359
 2706SOL    HW1 9017   6.582   4.709   3.379
 2706SOL    HW2 9018   6.439   4.661   3.317
 2707SOL     OW 9019   4.059   0.158   4.390
 2707SOL    HW1 9020   4.104   0.158   4.480
 2707SOL    HW2 9021   4.104   0.091   4.331
 2708SOL     OW 9022   6.255   2.855   1.223
 2708SOL    HW1 9023   6.166   2.881   1.260
 2708SOL    HW2 9024   6.242   2.801   1.140
 2709SOL     OW 9025   5.052   0.072   6.748
 2709SOL    HW1 9026   5.080   0.152   6.695
 2709SOL    HW2 9027   5.130   0.035   6.797
 2710SOL     OW 9028   1.828   2.650   3.915
 2710SOL    HW1 9029   1.912   2.597   3.896
 2710SOL    HW2 9030   1.838   2.698   4.002
 2711SOL     OW 9031   3.099   0.726   3.702
 2711SOL    HW1 9032   3.178   0.777   3.734
 2711SOL    HW2 9033   3.017   0.754   3.753
 2712SOL     OW 9034   2.142   5.708   2.121
 2712SOL    HW1 9035   2.111   5.634   2.061
 2712SOL    HW2 9036   2.231   5.741   2.089
 2713SOL     OW 9037   3.206   3.984   6.406
 2713SOL    HW1 9038   3.188   4.059   6.470
 2713SOL    HW2 9039   3.141   3.910   6.422
 2714SOL     OW 9040   3.573   3.532   6.771
 2714SOL    HW1 9041   3.474   3.538   6.781
 2714SOL    HW2 9042   3.601   3.583   6.690
 2715SOL     OW 9043   5.432   2.253   0.559
 2715SOL    HW1 9044   5.428   2.154   0.570
 2715SOL    HW2 9045   5.491   2.292   0.629
 2716SOL     OW 9046   4.979   3.401   3.918
 2716SOL    HW1 9047   4.995   3.430   3.824
 2716SOL    HW2 9048   5.066   3.374   3.960
 2717SOL     OW 9049   0.621   0.210   1.565
 2717SOL    HW1 9050   0.597   0.258   1.649
 2717SOL    HW2 9051   0.654   0.118   1.587
 2718SOL     OW 9052   0.741   1.076   5.352
 2718SOL    HW1 9053   0.831   1.041   5.326
 2718SOL    HW2 9054   0.672   1.038   5.290
 2719SOL     OW 9055   1.162   4.582   1.642
 2719SOL    HW1 9056   1.207   4.567   1.730
 2719SOL    HW2 9057   1.064   4.593   1.656
 2720SOL     OW 9058   1.205   0.345   2.735
 2720SOL    HW1 9059   1.231   0.413   2.667
 2720SOL    HW2 9060   1.287   0.303   2.774
 2721SOL     OW 9061   3.325   6.430   3.374
 2721SOL    HW1 9062   3.363   6.342   3.345
 2721SOL    HW2 9063   3.310   6.428   3.473
 2722SOL     OW 9064   5.319   5.128   6.863
 2722SOL    HW1 9065   5.389   5.169   6.805
 2722SOL    HW2 9066   5.359   5.098   6.949
 2723SOL     OW 9067   1.918   5.876   6.488
 2723SOL    HW1 9068   1.925   5.966   6.531
 2723SOL    HW2 9069   2.010   5.841   6.470
 2724SOL     OW 9070   1.378   6.332   6.188
 2724SOL    HW1 9071   1.373   6.368   6.281
 2724SOL    HW2 9072   1.294   6.281   6.168
 2725SOL     OW 9073   5.337   4.116   5.089
 2725SOL    HW1 9074   5.251   4.154   5.055
 2725SOL    HW2 9075   5.404   4.190   5.102
 2726SOL     OW 9076   0.595   2.409   1.979
 2726SOL    HW1 9077   0.685   2.423   2.021
 2726SOL    HW2 9078   0.549   2.332   2.025
 2727SOL     OW 9079   1.163   3.790   4.116
 2727SOL    HW1 9080   1.071   3.750   4.105
 2727SOL    HW2 9081   1.164   3.882   4.076
 2728SOL     OW 9082   5.264   6.233   5.910
 2728SOL    HW1 9083   5.279   6.174   5.989
 2728SOL    HW2 9084   5.168   6.262   5.907
 2729SOL     OW 9085   6.468   6.356   0.116
 2729SOL    HW1 9086   6.492   6.269   0.159
 2729SOL    HW2 9087   6.549   6.414   0.110
 2730SOL     OW 9088   1.068   6.372   1.917
 2730SOL    HW1 9089   1.105   6.401   1.829
 2730SOL    HW2 9090   1.142   6.361   1.983
 2731SOL     OW 9091   3.035   3.951   2.951
 2731SOL    HW1 9092   3.057   3.956   2.853
 2731SOL    HW2 9093   2.993   3.862   2.971
 2732SOL     OW 9094   5.764   1.667   0.835
 2732SOL    HW1 9095   5.695   1.596   0.849
 2732SOL    HW2 9096   5.723   1.757   0.853
 2733SOL     OW 9097   6.519   1.555   5.072
 2733SOL    HW1 9098   6.603   1.596   5.037
 2733SOL    HW2 9099   6.446   1.564   5.005
 2734SOL     OW 9100   2.925   5.705   1.312
 2734SOL    HW1 9101   2.975   5.636   1.364
 2734SOL    HW2 9102   2.830   5.708   1.343
 2735SOL     OW 9103   1.261   2.191   2.146
 2735SOL    HW1 9104   1.297   2.110   2.101
 2735SOL    HW2 9105   1.312   2.272   2.117
 2736SOL     OW 9106   6.105   6.317   4.720
 2736SOL    HW1 9107   6.096   6.397   4.779
 2736SOL    HW2 9108   6.197   6.314   4.681
 2737SOL     OW 9109   3.043   3.689   5.281
 2737SOL    HW1 9110   3.098   3.719   5.203
 2737SOL    HW2 9111   2.946   3.698   5.259
 2738SOL     OW 9112   6.029   6.158   2.210
 2738SOL    HW1 9113   6.084   6.221   2.265
 2738SOL    HW2 9114   6.001   6.080   2.266
 2739SOL     OW 9115   1.318   4.588   0.978
 2739SOL    HW1 9116   1.258   4.545   1.046
 2739SOL    HW2 9117   1.336   4.524   0.904
 2740SOL     OW 9118   6.895   5.240   1.888
 2740SOL    HW1 9119   6.913   5.330   1.927
 2740SOL    HW2 9120   6.796   5.224   1.886
 2741SOL     OW 9121   6.551   1.282   5.050
 2741SOL    HW1 9122   6.556   1.381   5.049
 2741SOL    HW2 9123   6.534   1.249   4.957
 2742SOL     OW 9124   1.836   5.404   0.563
 2742SOL    HW1 9125   1.934   5.396   0.544
 2742SOL    HW2 9126   1.822   5.406   0.662
 2743SOL     OW 9127   0.132   4.761   2.536
 2743SOL    HW1 9128   0.121   4.858   2.558
 2743SOL    HW2 9129   0.109   4.745   2.440
 2744SOL     OW 9130   4.308   3.145   0.663
 2744SOL    HW1 9131   4.376   3.156   0.735
 2744SOL    HW2 9132   4.231   3.091   0.697
 2745SOL     OW 9133   6.450   1.150   4.698
 2745SOL    HW1 9134   6.445   1.250   4.690
 2745SOL    HW2 9135   6.386   1.120   4.769
 2746SOL     OW 9136   1.119   2.526   4.424
 2746SOL    HW1 9137   1.023   2.504   4.407
 2746SOL    HW2 9138   1.126   2.619   4.459
 2747SOL     OW 9139   4.935   5.752   6.813
 2747SOL    HW1 9140   4.889   5.665   6.799
 2747SOL    HW2 9141   4.915   5.814   6.737
 2748SOL     OW 9142   4.757   1.187   2.106
 2748SOL    HW1 9143   4.765   1.116   2.036
 2748SOL    HW2 9144   4.768   1.277   2.064
 2749SOL     OW 9145   6.623   4.539   0.925
 2749SOL    HW1 9146   6.674   4.614   0.882
 2749SOL    HW2 9147   6.619   4.555   1.024
 2750SOL     OW 9148   2.180   4.051   2.233
 2750SOL    HW1 9149   2.224   4.040   2.144
 2750SOL    HW2 9150   2.104   4.115   2.225
 2751SOL     OW 9151   0.622   2.435   1.653
 2751SOL    HW1 9152   0.596   2.510   1.592
 2751SOL    HW2 9153   0.610   2.463   1.748
 2752SOL     OW 9154   3.276   4.378   6.350
 2752SOL    HW1 9155   3.367   4.392   6.390
 2752SOL    HW2 9156   3.227   4.465   6.347
 2753SOL     OW 9157   6.683   6.352   4.926
 2753SOL    HW1 9158   6.648   6.260   4.940
 2753SOL    HW2 9159   6.717   6.389   5.012
 2754SOL     OW 9160   0.243   0.301   0.492
 2754SOL    HW1 9161   0.179   0.249   0.549
 2754SOL    HW2 9162   0.336   0.289   0.528
 2755SOL     OW 9163   3.862   6.770   2.703
 2755SOL    HW1 9164   3.954   6.749   2.669
 2755SOL    HW2 9165   3.843   6.867   2.690
 2756SOL     OW 9166   4.230   6.006   6.806
 2756SOL    HW1 9167   4.194   5.919   6.771
 2756SOL    HW2 9168   4.194   6.082   6.752
 2757SOL     OW 9169   2.174   6.500   0.151
 2757SOL    HW1 9170   2.146   6.404   0.157
 2757SOL    HW2 9171   2.108   6.556   0.201
 2758SOL     OW 9172   4.497   0.410   4.049
 2758SOL    HW1 9173   4.487   0.485   3.985
 2758SOL    HW2 9174   4.555   0.339   4.009
 2759SOL     OW 9175   5.696   6.577   5.599
 2759SOL    HW1 9176   5.653   6.626   5.523
 2759SOL    HW2 9177   5.767   6.517   5.564
 2760SOL     OW 9178   0.740   5.707   1.773
 2760SOL    HW1 9179   0.725   5.804   1.793
 2760SOL    HW2 9180   0.802   5.668   1.841
 2761SOL     OW 9181   2.151   4.341   4.083
 2761SOL    HW1 9182   2.095   4.259   4.100
 2761SOL    HW2 9183   2.177   4.381   4.171
 2762SOL     OW 9184   1.706   0.842   5.271
 2762SOL    HW1 9185   1.781   0.839   5.338
 2762SOL    HW2 9186   1.739   0.882   5.186
 2763SOL     OW 9187   5.131   1.584   3.963
 2763SOL    HW1 9188   5.120   1.491   3.996
 2763SOL    HW2 9189   5.166   1.583   3.869
 2764SOL     OW 9190   6.214   0.806   1.001
 2764SOL    HW1 9191   6.254   0.753   0.927
 2764SOL    HW2 9192   6.116   0.786   1.007
 2765SOL     OW 9193   5.400   0.441   0.528
 2765SOL    HW1 9194   5.468   0.444   0.455
 2765SOL    HW2 9195   5.444   0.415   0.614
 2766SOL     OW 9196   4.588   2.432   0.257
 2766SOL    HW1 9197   4.594   2.389   0.347
 2766SOL    HW2 9198   4.647   2.383   0.192
 2767SOL     OW 9199   6.797   5.404   6.910
 2767SOL    HW1 9200   6.756   5.480   6.860
 2767SOL    HW2 9201   6.758   5.318   6.877
 2768SOL     OW 9202   5.128   0.412   0.229
 2768SOL    HW1 9203   5.045   0.431   0.177
 2768SOL    HW2 9204   5.139   0.481   0.300
 2769SOL     OW 9205   0.587   4.391   3.844
 2769SOL    HW1 9206   0.578   4.291   3.843
 2769SOL    HW2 9207   0.611   4.423   3.753
 2770SOL     OW 9208   2.688   5.708   5.716
 2770SOL    HW1 9209   2.768   5.650   5.704
 2770SOL    HW2 9210   2.651   5.695   5.808
 2771SOL     OW 9211   6.285   0.714   2.724
 2771SOL    HW1 9212   6.236   0.778   2.782
 2771SOL    HW2 9213   6.315   0.762   2.641
 2772SOL     OW 9214   4.358   1.196   0.782
 2772SOL    HW1 9215   4.315   1.192   0.873
 2772SOL    HW2 9216   4.290   1.225   0.715
 2773SOL     OW 9217   5.667   2.499   5.387
 2773SOL    HW1 9218   5.658   2.546   5.299
 2773SOL    HW2 9219   5.626   2.555   5.459
 2774SOL     OW 9220   6.054   3.623   3.647
 2774SOL    HW1 9221   6.082   3.534   3.681
 2774SOL    HW2 9222   5.965   3.615   3.601
 2775SOL     OW 9223   6.941   5.429   6.592
 2775SOL    HW1 9224   6.945   5.329   6.590
 2775SOL    HW2 9225   6.988   5.463   6.673
 2776SOL     OW 9226   5.297   4.766   5.980
 2776SOL    HW1 9227   5.343   4.842   6.027
 2776SOL    HW2 9228   5.221   4.734   6.037
 2777SOL     OW 9229   2.581   1.054   2.116
 2777SOL    HW1 9230   2.573   0.955   2.114
 2777SOL    HW2 9231   2.624   1.082   2.202
 2778SOL     OW 9232   1.291   0.117   5.006
 2778SOL    HW1 9233   1.339   0.030   4.994
 2778SOL    HW2 9234   1.196   0.100   5.032
 2779SOL     OW 9235   4.988   6.566   1.205
 2779SOL    HW1 9236   5.009   6.550   1.109
 2779SOL    HW2 9237   4.889   6.563   1.219
 2780SOL     OW 9238   6.849   6.280   6.730
 2780SOL    HW1 9239   6.878   6.210   6.664
 2780SOL    HW2 9240   6.860   6.370   6.689
 2781SOL     OW 9241   5.862   5.945   1.766
 2781SOL    HW1 9242   5.876   5.928   1.863
 2781SOL    HW2 9243   5.801   6.024   1.754
 2782SOL     OW 9244   3.535   1.930   5.413
 2782SOL    HW1 9245   3.575   1.986   5.340
 2782SOL    HW2 9246   3.448   1.970   5.441
 2783SOL     OW 9247   5.536   3.485   4.475
 2783SOL    HW1 9248   5.540   3.447   4.567
 2783SOL    HW2 9249   5.624   3.469   4.429
 2784SOL     OW 9250   3.221   2.204   1.152
 2784SOL    HW1 9251   3.247   2.132   1.217
 2784SOL    HW2 9252   3.298   2.224   1.092
 2785SOL     OW 9253   5.630   1.867   0.958
 2785SOL    HW1 9254   5.532   1.856   0.939
 2785SOL    HW2 9255   5.644   1.875   1.057
 2786SOL     OW 9256   4.597   6.056   1.755
 2786SOL    HW1 9257   4.624   5.979   1.698
 2786SOL    HW2 9258   4.631   6.041   1.848
 2787SOL     OW 9259   3.277   1.995   6.979
 2787SOL    HW1 9260   3.303   1.988   6.883
 2787SOL    HW2 9261   3.342   2.053   0.005
 2788SOL     OW 9262   2.224   4.984   6.035
 2788SOL    HW1 9263   2.186   4.908   6.088
 2788SOL    HW2 9264   2.185   5.070   6.067
 2789SOL     OW 9265   1.727   2.310   3.473
 2789SOL    HW1 9266   1.644   2.364   3.488
 2789SOL    HW2 9267   1.702   2.218   3.444
 2790SOL     OW 9268   2.795   5.780   2.211
 2790SOL    HW1 9269   2.879   5.801   2.260
 2790SOL    HW2 9270   2.792   5.831   2.125
 2791SOL     OW 9271   0.980   4.180   3.781
 2791SOL    HW1 9272   0.995   4.278   3.791
 2791SOL    HW2 9273   0.888   4.156   3.812
 2792SOL     OW 9274   1.298   6.842   4.515
 2792SOL    HW1 9275   1.242   6.765   4.545
 2792SOL    HW2 9276   1.240   6.922   4.498
 2793SOL     OW 9277   4.877   3.434   3.357
 2793SOL    HW1 9278   4.930   3.481   3.286
 2793SOL    HW2 9279   4.879   3.487   3.441
 2794SOL     OW 9280   0.275   2.875   0.779
 2794SOL    HW1 9281   0.361   2.903   0.822
 2794SOL    HW2 9282   0.288   2.789   0.731
 2795SOL     OW 9283   1.931   3.000   0.789
 2795SOL    HW1 9284   1.831   3.004   0.791
 2795SOL    HW2 9285   1.968   3.092   0.774
 2796SOL     OW 9286   6.308   4.958   2.541
 2796SOL    HW1 9287   6.397   5.006   2.543
 2796SOL    HW2 9288   6.292   4.917   2.631
 2797SOL     OW 9289   5.082   4.722   4.201
 2797SOL    HW1 9290   5.112   4.665   4.278
 2797SOL    HW2 9291   5.163   4.757   4.153
 2798SOL     OW 9292   1.352   4.833   1.642
 2798SOL    HW1 9293   1.380   4.845   1.737
 2798SOL    HW2 9294   1.386   4.745   1.608
 2799SOL     OW 9295   6.699   6.913   0.681
 2799SOL    HW1 9296   6.751   6.866   0.610
 2799SOL    HW2 9297   6.602   6.907   0.661
 2800SOL     OW 9298   4.636   4.794   0.044
 2800SOL    HW1 9299   4.637   4.772   0.142
 2800SOL    HW2 9300   4.560   4.855   0.024
 2801SOL     OW 9301   5.071   5.268   4.960
 2801SOL    HW1 9302   5.051   5.185   5.013
 2801SOL    HW2 9303   5.090   5.343   5.023
 2802SOL     OW 9304   4.781   2.228   6.307
 2802SOL    HW1 9305   4.778   2.318   6.349
 2802SOL    HW2 9306   4.688   2.195   6.291
 2803SOL     OW 9307   3.005   5.661   6.402
 2803SOL    HW1 9308   3.105   5.665   6.394
 2803SOL    HW2 9309   2.977   5.566   6.415
 2804SOL     OW 9310   0.027   4.600   5.168
 2804SOL    HW1 9311   0.126   4.601   5.158
 2804SOL    HW2 9312   0.001   4.642   5.255
 2805SOL     OW 9313   5.071   2.754   2.096
 2805SOL    HW1 9314   5.026   2.760   2.007
 2805SOL    HW2 9315   5.076   2.845   2.137
 2806SOL     OW 9316   6.830   5.158   4.646
 2806SOL    HW1 9317   6.893   5.223   4.603
 2806SOL    HW2 9318   6.766   5.207   4.704
 2807SOL     OW 9319   5.160   5.051   3.497
 2807SOL    HW1 9320   5.112   5.074   3.412
 2807SOL    HW2 9321   5.101   5.072   3.575
 2808SOL     OW 9322   5.337   3.156   2.643
 2808SOL    HW1 9323   5.428   3.118   2.625
 2808SOL    HW2 9324   5.347   3.245   2.688
 2809SOL     OW 9325   5.792   2.664   1.591
 2809SOL    HW1 9326   5.801   2.740   1.527
 2809SOL    HW2 9327   5.752   2.697   1.676
 2810SOL     OW 9328   3.258   5.891   3.848
 2810SOL    HW1 9329   3.293   5.812   3.899
 2810SOL    HW2 9330   3.330   5.926   3.788
 2811SOL     OW 9331   1.341   1.179   3.002
 2811SOL    HW1 9332   1.420   1.193   3.062
 2811SOL    HW2 9333   1.278   1.256   3.012
 2812SOL     OW 9334   5.054   3.326   0.210
 2812SOL    HW1 9335   5.146   3.341   0.245
 2812SOL    HW2 9336   5.058   3.271   0.126
 2813SOL     OW 9337   6.696   0.298   6.224
 2813SOL    HW1 9338   6.609   0.291   6.273
 2813SOL    HW2 9339   6.696   0.381   6.169
 2814SOL     OW 9340   4.920   3.216   6.731
 2814SOL    HW1 9341   4.901   3.141   6.668
 2814SOL    HW2 9342   5.018   3.233   6.733
 2815SOL     OW 9343   6.361   1.152   5.392
 2815SOL    HW1 9344   6.263   1.131   5.390
 2815SOL    HW2 9345   6.382   1.202   5.476
 2816SOL     OW 9346   6.587   5.408   3.063
 2816SOL    HW1 9347   6.511   5.348   3.086
 2816SOL    HW2 9348   6.607   5.400   2.965
 2817SOL     OW 9349   2.704   0.324   0.988
 2817SOL    HW1 9350   2.614   0.347   0.952
 2817SOL    HW2 9351   2.702   0.327   1.088
 2818SOL     OW 9352   0.023   0.563   0.471
 2818SOL    HW1 9353   6.988   0.545   0.550
 2818SOL    HW2 9354   0.037   0.477   0.420
 2819SOL     OW 9355   0.693   1.006   1.583
 2819SOL    HW1 9356   0.633   0.985   1.505
 2819SOL    HW2 9357   0.674   0.941   1.658
 2820SOL     OW 9358   1.244   1.983   3.358
 2820SOL    HW1 9359   1.288   1.961   3.271
 2820SOL    HW2 9360   1.151   2.015   3.341
 2821SOL     OW 9361   4.201   3.520   0.189
 2821SOL    HW1 9362   4.257   3.514   0.271
 2821SOL    HW2 9363   4.200   3.432   0.142
 2822SOL     OW 9364   4.619   2.295   6.783
 2822SOL    HW1 9365   4.549   2.304   6.854
 2822SOL    HW2 9366   4.656   2.203   6.784
 2823SOL     OW 9367   3.467   6.155   0.402
 2823SOL    HW1 9368   3.549   6.097   0.402
 2823SOL    HW2 9369   3.480   6.231   0.338
 2824SOL     OW 9370   3.066   0.840   3.440
 2824SOL    HW1 9371   3.084   0.787   3.522
 2824SOL    HW2 9372   3.000   0.913   3.461
 2825SOL     OW 9373   6.765   0.670   6.769
 2825SOL    HW1 9374   6.715   0.707   6.847
 2825SOL    HW2 9375   6.719   0.588   6.736
 2826SOL     OW 9376   4.469   1.830   6.793
 2826SOL    HW1 9377   4.379   1.803   6.827
 2826SOL    HW2 9378   4.537   1.763   6.822
 2827SOL     OW 9379   6.588   0.731   5.768
 2827SOL    HW1 9380   6.649   0.764   5.840
 2827SOL    HW2 9381   6.612   0.636   5.745
 2828SOL     OW 9382   3.096   1.388   0.431
 2828SOL    HW1 9383   3.019   1.427   0.379
 2828SOL    HW2 9384   3.154   1.336   0.368
 2829SOL     OW 9385   3.518   3.513   5.940
 2829SOL    HW1 9386   3.472   3.569   5.871
 2829SOL    HW2 9387   3.584   3.453   5.895
 2830SOL     OW 9388   1.260   3.180   6.181
 2830SOL    HW1 9389   1.262   3.126   6.266
 2830SOL    HW2 9390   1.171   3.169   6.138
 2831SOL     OW 9391   0.558   5.585   3.603
 2831SOL    HW1 9392   0.534   5.489   3.614
 2831SOL    HW2 9393   0.479   5.636   3.570
 2832SOL     OW 9394   1.025   0.478   2.364
 2832SOL    HW1 9395   1.058   0.568   2.336
 2832SOL    HW2 9396   1.102   0.417   2.379
 2833SOL     OW 9397   4.328   2.195   2.153
 2833SOL    HW1 9398   4.234   2.213   2.124
 2833SOL    HW2 9399   4.387   2.184   2.072
 2834SOL     OW 9400   2.230   6.193   6.015
 2834SOL    HW1 9401   2.153   6.153   5.966
 2834SOL    HW2 9402   2.310   6.134   6.005
 2835SOL     OW 9403   6.996   0.149   1.840
 2835SOL    HW1 9404   7.015   0.087   1.916
 2835SOL    HW2 9405   0.059   0.183   1.802
 2836SOL     OW 9406   5.704   0.139   2.583
 2836SOL    HW1 9407   5.697   0.216   2.520
 2836SOL    HW2 9408   5.629   0.142   2.649
 2837SOL     OW 9409   5.340   3.878   3.110
 2837SOL    HW1 9410   5.416   3.939   3.091
 2837SOL    HW2 9411   5.277   3.923   3.173
 2838SOL     OW 9412   2.179   4.884   0.472
 2838SOL    HW1 9413   2.162   4.970   0.423
 2838SOL    HW2 9414   2.105   4.868   0.538
 2839SOL     OW 9415   6.413   1.505   1.790
 2839SOL    HW1 9416   6.471   1.584   1.808
 2839SOL    HW2 9417   6.470   1.425   1.771
 2840SOL     OW 9418   2.085   0.934   3.371
 2840SOL    HW1 9419   2.091   0.875   3.291
 2840SOL    HW2 9420   2.143   0.897   3.444
 2841SOL     OW 9421   0.746   0.449   6.206
 2841SOL    HW1 9422   0.840   0.443   6.175
 2841SOL    HW2 9423   0.743   0.482   6.300
 2842SOL     OW 9424   0.135   3.637   4.387
 2842SOL    HW1 9425   0.150   3.558   4.327
 2842SOL    HW2 9426   0.125   3.606   4.481
 2843SOL     OW 9427   2.958   1.310   2.719
 2843SOL    HW1 9428   2.873   1.266   2.747
 2843SOL    HW2 9429   3.035   1.248   2.734
 2844SOL     OW 9430   0.333   5.734   0.661
 2844SOL    HW1 9431   0.329   5.762   0.757
 2844SOL    HW2 9432   0.284   5.648   0.649
 2845SOL     OW 9433   6.772   3.266   1.526
 2845SOL    HW1 9434   6.709   3.309   1.591
 2845SOL    HW2 9435   6.796   3.174   1.560
 2846SOL     OW 9436   4.278   1.127   6.623
 2846SOL    HW1 9437   4.373   1.156   6.619
 2846SOL    HW2 9438   4.259   1.085   6.712
 2847SOL     OW 9439   5.111   3.699   3.890
 2847SOL    HW1 9440   5.149   3.612   3.857
 2847SOL    HW2 9441   5.185   3.758   3.921
 2848SOL     OW 9442   1.739   3.272   5.808
 2848SOL    HW1 9443   1.784   3.262   5.897
 2848SOL    HW2 9444   1.640   3.284   5.822
 2849SOL     OW 9445   3.244   6.740   0.797
 2849SOL    HW1 9446   3.219   6.836   0.806
 2849SOL    HW2 9447   3.163   6.683   0.812
 2850SOL     OW 9448   2.891   0.209   2.262
 2850SOL    HW1 9449   2.833   0.156   2.200
 2850SOL    HW2 9450   2.987   0.195   2.238
 2851SOL     OW 9451   6.982   1.993   5.705
 2851SOL    HW1 9452   0.010   1.918   5.663
 2851SOL    HW2 9453   6.965   1.972   5.801
 2852SOL     OW 9454   6.021   5.033   0.073
 2852SOL    HW1 9455   5.969   5.015   0.156
 2852SOL    HW2 9456   5.962   5.023   7.016
 2853SOL     OW 9457   1.960   2.552   6.889
 2853SOL    HW1 9458   1.897   2.548   6.967
 2853SOL    HW2 9459   2.009   2.639   6.890
 2854SOL     OW 9460   3.947   1.014   5.004
 2854SOL    HW1 9461   3.969   1.031   5.100
 2854SOL    HW2 9462   4.030   1.027   4.948
 2855SOL     OW 9463   2.649   1.223   6.700
 2855SOL    HW1 9464   2.584   1.256   6.632
 2855SOL    HW2 9465   2.730   1.282   6.699
 2856SOL     OW 9466   1.798   2.875   6.050
 2856SOL    HW1 9467   1.878   2.841   6.101
 2856SOL    HW2 9468   1.815   2.866   5.952
 2857SOL     OW 9469   3.189   1.648   2.192
 2857SOL    HW1 9470   3.198   1.550   2.207
 2857SOL    HW2 9471   3.160   1.693   2.277
 2858SOL     OW 9472   5.239   4.233   3.048
 2858SOL    HW1 9473   5.232   4.210   2.951
 2858SOL    HW2 9474   5.149   4.254   3.084
 2859SOL     OW 9475   5.040   2.131   0.015
 2859SOL    HW1 9476   5.014   2.049   6.987
 2859SOL    HW2 9477   5.051   2.108   0.111
 2860SOL     OW 9478   3.520   1.739   1.235
 2860SOL    HW1 9479   3.522   1.815   1.300
 2860SOL    HW2 9480   3.485   1.772   1.148
 2861SOL     OW 9481   3.943   4.016   6.247
 2861SOL    HW1 9482   4.010   4.076   6.291
 2861SOL    HW2 9483   3.857   4.066   6.234
 2862SOL     OW 9484   5.511   1.951   3.193
 2862SOL    HW1 9485   5.563   2.008   3.256
 2862SOL    HW2 9486   5.429   1.999   3.164
 2863SOL     OW 9487   4.886   1.017   6.977
 2863SOL    HW1 9488   4.823   1.074   0.007
 2863SOL    HW2 9489   4.873   0.921   7.003
 2864SOL     OW 9490   4.210   1.319   1.484
 2864SOL    HW1 9491   4.184   1.318   1.581
 2864SOL    HW2 9492   4.262   1.402   1.464
 2865SOL     OW 9493   5.100   4.359   6.355
 2865SOL    HW1 9494   5.198   4.359   6.373
 2865SOL    HW2 9495   5.061   4.448   6.380
 2866SOL     OW 9496   6.377   5.913   6.662
 2866SOL    HW1 9497   6.338   6.002   6.683
 2866SOL    HW2 9498   6.476   5.922   6.649
 2867SOL     OW 9499   5.614   3.709   2.601
 2867SOL    HW1 9500   5.537   3.744   2.655
 2867SOL    HW2 9501   5.661   3.637   2.653
 2868SOL     OW 9502   6.820   2.389   5.523
 2868SOL    HW1 9503   6.885   2.378   5.448
 2868SOL    HW2 9504   6.827   2.481   5.561
 2869SOL     OW 9505   6.682   0.813   3.511
 2869SOL    HW1 9506   6.688   0.843   3.416
 2869SOL    HW2 9507   6.743   0.868   3.568
 2870SOL     OW 9508   7.022   0.821   4.287
 2870SOL    HW1 9509   0.053   0.741   4.262
 2870SOL    HW2 9510   6.973   0.854   4.206
 2871SOL     OW 9511   0.707   2.122   0.244
 2871SOL    HW1 9512   0.672   2.208   0.282
 2871SOL    HW2 9513   0.684   2.047   0.306
 2872SOL     OW 9514   3.307   1.358   2.768
 2872SOL    HW1 9515   3.405   1.352   2.747
 2872SOL    HW2 9516   3.266   1.268   2.760
 2873SOL     OW 9517   6.606   4.806   2.945
 2873SOL    HW1 9518   6.535   4.769   2.884
 2873SOL    HW2 9519   6.581   4.899   2.971
 2874SOL     OW 9520   3.295   6.405   3.634
 2874SOL    HW1 9521   3.222   6.473   3.629
 2874SOL    HW2 9522   3.297   6.365   3.726
 2875SOL     OW 9523   4.770   6.791   1.075
 2875SOL    HW1 9524   4.743   6.707   1.123
 2875SOL    HW2 9525   4.719   6.869   1.113
 2876SOL     OW 9526   0.979   0.013   1.518
 2876SOL    HW1 9527   1.052   0.064   1.474
 2876SOL    HW2 9528   0.989   0.020   1.618
 2877SOL     OW 9529   3.356   2.708   5.474
 2877SOL    HW1 9530   3.298   2.644   5.424
 2877SOL    HW2 9531   3.336   2.801   5.444
 2878SOL     OW 9532   4.435   5.291   4.585
 2878SOL    HW1 9533   4.449   5.281   4.683
 2878SOL    HW2 9534   4.411   5.202   4.545
 2879SOL     OW 9535   5.130   4.871   0.534
 2879SOL    HW1 9536   5.121   4.776   0.565
 2879SOL    HW2 9537   5.194   4.919   0.593
 2880SOL     OW 9538   5.786   6.705   1.680
 2880SOL    HW1 9539   5.709   6.726   1.619
 2880SOL    HW2 9540   5.754   6.643   1.752
 2881SOL     OW 9541   5.359   6.171   6.638
 2881SOL    HW1 9542   5.298   6.244   6.670
 2881SOL    HW2 9543   5.452   6.206   6.634
 2882SOL     OW 9544   0.669   4.402   2.377
 2882SOL    HW1 9545   0.652   4.309   2.409
 2882SOL    HW2 9546   0.742   4.401   2.308
 2883SOL     OW 9547   6.062   6.681   3.466
 2883SOL    HW1 9548   6.142   6.738   3.447
 2883SOL    HW2 9549   6.091   6.587   3.485
 2884SOL     OW 9550   0.933   5.493   2.904
 2884SOL    HW1 9551   0.912   5.442   2.821
 2884SOL    HW2 9552   1.014   5.550   2.889
 2885SOL     OW 9553   0.451   3.484   2.445
 2885SOL    HW1 9554   0.397   3.544   2.504
 2885SOL    HW2 9555   0.393   3.409   2.412
 2886SOL     OW 9556   2.903   4.124   5.717
 2886SOL    HW1 9557   2.948   4.160   5.798
 2886SOL    HW2 9558   2.867   4.033   5.736
 2887SOL     OW 9559   1.409   0.071   4.316
 2887SOL    HW1 9560   1.462   0.134   4.259
 2887SOL    HW2 9561   1.464   0.039   4.393
 2888SOL     OW 9562   0.907   4.324   0.424
 2888SOL    HW1 9563   0.930   4.243   0.371
 2888SOL    HW2 9564   0.990   4.376   0.444
 2889SOL     OW 9565   2.200   6.996   1.893
 2889SOL    HW1 9566   2.283   7.021   1.944
 2889SOL    HW2 9567   2.135   6.952   1.954
 2890SOL     OW 9568   2.381   6.878   0.925
 2890SOL    HW1 9569   2.453   6.810   0.925
 2890SOL    HW2 9570   2.420   6.969   0.938
 2891SOL     OW 9571   1.507   4.073   3.265
 2891SOL    HW1 9572   1.553   4.134   3.329
 2891SOL    HW2 9573   1.410   4.067   3.289
 2892SOL     OW 9574   5.477   3.605   6.880
 2892SOL    HW1 9575   5.568   3.605   6.838
 2892SOL    HW2 9576   5.454   3.697   6.910
 2893SOL     OW 9577   0.015   6.600   4.734
 2893SOL    HW1 9578   0.111   6.599   4.704
 2893SOL    HW2 9579   7.002   6.692   4.724
 2894SOL     OW 9580   2.724   3.259   0.459
 2894SOL    HW1 9581   2.733   3.311   0.544
 2894SOL    HW2 9582   2.770   3.171   0.468
 2895SOL     OW 9583   4.507   2.869   6.242
 2895SOL    HW1 9584   4.431   2.821   6.198
 2895SOL    HW2 9585   4.593   2.822   6.219
 2896SOL     OW 9586   4.206   5.237   6.342
 2896SOL    HW1 9587   4.253   5.231   6.254
 2896SOL    HW2 9588   4.185   5.145   6.375
 2897SOL     OW 9589   3.694   4.954   3.492
 2897SOL    HW1 9590   3.736   5.042   3.467
 2897SOL    HW2 9591   3.662   4.908   3.409
 2898SOL     OW 9592   3.989   6.057   4.230
 2898SOL    HW1 9593   4.007   6.098   4.141
 2898SOL    HW2 9594   3.986   5.957   4.220
 2899SOL     OW 9595   0.901   1.930   0.698
 2899SOL    HW1 9596   0.848   1.861   0.650
 2899SOL    HW2 9597   0.840   2.002   0.731
 2900SOL     OW 9598   2.191   5.204   5.743
 2900SOL    HW1 9599   2.101   5.174   5.711
 2900SOL    HW2 9600   2.256   5.129   5.735
 2901SOL     OW 9601   2.147   6.593   3.769
 2901SOL    HW1 9602   2.106   6.571   3.857
 2901SOL    HW2 9603   2.106   6.536   3.698
 2902SOL     OW 9604   4.873   6.598   1.572
 2902SOL    HW1 9605   4.850   6.546   1.654
 2902SOL    HW2 9606   4.807   6.672   1.559
 2903SOL     OW 9607   2.969   0.797   0.438
 2903SOL    HW1 9608   2.917   0.713   0.422
 2903SOL    HW2 9609   2.917   0.875   0.401
 2904SOL     OW 9610   2.389   3.768   5.326
 2904SOL    HW1 9611   2.310   3.716   5.291
 2904SOL    HW2 9612   2.390   3.859   5.284
 2905SOL     OW 9613   1.095   2.033   3.702
 2905SOL    HW1 9614   1.192   2.032   3.677
 2905SOL    HW2 9615   1.057   2.124   3.684
 2906SOL     OW 9616   4.559   5.723   2.566
 2906SOL    HW1 9617   4.636   5.759   2.619
 2906SOL    HW2 9618   4.540   5.785   2.490
 2907SOL     OW 9619   6.967   1.470   4.482
 2907SOL    HW1 9620   6.912   1.397   4.523
 2907SOL    HW2 9621   6.935   1.488   4.389
 2908SOL     OW 9622   4.877   6.490   4.269
 2908SOL    HW1 9623   4.841   6.578   4.297
 2908SOL    HW2 9624   4.977   6.496   4.259
 2909SOL     OW 9625   0.548   6.796   3.742
 2909SOL    HW1 9626   0.497   6.733   3.684
 2909SOL    HW2 9627   0.632   6.825   3.695
 2910SOL     OW 9628   5.017   6.743   4.529
 2910SOL    HW1 9629   4.950   6.679   4.566
 2910SOL    HW2 9630   5.042   6.809   4.599
 2911SOL     OW 9631   1.934   5.601   3.474
 2911SOL    HW1 9632   1.917   5.620   3.377
 2911SOL    HW2 9633   2.032   5.606   3.492
 2912SOL     OW 9634   4.403   6.981   6.738
 2912SOL    HW1 9635   4.453   0.043   6.754
 2912SOL    HW2 9636   4.357   6.987   6.649
 2913SOL     OW 9637   2.487   4.451   3.017
 2913SOL    HW1 9638   2.536   4.374   2.977
 2913SOL    HW2 9639   2.533   4.537   2.993
 2914SOL     OW 9640   6.021   6.324   5.952
 2914SOL    HW1 9641   5.953   6.377   5.900
 2914SOL    HW2 9642   5.986   6.232   5.970
 2915SOL     OW 9643   5.554   1.488   5.162
 2915SOL    HW1 9644   5.593   1.451   5.246
 2915SOL    HW2 9645   5.558   1.588   5.165
 2916SOL     OW 9646   6.778   6.098   6.230
 2916SOL    HW1 9647   6.700   6.114   6.291
 2916SOL    HW2 9648   6.756   6.023   6.168
 2917SOL     OW 9649   3.895   6.468   2.372
 2917SOL    HW1 9650   3.951   6.410   2.433
 2917SOL    HW2 9651   3.875   6.554   2.418
 2918SOL     OW 9652   7.016   3.990   4.049
 2918SOL    HW1 9653   0.001   4.001   3.950
 2918SOL    HW2 9654   6.937   3.933   4.070
 2919SOL     OW 9655   6.896   1.188   1.050
 2919SOL    HW1 9656   6.861   1.221   1.137
 2919SOL    HW2 9657   6.988   1.224   1.036
 2920SOL     OW 9658   2.713   2.276   2.213
 2920SOL    HW1 9659   2.767   2.237   2.287
 2920SOL    HW2 9660   2.774   2.302   2.138
 2921SOL     OW 9661   1.112   0.811   3.407
 2921SOL    HW1 9662   1.143   0.904   3.385
 2921SOL    HW2 9663   1.191   0.750   3.407
 2922SOL     OW 9664   5.132   6.617   0.713
 2922SOL    HW1 9665   5.190   6.685   0.668
 2922SOL    HW2 9666   5.077   6.569   0.644
 2923SOL     OW 9667   6.747   4.831   1.978
 2923SOL    HW1 9668   6.799   4.751   1.949
 2923SOL    HW2 9669   6.707   4.876   1.898
 2924SOL     OW 9670   0.619   1.675   6.644
 2924SOL    HW1 9671   0.697   1.618   6.668
 2924SOL    HW2 9672   0.633   1.715   6.554
 2925SOL     OW 9673   4.697   1.079   3.214
 2925SOL    HW1 9674   4.776   1.020   3.225
 2925SOL    HW2 9675   4.676   1.090   3.116
 2926SOL     OW 9676   6.776   1.271   4.592
 2926SOL    HW1 9677   6.759   1.226   4.504
 2926SOL    HW2 9678   6.778   1.203   4.665
 2927SOL     OW 9679   1.212   1.693   3.084
 2927SOL    HW1 9680   1.151   1.721   3.010
 2927SOL    HW2 9681   1.160   1.690   3.170
 2928SOL     OW 9682   0.055   2.423   5.972
 2928SOL    HW1 9683   0.038   2.516   5.940
 2928SOL    HW2 9684   0.124   2.380   5.914
 2929SOL     OW 9685   0.551   0.903   6.347
 2929SOL    HW1 9686   0.539   0.857   6.435
 2929SOL    HW2 9687   0.461   0.928   6.311
 2930SOL     OW 9688   4.204   6.437   5.178
 2930SOL    HW1 9689   4.150   6.360   5.212
 2930SOL    HW2 9690   4.204   6.436   5.078
 2931SOL     OW 9691   5.563   5.211   0.752
 2931SOL    HW1 9692   5.491   5.249   0.694
 2931SOL    HW2 9693   5.584   5.275   0.826
 2932SOL     OW 9694   1.038   5.256   1.286
 2932SOL    HW1 9695   1.077   5.341   1.252
 2932SOL    HW2 9696   0.997   5.205   1.211
 2933SOL     OW 9697   6.027   4.222   3.109
 2933SOL    HW1 9698   6.029   4.254   3.015
 2933SOL    HW2 9699   6.108   4.165   3.126
 2934SOL     OW 9700   4.773   1.495   0.395
 2934SOL    HW1 9701   4.772   1.503   0.495
 2934SOL    HW2 9702   4.708   1.561   0.356
 2935SOL     OW 9703   6.311   3.270   1.190
 2935SOL    HW1 9704   6.265   3.296   1.105
 2935SOL    HW2 9705   6.387   3.333   1.207
 2936SOL     OW 9706   4.081   5.201   2.189
 2936SOL    HW1 9707   4.053   5.106   2.185
 2936SOL    HW2 9708   4.005   5.260   2.160
 2937SOL     OW 9709   4.064   4.890   0.325
 2937SOL    HW1 9710   4.083   4.890   0.423
 2937SOL    HW2 9711   4.110   4.968   0.283
 2938SOL     OW 9712   5.092   4.745   6.186
 2938SOL    HW1 9713   5.007   4.760   6.135
 2938SOL    HW2 9714   5.095   4.807   6.265
 2939SOL     OW 9715   0.466   0.414   4.008
 2939SOL    HW1 9716   0.418   0.394   4.094
 2939SOL    HW2 9717   0.549   0.358   4.003
 2940SOL     OW 9718   6.204   6.514   6.641
 2940SOL    HW1 9719   6.244   6.448   6.578
 2940SOL    HW2 9720   6.117   6.547   6.603
 2941SOL     OW 9721   2.349   2.676   4.148
 2941SOL    HW1 9722   2.350   2.760   4.094
 2941SOL    HW2 9723   2.355   2.699   4.246
 2942SOL     OW 9724   3.011   2.578   1.527
 2942SOL    HW1 9725   3.047   2.671   1.528
 2942SOL    HW2 9726   3.083   2.514   1.556
 2943SOL     OW 9727   5.445   4.514   2.823
 2943SOL    HW1 9728   5.370   4.578   2.805
 2943SOL    HW2 9729   5.475   4.525   2.918
 2944SOL     OW 9730   2.641   5.409   5.322
 2944SOL    HW1 9731   2.719   5.346   5.332
 2944SOL    HW2 9732   2.589   5.384   5.241
 2945SOL     OW 9733   3.795   4.000   3.539
 2945SOL    HW1 9734   3.790   4.048   3.627
 2945SOL    HW2 9735   3.731   3.924   3.540
 2946SOL     OW 9736   1.150   5.642   0.034
 2946SOL    HW1 9737   1.250   5.642   0.031
 2946SOL    HW2 9738   1.114   5.615   6.968
 2947SOL     OW 9739   0.626   3.437   6.666
 2947SOL    HW1 9740   0.720   3.430   6.632
 2947SOL    HW2 9741   0.618   3.515   6.728
 2948SOL     OW 9742   6.508   4.587   5.985
 2948SOL    HW1 9743   6.487   4.681   5.959
 2948SOL    HW2 9744   6.511   4.529   5.904
 2949SOL     OW 9745   2.880   5.608   1.018
 2949SOL    HW1 9746   2.796   5.556   1.005
 2949SOL    HW2 9747   2.902   5.612   1.116
 2950SOL     OW 9748   4.869   3.762   4.480
 2950SOL    HW1 9749   4.840   3.858   4.471
 2950SOL    HW2 9750   4.810   3.705   4.423
 2951SOL     OW 9751   5.989   2.228   1.179
 2951SOL    HW1 9752   6.070   2.287   1.182
 2951SOL    HW2 9753   6.007   2.150   1.119
 2952SOL     OW 9754   0.761   5.434   5.500
 2952SOL    HW1 9755   0.844   5.447   5.446
 2952SOL    HW2 9756   0.743   5.336   5.509
 2953SOL     OW 9757   5.112   3.266   3.443
 2953SOL    HW1 9758   5.027   3.311   3.417
 2953SOL    HW2 9759   5.167   3.248   3.362
 2954SOL     OW 9760   0.869   5.406   1.485
 2954SOL    HW1 9761   0.939   5.358   1.432
 2954SOL    HW2 9762   0.798   5.439   1.423
 2955SOL     OW 9763   0.922   4.260   1.395
 2955SOL    HW1 9764   0.864   4.191   1.439
 2955SOL    HW2 9765   0.870   4.345   1.385
 2956SOL     OW 9766   5.990   6.301   2.997
 2956SOL    HW1 9767   5.933   6.246   3.058
 2956SOL    HW2 9768   6.031   6.243   2.927
 2957SOL     OW 9769   6.004   3.339   1.881
 2957SOL    HW1 9770   6.044   3.255   1.845
 2957SOL    HW2 9771   6.008   3.411   1.812
 2958SOL     OW 9772   2.585   4.633   4.681
 2958SOL    HW1 9773   2.574   4.619   4.779
 2958SOL    HW2 9774   2.681   4.653   4.660
 2959SOL     OW 9775   4.892   5.028   0.563
 2959SOL    HW1 9776   4.837   5.001   0.483
 2959SOL    HW2 9777   4.987   5.000   0.549
 2960SOL     OW 9778   3.934   0.046   6.138
 2960SOL    HW1 9779   3.973   6.997   6.196
 2960SOL    HW2 9780   3.862   0.006   6.081
 2961SOL     OW 9781   4.968   2.272   4.500
 2961SOL    HW1 9782   5.063   2.253   4.524
 2961SOL    HW2 9783   4.965   2.335   4.423
 2962SOL     OW 9784   4.500   0.886   3.721
 2962SOL    HW1 9785   4.408   0.923   3.736
 2962SOL    HW2 9786   4.568   0.953   3.750
 2963SOL     OW 9787   2.025   1.070   5.864
 2963SOL    HW1 9788   2.121   1.044   5.875
 2963SOL    HW2 9789   2.020   1.168   5.841
 2964SOL     OW 9790   6.846   0.312   2.751
 2964SOL    HW1 9791   6.801   0.361   2.826
 2964SOL    HW2 9792   6.942   0.337   2.748
 2965SOL     OW 9793   0.156   0.681   4.727
 2965SOL    HW1 9794   0.222   0.607   4.739
 2965SOL    HW2 9795   0.064   0.643   4.717
 2966SOL     OW 9796   5.800   5.544   4.256
 2966SOL    HW1 9797   5.847   5.605   4.192
 2966SOL    HW2 9798   5.705   5.533   4.227
 2967SOL     OW 9799   6.251   1.681   4.674
 2967SOL    HW1 9800   6.286   1.691   4.581
 2967SOL    HW2 9801   6.153   1.659   4.670
 2968SOL     OW 9802   0.921   3.398   6.668
 2968SOL    HW1 9803   0.955   3.457   6.741
 2968SOL    HW2 9804   0.951   3.433   6.580
 2969SOL     OW 9805   5.907   1.007   4.814
 2969SOL    HW1 9806   5.823   0.974   4.771
 2969SOL    HW2 9807   5.948   0.933   4.867
 2970SOL     OW 9808   0.976   4.012   6.270
 2970SOL    HW1 9809   1.056   3.982   6.219
 2970SOL    HW2 9810   0.946   4.101   6.237
 2971SOL     OW 9811   5.827   3.672   6.039
 2971SOL    HW1 9812   5.862   3.598   6.097
 2971SOL    HW2 9813   5.897   3.743   6.030
 2972SOL     OW 9814   6.569   4.636   6.669
 2972SOL    HW1 9815   6.532   4.552   6.630
 2972SOL    HW2 9816   6.493   4.697   6.693
 2973SOL     OW 9817   5.494   1.106   4.241
 2973SOL    HW1 9818   5.507   1.154   4.328
 2973SOL    HW2 9819   5.576   1.116   4.185
 2974SOL     OW 9820   0.998   3.893   2.539
 2974SOL    HW1 9821   0.941   3.973   2.524
 2974SOL    HW2 9822   0.950   3.811   2.508
 2975SOL     OW 9823   0.068   1.997   5.040
 2975SOL    HW1 9824   0.071   1.925   4.971
 2975SOL    HW2 9825   0.145   2.059   5.027
 2976SOL     OW 9826   4.197   2.238   2.805
 2976SOL    HW1 9827   4.222   2.230   2.708
 2976SOL    HW2 9828   4.246   2.168   2.858
 2977SOL     OW 9829   2.053   6.351   4.189
 2977SOL    HW1 9830   2.071   6.253   4.182
 2977SOL    HW2 9831   1.956   6.369   4.173
 2978SOL     OW 9832   4.513   4.620   6.528
 2978SOL    HW1 9833   4.560   4.532   6.524
 2978SOL    HW2 9834   4.554   4.683   6.463
 2979SOL     OW 9835   4.883   0.032   4.596
 2979SOL    HW1 9836   4.786   0.032   4.571
 2979SOL    HW2 9837   4.939   0.032   4.513
 2980SOL     OW 9838   1.056   6.372   3.892
 2980SOL    HW1 9839   1.141   6.395   3.941
 2980SOL    HW2 9840   1.013   6.294   3.936
 2981SOL     OW 9841   1.548   1.455   6.142
 2981SOL    HW1 9842   1.495   1.540   6.139
 2981SOL    HW2 9843   1.578   1.431   6.050
 2982SOL     OW 9844   3.935   5.834   2.926
 2982SOL    HW1 9845   3.888   5.775   2.991
 2982SOL    HW2 9846   4.000   5.893   2.975
 2983SOL     OW 9847   0.718   1.424   4.018
 2983SOL    HW1 9848   0.622   1.400   4.012
 2983SOL    HW2 9849   0.728   1.523   4.027
 2984SOL     OW 9850   5.216   5.312   1.662
 2984SOL    HW1 9851   5.240   5.228   1.613
 2984SOL    HW2 9852   5.124   5.303   1.700
 2985SOL     OW 9853   1.556   2.167   5.571
 2985SOL    HW1 9854   1.466   2.162   5.616
 2985SOL    HW2 9855   1.626   2.132   5.633
 2986SOL     OW 9856   2.305   4.158   6.601
 2986SOL    HW1 9857   2.368   4.084   6.577
 2986SOL    HW2 9858   2.353   4.223   6.660
 2987SOL     OW 9859   5.593   0.917   3.707
 2987SOL    HW1 9860   5.513   0.978   3.712
 2987SOL    HW2 9861   5.584   0.858   3.627
 2988SOL     OW 9862   0.588   6.740   2.934
 2988SOL    HW1 9863   0.684   6.767   2.922
 2988SOL    HW2 9864   0.575   6.706   3.027
 2989SOL     OW 9865   6.674   6.283   0.404
 2989SOL    HW1 9866   6.714   6.252   0.490
 2989SOL    HW2 9867   6.713   6.231   0.328
 2990SOL     OW 9868   4.322   1.738   4.516
 2990SOL    HW1 9869   4.294   1.678   4.591
 2990SOL    HW2 9870   4.248   1.744   4.449
 2991SOL     OW 9871   0.140   4.063   6.209
 2991SOL    HW1 9872   0.087   4.141   6.176
 2991SOL    HW2 9873   0.132   3.987   6.145
 2992SOL     OW 9874   1.822   5.158   5.974
 2992SOL    HW1 9875   1.751   5.188   6.038
 2992SOL    HW2 9876   1.868   5.239   5.936
 2993SOL     OW 9877   0.786   5.124   1.647
 2993SOL    HW1 9878   0.720   5.149   1.717
 2993SOL    HW2 9879   0.839   5.204   1.621
 2994SOL     OW 9880   3.604   6.691   0.190
 2994SOL    HW1 9881   3.521   6.747   0.196
 2994SOL    HW2 9882   3.679   6.737   0.237
 2995SOL     OW 9883   1.897   3.568   6.917
 2995SOL    HW1 9884   1.886   3.633   6.842
 2995SOL    HW2 9885   1.807   3.536   6.948
 2996SOL     OW 9886   2.141   6.794   4.308
 2996SOL    HW1 9887   2.128   6.823   4.402
 2996SOL    HW2 9888   2.233   6.757   4.297
 2997SOL     OW 9889   5.264   0.371   2.298
 2997SOL    HW1 9890   5.240   0.431   2.221
 2997SOL    HW2 9891   5.271   0.426   2.381
 2998SOL     OW 9892   5.196   0.146   4.516
 2998SOL    HW1 9893   5.122   0.164   4.451
 2998SOL    HW2 9894   5.270   0.098   4.469
 2999SOL     OW 9895   3.477   4.938   3.923
 2999SOL    HW1 9896   3.391   4.933   3.974
 2999SOL    HW2 9897   3.553   4.926   3.986
 3000SOL     OW 9898   2.184   4.277   6.971
 3000SOL    HW1 9899   2.121   4.245   6.900
 3000SOL    HW2 9900   2.263   4.216   6.975
 3001SOL     OW 9901   5.644   5.829   6.759
 3001SOL    HW1 9902   5.671   5.734   6.773
 3001SOL    HW2 9903   5.578   5.856   6.829
 3002SOL     OW 9904   4.112   6.873   5.857
 3002SOL    HW1 9905   4.122   6.960   5.905
 3002SOL    HW2 9906   4.040   6.882   5.788
 3003SOL     OW 9907   1.909   0.090   6.835
 3003SOL    HW1 9908   1.917   0.188   6.818
 3003SOL    HW2 9909   1.911   0.040   6.748
 3004SOL     OW 9910   1.279   5.073   3.562
 3004SOL    HW1 9911   1.317   4.986   3.532
 3004SOL    HW2 9912   1.347   5.122   3.617
 3005SOL     OW 9913   2.933   2.267   0.092
 3005SOL    HW1 9914   2.972   2.345   0.044
 3005SOL    HW2 9915   2.927   2.189   0.030
 3006SOL     OW 9916   5.009   2.273   6.723
 3006SOL    HW1 9917   5.105   2.247   6.721
 3006SOL    HW2 9918   4.988   2.320   6.809
 3007SOL     OW 9919   5.600   5.214   1.402
 3007SOL    HW1 9920   5.596   5.260   1.313
 3007SOL    HW2 9921   5.558   5.123   1.395
 3008SOL     OW 9922   3.403   0.654   6.452
 3008SOL    HW1 9923   3.443   0.617   6.368
 3008SOL    HW2 9924   3.304   0.637   6.451
 3009SOL     OW 9925   0.743   0.164   3.285
 3009SOL    HW1 9926   0.763   0.088   3.222
 3009SOL    HW2 9927   0.826   0.186   3.337
 3010SOL     OW 9928   3.061   6.464   3.953
 3010SOL    HW1 9929   3.118   6.541   3.926
 3010SOL    HW2 9930   2.974   6.467   3.903
 3011SOL     OW 9931   5.416   1.539   1.031
 3011SOL    HW1 9932   5.338   1.477   1.024
 3011SOL    HW2 9933   5.500   1.485   1.042
 3012SOL     OW 9934   0.960   3.601   5.070
 3012SOL    HW1 9935   1.036   3.558   5.022
 3012SOL    HW2 9936   0.901   3.530   5.109
 3013SOL     OW 9937   5.356   5.612   4.733
 3013SOL    HW1 9938   5.445   5.566   4.734
 3013SOL    HW2 9939   5.329   5.635   4.826
 3014SOL     OW 9940   5.088   3.389   4.602
 3014SOL    HW1 9941   5.078   3.487   4.612
 3014SOL    HW2 9942   5.168   3.358   4.654
 3015SOL     OW 9943   2.559   2.274   0.369
 3015SOL    HW1 9944   2.613   2.327   0.435
 3015SOL    HW2 9945   2.515   2.198   0.416
 3016SOL     OW 9946   2.793   5.711   3.784
 3016SOL    HW1 9947   2.829   5.804   3.777
 3016SOL    HW2 9948   2.768   5.692   3.880
 3017SOL     OW 9949   1.098   5.247   1.844
 3017SOL    HW1 9950   1.058   5.240   1.753
 3017SOL    HW2 9951   1.184   5.196   1.846
 3018SOL     OW 9952   2.083   6.744   5.747
 3018SOL    HW1 9953   2.030   6.732   5.663
 3018SOL    HW2 9954   2.048   6.684   5.818
 3019SOL     OW 9955   1.832   0.070   0.100
 3019SOL    HW1 9956   1.896   0.145   0.114
 3019SOL    HW2 9957   1.831   0.045   0.003
 3020SOL     OW 9958   4.118   3.606   1.953
 3020SOL    HW1 9959   4.143   3.522   1.905
 3020SOL    HW2 9960   4.176   3.681   1.922
 3021SOL     OW 9961   3.238   0.121   6.951
 3021SOL    HW1 9962   3.150   0.168   6.958
 3021SOL    HW2 9963   3.223   0.022   6.956
 3022SOL     OW 9964   3.842   4.898   4.363
 3022SOL    HW1 9965   3.822   4.862   4.454
 3022SOL    HW2 9966   3.899   4.980   4.372
 3023SOL     OW 9967   4.938   0.353   2.637
 3023SOL    HW1 9968   5.029   0.313   2.648
 3023SOL    HW2 9969   4.914   0.354   2.540
 3024SOL     OW 9970   4.471   6.299   5.773
 3024SOL    HW1 9971   4.413   6.234   5.724
 3024SOL    HW2 9972   4.490   6.378   5.715
 3025SOL     OW 9973   3.829   1.387   0.555
 3025SOL    HW1 9974   3.806   1.474   0.512
 3025SOL    HW2 9975   3.883   1.405   0.638
 3026SOL     OW 9976   1.774   1.851   0.693
 3026SOL    HW1 9977   1.687   1.901   0.696
 3026SOL    HW2 9978   1.781   1.803   0.606
 3027SOL     OW 9979   4.233   0.701   2.436
 3027SOL    HW1 9980   4.237   0.743   2.526
 3027SOL    HW2 9981   4.326   0.688   2.401
 3028SOL     OW 9982   1.910   3.970   5.751
 3028SOL    HW1 9983   1.850   4.043   5.718
 3028SOL    HW2 9984   2.005   3.994   5.731
 3029SOL     OW 9985   0.292   3.731   4.749
 3029SOL    HW1 9986   0.228   3.664   4.711
 3029SOL    HW2 9987   0.362   3.753   4.681
 3030SOL     OW 9988   1.001   2.544   5.818
 3030SOL    HW1 9989   0.936   2.591   5.877
 3030SOL    HW2 9990   1.030   2.605   5.744
 3031SOL     OW 9991   0.715   3.047   0.791
 3031SOL    HW1 9992   0.814   3.034   0.788
 3031SOL    HW2 9993   0.694   3.142   0.769
 3032SOL     OW 9994   4.511   6.569   1.604
 3032SOL    HW1 9995   4.566   6.499   1.648
 3032SOL    HW2 9996   4.432   6.526   1.560
 3033SOL     OW 9997   0.262   2.327   1.800
 3033SOL    HW1 9998   0.307   2.251   1.847
 3033SOL    HW2 9999   0.318   2.409   1.809
 3034SOL     OW10000   1.690   5.631   3.615
 3034SOL    HW110001   1.778   5.589   3.637
 3034SOL    HW210002   1.617   5.581   3.662
 3035SOL     OW10003   6.810   3.099   6.917
 3035SOL    HW110004   6.776   3.132   7.005
 3035SOL    HW210005   6.854   3.010   6.929
 3036SOL     OW10006   1.625   2.671   6.581
 3036SOL    HW110007   1.620   2.768   6.556
 3036SOL    HW210008   1.576   2.656   6.666
 3037SOL     OW10009   1.197   6.154   4.581
 3037SOL    HW110010   1.294   6.139   4.598
 3037SOL    HW210011   1.147   6.069   4.598
 3038SOL     OW10012   5.560   5.894   6.493
 3038SOL    HW110013   5.557   5.884   6.593
 3038SOL    HW210014   5.607   5.980   6.470
 3039SOL     OW10015   0.014   4.224   1.443
 3039SOL    HW110016   0.038   4.198   1.349
 3039SOL    HW210017   6.949   4.270   1.442
 3040SOL     OW10018   4.485   3.388   6.105
 3040SOL    HW110019   4.395   3.414   6.070
 3040SOL    HW210020   4.487   3.289   6.120
 3041SOL     OW10021   2.272   2.963   4.780
 3041SOL    HW110022   2.338   2.983   4.852
 3041SOL    HW210023   2.231   3.049   4.748
 3042SOL     OW10024   5.111   6.439   1.931
 3042SOL    HW110025   5.143   6.533   1.922
 3042SOL    HW210026   5.175   6.387   1.988
 3043SOL     OW10027   0.856   5.718   1.241
 3043SOL    HW110028   0.909   5.743   1.322
 3043SOL    HW210029   0.836   5.620   1.243
 3044SOL     OW10030   3.341   4.430   6.053
 3044SOL    HW110031   3.399   4.507   6.026
 3044SOL    HW210032   3.375   4.391   6.139
 3045SOL     OW10033   4.834   1.356   3.299
 3045SOL    HW110034   4.800   1.417   3.370
 3045SOL    HW210035   4.821   1.261   3.328
 3046SOL     OW10036   2.627   1.932   6.602
 3046SOL    HW110037   2.578   1.896   6.682
 3046SOL    HW210038   2.562   1.947   6.527
 3047SOL     OW10039   4.950   0.046   2.153
 3047SOL    HW110040   4.944   0.044   2.252
 3047SOL    HW210041   4.963   6.976   2.118
 3048SOL     OW10042   3.843   2.351   1.696
 3048SOL    HW110043   3.887   2.440   1.701
 3048SOL    HW210044   3.756   2.353   1.747
 3049SOL     OW10045   0.973   6.455   1.629
 3049SOL    HW110046   0.965   6.502   1.541
 3049SOL    HW210047   1.010   6.518   1.697
 3050SOL     OW10048   3.456   0.743   2.661
 3050SOL    HW110049   3.524   0.815   2.648
 3050SOL    HW210050   3.478   0.690   2.743
 3051SOL     OW10051   1.799   4.316   6.838
 3051SOL    HW110052   1.816   4.238   6.898
 3051SOL    HW210053   1.831   4.400   6.882
 3052SOL     OW10054   5.282   6.815   2.183
 3052SOL    HW110055   5.285   6.778   2.090
 3052SOL    HW210056   5.271   6.914   2.179
 3053SOL     OW10057   0.242   1.425   6.826
 3053SOL    HW110058   0.300   1.418   6.907
 3053SOL    HW210059   0.299   1.448   6.747
 3054SOL     OW10060   0.070   2.418   1.441
 3054SOL    HW110061   0.161   2.439   1.478
 3054SOL    HW210062   0.070   2.324   1.407
 3055SOL     OW10063   5.145   6.642   3.966
 3055SOL    HW110064   5.160   6.605   4.057
 3055SOL    HW210065   5.188   6.732   3.959
 3056SOL     OW10066   6.441   1.418   5.340
 3056SOL    HW110067   6.420   1.321   5.355
 3056SOL    HW210068   6.464   1.432   5.244
 3057SOL     OW10069   4.272   5.974   3.315
 3057SOL    HW110070   4.326   6.052   3.283
 3057SOL    HW210071   4.231   5.996   3.404
 3058SOL     OW10072   6.829   5.664   0.984
 3058SOL    HW110073   6.863   5.613   0.904
 3058SOL    HW210074   6.812   5.759   0.957
 3059SOL     OW10075   2.635   2.094   4.484
 3059SOL    HW110076   2.632   2.102   4.584
 3059SOL    HW210077   2.615   2.183   4.443
 3060SOL     OW10078   0.761   5.861   0.459
 3060SOL    HW110079   0.739   5.814   0.373
 3060SOL    HW210080   0.679   5.869   0.515
 3061SOL     OW10081   5.483   0.681   5.727
 3061SOL    HW110082   5.409   0.641   5.780
 3061SOL    HW210083   5.532   0.749   5.782
 3062SOL     OW10084   1.311   6.537   6.996
 3062SOL    HW110085   1.409   6.551   6.979
 3062SOL    HW210086   1.281   6.595   0.048
 3063SOL     OW10087   2.904   5.172   1.683
 3063SOL    HW110088   2.849   5.089   1.686
 3063SOL    HW210089   2.930   5.199   1.775
 3064SOL     OW10090   5.321   3.866   3.972
 3064SOL    HW110091   5.317   3.826   4.064
 3064SOL    HW210092   5.416   3.867   3.941
 3065SOL     OW10093   2.153   0.760   0.014
 3065SOL    HW110094   2.197   0.834   6.987
 3065SOL    HW210095   2.187   0.759   0.108
 3066SOL     OW10096   4.834   5.450   0.805
 3066SOL    HW110097   4.796   5.387   0.737
 3066SOL    HW210098   4.823   5.411   0.896
 3067SOL     OW10099   3.639   2.074   4.746
 3067SOL    HW110100   3.564   2.068   4.812
 3067SOL    HW210101   3.725   2.089   4.794
 3068SOL     OW10102   5.740   6.580   1.236
 3068SOL    HW110103   5.677   6.503   1.253
 3068SOL    HW210104   5.827   6.545   1.202
 3069SOL     OW10105   6.969   6.489   2.059
 3069SOL    HW110106   0.038   6.527   2.063
 3069SOL    HW210107   6.926   6.513   1.972
 3070SOL     OW10108   0.998   0.995   2.251
 3070SOL    HW110109   1.037   1.034   2.335
 3070SOL    HW210110   0.958   1.068   2.195
 3071SOL     OW10111   6.112   5.969   3.060
 3071SOL    HW110112   6.034   6.005   3.113
 3071SOL    HW210113   6.102   5.996   2.964
 3072SOL     OW10114   1.380   6.792   0.350
 3072SOL    HW110115   1.327   6.875   0.365
 3072SOL    HW210116   1.329   6.730   0.290
 3073SOL     OW10117   0.060   3.286   5.220
 3073SOL    HW110118   6.992   3.274   5.180
 3073SOL    HW210119   0.051   3.318   5.314
 3074SOL     OW10120   5.234   3.251   0.943
 3074SOL    HW110121   5.265   3.346   0.934
 3074SOL    HW210122   5.241   3.205   0.855
 3075SOL     OW10123   2.266   5.878   1.787
 3075SOL    HW110124   2.260   5.942   1.864
 3075SOL    HW210125   2.362   5.858   1.768
 3076SOL     OW10126   0.181   0.635   4.178
 3076SOL    HW110127   0.188   0.549   4.228
 3076SOL    HW210128   0.260   0.693   4.199
 3077SOL     OW10129   4.778   5.193   2.647
 3077SOL    HW110130   4.836   5.273   2.667
 3077SOL    HW210131   4.685   5.224   2.626
 3078SOL     OW10132   0.972   3.376   1.594
 3078SOL    HW110133   0.965   3.371   1.694
 3078SOL    HW210134   0.880   3.385   1.555
 3079SOL     OW10135   2.418   1.955   4.724
 3079SOL    HW110136   2.422   1.875   4.665
 3079SOL    HW210137   2.429   2.038   4.668
 3080SOL     OW10138   4.932   4.119   3.603
 3080SOL    HW110139   5.027   4.092   3.584
 3080SOL    HW210140   4.926   4.219   3.605
 3081SOL     OW10141   0.393   2.509   5.802
 3081SOL    HW110142   0.488   2.530   5.780
 3081SOL    HW210143   0.372   2.416   5.772
 3082SOL     OW10144   3.200   0.044   4.064
 3082SOL    HW110145   3.262   0.112   4.103
 3082SOL    HW210146   3.204   6.983   4.118
 3083SOL     OW10147   4.639   6.385   3.168
 3083SOL    HW110148   4.689   6.304   3.200
 3083SOL    HW210149   4.656   6.460   3.232
 3084SOL     OW10150   5.014   4.318   4.481
 3084SOL    HW110151   5.101   4.272   4.466
 3084SOL    HW210152   4.958   4.310   4.398
 3085SOL     OW10153   0.168   4.673   1.716
 3085SOL    HW110154   0.260   4.682   1.679
 3085SOL    HW210155   0.109   4.743   1.676
 3086SOL     OW10156   4.033   2.200   2.150
 3086SOL    HW110157   4.018   2.214   2.248
 3086SOL    HW210158   3.949   2.225   2.100
 3087SOL     OW10159   1.286   4.950   3.966
 3087SOL    HW110160   1.283   4.971   3.868
 3087SOL    HW210161   1.361   5.002   4.009
 3088SOL     OW10162   2.461   5.049   5.887
 3088SOL    HW110163   2.463   4.960   5.840
 3088SOL    HW210164   2.370   5.062   5.927
 3089SOL     OW10165   1.306   3.339   0.373
 3089SOL    HW110166   1.367   3.407   0.333
 3089SOL    HW210167   1.322   3.251   0.329
 3090SOL     OW10168   1.934   2.103   2.027
 3090SOL    HW110169   1.837   2.126   2.034
 3090SOL    HW210170   1.979   2.168   1.965
 3091SOL     OW10171   1.331   0.210   0.649
 3091SOL    HW110172   1.374   0.300   0.638
 3091SOL    HW210173   1.274   0.209   0.731
 3092SOL     OW10174   5.015   6.509   0.496
 3092SOL    HW110175   4.916   6.518   0.493
 3092SOL    HW210176   5.052   6.524   0.404
 3093SOL     OW10177   5.241   6.057   6.124
 3093SOL    HW110178   5.176   6.131   6.143
 3093SOL    HW210179   5.196   5.969   6.138
 3094SOL     OW10180   2.191   6.444   4.412
 3094SOL    HW110181   2.134   6.513   4.454
 3094SOL    HW210182   2.156   6.421   4.321
 3095SOL     OW10183   2.025   5.507   4.448
 3095SOL    HW110184   2.005   5.528   4.544
 3095SOL    HW210185   2.011   5.589   4.393
 3096SOL     OW10186   1.359   6.700   4.857
 3096SOL    HW110187   1.432   6.740   4.802
 3096SOL    HW210188   1.275   6.696   4.804
 3097SOL     OW10189   0.189   2.620   0.946
 3097SOL    HW110190   0.237   2.534   0.930
 3097SOL    HW210191   0.251   2.696   0.931
 3098SOL     OW10192   2.689   3.465   0.639
 3098SOL    HW110193   2.685   3.556   0.597
 3098SOL    HW210194   2.669   3.473   0.737
 3099SOL     OW10195   0.635   6.403   3.746
 3099SOL    HW110196   0.692   6.475   3.784
 3099SOL    HW210197   0.660   6.387   3.651
 3100SOL     OW10198   6.616   6.940   4.847
 3100SOL    HW110199   6.545   6.879   4.882
 3100SOL    HW210200   6.620   6.934   4.748
 3101SOL     OW10201   5.015   6.272   5.834
 3101SOL    HW110202   5.016   6.312   5.743
 3101SOL    HW210203   4.921   6.252   5.861
 3102SOL     OW10204   0.220   5.135   2.915
 3102SOL    HW110205   0.242   5.135   3.012
 3102SOL    HW210206   0.259   5.054   2.872
 3103SOL     OW10207   3.506   0.866   1.885
 3103SOL    HW110208   3.427   0.876   1.823
 3103SOL    HW210209   3.515   0.771   1.912
 3104SOL     OW10210   5.096   6.633   5.236
 3104SOL    HW110211   5.053   6.699   5.299
 3104SOL    HW210212   5.132   6.682   5.157
 3105SOL     OW10213   6.174   4.347   1.753
 3105SOL    HW110214   6.235   4.310   1.682
 3105SOL    HW210215   6.135   4.272   1.805
 3106SOL     OW10216   5.771   1.531   2.519
 3106SOL    HW110217   5.701   1.460   2.526
 3106SOL    HW210218   5.794   1.565   2.611
 3107SOL     OW10219   3.979   0.810   4.129
 3107SOL    HW110220   4.006   0.899   4.166
 3107SOL    HW210221   4.059   0.765   4.087
 3108SOL     OW10222   1.248   0.307   4.413
 3108SOL    HW110223   1.265   0.303   4.315
 3108SOL    HW210224   1.212   0.397   4.437
 3109SOL     OW10225   5.823   6.295   1.887
 3109SOL    HW110226   5.777   6.379   1.859
 3109SOL    HW210227   5.778   6.258   1.969
 3110SOL     OW10228   1.726   1.736   3.619
 3110SOL    HW110229   1.699   1.755   3.713
 3110SOL    HW210230   1.644   1.731   3.561
 3111SOL     OW10231   5.996   6.108   3.950
 3111SOL    HW110232   6.031   6.027   3.995
 3111SOL    HW210233   5.953   6.168   4.017
 3112SOL     OW10234   5.169   2.673   6.208
 3112SOL    HW110235   5.215   2.625   6.133
 3112SOL    HW210236   5.184   2.623   6.294
 3113SOL     OW10237   1.598   6.046   4.048
 3113SOL    HW110238   1.626   6.050   3.952
 3113SOL    HW210239   1.500   6.030   4.054
 3114SOL     OW10240   4.174   2.001   6.953
 3114SOL    HW110241   4.185   2.037   6.860
 3114SOL    HW210242   4.079   2.014   6.983
 3115SOL     OW10243   4.342   3.454   6.759
 3115SOL    HW110244   4.400   3.375   6.737
 3115SOL    HW210245   4.301   3.489   6.675
 3116SOL     OW10246   0.352   3.636   6.653
 3116SOL    HW110247   0.302   3.678   6.577
 3116SOL    HW210248   0.327   3.540   6.661
 3117SOL     OW10249   4.261   3.598   5.398
 3117SOL    HW110250   4.357   3.569   5.395
 3117SOL    HW210251   4.211   3.542   5.464
 3118SOL     OW10252   0.328   4.435   0.745
 3118SOL    HW110253   0.298   4.480   0.661
 3118SOL    HW210254   0.427   4.436   0.750
 3119SOL     OW10255   2.190   3.317   5.366
 3119SOL    HW110256   2.201   3.357   5.457
 3119SOL    HW210257   2.254   3.241   5.355
 3120SOL     OW10258   2.872   6.749   3.943
 3120SOL    HW110259   2.892   6.823   4.007
 3120SOL    HW210260   2.830   6.673   3.993
 3121SOL     OW10261   0.123   1.554   2.566
 3121SOL    HW110262   0.117   1.643   2.610
 3121SOL    HW210263   0.050   1.495   2.599
 3122SOL     OW10264   3.024   6.004   5.646
 3122SOL    HW110265   3.070   5.956   5.721
 3122SOL    HW210266   2.932   5.967   5.633
 3123SOL     OW10267   3.680   1.125   4.049
 3123SOL    HW110268   3.689   1.025   4.049
 3123SOL    HW210269   3.622   1.154   4.125
 3124SOL     OW10270   4.159   6.401   4.911
 3124SOL    HW110271   4.224   6.382   4.838
 3124SOL    HW210272   4.084   6.457   4.875
 3125SOL     OW10273   6.509   2.136   5.173
 3125SOL    HW110274   6.460   2.071   5.232
 3125SOL    HW210275   6.605   2.141   5.203
 3126SOL     OW10276   4.618   4.812   6.365
 3126SOL    HW110277   4.568   4.880   6.310
 3126SOL    HW210278   4.717   4.826   6.353
 3127SOL     OW10279   0.624   2.958   3.815
 3127SOL    HW110280   0.713   2.934   3.776
 3127SOL    HW210281   0.554   2.948   3.745
 3128SOL     OW10282   1.945   0.333   6.732
 3128SOL    HW110283   1.987   0.356   6.820
 3128SOL    HW210284   1.911   0.416   6.689
 3129SOL     OW10285   0.568   4.399   6.602
 3129SOL    HW110286   0.476   4.361   6.592
 3129SOL    HW210287   0.636   4.327   6.592
 3130SOL     OW10288   1.555   4.491   1.913
 3130SOL    HW110289   1.619   4.523   1.983
 3130SOL    HW210290   1.552   4.391   1.915
 3131SOL     OW10291   6.847   2.686   1.709
 3131SOL    HW110292   6.784   2.757   1.679
 3131SOL    HW210293   6.822   2.655   1.800
 3132SOL     OW10294   4.329   4.963   5.823
 3132SOL    HW110295   4.387   5.042   5.840
 3132SOL    HW210296   4.307   4.918   5.909
 3133SOL     OW10297   2.984   2.262   3.443
 3133SOL    HW110298   3.051   2.317   3.392
 3133SOL    HW210299   3.012   2.257   3.539
 3134SOL     OW10300   4.543   4.569   1.551
 3134SOL    HW110301   4.572   4.477   1.525
 3134SOL    HW210302   4.463   4.595   1.496
 3135SOL     OW10303   4.800   0.706   5.219
 3135SOL    HW110304   4.796   0.723   5.318
 3135SOL    HW210305   4.895   0.701   5.189
 3136SOL     OW10306   5.162   0.770   0.172
 3136SOL    HW110307   5.113   0.790   0.257
 3136SOL    HW210308   5.161   0.850   0.113
 3137SOL     OW10309   6.346   0.624   3.412
 3137SOL    HW110310   6.425   0.642   3.352
 3137SOL    HW210311   6.355   0.679   3.495
 3138SOL     OW10312   6.455   2.512   4.035
 3138SOL    HW110313   6.531   2.492   3.973
 3138SOL    HW210314   6.460   2.450   4.114
 3139SOL     OW10315   4.500   6.962   0.616
 3139SOL    HW110316   4.491   6.889   0.684
 3139SOL    HW210317   4.492   6.922   0.524
 3140SOL     OW10318   5.446   0.028   6.726
 3140SOL    HW110319   5.531   7.001   6.742
 3140SOL    HW210320   5.410   0.005   6.635
 3141SOL     OW10321   0.294   5.947   6.207
 3141SOL    HW110322   0.360   5.960   6.134
 3141SOL    HW210323   0.302   5.854   6.244
 3142SOL     OW10324   4.779   6.472   1.797
 3142SOL    HW110325   4.817   6.473   1.890
 3142SOL    HW210326   4.694   6.420   1.797
 3143SOL     OW10327   6.859   2.718   0.072
 3143SOL    HW110328   6.902   2.806   0.049
 3143SOL    HW210329   6.897   2.646   0.014
 3144SOL     OW10330   3.416   3.744   1.056
 3144SOL    HW110331   3.420   3.839   1.087
 3144SOL    HW210332   3.498   3.695   1.087
 3145SOL     OW10333   2.076   4.896   2.483
 3145SOL    HW110334   2.138   4.973   2.465
 3145SOL    HW210335   2.061   4.888   2.581
 3146SOL     OW10336   1.483   0.089   3.137
 3146SOL    HW110337   1.403   0.140   3.106
 3146SOL    HW210338   1.527   0.044   3.059
 3147SOL     OW10339   3.118   5.129   6.795
 3147SOL    HW110340   3.073   5.148   6.707
 3147SOL    HW210341   3.069   5.057   6.843
 3148SOL     OW10342   5.171   5.880   4.677
 3148SOL    HW110343   5.211   5.892   4.767
 3148SOL    HW210344   5.240   5.845   4.614
 3149SOL     OW10345   3.183   0.456   5.290
 3149SOL    HW110346   3.217   0.543   5.255
 3149SOL    HW210347   3.110   0.473   5.357
 3150SOL     OW10348   6.599   5.792   4.104
 3150SOL    HW110349   6.564   5.820   4.193
 3150SOL    HW210350   6.531   5.813   4.034
 3151SOL     OW10351   4.229   1.150   6.168
 3151SOL    HW110352   4.175   1.088   6.112
 3151SOL    HW210353   4.201   1.142   6.264
 3152SOL     OW10354   1.156   5.532   0.746
 3152SOL    HW110355   1.071   5.501   0.703
 3152SOL    HW210356   1.233   5.483   0.705
 3153SOL     OW10357   6.345   4.532   1.846
 3153SOL    HW110358   6.393   4.484   1.919
 3153SOL    HW210359   6.306   4.466   1.782
 3154SOL     OW10360   6.217   1.723   0.723
 3154SOL    HW110361   6.255   1.805   0.766
 3154SOL    HW210362   6.140   1.748   0.664
 3155SOL     OW10363   6.604   5.602   1.330
 3155SOL    HW110364   6.593   5.538   1.253
 3155SOL    HW210365   6.679   5.570   1.388
 3156SOL     OW10366   2.925   3.442   3.389
 3156SOL    HW110367   2.911   3.539   3.368
 3156SOL    HW210368   2.998   3.406   3.331
 3157SOL     OW10369   2.156   2.709   4.806
 3157SOL    HW110370   2.195   2.795   4.773
 3157SOL    HW210371   2.060   2.724   4.831
 3158SOL     OW10372   4.361   0.164   2.042
 3158SOL    HW110373   4.328   0.145   1.950
 3158SOL    HW210374   4.388   0.260   2.049
 3159SOL     OW10375   5.653   0.972   0.576
 3159SOL    HW110376   5.663   0.931   0.485
 3159SOL    HW210377   5.743   0.981   0.618
 3160SOL     OW10378   6.915   6.433   5.199
 3160SOL    HW110379   6.815   6.439   5.206
 3160SOL    HW210380   6.945   6.475   5.113
 3161SOL     OW10381   1.670   1.186   3.424
 3161SOL    HW110382   1.613   1.110   3.455
 3161SOL    HW210383   1.766   1.158   3.424
 3162SOL     OW10384   1.093   6.125   0.800
 3162SOL    HW110385   1.040   6.043   0.824
 3162SOL    HW210386   1.067   6.156   0.709
 3163SOL     OW10387   3.993   2.310   6.926
 3163SOL    HW110388   4.050   2.304   7.008
 3163SOL    HW210389   3.896   2.315   6.952
 3164SOL     OW10390   4.203   4.452   1.409
 3164SOL    HW110391   4.132   4.522   1.407
 3164SOL    HW210392   4.244   4.448   1.500
 3165SOL     OW10393   1.434   5.863   1.686
 3165SOL    HW110394   1.433   5.771   1.726
 3165SOL    HW210395   1.525   5.882   1.649
 3166SOL     OW10396   4.980   1.258   6.513
 3166SOL    HW110397   4.937   1.221   6.595
 3166SOL    HW210398   5.045   1.191   6.477
 3167SOL     OW10399   6.914   4.228   1.808
 3167SOL    HW110400   6.978   4.151   1.805
 3167SOL    HW210401   6.958   4.309   1.770
 3168SOL     OW10402   5.505   2.877   0.248
 3168SOL    HW110403   5.447   2.905   0.324
 3168SOL    HW210404   5.448   2.839   0.175
 3169SOL     OW10405   1.322   3.229   5.502
 3169SOL    HW110406   1.376   3.157   5.460
 3169SOL    HW210407   1.226   3.219   5.475
 3170SOL     OW10408   4.657   0.784   1.074
 3170SOL    HW110409   4.740   0.731   1.089
 3170SOL    HW210410   4.608   0.794   1.161
 3171SOL     OW10411   0.272   6.432   1.148
 3171SOL    HW110412   0.323   6.351   1.175
 3171SOL    HW210413   0.299   6.509   1.207
 3172SOL     OW10414   0.281   5.107   5.716
 3172SOL    HW110415   0.352   5.039   5.700
 3172SOL    HW210416   0.250   5.145   5.629
 3173SOL     OW10417   3.142   1.865   1.318
 3173SOL    HW110418   3.134   1.835   1.223
 3173SOL    HW210419   3.236   1.896   1.335
 3174SOL     OW10420   2.640   2.707   6.459
 3174SOL    HW110421   2.582   2.788   6.459
 3174SOL    HW210422   2.586   2.627   6.434
 3175SOL     OW10423   0.313   6.511   0.486
 3175SOL    HW110424   0.382   6.527   0.415
 3175SOL    HW210425   0.354   6.522   0.576
 3176SOL     OW10426   2.185   4.954   4.891
 3176SOL    HW110427   2.154   4.908   4.808
 3176SOL    HW210428   2.123   4.933   4.967
 3177SOL     OW10429   4.903   4.956   5.366
 3177SOL    HW110430   4.854   5.041   5.348
 3177SOL    HW210431   4.839   4.885   5.394
 3178SOL     OW10432   6.890   2.765   1.140
 3178SOL    HW110433   6.837   2.850   1.143
 3178SOL    HW210434   6.903   2.730   1.233
 3179SOL     OW10435   2.007   2.698   2.101
 3179SOL    HW110436   2.097   2.722   2.139
 3179SOL    HW210437   1.981   2.606   2.132
 3180SOL     OW10438   4.721   0.520   6.910
 3180SOL    HW110439   4.725   0.590   6.839
 3180SOL    HW210440   4.625   0.497   6.928
 3181SOL     OW10441   0.986   1.130   3.101
 3181SOL    HW110442   0.972   1.228   3.110
 3181SOL    HW210443   1.014   1.109   3.007
 3182SOL     OW10444   1.762   1.089   5.593
 3182SOL    HW110445   1.663   1.102   5.598
 3182SOL    HW210446   1.798   1.075   5.685
 3183SOL     OW10447   5.190   3.606   1.341
 3183SOL    HW110448   5.229   3.514   1.332
 3183SOL    HW210449   5.094   3.598   1.370
 3184SOL     OW10450   2.254   2.338   2.744
 3184SOL    HW110451   2.283   2.259   2.689
 3184SOL    HW210452   2.292   2.421   2.704
 3185SOL     OW10453   5.965   0.973   6.673
 3185SOL    HW110454   5.999   1.001   6.584
 3185SOL    HW210455   6.036   0.920   6.720
 3186SOL     OW10456   3.591   1.482   2.842
 3186SOL    HW110457   3.548   1.566   2.876
 3186SOL    HW210458   3.680   1.505   2.803
 3187SOL     OW10459   4.565   3.979   0.214
 3187SOL    HW110460   4.514   4.016   0.136
 3187SOL    HW210461   4.661   4.009   0.208
 3188SOL     OW10462   3.425   6.015   4.059
 3188SOL    HW110463   3.342   5.964   4.081
 3188SOL    HW210464   3.482   5.961   3.997
 3189SOL     OW10465   2.375   0.661   2.902
 3189SOL    HW110466   2.307   0.663   2.829
 3189SOL    HW210467   2.357   0.583   2.962
 3190SOL     OW10468   0.794   6.458   1.376
 3190SOL    HW110469   0.757   6.541   1.332
 3190SOL    HW210470   0.751   6.446   1.465
 3191SOL     OW10471   3.596   6.723   0.651
 3191SOL    HW110472   3.593   6.733   0.750
 3191SOL    HW210473   3.691   6.721   0.621
 3192SOL     OW10474   0.498   2.327   1.266
 3192SOL    HW110475   0.443   2.247   1.290
 3192SOL    HW210476   0.443   2.410   1.277
 3193SOL     OW10477   4.403   1.753   5.744
 3193SOL    HW110478   4.341   1.775   5.668
 3193SOL    HW210479   4.349   1.728   5.824
 3194SOL     OW10480   0.811   2.716   5.965
 3194SOL    HW110481   0.763   2.744   6.048
 3194SOL    HW210482   0.891   2.775   5.952
 3195SOL     OW10483   1.785   2.667   2.599
 3195SOL    HW110484   1.841   2.586   2.583
 3195SOL    HW210485   1.715   2.647   2.667
 3196SOL     OW10486   6.990   0.442   4.661
 3196SOL    HW110487   6.893   0.465   4.648
 3196SOL    HW210488   7.015   0.459   4.756
 3197SOL     OW10489   1.524   5.432   3.864
 3197SOL    HW110490   1.434   5.399   3.892
 3197SOL    HW210491   1.542   5.521   3.907
 3198SOL     OW10492   6.303   2.479   6.478
 3198SOL    HW110493   6.250   2.553   6.438
 3198SOL    HW210494   6.247   2.431   6.546
 3199SOL     OW10495   4.373   2.801   1.496
 3199SOL    HW110496   4.403   2.719   1.447
 3199SOL    HW210497   4.274   2.798   1.509
 3200SOL     OW10498   0.073   1.575   1.663
 3200SOL    HW110499   0.019   1.491   1.655
 3200SOL    HW210500   0.145   1.562   1.731
 3201SOL     OW10501   4.868   4.390   4.695
 3201SOL    HW110502   4.808   4.385   4.615
 3201SOL    HW210503   4.962   4.372   4.667
 3202SOL     OW10504   1.135   4.520   2.118
 3202SOL    HW110505   1.054   4.463   2.104
 3202SOL    HW210506   1.195   4.477   2.186
 3203SOL     OW10507   5.672   1.032   0.960
 3203SOL    HW110508   5.616   1.076   0.889
 3203SOL    HW210509   5.717   1.103   1.015
 3204SOL     OW10510   4.773   5.964   1.373
 3204SOL    HW110511   4.743   6.057   1.396
 3204SOL    HW210512   4.836   5.932   1.444
 3205SOL     OW10513   0.312   4.073   6.730
 3205SOL    HW110514   0.399   4.034   6.700
 3205SOL    HW210515   0.238   4.042   6.670
 3206SOL     OW10516   6.642   6.936   5.934
 3206SOL    HW110517   6.646   6.983   6.022
 3206SOL    HW210518   6.704   6.857   5.935
 3207SOL     OW10519   0.429   1.496   6.652
 3207SOL    HW110520   0.467   1.421   6.597
 3207SOL    HW210521   0.501   1.564   6.669
 3208SOL     OW10522   5.062   6.582   5.973
 3208SOL    HW110523   5.022   6.592   5.883
 3208SOL    HW210524   5.136   6.515   5.970
 3209SOL     OW10525   3.167   5.776   3.548
 3209SOL    HW110526   3.140   5.779   3.645
 3209SOL    HW210527   3.226   5.854   3.528
 3210SOL     OW10528   0.533   3.509   1.617
 3210SOL    HW110529   0.552   3.503   1.715
 3210SOL    HW210530   0.611   3.551   1.571
 3211SOL     OW10531   2.433   4.331   0.636
 3211SOL    HW110532   2.391   4.298   0.551
 3211SOL    HW210533   2.396   4.280   0.713
 3212SOL     OW10534   3.908   1.509   6.572
 3212SOL    HW110535   3.827   1.563   6.547
 3212SOL    HW210536   3.942   1.539   6.661
 3213SOL     OW10537   5.873   4.755   3.204
 3213SOL    HW110538   5.901   4.707   3.121
 3213SOL    HW210539   5.789   4.715   3.239
 3214SOL     OW10540   4.895   6.080   0.645
 3214SOL    HW110541   4.823   6.147   0.662
 3214SOL    HW210542   4.854   5.994   0.614
 3215SOL     OW10543   6.712   3.386   0.781
 3215SOL    HW110544   6.802   3.346   0.760
 3215SOL    HW210545   6.701   3.391   0.880
 3216SOL     OW10546   5.055   5.805   2.032
 3216SOL    HW110547   5.094   5.894   2.008
 3216SOL    HW210548   4.992   5.777   1.959
 3217SOL     OW10549   0.875   5.007   2.477
 3217SOL    HW110550   0.853   5.075   2.547
 3217SOL    HW210551   0.806   4.935   2.478
 3218SOL     OW10552   4.342   6.195   3.074
 3218SOL    HW110553   4.362   6.227   2.982
 3218SOL    HW210554   4.321   6.272   3.133
 3219SOL     OW10555   0.521   0.441   3.486
 3219SOL    HW110556   0.439   0.474   3.534
 3219SOL    HW210557   0.587   0.515   3.480
 3220SOL     OW10558   6.133   5.329   6.012
 3220SOL    HW110559   6.095   5.259   6.071
 3220SOL    HW210560   6.074   5.341   5.932
 3221SOL     OW10561   3.226   6.342   2.131
 3221SOL    HW110562   3.234   6.336   2.031
 3221SOL    HW210563   3.182   6.428   2.156
 3222SOL     OW10564   4.866   1.954   3.553
 3222SOL    HW110565   4.803   2.015   3.602
 3222SOL    HW210566   4.870   1.866   3.599
 3223SOL     OW10567   1.752   5.131   6.708
 3223SOL    HW110568   1.758   5.231   6.703
 3223SOL    HW210569   1.793   5.091   6.627
 3224SOL     OW10570   4.448   4.925   6.181
 3224SOL    HW110571   4.524   4.977   6.142
 3224SOL    HW210572   4.361   4.965   6.151
 3225SOL     OW10573   4.273   2.230   5.580
 3225SOL    HW110574   4.304   2.186   5.664
 3225SOL    HW210575   4.267   2.329   5.594
 3226SOL     OW10576   1.933   1.344   4.777
 3226SOL    HW110577   1.930   1.442   4.759
 3226SOL    HW210578   1.982   1.327   4.863
 3227SOL     OW10579   2.896   2.251   6.717
 3227SOL    HW110580   2.839   2.205   6.649
 3227SOL    HW210581   2.944   2.327   6.674
 3228SOL     OW10582   5.249   3.290   4.394
 3228SOL    HW110583   5.189   3.247   4.327
 3228SOL    HW210584   5.200   3.301   4.481
 3229SOL     OW10585   3.165   1.434   5.831
 3229SOL    HW110586   3.091   1.487   5.789
 3229SOL    HW210587   3.217   1.387   5.759
 3230SOL     OW10588   0.464   2.827   4.091
 3230SOL    HW110589   0.444   2.905   4.032
 3230SOL    HW210590   0.381   2.773   4.103
 3231SOL     OW10591   3.772   5.720   2.178
 3231SOL    HW110592   3.682   5.695   2.142
 3231SOL    HW210593   3.842   5.666   2.132
 3232SOL     OW10594   4.550   5.416   4.349
 3232SOL    HW110595   4.636   5.366   4.343
 3232SOL    HW210596   4.485   5.364   4.405
 3233SOL     OW10597   1.715   3.944   1.295
 3233SOL    HW110598   1.699   3.893   1.211
 3233SOL    HW210599   1.761   4.031   1.273
 3234SOL     OW10600   6.826   2.333   0.709
 3234SOL    HW110601   6.797   2.329   0.804
 3234SOL    HW210602   6.826   2.428   0.678
 3235SOL     OW10603   5.436   6.025   1.848
 3235SOL    HW110604   5.450   6.124   1.841
 3235SOL    HW210605   5.473   5.992   1.935
 3236SOL     OW10606   1.548   3.278   1.933
 3236SOL    HW110607   1.490   3.215   1.985
 3236SOL    HW210608   1.641   3.274   1.968
 3237SOL     OW10609   5.097   0.559   3.575
 3237SOL    HW110610   5.089   0.524   3.481
 3237SOL    HW210611   5.166   0.631   3.578
 3238SOL     OW10612   0.134   5.476   6.744
 3238SOL    HW110613   0.104   5.423   6.824
 3238SOL    HW210614   0.209   5.536   6.770
 3239SOL     OW10615   6.101   1.445   0.708
 3239SOL    HW110616   6.004   1.470   0.701
 3239SOL    HW210617   6.154   1.526   0.732
 3240SOL     OW10618   0.980   6.553   4.992
 3240SOL    HW110619   1.021   6.560   4.901
 3240SOL    HW210620   0.956   6.645   5.024
 3241SOL     OW10621   5.483   1.398   4.225
 3241SOL    HW110622   5.392   1.360   4.212
 3241SOL    HW210623   5.521   1.365   4.312
 3242SOL     OW10624   3.265   4.549   0.554
 3242SOL    HW110625   3.217   4.472   0.595
 3242SOL    HW210626   3.207   4.590   0.483
 3243SOL     OW10627   5.655   5.132   0.384
 3243SOL    HW110628   5.656   5.103   0.480
 3243SOL    HW210629   5.655   5.232   0.380
 3244SOL     OW10630   5.016   5.368   6.615
 3244SOL    HW110631   5.044   5.321   6.699
 3244SOL    HW210632   5.095   5.379   6.554
 3245SOL     OW10633   4.474   2.445   5.829
 3245SOL    HW110634   4.443   2.450   5.924
 3245SOL    HW210635   4.532   2.364   5.818
 3246SOL     OW10636   6.468   0.684   3.083
 3246SOL    HW110637   6.412   0.767   3.086
 3246SOL    HW210638   6.408   0.604   3.075
 3247SOL     OW10639   6.974   5.050   2.841
 3247SOL    HW110640   0.034   5.106   2.844
 3247SOL    HW210641   6.914   5.078   2.915
 3248SOL     OW10642   5.850   3.579   2.028
 3248SOL    HW110643   5.915   3.628   1.970
 3248SOL    HW210644   5.843   3.484   1.997
 3249SOL     OW10645   4.273   4.157   5.816
 3249SOL    HW110646   4.176   4.170   5.838
 3249SOL    HW210647   4.314   4.094   5.881
 3250SOL     OW10648   5.743   0.068   3.362
 3250SOL    HW110649   5.682   7.019   3.329
 3250SOL    HW210650   5.835   0.030   3.376
 3251SOL     OW10651   4.010   1.129   2.454
 3251SOL    HW110652   4.107   1.123   2.476
 3251SOL    HW210653   3.983   1.049   2.401
 3252SOL     OW10654   3.385   1.252   1.944
 3252SOL    HW110655   3.295   1.229   1.908
 3252SOL    HW210656   3.412   1.342   1.912
 3253SOL     OW10657   4.980   3.026   2.586
 3253SOL    HW110658   4.961   2.928   2.592
 3253SOL    HW210659   4.948   3.071   2.670
 3254SOL     OW10660   3.584   5.036   4.660
 3254SOL    HW110661   3.495   5.042   4.705
 3254SOL    HW210662   3.577   5.074   4.568
 3255SOL     OW10663   4.599   5.611   0.757
 3255SOL    HW110664   4.545   5.621   0.840
 3255SOL    HW210665   4.690   5.578   0.779
 3256SOL     OW10666   5.494   0.414   6.066
 3256SOL    HW110667   5.538   0.504   6.065
 3256SOL    HW210668   5.560   0.346   6.097
 3257SOL     OW10669   1.134   2.125   1.152
 3257SOL    HW110670   1.110   2.032   1.125
 3257SOL    HW210671   1.055   2.170   1.193
 3258SOL     OW10672   4.553   6.328   1.769
 3258SOL    HW110673   4.457   6.355   1.754
 3258SOL    HW210674   4.557   6.230   1.786
 3259SOL     OW10675   4.476   6.059   4.651
 3259SOL    HW110676   4.396   6.059   4.591
 3259SOL    HW210677   4.558   6.038   4.598
 3260SOL     OW10678   1.872   2.496   1.067
 3260SOL    HW110679   1.933   2.468   0.993
 3260SOL    HW210680   1.887   2.592   1.088
 3261SOL     OW10681   4.198   6.375   0.524
 3261SOL    HW110682   4.192   6.317   0.443
 3261SOL    HW210683   4.248   6.327   0.596
 3262SOL     OW10684   3.864   1.564   2.746
 3262SOL    HW110685   3.864   1.660   2.773
 3262SOL    HW210686   3.858   1.557   2.647
 3263SOL     OW10687   4.905   0.194   3.485
 3263SOL    HW110688   4.962   0.140   3.547
 3263SOL    HW210689   4.874   0.136   3.410
 3264SOL     OW10690   0.482   5.017   6.948
 3264SOL    HW110691   0.384   5.037   6.948
 3264SOL    HW210692   0.530   5.086   7.001
 3265SOL     OW10693   4.262   2.094   6.341
 3265SOL    HW110694   4.180   2.124   6.390
 3265SOL    HW210695   4.329   2.058   6.407
 3266SOL     OW10696   0.190   2.405   0.482
 3266SOL    HW110697   0.149   2.405   0.573
 3266SOL    HW210698   0.183   2.313   0.443
 3267SOL     OW10699   3.656   2.422   1.038
 3267SOL    HW110700   3.583   2.354   1.039
 3267SOL    HW210701   3.690   2.433   0.944
 3268SOL     OW10702   1.252   3.788   6.524
 3268SOL    HW110703   1.274   3.758   6.617
 3268SOL    HW210704   1.334   3.786   6.467
 3269SOL     OW10705   4.314   5.309   1.684
 3269SOL    HW110706   4.309   5.341   1.779
 3269SOL    HW210707   4.324   5.209   1.684
 3270SOL     OW10708   1.200   5.758   4.607
 3270SOL    HW110709   1.291   5.800   4.609
 3270SOL    HW210710   1.136   5.813   4.661
 3271SOL     OW10711   5.359   2.529   2.905
 3271SOL    HW110712   5.298   2.580   2.844
 3271SOL    HW210713   5.451   2.568   2.900
 3272SOL     OW10714   3.796   5.422   0.809
 3272SOL    HW110715   3.802   5.431   0.709
 3272SOL    HW210716   3.852   5.346   0.840
 3273SOL     OW10717   0.652   6.410   1.613
 3273SOL    HW110718   0.573   6.422   1.553
 3273SOL    HW210719   0.620   6.378   1.702
 3274SOL     OW10720   4.142   2.356   0.133
 3274SOL    HW110721   4.093   2.347   0.220
 3274SOL    HW210722   4.211   2.283   0.126
 3275SOL     OW10723   1.352   0.294   6.735
 3275SOL    HW110724   1.448   0.277   6.712
 3275SOL    HW210725   1.313   0.213   6.779
 3276SOL     OW10726   3.440   4.879   6.578
 3276SOL    HW110727   3.404   4.897   6.670
 3276SOL    HW210728   3.399   4.943   6.513
 3277SOL     OW10729   5.891   0.563   6.591
 3277SOL    HW110730   5.796   0.579   6.618
 3277SOL    HW210731   5.903   0.467   6.567
 3278SOL     OW10732   6.859   0.755   5.352
 3278SOL    HW110733   6.819   0.835   5.397
 3278SOL    HW210734   6.786   0.691   5.328
 3279SOL     OW10735   0.516   0.514   1.191
 3279SOL    HW110736   0.551   0.554   1.106
 3279SOL    HW210737   0.420   0.539   1.203
 3280SOL     OW10738   2.546   5.528   6.059
 3280SOL    HW110739   2.597   5.479   6.130
 3280SOL    HW210740   2.521   5.465   5.986
 3281SOL     OW10741   1.859   5.400   0.850
 3281SOL    HW110742   1.956   5.420   0.857
 3281SOL    HW210743   1.810   5.445   0.925
 3282SOL     OW10744   2.780   5.336   4.320
 3282SOL    HW110745   2.746   5.430   4.311
 3282SOL    HW210746   2.757   5.301   4.410
 3283SOL     OW10747   2.928   1.882   1.972
 3283SOL    HW110748   2.914   1.857   2.068
 3283SOL    HW210749   2.886   1.971   1.954
 3284SOL     OW10750   6.305   7.003   6.423
 3284SOL    HW110751   6.339   6.950   6.345
 3284SOL    HW210752   6.381   0.000   6.485
 3285SOL     OW10753   0.150   2.698   3.167
 3285SOL    HW110754   0.086   2.651   3.106
 3285SOL    HW210755   0.228   2.639   3.186
 3286SOL     OW10756   3.920   2.977   3.861
 3286SOL    HW110757   3.932   2.883   3.890
 3286SOL    HW210758   3.919   3.037   3.941
 3287SOL     OW10759   1.099   5.797   0.755
 3287SOL    HW110760   1.118   5.700   0.744
 3287SOL    HW210761   1.153   5.833   0.831
 3288SOL     OW10762   0.640   5.700   0.217
 3288SOL    HW110763   0.606   5.732   0.129
 3288SOL    HW210764   0.564   5.677   0.277
 3289SOL     OW10765   1.429   6.455   5.643
 3289SOL    HW110766   1.492   6.531   5.625
 3289SOL    HW210767   1.475   6.368   5.626
 3290SOL     OW10768   0.491   6.856   1.812
 3290SOL    HW110769   0.404   6.831   1.771
 3290SOL    HW210770   0.559   6.869   1.740
 3291SOL     OW10771   1.167   6.403   6.798
 3291SOL    HW110772   1.230   6.453   6.857
 3291SOL    HW210773   1.214   6.378   6.713
 3292SOL     OW10774   0.715   1.531   0.016
 3292SOL    HW110775   0.769   1.477   6.975
 3292SOL    HW210776   0.669   1.605   6.990
 3293SOL     OW10777   6.941   2.229   3.163
 3293SOL    HW110778   6.977   2.228   3.256
 3293SOL    HW210779   6.849   2.268   3.163
 3294SOL     OW10780   0.180   0.276   6.282
 3294SOL    HW110781   0.135   0.248   6.197
 3294SOL    HW210782   0.113   0.319   6.342
 3295SOL     OW10783   2.205   2.210   1.046
 3295SOL    HW110784   2.262   2.141   1.091
 3295SOL    HW210785   2.233   2.219   0.951
 3296SOL     OW10786   1.950   6.636   0.902
 3296SOL    HW110787   1.999   6.719   0.930
 3296SOL    HW210788   1.995   6.597   0.822
 3297SOL     OW10789   3.140   1.638   4.238
 3297SOL    HW110790   3.121   1.549   4.279
 3297SOL    HW210791   3.226   1.635   4.187
 3298SOL     OW10792   6.276   3.248   3.001
 3298SOL    HW110793   6.250   3.164   3.048
 3298SOL    HW210794   6.266   3.236   2.903
 3299SOL     OW10795   2.388   6.716   3.826
 3299SOL    HW110796   2.460   6.669   3.775
 3299SOL    HW210797   2.304   6.662   3.822
 3300SOL     OW10798   0.080   0.163   5.997
 3300SOL    HW110799   0.166   0.149   5.948
 3300SOL    HW210800   0.023   0.228   5.947
 3301SOL     OW10801   1.684   3.949   3.602
 3301SOL    HW110802   1.605   3.902   3.563
 3301SOL    HW210803   1.748   3.974   3.529
 3302SOL     OW10804   1.368   5.210   4.490
 3302SOL    HW110805   1.318   5.127   4.513
 3302SOL    HW210806   1.423   5.239   4.568
 3303SOL     OW10807   3.055   2.910   1.896
 3303SOL    HW110808   3.066   2.963   1.981
 3303SOL    HW210809   3.040   2.814   1.918
 3304SOL     OW10810   1.376   4.819   3.494
 3304SOL    HW110811   1.442   4.753   3.528
 3304SOL    HW210812   1.376   4.819   3.394
 3305SOL     OW10813   2.564   1.839   2.277
 3305SOL    HW110814   2.631   1.766   2.272
 3305SOL    HW210815   2.559   1.888   2.190
 3306SOL     OW10816   2.498   4.437   3.520
 3306SOL    HW110817   2.523   4.473   3.611
 3306SOL    HW210818   2.458   4.511   3.465
 3307SOL     OW10819   6.980   6.138   6.495
 3307SOL    HW110820   0.036   6.091   6.532
 3307SOL    HW210821   6.988   6.236   6.512
 3308SOL     OW10822   4.529   5.809   6.735
 3308SOL    HW110823   4.552   5.863   6.654
 3308SOL    HW210824   4.512   5.715   6.709
 3309SOL     OW10825   0.642   4.984   2.809
 3309SOL    HW110826   0.633   5.025   2.899
 3309SOL    HW210827   0.555   4.991   2.760
 3310SOL     OW10828   6.873   3.986   2.829
 3310SOL    HW110829   6.797   3.993   2.893
 3310SOL    HW210830   6.936   4.062   2.842
 3311SOL     OW10831   2.619   5.161   0.683
 3311SOL    HW110832   2.528   5.148   0.722
 3311SOL    HW210833   2.658   5.247   0.717
 3312SOL     OW10834   2.740   3.997   6.230
 3312SOL    HW110835   2.672   4.059   6.193
 3312SOL    HW210836   2.756   4.018   6.327
 3313SOL     OW10837   1.107   5.556   3.252
 3313SOL    HW110838   1.202   5.581   3.269
 3313SOL    HW210839   1.089   5.554   3.154
 3314SOL     OW10840   1.589   2.447   4.932
 3314SOL    HW110841   1.551   2.416   5.020
 3314SOL    HW210842   1.598   2.547   4.934
 3315SOL     OW10843   7.003   2.739   4.297
 3315SOL    HW110844   0.045   2.791   4.242
 3315SOL    HW210845   0.014   2.647   4.311
 3316SOL     OW10846   3.699   1.455   5.592
 3316SOL    HW110847   3.766   1.394   5.634
 3316SOL    HW210848   3.737   1.547   5.586
 3317SOL     OW10849   4.585   2.808   1.710
 3317SOL    HW110850   4.568   2.881   1.776
 3317SOL    HW210851   4.508   2.802   1.647
 3318SOL     OW10852   2.717   6.980   6.748
 3318SOL    HW110853   2.720   0.005   6.661
 3318SOL    HW210854   2.694   0.020   6.822
 3319SOL     OW10855   0.027   6.343   3.537
 3319SOL    HW110856   6.964   6.393   3.545
 3319SOL    HW210857   0.098   6.390   3.589
 3320SOL     OW10858   5.713   1.424   6.004
 3320SOL    HW110859   5.696   1.462   5.913
 3320SOL    HW210860   5.811   1.405   6.014
 3321SOL     OW10861   3.135   3.108   2.106
 3321SOL    HW110862   3.097   3.176   2.043
 3321SOL    HW210863   3.231   3.093   2.085
 3322SOL     OW10864   4.619   2.167   1.456
 3322SOL    HW110865   4.681   2.115   1.515
 3322SOL    HW210866   4.635   2.265   1.469
 3323SOL     OW10867   2.076   3.851   7.018
 3323SOL    HW110868   2.119   3.766   6.989
 3323SOL    HW210869   1.977   3.844   7.006
 3324SOL     OW10870   1.226   4.088   0.104
 3324SOL    HW110871   1.303   4.150   0.120
 3324SOL    HW210872   1.143   4.128   0.142
 3325SOL     OW10873   2.169   3.138   6.935
 3325SOL    HW110874   2.188   3.063   6.873
 3325SOL    HW210875   2.118   3.104   7.015
 3326SOL     OW10876   5.540   1.715   1.490
 3326SOL    HW110877   5.582   1.625   1.492
 3326SOL    HW210878   5.463   1.715   1.426
 3327SOL     OW10879   2.090   6.529   0.691
 3327SOL    HW110880   2.049   6.465   0.626
 3327SOL    HW210881   2.187   6.539   0.672
 3328SOL     OW10882   4.790   1.459   2.009
 3328SOL    HW110883   4.789   1.532   1.942
 3328SOL    HW210884   4.809   1.496   2.100
 3329SOL     OW10885   4.684   0.171   5.284
 3329SOL    HW110886   4.633   0.102   5.233
 3329SOL    HW210887   4.721   0.239   5.220
 3330SOL     OW10888   5.776   6.586   2.131
 3330SOL    HW110889   5.875   6.575   2.126
 3330SOL    HW210890   5.754   6.683   2.145
 3331SOL     OW10891   1.431   3.329   3.049
 3331SOL    HW110892   1.354   3.344   3.111
 3331SOL    HW210893   1.499   3.402   3.062
 3332SOL     OW10894   5.805   3.937   0.233
 3332SOL    HW110895   5.878   3.960   0.297
 3332SOL    HW210896   5.809   3.839   0.210
 3333SOL     OW10897   2.996   3.468   6.866
 3333SOL    HW110898   3.025   3.521   6.786
 3333SOL    HW210899   2.935   3.523   6.922
 3334SOL     OW10900   1.881   3.072   1.963
 3334SOL    HW110901   1.808   3.055   1.896
 3334SOL    HW210902   1.964   3.024   1.935
 3335SOL     OW10903   4.545   5.408   5.251
 3335SOL    HW110904   4.526   5.466   5.331
 3335SOL    HW210905   4.477   5.428   5.180
 3336SOL     OW10906   2.255   0.032   4.431
 3336SOL    HW110907   2.261   7.017   4.523
 3336SOL    HW210908   2.346   0.034   4.389
 3337SOL     OW10909   3.508   3.384   2.076
 3337SOL    HW110910   3.550   3.408   1.988
 3337SOL    HW210911   3.566   3.416   2.150
 3338SOL     OW10912   0.404   2.554   1.820
 3338SOL    HW110913   0.405   2.653   1.808
 3338SOL    HW210914   0.470   2.528   1.890
 3339SOL     OW10915   1.942   0.001   5.948
 3339SOL    HW110916   1.946   0.100   5.931
 3339SOL    HW210917   1.848   7.000   5.974
 3340SOL     OW10918   4.846   0.491   4.066
 3340SOL    HW110919   4.792   0.421   4.018
 3340SOL    HW210920   4.867   0.459   4.158
 3341SOL     OW10921   2.654   4.608   3.229
 3341SOL    HW110922   2.661   4.583   3.325
 3341SOL    HW210923   2.560   4.593   3.197
 3342SOL     OW10924   6.907   0.749   3.046
 3342SOL    HW110925   6.977   0.770   2.978
 3342SOL    HW210926   6.841   0.684   3.007
 3343SOL     OW10927   5.189   5.403   6.390
 3343SOL    HW110928   5.170   5.364   6.300
 3343SOL    HW210929   5.205   5.502   6.381
 3344SOL     OW10930   6.292   2.986   3.166
 3344SOL    HW110931   6.390   2.970   3.177
 3344SOL    HW210932   6.245   2.898   3.155
 3345SOL     OW10933   0.794   3.909   6.638
 3345SOL    HW110934   0.804   3.825   6.692
 3345SOL    HW210935   0.845   3.899   6.552
 3346SOL     OW10936   1.932   0.917   0.046
 3346SOL    HW110937   1.973   0.828   0.029
 3346SOL    HW210938   1.960   0.951   0.136
 3347SOL     OW10939   1.287   2.396   5.971
 3347SOL    HW110940   1.259   2.327   6.037
 3347SOL    HW210941   1.316   2.352   5.886
 3348SOL     OW10942   4.193   3.937   5.679
 3348SOL    HW110943   4.163   3.860   5.736
 3348SOL    HW210944   4.210   4.017   5.737
 3349SOL     OW10945   2.187   4.449   3.633
 3349SOL    HW110946   2.250   4.418   3.562
 3349SOL    HW210947   2.134   4.372   3.667
 3350SOL     OW10948   0.954   3.903   5.893
 3350SOL    HW110949   0.873   3.891   5.951
 3350SOL    HW210950   0.926   3.928   5.801
 3351SOL     OW10951   5.678   0.892   1.353
 3351SOL    HW110952   5.713   0.806   1.391
 3351SOL    HW210953   5.700   0.896   1.256
 3352SOL     OW10954   5.089   2.764   0.522
 3352SOL    HW110955   5.149   2.708   0.465
 3352SOL    HW210956   5.132   2.779   0.611
 3353SOL     OW10957   1.963   0.181   0.650
 3353SOL    HW110958   1.921   0.128   0.577
 3353SOL    HW210959   2.061   0.162   0.653
 3354SOL     OW10960   3.946   3.083   5.255
 3354SOL    HW110961   3.882   3.010   5.279
 3354SOL    HW210962   4.040   3.049   5.263
 3355SOL     OW10963   2.243   1.480   5.891
 3355SOL    HW110964   2.192   1.458   5.808
 3355SOL    HW210965   2.340   1.485   5.870
 3356SOL     OW10966   0.618   6.550   6.371
 3356SOL    HW110967   0.599   6.554   6.273
 3356SOL    HW210968   0.711   6.516   6.385
 3357SOL     OW10969   3.326   3.570   1.476
 3357SOL    HW110970   3.411   3.544   1.521
 3357SOL    HW210971   3.346   3.614   1.388
 3358SOL     OW10972   5.716   1.306   3.306
 3358SOL    HW110973   5.642   1.361   3.267
 3358SOL    HW210974   5.683   1.257   3.386
 3359SOL     OW10975   0.242   4.998   3.792
 3359SOL    HW110976   0.300   5.017   3.871
 3359SOL    HW210977   0.297   5.001   3.708
 3360SOL     OW10978   1.076   2.343   6.632
 3360SOL    HW110979   1.138   2.381   6.563
 3360SOL    HW210980   1.121   2.342   6.721
 3361SOL     OW10981   0.768   0.113   4.447
 3361SOL    HW110982   0.845   0.151   4.396
 3361SOL    HW210983   0.770   0.013   4.442
 3362SOL     OW10984   4.239   1.619   3.366
 3362SOL    HW110985   4.243   1.542   3.303
 3362SOL    HW210986   4.149   1.662   3.361
 3363SOL     OW10987   6.903   3.495   1.856
 3363SOL    HW110988   6.999   3.479   1.878
 3363SOL    HW210989   6.893   3.583   1.810
 3364SOL     OW10990   1.459   4.533   2.710
 3364SOL    HW110991   1.364   4.528   2.740
 3364SOL    HW210992   1.518   4.496   2.782
 3365SOL     OW10993   1.749   2.515   4.590
 3365SOL    HW110994   1.781   2.466   4.671
 3365SOL    HW210995   1.741   2.451   4.513
 3366SOL     OW10996   6.391   3.851   3.820
 3366SOL    HW110997   6.438   3.766   3.841
 3366SOL    HW210998   6.384   3.907   3.902
 3367SOL     OW10999   3.285   3.347   3.837
 3367SOL    HW111000   3.290   3.334   3.738
 3367SOL    HW211001   3.245   3.266   3.879
 3368SOL     OW11002   0.670   5.791   6.720
 3368SOL    HW111003   0.719   5.840   6.793
 3368SOL    HW211004   0.735   5.740   6.664
 3369SOL     OW11005   4.651   1.920   1.291
 3369SOL    HW111006   4.713   1.918   1.213
 3369SOL    HW211007   4.643   2.014   1.325
 3370SOL     OW11008   5.704   6.870   2.136
 3370SOL    HW111009   5.694   6.919   2.222
 3370SOL    HW211010   5.725   6.935   2.063
 3371SOL     OW11011   2.124   3.732   2.019
 3371SOL    HW111012   2.193   3.760   1.952
 3371SOL    HW211013   2.143   3.639   2.050
 3372SOL     OW11014   6.489   2.293   0.401
 3372SOL    HW111015   6.524   2.370   0.348
 3372SOL    HW211016   6.417   2.246   0.349
 3373SOL     OW11017   0.543   2.004   2.387
 3373SOL    HW111018   0.458   1.995   2.335
 3373SOL    HW211019   0.591   1.917   2.387
 3374SOL     OW11020   1.063   0.083   3.929
 3374SOL    HW111021   1.077   0.173   3.972
 3374SOL    HW211022   1.040   0.016   4.000
 3375SOL     OW11023   6.688   4.659   0.549
 3375SOL    HW111024   6.614   4.594   0.566
 3375SOL    HW211025   6.703   4.715   0.631
 3376SOL     OW11026   2.945   3.625   4.893
 3376SOL    HW111027   3.010   3.560   4.934
 3376SOL    HW211028   2.897   3.674   4.966
 3377SOL     OW11029   6.740   5.174   4.352
 3377SOL    HW111030   6.780   5.174   4.444
 3377SOL    HW211031   6.791   5.112   4.293
 3378SOL     OW11032   0.059   0.124   0.204
 3378SOL    HW111033   0.024   0.211   0.237
 3378SOL    HW211034   0.047   0.118   0.104
 3379SOL     OW11035   0.796   2.832   4.787
 3379SOL    HW111036   0.755   2.743   4.806
 3379SOL    HW211037   0.725   2.902   4.788
 3380SOL     OW11038   4.177   4.980   5.355
 3380SOL    HW111039   4.181   4.934   5.266
 3380SOL    HW211040   4.258   4.956   5.408
 3381SOL     OW11041   0.132   3.093   1.540
 3381SOL    HW111042   0.206   3.027   1.524
 3381SOL    HW211043   0.047   3.058   1.501
 3382SOL     OW11044   0.399   3.209   0.961
 3382SOL    HW111045   0.471   3.145   0.931
 3382SOL    HW211046   0.311   3.161   0.963
 3383SOL     OW11047   3.406   5.086   0.072
 3383SOL    HW111048   3.423   5.161   0.135
 3383SOL    HW211049   3.482   5.021   0.076
 3384SOL     OW11050   2.818   4.560   0.715
 3384SOL    HW111051   2.906   4.548   0.761
 3384SOL    HW211052   2.758   4.484   0.738
 3385SOL     OW11053   6.493   3.100   3.842
 3385SOL    HW111054   6.404   3.091   3.886
 3385SOL    HW211055   6.552   3.025   3.871
 3386SOL     OW11056   6.413   4.673   0.248
 3386SOL    HW111057   6.463   4.588   0.230
 3386SOL    HW211058   6.352   4.693   0.172
 3387SOL     OW11059   4.858   0.544   2.947
 3387SOL    HW111060   4.840   0.642   2.935
 3387SOL    HW211061   4.949   0.531   2.986
 3388SOL     OW11062   5.007   4.576   1.597
 3388SOL    HW111063   5.007   4.504   1.528
 3388SOL    HW211064   5.020   4.536   1.687
 3389SOL     OW11065   6.576   5.531   6.791
 3389SOL    HW111066   6.502   5.596   6.808
 3389SOL    HW211067   6.573   5.501   6.696
 3390SOL     OW11068   4.247   6.130   6.171
 3390SOL    HW111069   4.198   6.044   6.160
 3390SOL    HW211070   4.231   6.188   6.091
 3391SOL     OW11071   5.247   2.033   3.167
 3391SOL    HW111072   5.243   2.128   3.136
 3391SOL    HW211073   5.159   2.006   3.205
 3392SOL     OW11074   3.217   6.814   4.219
 3392SOL    HW111075   3.165   6.837   4.302
 3392SOL    HW211076   3.289   6.748   4.241
 3393SOL     OW11077   4.905   6.833   0.213
 3393SOL    HW111078   4.949   6.827   0.123
 3393SOL    HW211079   4.970   6.808   0.284
 3394SOL     OW11080   3.832   5.058   0.503
 3394SOL    HW111081   3.831   4.969   0.547
 3394SOL    HW211082   3.926   5.092   0.499
 3395SOL     OW11083   4.827   1.725   3.114
 3395SOL    HW111084   4.822   1.824   3.101
 3395SOL    HW211085   4.923   1.697   3.116
 3396SOL     OW11086   5.401   1.104   3.729
 3396SOL    HW111087   5.323   1.064   3.777
 3396SOL    HW211088   5.405   1.203   3.747
 3397SOL     OW11089   2.446   6.019   6.087
 3397SOL    HW111090   2.456   6.069   6.173
 3397SOL    HW211091   2.497   5.933   6.092
 3398SOL     OW11092   0.763   0.616   5.621
 3398SOL    HW111093   0.693   0.686   5.635
 3398SOL    HW211094   0.760   0.585   5.526
 3399SOL     OW11095   6.410   4.946   3.211
 3399SOL    HW111096   6.448   4.886   3.281
 3399SOL    HW211097   6.339   4.897   3.160
 3400SOL     OW11098   6.514   3.543   6.473
 3400SOL    HW111099   6.460   3.482   6.531
 3400SOL    HW211100   6.558   3.613   6.528
 3401SOL     OW11101   6.324   3.756   6.177
 3401SOL    HW111102   6.353   3.829   6.116
 3401SOL    HW211103   6.400   3.692   6.191
 3402SOL     OW11104   6.411   5.825   0.732
 3402SOL    HW111105   6.385   5.848   0.638
 3402SOL    HW211106   6.501   5.781   0.732
 3403SOL     OW11107   4.831   5.786   6.094
 3403SOL    HW111108   4.736   5.758   6.110
 3403SOL    HW211109   4.832   5.873   6.046
 3404SOL     OW11110   5.170   3.027   6.732
 3404SOL    HW111111   5.229   2.998   6.657
 3404SOL    HW211112   5.139   2.947   6.783
 3405SOL     OW11113   5.576   5.161   6.096
 3405SOL    HW111114   5.587   5.143   5.999
 3405SOL    HW211115   5.628   5.242   6.122
 3406SOL     OW11116   2.118   3.719   2.665
 3406SOL    HW111117   2.128   3.776   2.584
 3406SOL    HW211118   2.129   3.775   2.747
 3407SOL     OW11119   2.553   4.601   0.571
 3407SOL    HW111120   2.511   4.614   0.481
 3407SOL    HW211121   2.524   4.513   0.609
 3408SOL     OW11122   4.675   2.484   4.546
 3408SOL    HW111123   4.712   2.517   4.459
 3408SOL    HW211124   4.649   2.388   4.536
 3409SOL     OW11125   3.291   6.063   0.859
 3409SOL    HW111126   3.269   6.089   0.765
 3409SOL    HW211127   3.341   5.977   0.859
 3410SOL     OW11128   5.774   6.344   2.814
 3410SOL    HW111129   5.754   6.286   2.735
 3410SOL    HW211130   5.854   6.308   2.863
 3411SOL     OW11131   0.065   2.839   0.432
 3411SOL    HW111132   0.069   2.779   0.512
 3411SOL    HW211133   0.098   2.789   0.352
 3412SOL     OW11134   4.886   4.017   0.922
 3412SOL    HW111135   4.837   3.979   1.000
 3412SOL    HW211136   4.919   3.942   0.864
 3413SOL     OW11137   6.256   2.119   6.565
 3413SOL    HW111138   6.282   2.101   6.660
 3413SOL    HW211139   6.184   2.189   6.563
 3414SOL     OW11140   3.636   2.095   6.015
 3414SOL    HW111141   3.683   2.179   6.042
 3414SOL    HW211142   3.562   2.076   6.080
 3415SOL     OW11143   1.941   2.091   4.112
 3415SOL    HW111144   2.006   2.063   4.041
 3415SOL    HW211145   1.912   2.011   4.164
 3416SOL     OW11146   6.000   0.287   6.827
 3416SOL    HW111147   6.074   0.221   6.837
 3416SOL    HW211148   5.956   0.276   6.738
 3417SOL     OW11149   0.488   6.773   2.624
 3417SOL    HW111150   0.548   6.768   2.544
 3417SOL    HW211151   0.533   6.730   2.702
 3418SOL     OW11152   3.631   5.589   3.483
 3418SOL    HW111153   3.692   5.527   3.533
 3418SOL    HW211154   3.684   5.667   3.448
 3419SOL     OW11155   4.035   5.477   5.894
 3419SOL    HW111156   4.039   5.447   5.799
 3419SOL    HW211157   4.002   5.571   5.898
 3420SOL     OW11158   4.798   3.029   4.186
 3420SOL    HW111159   4.818   2.992   4.277
 3420SOL    HW211160   4.751   2.960   4.131
 3421SOL     OW11161   5.505   1.491   3.226
 3421SOL    HW111162   5.452   1.565   3.268
 3421SOL    HW211163   5.590   1.528   3.189
 3422SOL     OW11164   2.564   0.395   0.238
 3422SOL    HW111165   2.515   0.317   0.200
 3422SOL    HW211166   2.522   0.480   0.205
 3423SOL     OW11167   0.535   3.993   5.801
 3423SOL    HW111168   0.600   3.982   5.876
 3423SOL    HW211169   0.457   4.049   5.832
 3424SOL     OW11170   3.769   0.363   1.501
 3424SOL    HW111171   3.670   0.374   1.487
 3424SOL    HW211172   3.802   0.286   1.447
 3425SOL     OW11173   4.333   5.038   1.760
 3425SOL    HW111174   4.369   4.968   1.699
 3425SOL    HW211175   4.235   5.027   1.771
 3426SOL     OW11176   5.179   2.821   0.761
 3426SOL    HW111177   5.199   2.787   0.853
 3426SOL    HW211178   5.115   2.897   0.767
 3427SOL     OW11179   0.730   2.207   2.346
 3427SOL    HW111180   0.803   2.168   2.290
 3427SOL    HW211181   0.664   2.135   2.369
 3428SOL     OW11182   4.854   4.486   6.028
 3428SOL    HW111183   4.850   4.582   6.056
 3428SOL    HW211184   4.853   4.481   5.929
 3429SOL     OW11185   0.738   1.221   1.271
 3429SOL    HW111186   0.806   1.181   1.333
 3429SOL    HW211187   0.754   1.187   1.178
 3430SOL     OW11188   2.206   5.214   6.216
 3430SOL    HW111189   2.118   5.226   6.262
 3430SOL    HW211190   2.203   5.259   6.126
 3431SOL     OW11191   2.039   6.884   2.088
 3431SOL    HW111192   1.970   6.826   2.046
 3431SOL    HW211193   2.092   6.831   2.154
 3432SOL     OW11194   2.143   4.698   6.095
 3432SOL    HW111195   2.209   4.666   6.162
 3432SOL    HW211196   2.085   4.621   6.066
 3433SOL     OW11197   1.889   0.980   6.359
 3433SOL    HW111198   1.813   1.040   6.383
 3433SOL    HW211199   1.942   0.959   6.441
 3434SOL     OW11200   2.835   2.131   1.860
 3434SOL    HW111201   2.872   2.148   1.768
 3434SOL    HW211202   2.841   2.216   1.913
 3435SOL     OW11203   2.640   1.270   0.418
 3435SOL    HW111204   2.664   1.194   0.478
 3435SOL    HW211205   2.589   1.338   0.469
 3436SOL     OW11206   4.152   5.115   6.701
 3436SOL    HW111207   4.114   5.116   6.794
 3436SOL    HW211208   4.104   5.182   6.645
 3437SOL     OW11209   1.433   7.002   5.462
 3437SOL    HW111210   1.462   6.945   5.539
 3437SOL    HW211211   1.346   6.968   5.426
 3438SOL     OW11212   0.454   4.109   1.359
 3438SOL    HW111213   0.389   4.050   1.311
 3438SOL    HW211214   0.542   4.062   1.366
 3439SOL     OW11215   2.965   6.011   3.561
 3439SOL    HW111216   3.001   5.999   3.469
 3439SOL    HW211217   2.865   6.019   3.557
 3440SOL     OW11218   4.131   3.706   3.960
 3440SOL    HW111219   4.126   3.619   4.010
 3440SOL    HW211220   4.183   3.772   4.014
 3441SOL     OW11221   0.411   6.400   6.550
 3441SOL    HW111222   0.369   6.416   6.461
 3441SOL    HW211223   0.505   6.434   6.549
 3442SOL     OW11224   3.395   3.433   0.720
 3442SOL    HW111225   3.319   3.395   0.772
 3442SOL    HW211226   3.465   3.362   0.709
 3443SOL     OW11227   3.305   5.422   2.513
 3443SOL    HW111228   3.255   5.430   2.426
 3443SOL    HW211229   3.311   5.512   2.556
 3444SOL     OW11230   5.210   4.847   1.619
 3444SOL    HW111231   5.136   4.783   1.598
 3444SOL    HW211232   5.275   4.803   1.682
 3445SOL     OW11233   0.280   5.321   4.321
 3445SOL    HW111234   0.324   5.234   4.344
 3445SOL    HW211235   0.320   5.358   4.238
 3446SOL     OW11236   5.647   0.360   1.742
 3446SOL    HW111237   5.692   0.381   1.828
 3446SOL    HW211238   5.716   0.350   1.670
 3447SOL     OW11239   5.490   1.086   0.057
 3447SOL    HW111240   5.429   1.044   7.013
 3447SOL    HW211241   5.436   1.141   0.121
 3448SOL     OW11242   2.225   6.273   5.679
 3448SOL    HW111243   2.301   6.320   5.723
 3448SOL    HW211244   2.140   6.293   5.728
 3449SOL     OW11245   5.467   5.148   5.263
 3449SOL    HW111246   5.451   5.064   5.314
 3449SOL    HW211247   5.467   5.128   5.165
 3450SOL     OW11248   1.420   0.753   6.587
 3450SOL    HW111249   1.465   0.676   6.632
 3450SOL    HW211250   1.396   0.822   6.655
 3451SOL     OW11251   1.684   5.746   0.596
 3451SOL    HW111252   1.629   5.683   0.650
 3451SOL    HW211253   1.642   5.759   0.506
 3452SOL     OW11254   5.954   0.785   6.074
 3452SOL    HW111255   6.053   0.800   6.084
 3452SOL    HW211256   5.924   0.715   6.139
 3453SOL     OW11257   5.114   6.470   6.419
 3453SOL    HW111258   5.050   6.539   6.386
 3453SOL    HW211259   5.156   6.424   6.341
 3454SOL     OW11260   1.512   3.075   4.190
 3454SOL    HW111261   1.514   3.144   4.117
 3454SOL    HW211262   1.560   3.111   4.270
 3455SOL     OW11263   2.372   1.724   4.563
 3455SOL    HW111264   2.403   1.761   4.475
 3455SOL    HW211265   2.307   1.650   4.547
 3456SOL     OW11266   4.432   4.558   1.837
 3456SOL    HW111267   4.473   4.482   1.888
 3456SOL    HW211268   4.505   4.606   1.787
 3457SOL     OW11269   4.076   5.141   4.988
 3457SOL    HW111270   4.165   5.099   5.006
 3457SOL    HW211271   4.081   5.239   5.006
 3458SOL     OW11272   4.810   2.184   2.130
 3458SOL    HW111273   4.858   2.101   2.100
 3458SOL    HW211274   4.816   2.191   2.230
 3459SOL     OW11275   5.228   1.938   3.593
 3459SOL    HW111276   5.246   1.908   3.500
 3459SOL    HW211277   5.216   1.859   3.652
 3460SOL     OW11278   2.974   1.834   5.504
 3460SOL    HW111279   3.013   1.866   5.590
 3460SOL    HW211280   3.020   1.749   5.476
 3461SOL     OW11281   6.056   4.864   6.766
 3461SOL    HW111282   5.966   4.823   6.784
 3461SOL    HW211283   6.053   4.915   6.680
 3462SOL     OW11284   1.603   3.657   5.999
 3462SOL    HW111285   1.642   3.737   6.044
 3462SOL    HW211286   1.628   3.657   5.902
 3463SOL     OW11287   0.506   3.794   1.039
 3463SOL    HW111288   0.602   3.775   1.060
 3463SOL    HW211289   0.496   3.804   0.940
 3464SOL     OW11290   0.505   4.519   6.848
 3464SOL    HW111291   0.517   4.484   6.755
 3464SOL    HW211292   0.538   4.613   6.852
 3465SOL     OW11293   2.209   1.777   1.854
 3465SOL    HW111294   2.232   1.755   1.949
 3465SOL    HW211295   2.219   1.695   1.798
 3466SOL     OW11296   6.879   5.589   5.869
 3466SOL    HW111297   6.868   5.603   5.967
 3466SOL    HW211298   6.789   5.575   5.827
 3467SOL     OW11299   2.025   1.590   6.812
 3467SOL    HW111300   2.027   1.490   6.816
 3467SOL    HW211301   1.932   1.622   6.830
 3468SOL     OW11302   3.033   5.084   2.940
 3468SOL    HW111303   2.946   5.084   2.890
 3468SOL    HW211304   3.067   5.177   2.947
 3469SOL     OW11305   6.266   2.239   4.292
 3469SOL    HW111306   6.231   2.150   4.265
 3469SOL    HW211307   6.202   2.310   4.261
 3470SOL     OW11308   0.632   5.184   1.165
 3470SOL    HW111309   0.572   5.105   1.162
 3470SOL    HW211310   0.599   5.249   1.233
 3471SOL     OW11311   4.704   5.137   5.310
 3471SOL    HW111312   4.609   5.135   5.339
 3471SOL    HW211313   4.746   5.223   5.339
 3472SOL     OW11314   2.422   1.191   3.635
 3472SOL    HW111315   2.412   1.108   3.579
 3472SOL    HW211316   2.415   1.167   3.732
 3473SOL     OW11317   5.538   1.976   5.947
 3473SOL    HW111318   5.463   1.947   6.006
 3473SOL    HW211319   5.502   2.026   5.868
 3474SOL     OW11320   3.049   4.797   1.449
 3474SOL    HW111321   3.023   4.894   1.454
 3474SOL    HW211322   3.000   4.746   1.519
 3475SOL     OW11323   1.146   6.706   3.991
 3475SOL    HW111324   1.070   6.703   4.057
 3475SOL    HW211325   1.189   6.616   3.986
 3476SOL     OW11326   3.808   0.425   4.600
 3476SOL    HW111327   3.745   0.349   4.592
 3476SOL    HW211328   3.899   0.391   4.626
 3477SOL     OW11329   3.430   5.170   1.003
 3477SOL    HW111330   3.467   5.229   0.931
 3477SOL    HW211331   3.336   5.144   0.980
 3478SOL     OW11332   1.913   6.029   5.482
 3478SOL    HW111333   1.845   6.055   5.550
 3478SOL    HW211334   1.866   5.995   5.400
 3479SOL     OW11335   0.821   0.165   2.868
 3479SOL    HW111336   0.783   0.096   2.930
 3479SOL    HW211337   0.755   0.185   2.796
 3480SOL     OW11338   6.821   1.268   4.199
 3480SOL    HW111339   6.754   1.296   4.130
 3480SOL    HW211340   6.785   1.190   4.250
 3481SOL     OW11341   4.307   6.934   6.377
 3481SOL    HW111342   4.290   6.878   6.296
 3481SOL    HW211343   4.220   6.952   6.424
 3482SOL     OW11344   5.701   1.562   1.188
 3482SOL    HW111345   5.674   1.569   1.284
 3482SOL    HW211346   5.791   1.603   1.176
 3483SOL     OW11347   2.736   0.603   1.010
 3483SOL    HW111348   2.715   0.507   0.995
 3483SOL    HW211349   2.736   0.651   0.922
 3484SOL     OW11350   3.066   3.263   2.814
 3484SOL    HW111351   3.117   3.239   2.731
 3484SOL    HW211352   2.995   3.329   2.792
 3485SOL     OW11353   1.760   1.288   4.984
 3485SOL    HW111354   1.792   1.318   4.895
 3485SOL    HW211355   1.837   1.255   5.039
 3486SOL     OW11356   3.643   1.485   2.115
 3486SOL    HW111357   3.553   1.460   2.150
 3486SOL    HW211358   3.712   1.426   2.156
 3487SOL     OW11359   5.721   1.801   6.684
 3487SOL    HW111360   5.668   1.827   6.765
 3487SOL    HW211361   5.711   1.703   6.667
 3488SOL     OW11362   6.241   3.076   3.968
 3488SOL    HW111363   6.260   3.005   4.035
 3488SOL    HW211364   6.246   3.166   4.012
 3489SOL     OW11365   3.106   7.019   0.770
 3489SOL    HW111366   3.161   0.002   0.853
 3489SOL    HW211367   3.086   0.087   0.736
 3490SOL     OW11368   4.839   4.327   0.262
 3490SOL    HW111369   4.825   4.316   0.360
 3490SOL    HW211370   4.754   4.355   0.218
 3491SOL     OW11371   6.879   2.959   5.721
 3491SOL    HW111372   6.800   2.942   5.663
 3491SOL    HW211373   6.854   2.945   5.817
 3492SOL     OW11374   0.909   5.767   0.148
 3492SOL    HW111375   0.979   5.702   0.120
 3492SOL    HW211376   0.830   5.716   0.185
 3493SOL     OW11377   6.254   4.897   0.427
 3493SOL    HW111378   6.162   4.873   0.458
 3493SOL    HW211379   6.319   4.830   0.464
 3494SOL     OW11380   4.158   6.771   0.329
 3494SOL    HW111381   4.178   6.868   0.320
 3494SOL    HW211382   4.202   6.735   0.411
 3495SOL     OW11383   4.258   4.742   2.136
 3495SOL    HW111384   4.247   4.686   2.054
 3495SOL    HW211385   4.334   4.806   2.123
 3496SOL     OW11386   1.259   3.435   1.598
 3496SOL    HW111387   1.308   3.435   1.684
 3496SOL    HW211388   1.182   3.371   1.604
 3497SOL     OW11389   4.188   0.511   3.205
 3497SOL    HW111390   4.249   0.573   3.155
 3497SOL    HW211391   4.233   0.422   3.215
 3498SOL     OW11392   3.099   1.898   1.031
 3498SOL    HW111393   3.096   1.961   0.953
 3498SOL    HW211394   3.005   1.876   1.060
 3499SOL     OW11395   6.608   3.538   4.644
 3499SOL    HW111396   6.670   3.472   4.602
 3499SOL    HW211397   6.627   3.630   4.607
 3500SOL     OW11398   6.811   4.444   6.216
 3500SOL    HW111399   6.712   4.428   6.214
 3500SOL    HW211400   6.830   4.538   6.187
 3501SOL     OW11401   0.147   4.587   4.801
 3501SOL    HW111402   0.174   4.630   4.888
 3501SOL    HW211403   0.167   4.489   4.805
 3502SOL     OW11404   0.335   2.126   1.968
 3502SOL    HW111405   0.397   2.157   2.039
 3502SOL    HW211406   0.359   2.034   1.939
 3503SOL     OW11407   5.013   5.835   5.082
 3503SOL    HW111408   5.016   5.831   5.182
 3503SOL    HW211409   5.095   5.792   5.045
 3504SOL     OW11410   2.720   3.469   0.939
 3504SOL    HW111411   2.645   3.503   0.995
 3504SOL    HW211412   2.693   3.384   0.895
 3505SOL     OW11413   5.278   5.742   5.020
 3505SOL    HW111414   5.284   5.764   5.118
 3505SOL    HW211415   5.295   5.824   4.966
 3506SOL     OW11416   4.219   5.698   4.893
 3506SOL    HW111417   4.306   5.738   4.862
 3506SOL    HW211418   4.233   5.602   4.917
 3507SOL     OW11419   1.134   0.732   6.522
 3507SOL    HW111420   1.100   0.758   6.612
 3507SOL    HW211421   1.231   0.756   6.515
 3508SOL     OW11422   4.980   2.468   6.918
 3508SOL    HW111423   4.970   2.564   6.890
 3508SOL    HW211424   4.931   2.454   7.004
 3509SOL     OW11425   6.167   6.322   0.068
 3509SOL    HW111426   6.128   6.278   7.011
 3509SOL    HW211427   6.237   6.389   0.040
 3510SOL     OW11428   1.673   2.343   2.168
 3510SOL    HW111429   1.593   2.399   2.187
 3510SOL    HW211430   1.668   2.308   2.075
 3511SOL     OW11431   1.364   3.185   0.014
 3511SOL    HW111432   1.270   3.158   0.031
 3511SOL    HW211433   1.368   3.284   7.021
 3512SOL     OW11434   1.266   4.183   0.419
 3512SOL    HW111435   1.297   4.090   0.439
 3512SOL    HW211436   1.174   4.180   0.382
 3513SOL     OW11437   6.428   4.511   0.749
 3513SOL    HW111438   6.400   4.419   0.721
 3513SOL    HW211439   6.490   4.504   0.827
 3514SOL     OW11440   0.247   6.805   1.354
 3514SOL    HW111441   0.262   6.860   1.437
 3514SOL    HW211442   0.329   6.751   1.335
 3515SOL     OW11443   3.353   5.724   2.606
 3515SOL    HW111444   3.260   5.733   2.642
 3515SOL    HW211445   3.419   5.754   2.675
 3516SOL     OW11446   3.125   0.739   0.667
 3516SOL    HW111447   3.066   0.763   0.590
 3516SOL    HW211448   3.134   0.640   0.671
 3517SOL     OW11449   0.454   1.443   0.388
 3517SOL    HW111450   0.518   1.384   0.338
 3517SOL    HW211451   0.496   1.472   0.474
 3518SOL     OW11452   5.141   3.940   6.074
 3518SOL    HW111453   5.207   3.866   6.058
 3518SOL    HW211454   5.124   3.948   6.172
 3519SOL     OW11455   0.679   6.363   6.875
 3519SOL    HW111456   0.770   6.400   6.859
 3519SOL    HW211457   0.664   6.285   6.814
 3520SOL     OW11458   4.197   4.035   1.159
 3520SOL    HW111459   4.218   4.133   1.155
 3520SOL    HW211460   4.098   4.021   1.153
 3521SOL     OW11461   5.418   2.954   1.416
 3521SOL    HW111462   5.448   2.910   1.501
 3521SOL    HW211463   5.461   3.044   1.408
 3522SOL     OW11464   2.917   5.263   1.982
 3522SOL    HW111465   2.919   5.363   1.977
 3522SOL    HW211466   2.973   5.232   2.059
 3523SOL     OW11467   3.156   4.684   5.264
 3523SOL    HW111468   3.104   4.603   5.235
 3523SOL    HW211469   3.130   4.762   5.208
 3524SOL     OW11470   2.703   0.655   0.707
 3524SOL    HW111471   2.679   0.558   0.707
 3524SOL    HW211472   2.749   0.678   0.621
 3525SOL     OW11473   0.314   3.614   2.036
 3525SOL    HW111474   0.307   3.541   2.103
 3525SOL    HW211475   0.251   3.597   1.960
 3526SOL     OW11476   1.360   0.673   3.415
 3526SOL    HW111477   1.431   0.743   3.410
 3526SOL    HW211478   1.373   0.618   3.497
 3527SOL     OW11479   4.885   2.681   6.445
 3527SOL    HW111480   4.848   2.705   6.535
 3527SOL    HW211481   4.908   2.765   6.396
 3528SOL     OW11482   1.261   5.900   2.921
 3528SOL    HW111483   1.193   5.954   2.871
 3528SOL    HW211484   1.258   5.924   3.018
 3529SOL     OW11485   4.466   6.463   5.573
 3529SOL    HW111486   4.448   6.400   5.498
 3529SOL    HW211487   4.467   6.557   5.539
 3530SOL     OW11488   2.837   5.876   2.704
 3530SOL    HW111489   2.773   5.950   2.722
 3530SOL    HW211490   2.857   5.872   2.606
 3531SOL     OW11491   5.351   3.955   0.179
 3531SOL    HW111492   5.419   4.016   0.219
 3531SOL    HW211493   5.260   3.995   0.189
 3532SOL     OW11494   2.459   0.651   0.183
 3532SOL    HW111495   2.508   0.707   0.250
 3532SOL    HW211496   2.504   0.658   0.094
 3533SOL     OW11497   1.004   2.279   3.635
 3533SOL    HW111498   1.058   2.362   3.620
 3533SOL    HW211499   0.907   2.304   3.641
 3534SOL     OW11500   5.974   1.663   5.279
 3534SOL    HW111501   5.894   1.682   5.335
 3534SOL    HW211502   6.055   1.703   5.320
 3535SOL     OW11503   6.887   5.670   6.800
 3535SOL    HW111504   6.890   5.768   6.815
 3535SOL    HW211505   6.837   5.650   6.716
 3536SOL     OW11506   1.604   3.266   3.751
 3536SOL    HW111507   1.628   3.168   3.748
 3536SOL    HW211508   1.533   3.281   3.820
 3537SOL     OW11509   2.923   4.969   0.744
 3537SOL    HW111510   2.824   4.977   0.737
 3537SOL    HW211511   2.959   4.917   0.667
 3538SOL     OW11512   2.846   0.226   3.810
 3538SOL    HW111513   2.878   0.155   3.873
 3538SOL    HW211514   2.752   0.204   3.781
 3539SOL     OW11515   5.815   3.903   5.339
 3539SOL    HW111516   5.841   3.997   5.360
 3539SOL    HW211517   5.774   3.898   5.248
 3540SOL     OW11518   1.836   2.965   6.855
 3540SOL    HW111519   1.739   2.972   6.879
 3540SOL    HW211520   1.875   3.057   6.847
 3541SOL     OW11521   2.425   2.983   0.146
 3541SOL    HW111522   2.380   3.070   0.167
 3541SOL    HW211523   2.487   2.995   0.069
 3542SOL     OW11524   5.744   2.842   0.040
 3542SOL    HW111525   5.805   2.841   6.984
 3542SOL    HW211526   5.654   2.808   0.013
 3543SOL     OW11527   1.367   3.076   3.637
 3543SOL    HW111528   1.330   3.107   3.724
 3543SOL    HW211529   1.299   3.022   3.589
 3544SOL     OW11530   3.242   4.193   6.615
 3544SOL    HW111531   3.316   4.245   6.573
 3544SOL    HW211532   3.274   4.155   6.702
 3545SOL     OW11533   3.721   5.263   0.198
 3545SOL    HW111534   3.754   5.277   0.105
 3545SOL    HW211535   3.622   5.275   0.201
 3546SOL     OW11536   6.516   4.466   3.489
 3546SOL    HW111537   6.609   4.496   3.467
 3546SOL    HW211538   6.512   4.366   3.489
 3547SOL     OW11539   6.634   3.116   4.975
 3547SOL    HW111540   6.678   3.190   5.026
 3547SOL    HW211541   6.703   3.048   4.949
 3548SOL     OW11542   4.881   1.543   6.177
 3548SOL    HW111543   4.808   1.474   6.176
 3548SOL    HW211544   4.840   1.634   6.187
 3549SOL     OW11545   1.963   5.488   6.399
 3549SOL    HW111546   1.947   5.393   6.374
 3549SOL    HW211547   1.888   5.521   6.456
 3550SOL     OW11548   4.996   2.288   5.115
 3550SOL    HW111549   4.906   2.314   5.081
 3550SOL    HW211550   5.013   2.192   5.093
 3551SOL     OW11551   3.603   1.804   5.102
 3551SOL    HW111552   3.581   1.901   5.117
 3551SOL    HW211553   3.573   1.778   5.010
 3552SOL     OW11554   6.509   5.653   1.573
 3552SOL    HW111555   6.539   5.628   1.481
 3552SOL    HW211556   6.567   5.726   1.608
 3553SOL     OW11557   3.220   5.945   6.193
 3553SOL    HW111558   3.267   6.006   6.257
 3553SOL    HW211559   3.144   5.994   6.150
 3554SOL     OW11560   3.948   3.964   0.968
 3554SOL    HW111561   3.861   3.958   1.017
 3554SOL    HW211562   4.001   3.880   0.985
 3555SOL     OW11563   1.566   2.186   4.625
 3555SOL    HW111564   1.654   2.149   4.654
 3555SOL    HW211565   1.493   2.130   4.664
 3556SOL     OW11566   3.685   1.120   4.989
 3556SOL    HW111567   3.778   1.084   4.996
 3556SOL    HW211568   3.640   1.114   5.079
 3557SOL     OW11569   0.680   0.807   2.796
 3557SOL    HW111570   0.739   0.825   2.718
 3557SOL    HW211571   0.636   0.892   2.824
 3558SOL     OW11572   2.087   6.245   0.252
 3558SOL    HW111573   2.024   6.227   0.327
 3558SOL    HW211574   2.172   6.194   0.267
 3559SOL     OW11575   3.110   6.789   4.655
 3559SOL    HW111576   3.031   6.830   4.700
 3559SOL    HW211577   3.131   6.841   4.572
 3560SOL     OW11578   1.841   4.934   4.695
 3560SOL    HW111579   1.904   5.003   4.657
 3560SOL    HW211580   1.885   4.845   4.693
 3561SOL     OW11581   6.304   4.168   4.845
 3561SOL    HW111582   6.394   4.140   4.879
 3561SOL    HW211583   6.237   4.163   4.920
 3562SOL     OW11584   2.726   1.313   4.394
 3562SOL    HW111585   2.700   1.290   4.488
 3562SOL    HW211586   2.749   1.411   4.389
 3563SOL     OW11587   6.272   2.220   6.208
 3563SOL    HW111588   6.174   2.234   6.215
 3563SOL    HW211589   6.290   2.124   6.185
 3564SOL     OW11590   0.434   4.870   3.041
 3564SOL    HW111591   0.459   4.845   3.135
 3564SOL    HW211592   0.484   4.953   3.015
 3565SOL     OW11593   3.662   4.870   2.911
 3565SOL    HW111594   3.719   4.872   2.829
 3565SOL    HW211595   3.577   4.919   2.893
 3566SOL     OW11596   6.898   0.820   5.100
 3566SOL    HW111597   6.818   0.826   5.041
 3566SOL    HW211598   6.869   0.799   5.194
 3567SOL     OW11599   0.515   3.609   6.320
 3567SOL    HW111600   0.582   3.564   6.379
 3567SOL    HW211601   0.443   3.545   6.295
 3568SOL     OW11602   6.790   4.277   5.769
 3568SOL    HW111603   6.711   4.318   5.814
 3568SOL    HW211604   6.777   4.178   5.763
 3569SOL     OW11605   2.186   1.600   5.569
 3569SOL    HW111606   2.162   1.507   5.593
 3569SOL    HW211607   2.105   1.658   5.571
 3570SOL     OW11608   5.133   0.433   5.747
 3570SOL    HW111609   5.093   0.484   5.670
 3570SOL    HW211610   5.070   0.361   5.775
 3571SOL     OW11611   0.090   5.848   0.410
 3571SOL    HW111612   0.161   5.879   0.346
 3571SOL    HW211613   0.051   5.762   0.378
 3572SOL     OW11614   5.417   3.819   4.226
 3572SOL    HW111615   5.488   3.889   4.239
 3572SOL    HW211616   5.343   3.834   4.291
 3573SOL     OW11617   0.845   3.691   4.056
 3573SOL    HW111618   0.772   3.681   3.988
 3573SOL    HW211619   0.844   3.784   4.091
 3574SOL     OW11620   0.500   4.936   0.258
 3574SOL    HW111621   0.535   4.989   0.181
 3574SOL    HW211622   0.540   4.970   0.343
 3575SOL     OW11623   5.847   5.002   3.330
 3575SOL    HW111624   5.759   4.992   3.376
 3575SOL    HW211625   5.875   4.914   3.291
 3576SOL     OW11626   1.520   1.396   5.878
 3576SOL    HW111627   1.530   1.418   5.781
 3576SOL    HW211628   1.434   1.346   5.891
 3577SOL     OW11629   1.070   2.660   6.186
 3577SOL    HW111630   1.109   2.702   6.268
 3577SOL    HW211631   1.142   2.646   6.118
 3578SOL     OW11632   3.912   3.756   6.810
 3578SOL    HW111633   3.854   3.754   6.891
 3578SOL    HW211634   3.890   3.678   6.751
 3579SOL     OW11635   6.964   4.226   4.715
 3579SOL    HW111636   6.866   4.240   4.729
 3579SOL    HW211637   6.995   4.151   4.773
 3580SOL     OW11638   5.957   1.703   1.182
 3580SOL    HW111639   5.947   1.796   1.216
 3580SOL    HW211640   5.976   1.705   1.084
 3581SOL     OW11641   6.833   0.515   3.709
 3581SOL    HW111642   6.855   0.535   3.614
 3581SOL    HW211643   6.737   0.536   3.727
 3582SOL     OW11644   0.739   2.183   6.313
 3582SOL    HW111645   0.742   2.237   6.397
 3582SOL    HW211646   0.669   2.220   6.252
 3583SOL     OW11647   0.556   4.161   6.912
 3583SOL    HW111648   0.466   4.122   6.930
 3583SOL    HW211649   0.570   4.241   6.970
 3584SOL     OW11650   6.388   6.320   6.478
 3584SOL    HW111651   6.395   6.420   6.468
 3584SOL    HW211652   6.473   6.277   6.449
 3585SOL     OW11653   3.271   5.330   5.566
 3585SOL    HW111654   3.250   5.426   5.549
 3585SOL    HW211655   3.225   5.273   5.498
 3586SOL     OW11656   6.394   2.669   5.575
 3586SOL    HW111657   6.390   2.587   5.632
 3586SOL    HW211658   6.369   2.749   5.628
 3587SOL     OW11659   2.742   5.874   0.666
 3587SOL    HW111660   2.721   5.956   0.613
 3587SOL    HW211661   2.725   5.893   0.763
 3588SOL     OW11662   1.033   2.872   5.955
 3588SOL    HW111663   1.078   2.912   6.035
 3588SOL    HW211664   1.075   2.909   5.872
 3589SOL     OW11665   3.132   1.029   4.328
 3589SOL    HW111666   3.048   1.024   4.274
 3589SOL    HW211667   3.121   1.095   4.403
 3590SOL     OW11668   0.185   4.373   6.734
 3590SOL    HW111669   0.235   4.293   6.768
 3590SOL    HW211670   0.225   4.403   6.648
 3591SOL     OW11671   5.336   3.457   6.582
 3591SOL    HW111672   5.283   3.507   6.650
 3591SOL    HW211673   5.367   3.370   6.620
 3592SOL     OW11674   5.377   3.710   3.312
 3592SOL    HW111675   5.357   3.753   3.225
 3592SOL    HW211676   5.301   3.723   3.375
 3593SOL     OW11677   2.215   6.068   4.704
 3593SOL    HW111678   2.250   6.146   4.653
 3593SOL    HW211679   2.188   6.097   4.796
 3594SOL     OW11680   3.954   1.191   2.721
 3594SOL    HW111681   3.959   1.157   2.627
 3594SOL    HW211682   3.970   1.116   2.785
 3595SOL     OW11683   1.964   6.093   5.933
 3595SOL    HW111684   1.947   6.026   5.860
 3595SOL    HW211685   1.977   6.045   6.020
 3596SOL     OW11686   6.746   1.473   2.812
 3596SOL    HW111687   6.684   1.548   2.788
 3596SOL    HW211688   6.693   1.389   2.825
 3597SOL     OW11689   2.966   6.048   4.926
 3597SOL    HW111690   2.928   6.028   4.836
 3597SOL    HW211691   3.047   6.106   4.916
 3598SOL     OW11692   0.991   0.456   6.047
 3598SOL    HW111693   1.038   0.371   6.071
 3598SOL    HW211694   1.042   0.505   5.977
 3599SOL     OW11695   1.190   2.146   5.549
 3599SOL    HW111696   1.153   2.204   5.621
 3599SOL    HW211697   1.132   2.065   5.537
 3600SOL     OW11698   0.194   3.381   0.339
 3600SOL    HW111699   0.185   3.333   0.426
 3600SOL    HW211700   0.139   3.464   0.341
 3601SOL     OW11701   6.706   3.865   0.646
 3601SOL    HW111702   6.806   3.869   0.646
 3601SOL    HW211703   6.676   3.786   0.699
 3602SOL     OW11704   2.216   1.203   1.251
 3602SOL    HW111705   2.177   1.206   1.343
 3602SOL    HW211706   2.212   1.294   1.210
 3603SOL     OW11707   3.815   6.297   3.707
 3603SOL    HW111708   3.759   6.256   3.636
 3603SOL    HW211709   3.759   6.356   3.765
 3604SOL     OW11710   6.820   3.798   4.033
 3604SOL    HW111711   6.791   3.704   4.015
 3604SOL    HW211712   6.755   3.840   4.097
 3605SOL     OW11713   6.084   4.468   5.812
 3605SOL    HW111714   6.002   4.446   5.760
 3605SOL    HW211715   6.077   4.430   5.904
 3606SOL     OW11716   6.455   4.841   5.941
 3606SOL    HW111717   6.389   4.910   5.911
 3606SOL    HW211718   6.526   4.883   5.997
 3607SOL     OW11719   5.101   6.503   0.952
 3607SOL    HW111720   5.186   6.498   1.005
 3607SOL    HW211721   5.114   6.563   0.873
 3608SOL     OW11722   6.784   1.808   2.508
 3608SOL    HW111723   6.734   1.864   2.442
 3608SOL    HW211724   6.752   1.714   2.503
 3609SOL     OW11725   0.173   0.464   4.475
 3609SOL    HW111726   0.218   0.545   4.513
 3609SOL    HW211727   0.088   0.447   4.525
 3610SOL     OW11728   1.150   0.505   5.355
 3610SOL    HW111729   1.225   0.439   5.346
 3610SOL    HW211730   1.140   0.557   5.270
 3611SOL     OW11731   3.829   4.679   5.503
 3611SOL    HW111732   3.860   4.597   5.456
 3611SOL    HW211733   3.732   4.694   5.483
 3612SOL     OW11734   6.429   0.030   5.828
 3612SOL    HW111735   6.517   7.018   5.859
 3612SOL    HW211736   6.441   0.120   5.786
 3613SOL     OW11737   5.196   5.102   1.255
 3613SOL    HW111738   5.257   5.160   1.201
 3613SOL    HW211739   5.153   5.034   1.195
 3614SOL     OW11740   3.659   3.245   3.683
 3614SOL    HW111741   3.663   3.147   3.702
 3614SOL    HW211742   3.635   3.295   3.767
 3615SOL     OW11743   5.742   6.656   6.494
 3615SOL    HW111744   5.841   6.661   6.506
 3615SOL    HW211745   5.718   6.687   6.402
 3616SOL     OW11746   6.900   1.397   6.252
 3616SOL    HW111747   6.950   1.326   6.203
 3616SOL    HW211748   6.951   1.425   6.333
 3617SOL     OW11749   5.457   1.269   6.396
 3617SOL    HW111750   5.385   1.325   6.437
 3617SOL    HW211751   5.419   1.214   6.322
 3618SOL     OW11752   1.517   1.810   5.704
 3618SOL    HW111753   1.575   1.891   5.697
 3618SOL    HW211754   1.518   1.761   5.617
 3619SOL     OW11755   6.186   2.078   3.566
 3619SOL    HW111756   6.267   2.136   3.576
 3619SOL    HW211757   6.106   2.127   3.601
 3620SOL     OW11758   6.275   6.409   5.833
 3620SOL    HW111759   6.247   6.499   5.799
 3620SOL    HW211760   6.194   6.358   5.864
 3621SOL     OW11761   2.271   2.090   5.823
 3621SOL    HW111762   2.348   2.071   5.762
 3621SOL    HW211763   2.268   2.188   5.844
 3622SOL     OW11764   2.219   2.359   3.057
 3622SOL    HW111765   2.181   2.324   2.971
 3622SOL    HW211766   2.293   2.424   3.037
 3623SOL     OW11767   5.780   5.785   3.947
 3623SOL    HW111768   5.865   5.766   3.997
 3623SOL    HW211769   5.709   5.814   4.011
 3624SOL     OW11770   2.470   6.815   2.381
 3624SOL    HW111771   2.408   6.824   2.459
 3624SOL    HW211772   2.558   6.855   2.404
 3625SOL     OW11773   6.278   3.154   6.954
 3625SOL    HW111774   6.360   3.138   7.009
 3625SOL    HW211775   6.293   3.122   6.861
 3626SOL     OW11776   1.710   3.788   5.382
 3626SOL    HW111777   1.618   3.824   5.396
 3626SOL    HW211778   1.705   3.696   5.345
 3627SOL     OW11779   3.836   3.203   3.307
 3627SOL    HW111780   3.876   3.152   3.231
 3627SOL    HW211781   3.902   3.271   3.340
 3628SOL     OW11782   2.157   0.073   1.625
 3628SOL    HW111783   2.165   0.035   1.717
 3628SOL    HW211784   2.100   0.155   1.629
 3629SOL     OW11785   6.316   2.422   4.502
 3629SOL    HW111786   6.290   2.353   4.434
 3629SOL    HW211787   6.413   2.415   4.522
 3630SOL     OW11788   5.606   3.079   3.733
 3630SOL    HW111789   5.546   3.144   3.777
 3630SOL    HW211790   5.596   3.086   3.633
 3631SOL     OW11791   1.855   0.135   3.810
 3631SOL    HW111792   1.891   0.187   3.733
 3631SOL    HW211793   1.756   0.123   3.800
 3632SOL     OW11794   5.138   0.169   0.331
 3632SOL    HW111795   5.213   0.120   0.285
 3632SOL    HW211796   5.141   0.265   0.305
 3633SOL     OW11797   2.807   1.793   5.772
 3633SOL    HW111798   2.895   1.840   5.773
 3633SOL    HW211799   2.757   1.818   5.690
 3634SOL     OW11800   0.490   5.353   5.193
 3634SOL    HW111801   0.433   5.274   5.174
 3634SOL    HW211802   0.539   5.339   5.279
 3635SOL     OW11803   2.558   6.974   5.741
 3635SOL    HW111804   2.509   0.015   5.683
 3635SOL    HW211805   2.577   6.890   5.689
 3636SOL     OW11806   0.921   5.982   6.261
 3636SOL    HW111807   0.950   5.896   6.218
 3636SOL    HW211808   0.913   5.969   6.360
 3637SOL     OW11809   6.961   2.014   1.717
 3637SOL    HW111810   6.984   2.111   1.726
 3637SOL    HW211811   6.908   1.999   1.634
 3638SOL     OW11812   6.882   4.887   4.639
 3638SOL    HW111813   6.970   4.906   4.595
 3638SOL    HW211814   6.839   4.973   4.664
 3639SOL     OW11815   4.361   4.145   0.656
 3639SOL    HW111816   4.394   4.200   0.733
 3639SOL    HW211817   4.410   4.170   0.573
 3640SOL     OW11818   3.739   6.856   6.664
 3640SOL    HW111819   3.736   6.900   6.754
 3640SOL    HW211820   3.693   6.767   6.670
 3641SOL     OW11821   4.701   2.534   4.308
 3641SOL    HW111822   4.644   2.552   4.227
 3641SOL    HW211823   4.784   2.486   4.280
 3642SOL     OW11824   4.516   0.900   6.845
 3642SOL    HW111825   4.593   0.862   6.793
 3642SOL    HW211826   4.435   0.905   6.786
 3643SOL     OW11827   2.452   5.354   5.139
 3643SOL    HW111828   2.402   5.440   5.144
 3643SOL    HW211829   2.387   5.278   5.132
 3644SOL     OW11830   0.108   1.102   1.528
 3644SOL    HW111831   0.039   1.173   1.542
 3644SOL    HW211832   0.067   1.023   1.482
 3645SOL     OW11833   5.750   1.354   3.705
 3645SOL    HW111834   5.816   1.334   3.632
 3645SOL    HW211835   5.740   1.274   3.764
 3646SOL     OW11836   6.684   5.138   6.514
 3646SOL    HW111837   6.776   5.141   6.551
 3646SOL    HW211838   6.618   5.148   6.588
 3647SOL     OW11839   2.408   3.542   0.243
 3647SOL    HW111840   2.470   3.492   0.304
 3647SOL    HW211841   2.317   3.500   0.246
 3648SOL     OW11842   3.073   5.363   2.956
 3648SOL    HW111843   3.148   5.381   3.020
 3648SOL    HW211844   2.989   5.405   2.991
 3649SOL     OW11845   4.730   3.093   1.651
 3649SOL    HW111846   4.658   3.064   1.715
 3649SOL    HW211847   4.819   3.090   1.697
 3650SOL     OW11848   0.239   5.444   0.279
 3650SOL    HW111849   0.158   5.498   0.301
 3650SOL    HW211850   0.212   5.351   0.253
 3651SOL     OW11851   0.549   6.099   3.128
 3651SOL    HW111852   0.495   6.070   3.050
 3651SOL    HW211853   0.505   6.177   3.172
 3652SOL     OW11854   5.879   6.086   3.152
 3652SOL    HW111855   5.892   6.097   3.250
 3652SOL    HW211856   5.782   6.076   3.132
 3653SOL     OW11857   6.669   0.527   3.241
 3653SOL    HW111858   6.730   0.501   3.166
 3653SOL    HW211859   6.619   0.610   3.215
 3654SOL     OW11860   2.025   6.859   0.444
 3654SOL    HW111861   2.095   6.870   0.515
 3654SOL    HW211862   1.947   6.917   0.466
 3655SOL     OW11863   1.270   0.093   3.729
 3655SOL    HW111864   1.333   0.032   3.777
 3655SOL    HW211865   1.190   0.109   3.786
 3656SOL     OW11866   1.393   3.319   2.265
 3656SOL    HW111867   1.394   3.333   2.364
 3656SOL    HW211868   1.430   3.400   2.219
 3657SOL     OW11869   5.236   5.749   5.847
 3657SOL    HW111870   5.167   5.720   5.914
 3657SOL    HW211871   5.227   5.847   5.829
 3658SOL     OW11872   1.169   5.955   3.613
 3658SOL    HW111873   1.118   6.033   3.576
 3658SOL    HW211874   1.226   5.985   3.689
 3659SOL     OW11875   2.923   3.292   5.449
 3659SOL    HW111876   2.841   3.272   5.397
 3659SOL    HW211877   2.902   3.363   5.517
 3660SOL     OW11878   4.656   0.029   2.551
 3660SOL    HW111879   4.639   0.088   2.630
 3660SOL    HW211880   4.577   0.032   2.489
 3661SOL     OW11881   4.763   1.783   6.205
 3661SOL    HW111882   4.774   1.806   6.302
 3661SOL    HW211883   4.781   1.864   6.149
 3662SOL     OW11884   4.573   0.698   3.506
 3662SOL    HW111885   4.654   0.670   3.557
 3662SOL    HW211886   4.536   0.783   3.544
 3663SOL     OW11887   2.038   1.897   0.771
 3663SOL    HW111888   2.027   1.926   0.866
 3663SOL    HW211889   1.950   1.867   0.735
 3664SOL     OW11890   4.602   2.213   1.079
 3664SOL    HW111891   4.540   2.161   1.137
 3664SOL    HW211892   4.609   2.307   1.113
 3665SOL     OW11893   0.710   5.755   5.797
 3665SOL    HW111894   0.752   5.842   5.770
 3665SOL    HW211895   0.674   5.709   5.716
 3666SOL     OW11896   2.159   3.882   2.896
 3666SOL    HW111897   2.152   3.973   2.854
 3666SOL    HW211898   2.201   3.891   2.986
 3667SOL     OW11899   6.562   0.596   0.769
 3667SOL    HW111900   6.613   0.639   0.844
 3667SOL    HW211901   6.571   0.497   0.774
 3668SOL     OW11902   1.588   0.640   2.144
 3668SOL    HW111903   1.650   0.606   2.215
 3668SOL    HW211904   1.574   0.738   2.156
 3669SOL     OW11905   5.957   0.949   4.392
 3669SOL    HW111906   6.001   0.996   4.468
 3669SOL    HW211907   5.894   0.880   4.428
 3670SOL     OW11908   2.688   4.303   0.772
 3670SOL    HW111909   2.660   4.257   0.855
 3670SOL    HW211910   2.608   4.319   0.714
 3671SOL     OW11911   6.271   0.152   4.124
 3671SOL    HW111912   6.304   0.163   4.218
 3671SOL    HW211913   6.344   0.115   4.067
 3672SOL     OW11914   5.404   1.729   1.229
 3672SOL    HW111915   5.410   1.665   1.152
 3672SOL    HW211916   5.476   1.798   1.221
 3673SOL     OW11917   3.780   6.961   5.949
 3673SOL    HW111918   3.701   7.021   5.938
 3673SOL    HW211919   3.812   6.931   5.859
 3674SOL     OW11920   0.327   0.170   4.915
 3674SOL    HW111921   0.264   0.247   4.921
 3674SOL    HW211922   0.290   0.092   4.967
 3675SOL     OW11923   1.864   3.030   4.966
 3675SOL    HW111924   1.914   2.947   4.993
 3675SOL    HW211925   1.922   3.110   4.982
 3676SOL     OW11926   4.442   4.869   4.658
 3676SOL    HW111927   4.343   4.873   4.649
 3676SOL    HW211928   4.469   4.780   4.695
 3677SOL     OW11929   1.567   6.647   3.450
 3677SOL    HW111930   1.657   6.605   3.464
 3677SOL    HW211931   1.499   6.576   3.430
 3678SOL     OW11932   1.136   3.618   3.575
 3678SOL    HW111933   1.116   3.681   3.500
 3678SOL    HW211934   1.127   3.666   3.663
 3679SOL     OW11935   1.631   0.585   3.643
 3679SOL    HW111936   1.606   0.527   3.566
 3679SOL    HW211937   1.728   0.572   3.665
 3680SOL     OW11938   5.641   2.145   3.865
 3680SOL    HW111939   5.632   2.118   3.769
 3680SOL    HW211940   5.564   2.203   3.890
 3681SOL     OW11941   0.673   0.675   4.796
 3681SOL    HW111942   0.581   0.713   4.789
 3681SOL    HW211943   0.740   0.748   4.777
 3682SOL     OW11944   5.861   2.272   6.728
 3682SOL    HW111945   5.811   2.208   6.786
 3682SOL    HW211946   5.795   2.329   6.678
 3683SOL     OW11947   0.001   6.507   3.892
 3683SOL    HW111948   6.951   6.445   3.863
 3683SOL    HW211949   0.062   6.525   3.815
 3684SOL     OW11950   1.647   3.491   0.020
 3684SOL    HW111951   1.633   3.553   0.097
 3684SOL    HW211952   1.571   3.500   6.979
 3685SOL     OW11953   6.509   6.723   6.665
 3685SOL    HW111954   6.518   6.668   6.748
 3685SOL    HW211955   6.567   6.803   6.671
 3686SOL     OW11956   6.427   5.955   3.458
 3686SOL    HW111957   6.378   5.869   3.473
 3686SOL    HW211958   6.380   6.008   3.387
 3687SOL     OW11959   3.831   6.299   5.826
 3687SOL    HW111960   3.794   6.240   5.898
 3687SOL    HW211961   3.785   6.388   5.830
 3688SOL     OW11962   0.762   3.467   6.368
 3688SOL    HW111963   0.851   3.486   6.411
 3688SOL    HW211964   0.755   3.370   6.346
 3689SOL     OW11965   1.471   0.423   6.351
 3689SOL    HW111966   1.571   0.419   6.356
 3689SOL    HW211967   1.436   0.477   6.428
 3690SOL     OW11968   4.119   0.348   6.313
 3690SOL    HW111969   4.206   0.300   6.323
 3690SOL    HW211970   4.044   0.288   6.339
 3691SOL     OW11971   2.530   2.357   0.104
 3691SOL    HW111972   2.537   2.345   0.203
 3691SOL    HW211973   2.437   2.339   0.074
 3692SOL     OW11974   0.840   5.452   4.914
 3692SOL    HW111975   0.934   5.425   4.937
 3692SOL    HW211976   0.790   5.372   4.879
 3693SOL     OW11977   2.169   2.720   2.441
 3693SOL    HW111978   2.235   2.755   2.508
 3693SOL    HW211979   2.213   2.715   2.352
 3694SOL     OW11980   1.593   5.491   3.173
 3694SOL    HW111981   1.599   5.429   3.095
 3694SOL    HW211982   1.650   5.457   3.247
 3695SOL     OW11983   6.437   2.895   2.693
 3695SOL    HW111984   6.390   2.960   2.633
 3695SOL    HW211985   6.475   2.820   2.639
 3696SOL     OW11986   3.338   6.037   5.260
 3696SOL    HW111987   3.337   6.127   5.217
 3696SOL    HW211988   3.364   6.046   5.356
 3697SOL     OW11989   0.238   5.726   3.244
 3697SOL    HW111990   0.334   5.752   3.258
 3697SOL    HW211991   0.180   5.807   3.246
 3698SOL     OW11992   2.972   6.813   5.238
 3698SOL    HW111993   2.954   6.849   5.146
 3698SOL    HW211994   2.969   6.888   5.304
 3699SOL     OW11995   6.906   3.608   3.216
 3699SOL    HW111996   6.994   3.637   3.180
 3699SOL    HW211997   6.917   3.524   3.268
 3700SOL     OW11998   6.869   0.176   4.638
 3700SOL    HW111999   6.887   0.141   4.547
 3700SOL    HW212000   6.939   0.244   4.662
 3701SOL     OW12001   0.462   0.742   3.671
 3701SOL    HW112002   0.452   0.704   3.579
 3701SOL    HW212003   0.389   0.808   3.688
 3702SOL     OW12004   5.503   6.609   2.115
 3702SOL    HW112005   5.486   6.671   2.192
 3702SOL    HW212006   5.597   6.575   2.119
 3703SOL     OW12007   4.516   2.628   6.545
 3703SOL    HW112008   4.492   2.724   6.532
 3703SOL    HW212009   4.529   2.609   6.642
 3704SOL     OW12010   3.056   0.526   1.450
 3704SOL    HW112011   3.010   0.556   1.366
 3704SOL    HW212012   2.989   0.489   1.514
 3705SOL     OW12013   5.329   5.724   3.700
 3705SOL    HW112014   5.377   5.795   3.752
 3705SOL    HW212015   5.396   5.673   3.645
 3706SOL     OW12016   0.905   3.331   4.904
 3706SOL    HW112017   1.002   3.309   4.889
 3706SOL    HW212018   0.882   3.317   5.000
 3707SOL     OW12019   6.469   3.415   5.124
 3707SOL    HW112020   6.521   3.449   5.046
 3707SOL    HW212021   6.389   3.474   5.139
 3708SOL     OW12022   6.570   1.054   6.099
 3708SOL    HW112023   6.520   1.129   6.055
 3708SOL    HW212024   6.562   1.062   6.199
 3709SOL     OW12025   3.893   0.764   0.231
 3709SOL    HW112026   3.966   0.718   0.281
 3709SOL    HW212027   3.811   0.707   0.229
 3710SOL     OW12028   6.894   6.458   0.490
 3710SOL    HW112029   6.797   6.432   0.495
 3710SOL    HW212030   6.938   6.435   0.577
 3711SOL     OW12031   0.143   6.630   2.357
 3711SOL    HW112032   0.175   6.609   2.264
 3711SOL    HW212033   0.204   6.589   2.424
 3712SOL     OW12034   6.522   6.178   6.903
 3712SOL    HW112035   6.496   6.238   6.978
 3712SOL    HW212036   6.585   6.226   6.842
 3713SOL     OW12037   1.585   6.174   4.307
 3713SOL    HW112038   1.652   6.173   4.233
 3713SOL    HW212039   1.501   6.219   4.276
 3714SOL     OW12040   4.730   5.276   5.044
 3714SOL    HW112041   4.801   5.343   5.018
 3714SOL    HW212042   4.685   5.307   5.128
 3715SOL     OW12043   5.993   3.968   3.939
 3715SOL    HW112044   5.955   3.972   3.847
 3715SOL    HW212045   5.979   3.876   3.977
 3716SOL     OW12046   5.628   6.730   5.362
 3716SOL    HW112047   5.616   6.713   5.264
 3716SOL    HW212048   5.638   6.828   5.378
 3717SOL     OW12049   5.771   5.738   6.033
 3717SOL    HW112050   5.688   5.739   5.977
 3717SOL    HW212051   5.748   5.763   6.127
 3718SOL     OW12052   2.144   0.347   6.071
 3718SOL    HW112053   2.091   0.325   5.989
 3718SOL    HW212054   2.232   0.300   6.069
 3719SOL     OW12055   5.588   4.901   1.101
 3719SOL    HW112056   5.621   4.807   1.092
 3719SOL    HW212057   5.621   4.956   1.025
 3720SOL     OW12058   6.186   2.222   5.651
 3720SOL    HW112059   6.120   2.296   5.670
 3720SOL    HW212060   6.175   2.192   5.556
 3721SOL     OW12061   5.330   4.800   1.341
 3721SOL    HW112062   5.239   4.773   1.311
 3721SOL    HW212063   5.365   4.733   1.406
 3722SOL     OW12064   6.396   6.901   2.415
 3722SOL    HW112065   6.438   6.811   2.401
 3722SOL    HW212066   6.438   6.946   2.494
 3723SOL     OW12067   6.164   6.408   1.681
 3723SOL    HW112068   6.108   6.490   1.676
 3723SOL    HW212069   6.106   6.327   1.671
 3724SOL     OW12070   1.951   5.224   6.315
 3724SOL    HW112071   1.935   5.178   6.402
 3724SOL    HW212072   1.864   5.235   6.267
 3725SOL     OW12073   5.577   5.749   0.536
 3725SOL    HW112074   5.573   5.689   0.616
 3725SOL    HW212075   5.654   5.812   0.545
 3726SOL     OW12076   6.745   5.295   0.589
 3726SOL    HW112077   6.691   5.346   0.522
 3726SOL    HW212078   6.685   5.235   0.642
 3727SOL     OW12079   6.996   2.956   6.230
 3727SOL    HW112080   0.051   2.922   6.178
 3727SOL    HW212081   0.002   2.983   6.321
 3728SOL     OW12082   1.505   3.690   0.138
 3728SOL    HW112083   1.505   3.784   0.102
 3728SOL    HW212084   1.418   3.672   0.184
 3729SOL     OW12085   1.645   2.056   3.412
 3729SOL    HW112086   1.732   2.042   3.365
 3729SOL    HW212087   1.645   2.007   3.499
 3730SOL     OW12088   2.696   5.260   6.320
 3730SOL    HW112089   2.654   5.186   6.266
 3730SOL    HW212090   2.793   5.243   6.331
 3731SOL     OW12091   4.367   0.181   0.634
 3731SOL    HW112092   4.268   0.167   0.633
 3731SOL    HW212093   4.413   0.093   0.649
 3732SOL     OW12094   1.344   2.205   6.625
 3732SOL    HW112095   1.316   2.131   6.685
 3732SOL    HW212096   1.444   2.208   6.620
 3733SOL     OW12097   1.325   3.693   1.945
 3733SOL    HW112098   1.235   3.720   1.909
 3733SOL    HW212099   1.347   3.601   1.912
 3734SOL     OW12100   4.179   1.404   1.771
 3734SOL    HW112101   4.159   1.379   1.866
 3734SOL    HW212102   4.276   1.385   1.752
 3735SOL     OW12103   1.947   1.081   3.538
 3735SOL    HW112104   1.984   1.004   3.486
 3735SOL    HW212105   2.020   1.145   3.560
 3736SOL     OW12106   6.774   3.002   1.209
 3736SOL    HW112107   6.680   3.001   1.175
 3736SOL    HW212108   6.823   3.080   1.169
 3737SOL     OW12109   5.328   0.217   2.997
 3737SOL    HW112110   5.305   0.228   3.093
 3737SOL    HW212111   5.419   0.254   2.980
 3738SOL     OW12112   0.285   5.768   2.332
 3738SOL    HW112113   0.283   5.866   2.354
 3738SOL    HW212114   0.235   5.718   2.402
 3739SOL     OW12115   2.182   5.028   1.394
 3739SOL    HW112116   2.240   5.008   1.473
 3739SOL    HW212117   2.122   4.950   1.376
 3740SOL     OW12118   4.497   0.320   0.440
 3740SOL    HW112119   4.457   0.254   0.502
 3740SOL    HW212120   4.591   0.340   0.468
 3741SOL     OW12121   4.541   3.263   1.539
 3741SOL    HW112122   4.621   3.223   1.584
 3741SOL    HW212123   4.484   3.190   1.501
 3742SOL     OW12124   2.331   2.165   6.141
 3742SOL    HW112125   2.409   2.104   6.130
 3742SOL    HW212126   2.308   2.206   6.052
 3743SOL     OW12127   5.430   4.101   0.836
 3743SOL    HW112128   5.496   4.060   0.899
 3743SOL    HW212129   5.371   4.164   0.886
 3744SOL     OW12130   0.744   5.844   2.793
 3744SOL    HW112131   0.760   5.932   2.748
 3744SOL    HW212132   0.788   5.771   2.740
 3745SOL     OW12133   3.467   5.197   2.162
 3745SOL    HW112134   3.450   5.103   2.133
 3745SOL    HW212135   3.534   5.198   2.236
 3746SOL     OW12136   5.168   1.972   2.650
 3746SOL    HW112137   5.168   1.954   2.552
 3746SOL    HW212138   5.203   1.893   2.699
 3747SOL     OW12139   3.318   6.787   6.016
 3747SOL    HW112140   3.366   6.786   6.104
 3747SOL    HW212141   3.294   6.881   5.992
 3748SOL     OW12142   5.077   0.742   1.545
 3748SOL    HW112143   5.129   0.661   1.519
 3748SOL    HW212144   5.098   0.767   1.640
 3749SOL     OW12145   1.801   6.414   4.162
 3749SOL    HW112146   1.791   6.503   4.206
 3749SOL    HW212147   1.740   6.408   4.083
 3750SOL     OW12148   1.721   4.283   0.681
 3750SOL    HW112149   1.732   4.280   0.781
 3750SOL    HW212150   1.625   4.298   0.659
 3751SOL     OW12151   6.326   3.512   2.270
 3751SOL    HW112152   6.425   3.525   2.265
 3751SOL    HW212153   6.287   3.517   2.178
 3752SOL     OW12154   4.727   0.499   5.913
 3752SOL    HW112155   4.730   0.598   5.895
 3752SOL    HW212156   4.800   0.453   5.864
 3753SOL     OW12157   6.104   0.646   5.216
 3753SOL    HW112158   6.105   0.710   5.139
 3753SOL    HW212159   6.015   0.648   5.260
 3754SOL     OW12160   2.762   0.655   2.225
 3754SOL    HW112161   2.809   0.700   2.300
 3754SOL    HW212162   2.826   0.595   2.177
 3755SOL     OW12163   3.813   5.613   4.780
 3755SOL    HW112164   3.827   5.631   4.878
 3755SOL    HW212165   3.796   5.515   4.766
 3756SOL     OW12166   2.757   5.637   6.579
 3756SOL    HW112167   2.727   5.544   6.558
 3756SOL    HW212168   2.831   5.664   6.518
 3757SOL     OW12169   6.475   5.385   1.627
 3757SOL    HW112170   6.512   5.477   1.612
 3757SOL    HW212171   6.376   5.387   1.616
 3758SOL     OW12172   1.983   1.407   4.371
 3758SOL    HW112173   1.901   1.450   4.409
 3758SOL    HW212174   1.969   1.308   4.366
 3759SOL     OW12175   4.371   0.414   5.175
 3759SOL    HW112176   4.459   0.435   5.218
 3759SOL    HW212177   4.334   0.497   5.132
 3760SOL     OW12178   0.925   1.499   3.389
 3760SOL    HW112179   0.890   1.425   3.332
 3760SOL    HW212180   0.950   1.577   3.331
 3761SOL     OW12181   6.786   0.717   4.688
 3761SOL    HW112182   6.736   0.803   4.697
 3761SOL    HW212183   6.787   0.670   4.777
 3762SOL     OW12184   1.566   4.281   1.589
 3762SOL    HW112185   1.503   4.217   1.633
 3762SOL    HW212186   1.660   4.261   1.616
 3763SOL     OW12187   6.297   3.989   0.764
 3763SOL    HW112188   6.349   3.959   0.684
 3763SOL    HW212189   6.342   3.957   0.847
 3764SOL     OW12190   2.030   6.724   2.686
 3764SOL    HW112191   2.040   6.663   2.608
 3764SOL    HW212192   1.971   6.680   2.754
 3765SOL     OW12193   6.042   1.465   1.168
 3765SOL    HW112194   6.139   1.452   1.147
 3765SOL    HW212195   6.023   1.562   1.179
 3766SOL     OW12196   2.217   1.976   4.270
 3766SOL    HW112197   2.185   2.005   4.180
 3766SOL    HW212198   2.146   1.992   4.338
 3767SOL     OW12199   3.215   4.162   6.208
 3767SOL    HW112200   3.214   4.081   6.267
 3767SOL    HW212201   3.258   4.237   6.257
 3768SOL     OW12202   1.055   0.641   4.686
 3768SOL    HW112203   1.015   0.638   4.595
 3768SOL    HW212204   1.018   0.718   4.737
 3769SOL     OW12205   6.137   5.484   5.143
 3769SOL    HW112206   6.110   5.389   5.153
 3769SOL    HW212207   6.108   5.518   5.054
 3770SOL     OW12208   1.074   0.986   6.999
 3770SOL    HW112209   0.990   0.967   0.026
 3770SOL    HW212210   1.058   1.060   6.934
 3771SOL     OW12211   5.808   4.388   6.797
 3771SOL    HW112212   5.719   4.377   6.843
 3771SOL    HW212213   5.874   4.426   6.862
 3772SOL     OW12214   0.523   0.380   0.430
 3772SOL    HW112215   0.446   0.437   0.401
 3772SOL    HW212216   0.541   0.311   0.359
 3773SOL     OW12217   5.885   3.081   5.752
 3773SOL    HW112218   5.905   3.139   5.832
 3773SOL    HW212219   5.805   3.118   5.704
 3774SOL     OW12220   5.516   5.460   1.638
 3774SOL    HW112221   5.462   5.543   1.655
 3774SOL    HW212222   5.466   5.381   1.673
 3775SOL     OW12223   4.035   4.998   4.091
 3775SOL    HW112224   4.007   5.092   4.069
 3775SOL    HW212225   4.075   4.955   4.010
 3776SOL     OW12226   3.637   2.546   6.480
 3776SOL    HW112227   3.715   2.538   6.542
 3776SOL    HW212228   3.552   2.536   6.532
 3777SOL     OW12229   2.709   6.034   3.944
 3777SOL    HW112230   2.788   5.972   3.941
 3777SOL    HW212231   2.634   5.990   3.994
 3778SOL     OW12232   2.508   5.901   3.438
 3778SOL    HW112233   2.547   5.825   3.490
 3778SOL    HW212234   2.583   5.954   3.396
 3779SOL     OW12235   0.479   4.951   1.070
 3779SOL    HW112236   0.449   4.865   1.113
 3779SOL    HW212237   0.403   5.016   1.070
 3780SOL     OW12238   0.150   3.738   4.121
 3780SOL    HW112239   0.082   3.779   4.060
 3780SOL    HW212240   0.104   3.691   4.196
 3781SOL     OW12241   0.505   0.211   4.513
 3781SOL    HW112242   0.600   0.234   4.534
 3781SOL    HW212243   0.501   0.148   4.436
 3782SOL     OW12244   3.499   6.287   2.560
 3782SOL    HW112245   3.461   6.375   2.532
 3782SOL    HW212246   3.449   6.213   2.515
 3783SOL     OW12247   6.416   5.561   4.128
 3783SOL    HW112248   6.369   5.603   4.205
 3783SOL    HW212249   6.497   5.512   4.160
 3784SOL     OW12250   5.052   2.471   2.236
 3784SOL    HW112251   5.051   2.386   2.289
 3784SOL    HW212252   5.037   2.548   2.297
 3785SOL     OW12253   1.576   3.019   4.785
 3785SOL    HW112254   1.479   2.999   4.798
 3785SOL    HW212255   1.623   2.938   4.752
 3786SOL     OW12256   2.006   3.770   3.286
 3786SOL    HW112257   1.961   3.682   3.291
 3786SOL    HW212258   2.101   3.761   3.316
 3787SOL     OW12259   5.614   0.731   2.696
 3787SOL    HW112260   5.577   0.690   2.613
 3787SOL    HW212261   5.539   0.756   2.757
 3788SOL     OW12262   6.054   4.608   5.190
 3788SOL    HW112263   6.150   4.589   5.166
 3788SOL    HW212264   6.009   4.652   5.112
 3789SOL     OW12265   0.191   3.500   2.974
 3789SOL    HW112266   0.223   3.577   3.029
 3789SOL    HW212267   0.269   3.448   2.942
 3790SOL     OW12268   1.056   4.887   6.387
 3790SOL    HW112269   1.149   4.883   6.349
 3790SOL    HW212270   1.004   4.959   6.341
 3791SOL     OW12271   5.389   1.759   6.609
 3791SOL    HW112272   5.360   1.664   6.610
 3791SOL    HW212273   5.489   1.764   6.606
 3792SOL     OW12274   1.183   1.690   4.342
 3792SOL    HW112275   1.192   1.592   4.361
 3792SOL    HW212276   1.205   1.707   4.246
 3793SOL     OW12277   5.583   6.458   1.559
 3793SOL    HW112278   5.660   6.401   1.530
 3793SOL    HW212279   5.605   6.554   1.545
 3794SOL     OW12280   2.253   2.984   1.787
 3794SOL    HW112281   2.214   3.058   1.841
 3794SOL    HW212282   2.225   2.993   1.691
 3795SOL     OW12283   4.039   4.975   0.985
 3795SOL    HW112284   4.034   4.875   0.987
 3795SOL    HW212285   4.105   5.006   1.053
 3796SOL     OW12286   3.899   1.819   1.241
 3796SOL    HW112287   3.962   1.783   1.172
 3796SOL    HW212288   3.805   1.810   1.208
 3797SOL     OW12289   0.946   3.730   3.121
 3797SOL    HW112290   0.909   3.638   3.106
 3797SOL    HW212291   0.895   3.796   3.067
 3798SOL     OW12292   3.174   6.317   2.409
 3798SOL    HW112293   3.208   6.226   2.434
 3798SOL    HW212294   3.216   6.345   2.322
 3799SOL     OW12295   6.977   2.887   3.572
 3799SOL    HW112296   6.925   2.970   3.588
 3799SOL    HW212297   0.022   2.903   3.500
 3800SOL     OW12298   5.390   2.227   3.894
 3800SOL    HW112299   5.309   2.169   3.898
 3800SOL    HW212300   5.385   2.286   3.813
 3801SOL     OW12301   5.689   6.533   1.878
 3801SOL    HW112302   5.602   6.583   1.876
 3801SOL    HW212303   5.724   6.532   1.972
 3802SOL     OW12304   6.936   1.124   2.555
 3802SOL    HW112305   7.004   1.129   2.482
 3802SOL    HW212306   6.903   1.031   2.563
 3803SOL     OW12307   4.072   3.526   3.557
 3803SOL    HW112308   3.981   3.485   3.544
 3803SOL    HW212309   4.072   3.620   3.524
 3804SOL     OW12310   4.064   1.126   3.784
 3804SOL    HW112311   4.004   1.065   3.733
 3804SOL    HW212312   4.011   1.175   3.854
 3805SOL     OW12313   1.550   2.660   2.153
 3805SOL    HW112314   1.619   2.674   2.224
 3805SOL    HW212315   1.593   2.666   2.063
 3806SOL     OW12316   3.392   3.658   5.717
 3806SOL    HW112317   3.413   3.605   5.635
 3806SOL    HW212318   3.366   3.751   5.691
 3807SOL     OW12319   2.335   5.073   3.702
 3807SOL    HW112320   2.395   5.147   3.668
 3807SOL    HW212321   2.378   5.029   3.780
 3808SOL     OW12322   4.378   0.661   6.941
 3808SOL    HW112323   4.445   0.735   6.937
 3808SOL    HW212324   4.354   0.643   0.013
 3809SOL     OW12325   5.575   2.513   1.757
 3809SOL    HW112326   5.514   2.592   1.750
 3809SOL    HW212327   5.530   2.433   1.718
 3810SOL     OW12328   6.272   2.440   3.335
 3810SOL    HW112329   6.256   2.468   3.240
 3810SOL    HW212330   6.370   2.443   3.355
 3811SOL     OW12331   0.199   6.473   4.303
 3811SOL    HW112332   0.197   6.422   4.390
 3811SOL    HW212333   0.190   6.409   4.227
 3812SOL     OW12334   3.360   4.750   5.779
 3812SOL    HW112335   3.298   4.673   5.765
 3812SOL    HW212336   3.372   4.799   5.693
 3813SOL     OW12337   5.705   3.419   0.783
 3813SOL    HW112338   5.648   3.497   0.756
 3813SOL    HW212339   5.664   3.375   0.863
 3814SOL     OW12340   6.620   0.106   4.233
 3814SOL    HW112341   6.613   0.122   4.135
 3814SOL    HW212342   6.714   0.081   4.256
 3815SOL     OW12343   4.038   2.773   1.275
 3815SOL    HW112344   3.991   2.779   1.187
 3815SOL    HW212345   4.098   2.693   1.275
 3816SOL     OW12346   0.932   5.515   5.913
 3816SOL    HW112347   0.935   5.580   5.837
 3816SOL    HW212348   1.019   5.465   5.917
 3817SOL     OW12349   4.877   3.763   2.341
 3817SOL    HW112350   4.859   3.665   2.338
 3817SOL    HW212351   4.856   3.804   2.253
 3818SOL     OW12352   6.918   0.866   1.067
 3818SOL    HW112353   6.901   0.963   1.049
 3818SOL    HW212354   7.016   0.849   1.067
 3819SOL     OW12355   5.587   4.677   2.635
 3819SOL    HW112356   5.572   4.620   2.716
 3819SOL    HW212357   5.666   4.642   2.584
 3820SOL     OW12358   6.422   6.333   3.381
 3820SOL    HW112359   6.418   6.287   3.470
 3820SOL    HW212360   6.490   6.288   3.323
 3821SOL     OW12361   1.308   1.025   2.138
 3821SOL    HW112362   1.266   1.080   2.210
 3821SOL    HW212363   1.239   0.964   2.099
 3822SOL     OW12364   2.105   6.903   6.553
 3822SOL    HW112365   2.039   6.831   6.533
 3822SOL    HW212366   2.068   6.991   6.523
 3823SOL     OW12367   3.972   3.703   6.448
 3823SOL    HW112368   3.896   3.713   6.383
 3823SOL    HW212369   3.988   3.790   6.494
 3824SOL     OW12370   1.042   2.653   0.544
 3824SOL    HW112371   1.074   2.626   0.635
 3824SOL    HW212372   0.992   2.578   0.502
 3825SOL     OW12373   1.152   4.397   0.630
 3825SOL    HW112374   1.184   4.354   0.546
 3825SOL    HW212375   1.152   4.496   0.619
 3826SOL     OW12376   7.021   3.474   1.192
 3826SOL    HW112377   0.064   3.402   1.171
 3826SOL    HW212378   0.040   3.564   1.178
 3827SOL     OW12379   1.019   1.237   1.344
 3827SOL    HW112380   1.006   1.221   1.442
 3827SOL    HW212381   1.045   1.152   1.299
 3828SOL     OW12382   3.663   3.881   4.041
 3828SOL    HW112383   3.644   3.975   4.014
 3828SOL    HW212384   3.671   3.876   4.141
 3829SOL     OW12385   0.407   4.856   2.133
 3829SOL    HW112386   0.440   4.780   2.189
 3829SOL    HW212387   0.324   4.829   2.085
 3830SOL     OW12388   0.631   1.296   5.624
 3830SOL    HW112389   0.553   1.357   5.636
 3830SOL    HW212390   0.599   1.204   5.602
 3831SOL     OW12391   4.594   2.542   2.328
 3831SOL    HW112392   4.611   2.564   2.232
 3831SOL    HW212393   4.614   2.623   2.384
 3832SOL     OW12394   0.096   0.485   2.256
 3832SOL    HW112395   0.152   0.557   2.297
 3832SOL    HW212396   7.022   0.505   2.273
 3833SOL     OW12397   0.430   5.909   6.662
 3833SOL    HW112398   0.528   5.896   6.673
 3833SOL    HW212399   0.412   5.968   6.583
 3834SOL     OW12400   3.994   4.409   1.001
 3834SOL    HW112401   3.999   4.314   0.970
 3834SOL    HW212402   4.081   4.455   0.985
 3835SOL     OW12403   3.981   6.259   5.312
 3835SOL    HW112404   3.932   6.336   5.352
 3835SOL    HW212405   3.917   6.184   5.294
 3836SOL     OW12406   6.710   4.976   6.057
 3836SOL    HW112407   6.772   4.898   6.062
 3836SOL    HW212408   6.652   4.979   6.138
 3837SOL     OW12409   4.414   4.883   5.573
 3837SOL    HW112410   4.385   4.887   5.669
 3837SOL    HW212411   4.448   4.972   5.545
 3838SOL     OW12412   1.062   2.651   3.769
 3838SOL    HW112413   1.094   2.583   3.703
 3838SOL    HW212414   1.125   2.729   3.769
 3839SOL     OW12415   5.270   1.463   2.891
 3839SOL    HW112416   5.195   1.397   2.878
 3839SOL    HW212417   5.349   1.435   2.837
 3840SOL     OW12418   3.073   1.637   6.844
 3840SOL    HW112419   3.170   1.646   6.820
 3840SOL    HW212420   3.060   1.558   6.904
 3841SOL     OW12421   0.812   3.621   4.446
 3841SOL    HW112422   0.845   3.714   4.429
 3841SOL    HW212423   0.863   3.581   4.522
 3842SOL     OW12424   2.244   2.770   3.496
 3842SOL    HW112425   2.249   2.769   3.596
 3842SOL    HW212426   2.263   2.862   3.462
 3843SOL     OW12427   5.154   3.366   2.274
 3843SOL    HW112428   5.065   3.404   2.299
 3843SOL    HW212429   5.172   3.285   2.330
 3844SOL     OW12430   1.504   3.242   5.935
 3844SOL    HW112431   1.490   3.147   5.909
 3844SOL    HW212432   1.422   3.277   5.980
 3845SOL     OW12433   2.820   5.010   6.107
 3845SOL    HW112434   2.732   4.973   6.137
 3845SOL    HW212435   2.860   4.949   6.039
 3846SOL     OW12436   1.134   4.051   3.541
 3846SOL    HW112437   1.055   4.073   3.599
 3846SOL    HW212438   1.131   3.953   3.518
 3847SOL     OW12439   5.440   3.054   4.566
 3847SOL    HW112440   5.370   3.124   4.553
 3847SOL    HW212441   5.408   2.987   4.633
 3848SOL     OW12442   4.966   4.075   2.829
 3848SOL    HW112443   5.028   4.017   2.881
 3848SOL    HW212444   4.930   4.024   2.750
 3849SOL     OW12445   1.230   1.181   6.458
 3849SOL    HW112446   1.285   1.117   6.403
 3849SOL    HW212447   1.265   1.183   6.552
 3850SOL     OW12448   2.717   3.090   1.539
 3850SOL    HW112449   2.702   3.090   1.440
 3850SOL    HW212450   2.654   3.027   1.583
 3851SOL     OW12451   0.345   4.222   3.438
 3851SOL    HW112452   0.440   4.232   3.467
 3851SOL    HW212453   0.293   4.176   3.510
 3852SOL     OW12454   4.093   6.291   3.626
 3852SOL    HW112455   4.007   6.323   3.665
 3852SOL    HW212456   4.096   6.313   3.529
 3853SOL     OW12457   1.084   3.801   3.379
 3853SOL    HW112458   1.134   3.725   3.339
 3853SOL    HW212459   1.004   3.822   3.323
 3854SOL     OW12460   1.500   2.278   2.884
 3854SOL    HW112461   1.438   2.224   2.827
 3854SOL    HW212462   1.591   2.235   2.885
 3855SOL     OW12463   4.591   6.472   6.742
 3855SOL    HW112464   4.535   6.516   6.812
 3855SOL    HW212465   4.642   6.542   6.692
 3856SOL     OW12466   0.475   0.363   5.754
 3856SOL    HW112467   0.519   0.451   5.774
 3856SOL    HW212468   0.528   0.289   5.794
 3857SOL     OW12469   0.898   5.987   6.540
 3857SOL    HW112470   0.803   6.014   6.528
 3857SOL    HW212471   0.943   6.050   6.603
 3858SOL     OW12472   3.016   1.082   5.917
 3858SOL    HW112473   2.926   1.064   5.958
 3858SOL    HW212474   3.069   1.142   5.978
 3859SOL     OW12475   6.723   0.980   1.345
 3859SOL    HW112476   6.634   0.936   1.359
 3859SOL    HW212477   6.788   0.913   1.309
 3860SOL     OW12478   1.444   1.482   4.168
 3860SOL    HW112479   1.473   1.577   4.157
 3860SOL    HW212480   1.414   1.446   4.079
 3861SOL     OW12481   4.388   5.332   4.079
 3861SOL    HW112482   4.419   5.414   4.127
 3861SOL    HW212483   4.382   5.256   4.143
 3862SOL     OW12484   0.548   0.781   4.248
 3862SOL    HW112485   0.636   0.826   4.231
 3862SOL    HW212486   0.476   0.831   4.200
 3863SOL     OW12487   5.952   2.267   7.001
 3863SOL    HW112488   5.983   2.172   7.007
 3863SOL    HW212489   5.923   2.286   6.908
 3864SOL     OW12490   1.801   0.697   5.984
 3864SOL    HW112491   1.875   0.730   6.043
 3864SOL    HW212492   1.754   0.621   6.029
 3865SOL     OW12493   3.813   0.939   1.150
 3865SOL    HW112494   3.891   0.909   1.094
 3865SOL    HW212495   3.767   1.015   1.105
 3866SOL     OW12496   4.095   0.160   0.635
 3866SOL    HW112497   4.075   0.258   0.636
 3866SOL    HW212498   4.010   0.108   0.623
 3867SOL     OW12499   0.340   5.717   3.573
 3867SOL    HW112500   0.381   5.802   3.607
 3867SOL    HW212501   0.306   5.663   3.650
 3868SOL     OW12502   3.138   0.468   0.332
 3868SOL    HW112503   3.129   0.371   0.354
 3868SOL    HW212504   3.232   0.488   0.304
 3869SOL     OW12505   6.326   3.164   4.635
 3869SOL    HW112506   6.424   3.155   4.615
 3869SOL    HW212507   6.273   3.119   4.563
 3870SOL     OW12508   6.468   6.963   0.550
 3870SOL    HW112509   6.494   0.019   0.495
 3870SOL    HW212510   6.378   6.977   0.590
 3871SOL     OW12511   4.096   1.018   3.213
 3871SOL    HW112512   4.022   0.970   3.259
 3871SOL    HW212513   4.058   1.082   3.146
 3872SOL     OW12514   3.208   3.094   3.672
 3872SOL    HW112515   3.128   3.130   3.625
 3872SOL    HW212516   3.266   3.045   3.607
 3873SOL     OW12517   6.339   3.988   1.239
 3873SOL    HW112518   6.262   3.936   1.202
 3873SOL    HW212519   6.415   3.986   1.174
 3874SOL     OW12520   4.826   5.830   0.147
 3874SOL    HW112521   4.915   5.875   0.161
 3874SOL    HW212522   4.753   5.892   0.177
 3875SOL     OW12523   2.112   3.468   2.593
 3875SOL    HW112524   2.102   3.489   2.495
 3875SOL    HW212525   2.145   3.549   2.641
 3876SOL     OW12526   3.559   5.594   1.150
 3876SOL    HW112527   3.513   5.682   1.134
 3876SOL    HW212528   3.647   5.594   1.103
 3877SOL     OW12529   5.997   2.488   1.047
 3877SOL    HW112530   6.061   2.505   1.122
 3877SOL    HW212531   6.008   2.560   0.978
 3878SOL     OW12532   3.745   6.644   4.704
 3878SOL    HW112533   3.717   6.645   4.800
 3878SOL    HW212534   3.732   6.552   4.667
 3879SOL     OW12535   5.995   5.089   0.877
 3879SOL    HW112536   5.971   5.031   0.800
 3879SOL    HW212537   6.067   5.153   0.850
 3880SOL     OW12538   5.502   4.896   4.689
 3880SOL    HW112539   5.519   4.988   4.725
 3880SOL    HW212540   5.539   4.890   4.596
 3881SOL     OW12541   1.457   3.032   2.024
 3881SOL    HW112542   1.405   2.963   2.074
 3881SOL    HW212543   1.480   2.997   1.933
 3882SOL     OW12544   1.253   1.282   5.883
 3882SOL    HW112545   1.257   1.208   5.950
 3882SOL    HW212546   1.194   1.256   5.807
 3883SOL     OW12547   4.749   0.987   2.434
 3883SOL    HW112548   4.801   0.992   2.348
 3883SOL    HW212549   4.651   0.987   2.413
 3884SOL     OW12550   1.140   5.542   2.446
 3884SOL    HW112551   1.175   5.473   2.383
 3884SOL    HW212552   1.216   5.587   2.493
 3885SOL     OW12553   5.587   5.778   2.549
 3885SOL    HW112554   5.663   5.769   2.485
 3885SOL    HW212555   5.579   5.695   2.604
 3886SOL     OW12556   5.904   5.279   5.289
 3886SOL    HW112557   5.916   5.255   5.193
 3886SOL    HW212558   5.905   5.196   5.345
 3887SOL     OW12559   0.980   0.414   6.879
 3887SOL    HW112560   1.070   0.455   6.863
 3887SOL    HW212561   0.936   0.394   6.792
 3888SOL     OW12562   6.668   0.187   4.813
 3888SOL    HW112563   6.729   0.174   4.735
 3888SOL    HW212564   6.621   0.102   4.833
 3889SOL     OW12565   0.158   3.994   0.451
 3889SOL    HW112566   0.241   4.045   0.428
 3889SOL    HW212567   0.117   3.957   0.368
 3890SOL     OW12568   5.984   5.458   3.373
 3890SOL    HW112569   5.910   5.450   3.307
 3890SOL    HW212570   6.059   5.510   3.333
 3891SOL     OW12571   5.471   4.377   4.731
 3891SOL    HW112572   5.556   4.355   4.779
 3891SOL    HW212573   5.491   4.389   4.634
 3892SOL     OW12574   7.021   2.296   1.792
 3892SOL    HW112575   0.097   2.302   1.802
 3892SOL    HW212576   6.990   2.366   1.727
 3893SOL     OW12577   4.581   4.447   0.193
 3893SOL    HW112578   4.528   4.411   0.116
 3893SOL    HW212579   4.543   4.413   0.279
 3894SOL     OW12580   4.275   1.262   1.033
 3894SOL    HW112581   4.351   1.303   1.084
 3894SOL    HW212582   4.232   1.190   1.088
 3895SOL     OW12583   1.960   0.853   5.039
 3895SOL    HW112584   1.976   0.887   4.946
 3895SOL    HW212585   1.988   0.757   5.044
 3896SOL     OW12586   0.068   0.950   5.569
 3896SOL    HW112587   0.005   1.004   5.625
 3896SOL    HW212588   0.074   0.857   5.605
 3897SOL     OW12589   3.449   5.494   2.866
 3897SOL    HW112590   3.415   5.587   2.849
 3897SOL    HW212591   3.382   5.444   2.921
 3898SOL     OW12592   2.829   3.738   5.146
 3898SOL    HW112593   2.765   3.669   5.182
 3898SOL    HW212594   2.804   3.828   5.182
 3899SOL     OW12595   5.483   6.970   4.897
 3899SOL    HW112596   5.426   6.959   4.816
 3899SOL    HW212597   5.461   0.033   4.942
 3900SOL     OW12598   5.106   3.205   4.177
 3900SOL    HW112599   5.091   3.109   4.198
 3900SOL    HW212600   5.127   3.215   4.079
 3901SOL     OW12601   2.788   0.289   5.726
 3901SOL    HW112602   2.768   0.268   5.631
 3901SOL    HW212603   2.737   0.229   5.786
 3902SOL     OW12604   5.336   3.584   1.817
 3902SOL    HW112605   5.323   3.553   1.722
 3902SOL    HW212606   5.434   3.587   1.838
 3903SOL     OW12607   3.609   5.997   6.306
 3903SOL    HW112608   3.629   5.908   6.347
 3903SOL    HW212609   3.686   6.026   6.250
 3904SOL     OW12610   2.349   1.464   5.146
 3904SOL    HW112611   2.377   1.398   5.216
 3904SOL    HW212612   2.422   1.475   5.079
 3905SOL     OW12613   0.206   0.365   6.708
 3905SOL    HW112614   0.258   0.411   6.780
 3905SOL    HW212615   0.204   0.422   6.626
 3906SOL     OW12616   4.904   4.875   6.438
 3906SOL    HW112617   4.999   4.908   6.447
 3906SOL    HW212618   4.842   4.940   6.483
 3907SOL     OW12619   5.481   0.421   4.904
 3907SOL    HW112620   5.580   0.420   4.894
 3907SOL    HW212621   5.440   0.468   4.825
 3908SOL     OW12622   1.415   2.550   0.681
 3908SOL    HW112623   1.403   2.649   0.691
 3908SOL    HW212624   1.434   2.510   0.771
 3909SOL     OW12625   0.210   5.174   5.476
 3909SOL    HW112626   0.175   5.246   5.416
 3909SOL    HW212627   0.195   5.085   5.433
 3910SOL     OW12628   3.347   3.260   1.612
 3910SOL    HW112629   3.287   3.244   1.533
 3910SOL    HW212630   3.295   3.308   1.683
 3911SOL     OW12631   4.876   0.759   0.030
 3911SOL    HW112632   4.908   0.765   0.125
 3911SOL    HW212633   4.825   0.674   0.018
 3912SOL     OW12634   4.484   0.116   5.806
 3912SOL    HW112635   4.488   0.141   5.709
 3912SOL    HW212636   4.392   0.135   5.841
 3913SOL     OW12637   1.707   6.952   6.095
 3913SOL    HW112638   1.615   6.985   6.115
 3913SOL    HW212639   1.718   6.859   6.132
 3914SOL     OW12640   3.984   1.274   1.036
 3914SOL    HW112641   4.023   1.336   1.104
 3914SOL    HW212642   4.048   1.198   1.020
 3915SOL     OW12643   3.667   5.254   2.378
 3915SOL    HW112644   3.677   5.244   2.477
 3915SOL    HW212645   3.639   5.347   2.356
 3916SOL     OW12646   1.740   6.157   3.759
 3916SOL    HW112647   1.685   6.140   3.678
 3916SOL    HW212648   1.837   6.143   3.738
 3917SOL     OW12649   0.231   5.457   0.614
 3917SOL    HW112650   0.234   5.376   0.555
 3917SOL    HW212651   0.148   5.454   0.670
 3918SOL     OW12652   4.613   6.744   2.223
 3918SOL    HW112653   4.639   6.821   2.165
 3918SOL    HW212654   4.589   6.778   2.314
 3919SOL     OW12655   2.022   5.690   6.236
 3919SOL    HW112656   1.989   5.627   6.306
 3919SOL    HW212657   2.122   5.695   6.240
 3920SOL     OW12658   2.809   2.549   0.462
 3920SOL    HW112659   2.807   2.536   0.363
 3920SOL    HW212660   2.873   2.624   0.484
 3921SOL     OW12661   6.960   3.201   1.122
 3921SOL    HW112662   0.012   3.158   1.172
 3921SOL    HW212663   6.969   3.181   1.024
 3922SOL     OW12664   5.754   4.268   2.036
 3922SOL    HW112665   5.782   4.325   2.113
 3922SOL    HW212666   5.734   4.176   2.068
 3923SOL     OW12667   0.080   2.234   6.688
 3923SOL    HW112668   0.114   2.143   6.666
 3923SOL    HW212669   0.136   2.303   6.641
 3924SOL     OW12670   0.739   5.293   3.414
 3924SOL    HW112671   0.761   5.320   3.321
 3924SOL    HW212672   0.823   5.277   3.466
 3925SOL     OW12673   3.558   5.084   0.446
 3925SOL    HW112674   3.522   4.998   0.411
 3925SOL    HW212675   3.657   5.086   0.432
 3926SOL     OW12676   6.768   5.616   3.121
 3926SOL    HW112677   6.696   5.548   3.108
 3926SOL    HW212678   6.786   5.628   3.218
 3927SOL     OW12679   6.656   3.295   3.399
 3927SOL    HW112680   6.609   3.266   3.316
 3927SOL    HW212681   6.655   3.395   3.405
 3928SOL     OW12682   2.651   6.343   5.913
 3928SOL    HW112683   2.588   6.417   5.935
 3928SOL    HW212684   2.719   6.375   5.847
 3929SOL     OW12685   0.518   1.620   5.798
 3929SOL    HW112686   0.511   1.702   5.741
 3929SOL    HW212687   0.496   1.643   5.892
 3930SOL     OW12688   2.150   1.708   3.795
 3930SOL    HW112689   2.240   1.748   3.778
 3930SOL    HW212690   2.088   1.732   3.720
 3931SOL     OW12691   1.851   1.643   2.364
 3931SOL    HW112692   1.893   1.694   2.289
 3931SOL    HW212693   1.876   1.686   2.451
 3932SOL     OW12694   1.375   4.223   2.910
 3932SOL    HW112695   1.410   4.295   2.970
 3932SOL    HW212696   1.383   4.251   2.815
 3933SOL     OW12697   1.841   6.627   0.043
 3933SOL    HW112698   1.885   6.635   0.133
 3933SOL    HW212699   1.909   6.646   6.995
 3934SOL     OW12700   0.152   0.754   1.020
 3934SOL    HW112701   0.108   0.682   0.966
 3934SOL    HW212702   0.210   0.809   0.960
 3935SOL     OW12703   2.400   0.207   0.111
 3935SOL    HW112704   2.357   0.244   0.029
 3935SOL    HW212705   2.461   0.132   0.087
 3936SOL     OW12706   6.649   5.092   5.531
 3936SOL    HW112707   6.719   5.093   5.459
 3936SOL    HW212708   6.691   5.066   5.617
 3937SOL     OW12709   6.870   0.549   2.343
 3937SOL    HW112710   6.840   0.625   2.401
 3937SOL    HW212711   6.849   0.462   2.389
 3938SOL     OW12712   6.822   1.601   3.773
 3938SOL    HW112713   6.917   1.578   3.751
 3938SOL    HW212714   6.761   1.561   3.705
 3939SOL     OW12715   2.492   1.972   2.042
 3939SOL    HW112716   2.463   2.066   2.057
 3939SOL    HW212717   2.536   1.964   1.952
 3940SOL     OW12718   4.240   5.365   1.938
 3940SOL    HW112719   4.209   5.279   1.980
 3940SOL    HW212720   4.296   5.415   2.004
 3941SOL     OW12721   4.941   1.916   6.686
 3941SOL    HW112722   4.938   2.005   6.640
 3941SOL    HW212723   5.007   1.857   6.639
 3942SOL     OW12724   0.419   0.479   6.543
 3942SOL    HW112725   0.502   0.432   6.512
 3942SOL    HW212726   0.421   0.487   6.643
 3943SOL     OW12727   0.924   3.994   2.960
 3943SOL    HW112728   0.888   4.045   3.038
 3943SOL    HW212729   1.023   3.982   2.971
 3944SOL     OW12730   5.585   3.454   5.422
 3944SOL    HW112731   5.486   3.465   5.416
 3944SOL    HW212732   5.630   3.525   5.367
 3945SOL     OW12733   0.886   2.209   1.867
 3945SOL    HW112734   0.801   2.156   1.871
 3945SOL    HW212735   0.961   2.148   1.840
 3946SOL     OW12736   5.728   6.072   6.179
 3946SOL    HW112737   5.766   6.164   6.175
 3946SOL    HW212738   5.709   6.049   6.275
 3947SOL     OW12739   5.878   5.407   1.025
 3947SOL    HW112740   5.962   5.455   1.000
 3947SOL    HW212741   5.901   5.315   1.057
 3948SOL     OW12742   1.113   5.818   1.701
 3948SOL    HW112743   1.097   5.727   1.738
 3948SOL    HW212744   1.083   5.887   1.767
 3949SOL     OW12745   6.222   0.448   2.752
 3949SOL    HW112746   6.209   0.545   2.732
 3949SOL    HW212747   6.221   0.396   2.666
 3950SOL     OW12748   2.288   4.173   1.552
 3950SOL    HW112749   2.219   4.176   1.480
 3950SOL    HW212750   2.307   4.078   1.576
 3951SOL     OW12751   6.172   0.064   1.160
 3951SOL    HW112752   6.160   0.163   1.154
 3951SOL    HW212753   6.241   0.034   1.095
 3952SOL     OW12754   6.186   3.936   2.561
 3952SOL    HW112755   6.242   3.927   2.644
 3952SOL    HW212756   6.246   3.937   2.481
 3953SOL     OW12757   4.107   4.183   0.887
 3953SOL    HW112758   4.043   4.110   0.914
 3953SOL    HW212759   4.195   4.143   0.864
 3954SOL     OW12760   5.728   5.606   5.124
 3954SOL    HW112761   5.700   5.654   5.040
 3954SOL    HW212762   5.649   5.559   5.163
 3955SOL     OW12763   2.964   5.202   5.953
 3955SOL    HW112764   2.892   5.159   6.009
 3955SOL    HW212765   2.960   5.301   5.964
 3956SOL     OW12766   0.335   0.692   2.944
 3956SOL    HW112767   0.396   0.650   2.877
 3956SOL    HW212768   0.348   0.647   3.033
 3957SOL     OW12769   4.790   6.310   3.800
 3957SOL    HW112770   4.857   6.271   3.863
 3957SOL    HW212771   4.738   6.382   3.846
 3958SOL     OW12772   5.640   0.629   6.066
 3958SOL    HW112773   5.647   0.726   6.044
 3958SOL    HW212774   5.726   0.598   6.107
 3959SOL     OW12775   3.486   5.865   1.135
 3959SOL    HW112776   3.388   5.882   1.146
 3959SOL    HW212777   3.525   5.936   1.076
 3960SOL     OW12778   4.518   1.343   6.885
 3960SOL    HW112779   4.579   1.421   6.901
 3960SOL    HW212780   4.434   1.375   6.841
 3961SOL     OW12781   5.927   2.408   2.185
 3961SOL    HW112782   5.875   2.358   2.115
 3961SOL    HW212783   6.024   2.391   2.173
 3962SOL     OW12784   2.722   5.130   6.852
 3962SOL    HW112785   2.800   5.068   6.860
 3962SOL    HW212786   2.748   5.221   6.886
 3963SOL     OW12787   4.687   4.169   4.108
 3963SOL    HW112788   4.605   4.224   4.095
 3963SOL    HW212789   4.724   4.142   4.020
 3964SOL     OW12790   4.027   4.863   3.817
 3964SOL    HW112791   4.073   4.796   3.758
 3964SOL    HW212792   3.936   4.881   3.780
 3965SOL     OW12793   4.760   3.288   6.076
 3965SOL    HW112794   4.730   3.382   6.088
 3965SOL    HW212795   4.693   3.226   6.118
 3966SOL     OW12796   5.260   5.952   0.848
 3966SOL    HW112797   5.173   5.995   0.826
 3966SOL    HW212798   5.247   5.883   0.919
 3967SOL     OW12799   1.373   3.943   2.037
 3967SOL    HW112800   1.370   3.845   2.017
 3967SOL    HW212801   1.468   3.971   2.050
 3968SOL     OW12802   4.832   0.390   1.163
 3968SOL    HW112803   4.774   0.359   1.088
 3968SOL    HW212804   4.864   0.484   1.144
 3969SOL     OW12805   1.629   3.805   2.401
 3969SOL    HW112806   1.597   3.857   2.480
 3969SOL    HW212807   1.551   3.778   2.344
 3970SOL     OW12808   5.608   5.874   4.127
 3970SOL    HW112809   5.555   5.790   4.133
 3970SOL    HW212810   5.629   5.906   4.220
 3971SOL     OW12811   2.406   4.962   1.579
 3971SOL    HW112812   2.504   4.956   1.560
 3971SOL    HW212813   2.390   5.037   1.643
 3972SOL     OW12814   1.006   5.301   0.633
 3972SOL    HW112815   0.974   5.215   0.594
 3972SOL    HW212816   1.015   5.292   0.732
 3973SOL     OW12817   0.990   4.587   5.821
 3973SOL    HW112818   1.046   4.512   5.855
 3973SOL    HW212819   1.023   4.615   5.730
 3974SOL     OW12820   1.314   0.671   4.668
 3974SOL    HW112821   1.220   0.653   4.699
 3974SOL    HW212822   1.377   0.663   4.746
 3975SOL     OW12823   5.989   0.756   5.783
 3975SOL    HW112824   5.976   0.756   5.882
 3975SOL    HW212825   5.908   0.718   5.739
 3976SOL     OW12826   1.479   6.531   1.888
 3976SOL    HW112827   1.459   6.522   1.790
 3976SOL    HW212828   1.574   6.559   1.899
 3977SOL     OW12829   3.149   4.228   5.876
 3977SOL    HW112830   3.142   4.281   5.961
 3977SOL    HW212831   3.210   4.275   5.813
 3978SOL     OW12832   5.287   6.363   4.985
 3978SOL    HW112833   5.190   6.347   5.004
 3978SOL    HW212834   5.318   6.299   4.914
 3979SOL     OW12835   3.179   5.798   0.398
 3979SOL    HW112836   3.206   5.849   0.317
 3979SOL    HW212837   3.236   5.716   0.407
 3980SOL     OW12838   0.422   5.641   0.405
 3980SOL    HW112839   0.396   5.641   0.502
 3980SOL    HW212840   0.360   5.581   0.354
 3981SOL     OW12841   2.084   1.221   0.529
 3981SOL    HW112842   2.058   1.313   0.561
 3981SOL    HW212843   2.089   1.220   0.430
 3982SOL     OW12844   1.899   0.151   4.313
 3982SOL    HW112845   1.864   0.185   4.226
 3982SOL    HW212846   1.837   0.179   4.387
 3983SOL     OW12847   5.202   5.447   4.576
 3983SOL    HW112848   5.179   5.355   4.608
 3983SOL    HW212849   5.221   5.506   4.654
 3984SOL     OW12850   0.104   0.798   2.904
 3984SOL    HW112851   0.169   0.727   2.930
 3984SOL    HW212852   0.099   0.803   2.805
 3985SOL     OW12853   3.748   4.498   6.490
 3985SOL    HW112854   3.773   4.407   6.523
 3985SOL    HW212855   3.831   4.553   6.476
 3986SOL     OW12856   6.595   1.743   3.134
 3986SOL    HW112857   6.506   1.738   3.090
 3986SOL    HW212858   6.666   1.712   3.070
 3987SOL     OW12859   2.787   5.294   3.739
 3987SOL    HW112860   2.831   5.311   3.827
 3987SOL    HW212861   2.848   5.322   3.665
 3988SOL     OW12862   4.164   3.893   6.796
 3988SOL    HW112863   4.218   3.865   6.717
 3988SOL    HW212864   4.111   3.815   6.829
 3989SOL     OW12865   6.769   2.617   6.785
 3989SOL    HW112866   6.689   2.570   6.823
 3989SOL    HW212867   6.739   2.703   6.742
 3990SOL     OW12868   5.319   2.309   3.075
 3990SOL    HW112869   5.305   2.362   2.991
 3990SOL    HW212870   5.304   2.369   3.154
 3991SOL     OW12871   6.127   0.829   2.229
 3991SOL    HW112872   6.181   0.909   2.253
 3991SOL    HW212873   6.093   0.838   2.136
 3992SOL     OW12874   3.916   1.964   0.005
 3992SOL    HW112875   3.900   1.911   6.945
 3992SOL    HW212876   3.836   2.021   0.024
 3993SOL     OW12877   0.951   1.564   3.039
 3993SOL    HW112878   0.877   1.572   2.973
 3993SOL    HW212879   0.929   1.616   3.122
 3994SOL     OW12880   0.775   0.996   6.227
 3994SOL    HW112881   0.701   0.961   6.284
 3994SOL    HW212882   0.863   0.979   6.272
 3995SOL     OW12883   2.184   3.853   5.544
 3995SOL    HW112884   2.234   3.767   5.543
 3995SOL    HW212885   2.178   3.890   5.451
 3996SOL     OW12886   1.191   1.428   4.402
 3996SOL    HW112887   1.119   1.383   4.455
 3996SOL    HW212888   1.250   1.359   4.361
 3997SOL     OW12889   5.327   1.325   3.472
 3997SOL    HW112890   5.275   1.335   3.557
 3997SOL    HW212891   5.266   1.295   3.399
 3998SOL     OW12892   4.718   1.174   3.596
 3998SOL    HW112893   4.642   1.167   3.531
 3998SOL    HW212894   4.682   1.188   3.688
 3999SOL     OW12895   5.747   3.316   3.898
 3999SOL    HW112896   5.745   3.226   3.941
 3999SOL    HW212897   5.832   3.326   3.845
 4000SOL     OW12898   2.856   5.517   3.016
 4000SOL    HW112899   2.856   5.537   3.114
 4000SOL    HW212900   2.817   5.594   2.966
 4001SOL     OW12901   2.630   2.069   4.091
 4001SOL    HW112902   2.637   2.049   4.189
 4001SOL    HW212903   2.664   2.162   4.074
 4002SOL     OW12904   2.614   3.229   0.824
 4002SOL    HW112905   2.531   3.229   0.880
 4002SOL    HW212906   2.616   3.146   0.768
 4003SOL     OW12907   2.967   6.199   4.033
 4003SOL    HW112908   2.998   6.291   4.010
 4003SOL    HW212909   2.955   6.146   3.949
 4004SOL     OW12910   5.493   2.173   4.399
 4004SOL    HW112911   5.528   2.223   4.319
 4004SOL    HW212912   5.404   2.133   4.377
 4005SOL     OW12913   4.563   6.056   0.508
 4005SOL    HW112914   4.585   6.089   0.600
 4005SOL    HW212915   4.477   6.006   0.510
 4006SOL     OW12916   3.434   5.458   3.374
 4006SOL    HW112917   3.417   5.380   3.434
 4006SOL    HW212918   3.519   5.503   3.401
 4007SOL     OW12919   0.726   2.708   1.392
 4007SOL    HW112920   0.728   2.768   1.312
 4007SOL    HW212921   0.728   2.612   1.362
 4008SOL     OW12922   3.121   1.925   3.463
 4008SOL    HW112923   3.143   1.941   3.560
 4008SOL    HW212924   3.030   1.886   3.455
 4009SOL     OW12925   5.051   3.357   1.144
 4009SOL    HW112926   4.996   3.440   1.142
 4009SOL    HW212927   5.087   3.337   1.053
 4010SOL     OW12928   2.297   2.568   1.943
 4010SOL    HW112929   2.260   2.623   1.869
 4010SOL    HW212930   2.230   2.498   1.970
 4011SOL     OW12931   0.223   0.881   2.269
 4011SOL    HW112932   0.172   0.921   2.193
 4011SOL    HW212933   0.310   0.844   2.235
 4012SOL     OW12934   4.160   5.663   1.329
 4012SOL    HW112935   4.233   5.616   1.380
 4012SOL    HW212936   4.141   5.751   1.371
 4013SOL     OW12937   2.742   6.918   6.402
 4013SOL    HW112938   2.657   6.952   6.442
 4013SOL    HW212939   2.739   6.818   6.397
 4014SOL     OW12940   4.494   5.951   3.093
 4014SOL    HW112941   4.443   6.037   3.087
 4014SOL    HW212942   4.448   5.881   3.039
 4015SOL     OW12943   4.942   5.364   6.132
 4015SOL    HW112944   5.030   5.318   6.138
 4015SOL    HW212945   4.889   5.346   6.215
 4016SOL     OW12946   2.431   5.611   6.428
 4016SOL    HW112947   2.409   5.519   6.397
 4016SOL    HW212948   2.422   5.616   6.527
 4017SOL     OW12949   0.548   6.053   1.120
 4017SOL    HW112950   0.494   6.129   1.156
 4017SOL    HW212951   0.609   6.018   1.192
 4018SOL     OW12952   4.963   5.979   3.335
 4018SOL    HW112953   4.903   5.918   3.284
 4018SOL    HW212954   5.053   5.937   3.347
 4019SOL     OW12955   5.892   3.786   2.951
 4019SOL    HW112956   5.958   3.836   3.007
 4019SOL    HW212957   5.887   3.827   2.860
 4020SOL     OW12958   5.099   2.127   5.733
 4020SOL    HW112959   5.071   2.180   5.652
 4020SOL    HW212960   5.088   2.184   5.815
 4021SOL     OW12961   3.455   3.921   6.298
 4021SOL    HW112962   3.436   3.900   6.202
 4021SOL    HW212963   3.371   3.954   6.342
 4022SOL     OW12964   3.975   0.262   6.899
 4022SOL    HW112965   3.953   0.206   6.979
 4022SOL    HW212966   3.920   0.232   6.821
 4023SOL     OW12967   6.321   1.998   4.714
 4023SOL    HW112968   6.274   1.909   4.710
 4023SOL    HW212969   6.352   2.023   4.622
 4024SOL     OW12970   3.745   6.067   3.269
 4024SOL    HW112971   3.681   6.024   3.205
 4024SOL    HW212972   3.799   6.136   3.222
 4025SOL     OW12973   0.978   6.012   4.237
 4025SOL    HW112974   0.878   6.012   4.241
 4025SOL    HW212975   1.012   5.921   4.262
 4026SOL     OW12976   6.163   6.147   4.264
 4026SOL    HW112977   6.120   6.228   4.223
 4026SOL    HW212978   6.262   6.162   4.269
 4027SOL     OW12979   3.897   3.986   2.046
 4027SOL    HW112980   3.877   3.951   2.138
 4027SOL    HW212981   3.814   3.987   1.992
 4028SOL     OW12982   1.204   2.182   3.980
 4028SOL    HW112983   1.130   2.178   4.048
 4028SOL    HW212984   1.175   2.137   3.896
 4029SOL     OW12985   1.595   4.036   6.680
 4029SOL    HW112986   1.689   4.059   6.656
 4029SOL    HW212987   1.533   4.073   6.610
 4030SOL     OW12988   1.399   2.149   5.821
 4030SOL    HW112989   1.333   2.075   5.811
 4030SOL    HW212990   1.451   2.137   5.906
 4031SOL     OW12991   4.939   5.746   3.075
 4031SOL    HW112992   4.920   5.702   2.988
 4031SOL    HW212993   4.854   5.768   3.122
 4032SOL     OW12994   5.715   7.001   2.992
 4032SOL    HW112995   5.789   7.018   2.927
 4032SOL    HW212996   5.697   0.060   3.045
 4033SOL     OW12997   3.608   2.906   3.118
 4033SOL    HW112998   3.570   2.995   3.092
 4033SOL    HW212999   3.534   2.839   3.125
 4034SOL     OW13000   5.166   1.473   5.255
 4034SOL    HW113001   5.226   1.459   5.334
 4034SOL    HW213002   5.071   1.464   5.283
 4035SOL     OW13003   6.620   4.217   1.187
 4035SOL    HW113004   6.522   4.221   1.206
 4035SOL    HW213005   6.636   4.242   1.091
 4036SOL     OW13006   5.507   6.409   2.443
 4036SOL    HW113007   5.447   6.396   2.522
 4036SOL    HW213008   5.481   6.493   2.394
 4037SOL     OW13009   1.934   2.761   0.610
 4037SOL    HW113010   2.020   2.747   0.560
 4037SOL    HW213011   1.947   2.827   0.683
 4038SOL     OW13012   4.468   4.867   1.993
 4038SOL    HW113013   4.494   4.860   1.897
 4038SOL    HW213014   4.427   4.956   2.010
 4039SOL     OW13015   4.805   5.068   1.130
 4039SOL    HW113016   4.876   5.022   1.182
 4039SOL    HW213017   4.790   5.019   1.044
 4040SOL     OW13018   2.790   6.647   0.410
 4040SOL    HW113019   2.730   6.591   0.352
 4040SOL    HW213020   2.735   6.716   0.457
 4041SOL     OW13021   1.725   5.937   2.197
 4041SOL    HW113022   1.723   5.913   2.100
 4041SOL    HW213023   1.808   5.899   2.238
 4042SOL     OW13024   6.009   4.631   2.263
 4042SOL    HW113025   6.053   4.611   2.351
 4042SOL    HW213026   6.079   4.637   2.192
 4043SOL     OW13027   5.836   1.961   3.942
 4043SOL    HW113028   5.762   2.014   3.901
 4043SOL    HW213029   5.817   1.945   4.038
 4044SOL     OW13030   6.022   0.624   4.550
 4044SOL    HW113031   5.952   0.681   4.508
 4044SOL    HW213032   6.033   0.540   4.497
 4045SOL     OW13033   2.595   4.190   6.117
 4045SOL    HW113034   2.647   4.267   6.079
 4045SOL    HW213035   2.498   4.208   6.108
 4046SOL     OW13036   0.756   2.259   3.327
 4046SOL    HW113037   0.854   2.243   3.314
 4046SOL    HW213038   0.740   2.355   3.347
 4047SOL     OW13039   2.324   3.525   0.627
 4047SOL    HW113040   2.341   3.595   0.697
 4047SOL    HW213041   2.267   3.564   0.555
 4048SOL     OW13042   5.933   0.737   1.767
 4048SOL    HW113043   5.850   0.699   1.728
 4048SOL    HW213044   5.950   0.697   1.857
 4049SOL     OW13045   6.291   6.183   6.751
 4049SOL    HW113046   6.373   6.186   6.809
 4049SOL    HW213047   6.314   6.218   6.660
 4050SOL     OW13048   1.575   6.817   7.017
 4050SOL    HW113049   1.606   6.850   0.083
 4050SOL    HW213050   1.586   6.718   7.012
 4051SOL     OW13051   2.966   3.942   0.033
 4051SOL    HW113052   2.982   3.847   0.006
 4051SOL    HW213053   2.868   3.962   0.027
 4052SOL     OW13054   1.225   0.128   1.136
 4052SOL    HW113055   1.218   0.170   1.227
 4052SOL    HW213056   1.136   0.089   1.111
 4053SOL     OW13057   3.414   4.969   3.652
 4053SOL    HW113058   3.449   4.964   3.746
 4053SOL    HW213059   3.478   5.021   3.596
 4054SOL     OW13060   2.443   3.345   0.437
 4054SOL    HW113061   2.529   3.303   0.466
 4054SOL    HW213062   2.396   3.382   0.517
 4055SOL     OW13063   3.053   3.210   5.979
 4055SOL    HW113064   2.984   3.279   5.955
 4055SOL    HW213065   3.078   3.160   5.896
 4056SOL     OW13066   4.702   3.412   6.653
 4056SOL    HW113067   4.654   3.482   6.601
 4056SOL    HW213068   4.795   3.402   6.617
 4057SOL     OW13069   5.030   3.524   0.564
 4057SOL    HW113070   5.122   3.552   0.538
 4057SOL    HW213071   4.963   3.577   0.512
 4058SOL     OW13072   1.802   1.179   4.570
 4058SOL    HW113073   1.714   1.221   4.549
 4058SOL    HW213074   1.858   1.242   4.624
 4059SOL     OW13075   2.200   2.236   3.441
 4059SOL    HW113076   2.117   2.288   3.421
 4059SOL    HW213077   2.215   2.168   3.369
 4060SOL     OW13078   3.638   4.972   4.947
 4060SOL    HW113079   3.723   4.962   4.998
 4060SOL    HW213080   3.649   4.936   4.855
 4061SOL     OW13081   3.488   4.386   1.652
 4061SOL    HW113082   3.395   4.422   1.650
 4061SOL    HW213083   3.538   4.428   1.727
 4062SOL     OW13084   4.483   1.749   3.352
 4062SOL    HW113085   4.393   1.709   3.370
 4062SOL    HW213086   4.488   1.777   3.256
 4063SOL     OW13087   4.463   6.041   5.918
 4063SOL    HW113088   4.482   6.137   5.938
 4063SOL    HW213089   4.541   5.999   5.872
 4064SOL     OW13090   2.361   6.558   2.560
 4064SOL    HW113091   2.323   6.649   2.539
 4064SOL    HW213092   2.389   6.513   2.475
 4065SOL     OW13093   0.484   0.108   0.515
 4065SOL    HW113094   0.416   0.077   0.448
 4065SOL    HW213095   0.551   0.166   0.469
 4066SOL     OW13096   5.333   4.865   2.032
 4066SOL    HW113097   5.421   4.843   1.989
 4066SOL    HW213098   5.291   4.942   1.984
 4067SOL     OW13099   5.657   1.788   3.009
 4067SOL    HW113100   5.601   1.849   3.065
 4067SOL    HW213101   5.604   1.756   2.931
 4068SOL     OW13102   4.739   0.314   5.035
 4068SOL    HW113103   4.812   0.296   4.969
 4068SOL    HW213104   4.651   0.297   4.992
 4069SOL     OW13105   4.521   3.702   0.263
 4069SOL    HW113106   4.566   3.653   0.338
 4069SOL    HW213107   4.563   3.792   0.251
 4070SOL     OW13108   1.646   3.388   2.642
 4070SOL    HW113109   1.640   3.486   2.621
 4070SOL    HW213110   1.725   3.371   2.700
 4071SOL     OW13111   1.615   0.853   4.964
 4071SOL    HW113112   1.613   0.948   4.995
 4071SOL    HW213113   1.640   0.849   4.868
 4072SOL     OW13114   1.832   6.439   4.440
 4072SOL    HW113115   1.784   6.420   4.354
 4072SOL    HW213116   1.866   6.353   4.479
 4073SOL     OW13117   2.033   5.643   5.942
 4073SOL    HW113118   2.107   5.693   5.898
 4073SOL    HW213119   2.022   5.675   6.036
 4074SOL     OW13120   0.474   3.089   1.978
 4074SOL    HW113121   0.468   3.028   2.057
 4074SOL    HW213122   0.554   3.065   1.923
 4075SOL     OW13123   4.872   1.939   2.667
 4075SOL    HW113124   4.968   1.929   2.641
 4075SOL    HW213125   4.825   1.851   2.659
 4076SOL     OW13126   2.538   4.229   5.308
 4076SOL    HW113127   2.478   4.256   5.384
 4076SOL    HW213128   2.506   4.142   5.270
 4077SOL     OW13129   2.566   6.118   0.858
 4077SOL    HW113130   2.636   6.047   0.851
 4077SOL    HW213131   2.558   6.166   0.770
 4078SOL     OW13132   6.091   5.152   1.820
 4078SOL    HW113133   5.994   5.136   1.803
 4078SOL    HW213134   6.131   5.070   1.861
 4079SOL     OW13135   1.749   0.442   3.390
 4079SOL    HW113136   1.702   0.403   3.311
 4079SOL    HW213137   1.790   0.529   3.365
 4080SOL     OW13138   3.227   3.930   0.124
 4080SOL    HW113139   3.237   3.831   0.114
 4080SOL    HW213140   3.134   3.956   0.100
 4081SOL     OW13141   2.042   0.948   4.797
 4081SOL    HW113142   2.083   0.857   4.790
 4081SOL    HW213143   2.089   1.011   4.735
 4082SOL     OW13144   1.873   1.539   6.305
 4082SOL    HW113145   1.798   1.604   6.293
 4082SOL    HW213146   1.928   1.566   6.384
 4083SOL     OW13147   5.861   4.506   3.459
 4083SOL    HW113148   5.921   4.437   3.420
 4083SOL    HW213149   5.909   4.555   3.532
 4084SOL     OW13150   4.792   2.829   3.256
 4084SOL    HW113151   4.767   2.781   3.340
 4084SOL    HW213152   4.807   2.926   3.277
 4085SOL     OW13153   2.860   5.050   1.240
 4085SOL    HW113154   2.900   5.041   1.331
 4085SOL    HW213155   2.784   4.985   1.230
 4086SOL     OW13156   0.240   5.176   0.476
 4086SOL    HW113157   0.337   5.151   0.478
 4086SOL    HW213158   0.202   5.153   0.387
 4087SOL     OW13159   3.008   0.814   2.934
 4087SOL    HW113160   3.071   0.755   2.984
 4087SOL    HW213161   2.976   0.887   2.994
 4088SOL     OW13162   6.580   1.071   5.684
 4088SOL    HW113163   6.545   0.978   5.697
 4088SOL    HW213164   6.657   1.086   5.745
 4089SOL     OW13165   0.442   5.411   4.105
 4089SOL    HW113166   0.502   5.467   4.162
 4089SOL    HW213167   0.464   5.426   4.009
 4090SOL     OW13168   2.013   6.357   5.324
 4090SOL    HW113169   2.057   6.336   5.236
 4090SOL    HW213170   1.921   6.318   5.325
 4091SOL     OW13171   1.219   5.266   0.419
 4091SOL    HW113172   1.184   5.357   0.398
 4091SOL    HW213173   1.156   5.219   0.481
 4092SOL     OW13174   4.931   3.356   4.939
 4092SOL    HW113175   4.879   3.438   4.965
 4092SOL    HW213176   4.870   3.291   4.894
 4093SOL     OW13177   6.374   6.013   1.831
 4093SOL    HW113178   6.456   5.992   1.883
 4093SOL    HW213179   6.298   6.031   1.893
 4094SOL     OW13180   0.797   4.607   0.118
 4094SOL    HW113181   0.887   4.579   0.085
 4094SOL    HW213182   0.786   4.706   0.106
 4095SOL     OW13183   0.380   3.435   0.008
 4095SOL    HW113184   0.310   3.499   7.001
 4095SOL    HW213185   0.407   3.458   0.102
 4096SOL     OW13186   2.058   0.926   6.551
 4096SOL    HW113187   2.096   0.836   6.569
 4096SOL    HW213188   2.050   0.977   6.636
 4097SOL     OW13189   6.266   4.367   5.264
 4097SOL    HW113190   6.238   4.411   5.179
 4097SOL    HW213191   6.242   4.426   5.341
 4098SOL     OW13192   1.863   3.307   1.553
 4098SOL    HW113193   1.949   3.256   1.548
 4098SOL    HW213194   1.883   3.404   1.562
 4099SOL     OW13195   4.046   4.859   6.712
 4099SOL    HW113196   4.102   4.814   6.781
 4099SOL    HW213197   4.079   4.952   6.696
 4100SOL     OW13198   1.088   0.841   3.853
 4100SOL    HW113199   1.172   0.866   3.900
 4100SOL    HW213200   1.014   0.829   3.920
 4101SOL     OW13201   6.622   1.130   6.365
 4101SOL    HW113202   6.689   1.089   6.303
 4101SOL    HW213203   6.645   1.106   6.459
 4102SOL     OW13204   1.955   0.657   0.678
 4102SOL    HW113205   1.925   0.736   0.731
 4102SOL    HW213206   1.908   0.656   0.590
 4103SOL     OW13207   0.049   6.875   2.282
 4103SOL    HW113208   0.082   6.782   2.300
 4103SOL    HW213209   0.033   6.922   2.368
 4104SOL     OW13210   0.377   5.381   3.076
 4104SOL    HW113211   0.410   5.468   3.040
 4104SOL    HW213212   0.328   5.332   3.004
 4105SOL     OW13213   4.895   1.222   1.711
 4105SOL    HW113214   4.931   1.149   1.653
 4105SOL    HW213215   4.967   1.288   1.731
 4106SOL     OW13216   6.805   2.404   4.180
 4106SOL    HW113217   6.780   2.324   4.235
 4106SOL    HW213218   6.894   2.387   4.136
 4107SOL     OW13219   0.322   6.344   6.789
 4107SOL    HW113220   0.345   6.357   6.693
 4107SOL    HW213221   0.317   6.432   6.836
 4108SOL     OW13222   0.972   5.804   3.992
 4108SOL    HW113223   1.061   5.804   4.038
 4108SOL    HW213224   0.985   5.809   3.893
 4109SOL     OW13225   5.779   5.765   3.684
 4109SOL    HW113226   5.781   5.772   3.784
 4109SOL    HW213227   5.872   5.745   3.651
 4110SOL     OW13228   4.249   3.136   6.843
 4110SOL    HW113229   4.161   3.165   6.804
 4110SOL    HW213230   4.319   3.139   6.772
 4111SOL     OW13231   6.037   5.141   6.204
 4111SOL    HW113232   6.091   5.178   6.280
 4111SOL    HW213233   5.957   5.093   6.240
 4112SOL     OW13234   5.079   6.945   4.738
 4112SOL    HW113235   5.008   6.974   4.673
 4112SOL    HW213236   5.040   6.944   4.830
 4113SOL     OW13237   4.426   5.230   4.901
 4113SOL    HW113238   4.385   5.149   4.941
 4113SOL    HW213239   4.507   5.256   4.953
 4114SOL     OW13240   6.091   1.576   3.144
 4114SOL    HW113241   6.092   1.625   3.057
 4114SOL    HW213242   6.161   1.614   3.205
 4115SOL     OW13243   3.126   4.858   3.217
 4115SOL    HW113244   3.035   4.817   3.217
 4115SOL    HW213245   3.166   4.851   3.308
 4116SOL     OW13246   5.365   2.413   3.370
 4116SOL    HW113247   5.383   2.369   3.458
 4116SOL    HW213248   5.387   2.510   3.376
 4117SOL     OW13249   1.464   1.896   2.462
 4117SOL    HW113250   1.446   1.805   2.498
 4117SOL    HW213251   1.458   1.894   2.362
 4118SOL     OW13252   6.085   6.842   6.257
 4118SOL    HW113253   6.116   6.825   6.164
 4118SOL    HW213254   6.161   6.876   6.312
 4119SOL     OW13255   3.018   0.617   3.298
 4119SOL    HW113256   3.039   0.696   3.356
 4119SOL    HW213257   3.080   0.541   3.320
 4120SOL     OW13258   4.458   1.671   6.403
 4120SOL    HW113259   4.507   1.730   6.339
 4120SOL    HW213260   4.374   1.717   6.432
 4121SOL     OW13261   6.582   6.350   2.459
 4121SOL    HW113262   6.623   6.389   2.377
 4121SOL    HW213263   6.624   6.390   2.541
 4122SOL     OW13264   0.450   5.899   4.664
 4122SOL    HW113265   0.385   5.972   4.639
 4122SOL    HW213266   0.412   5.811   4.637
 4123SOL     OW13267   4.283   5.518   4.594
 4123SOL    HW113268   4.336   5.435   4.613
 4123SOL    HW213269   4.345   5.595   4.578
 4124SOL     OW13270   6.694   6.843   1.338
 4124SOL    HW113271   6.595   6.833   1.332
 4124SOL    HW213272   6.728   6.886   1.254
 4125SOL     OW13273   4.895   2.877   2.933
 4125SOL    HW113274   4.804   2.866   2.973
 4125SOL    HW213275   4.895   2.842   2.840
 4126SOL     OW13276   1.636   3.158   2.198
 4126SOL    HW113277   1.564   3.102   2.158
 4126SOL    HW213278   1.607   3.190   2.288
 4127SOL     OW13279   4.286   2.354   4.574
 4127SOL    HW113280   4.256   2.349   4.479
 4127SOL    HW213281   4.305   2.449   4.599
 4128SOL     OW13282   0.317   3.307   2.079
 4128SOL    HW113283   0.288   3.246   2.154
 4128SOL    HW213284   0.376   3.257   2.016
 4129SOL     OW13285   3.136   2.280   0.643
 4129SOL    HW113286   3.075   2.278   0.563
 4129SOL    HW213287   3.116   2.202   0.702
 4130SOL     OW13288   6.350   2.569   0.646
 4130SOL    HW113289   6.300   2.523   0.572
 4130SOL    HW213290   6.310   2.544   0.734
 4131SOL     OW13291   6.544   0.533   2.709
 4131SOL    HW113292   6.455   0.571   2.733
 4131SOL    HW213293   6.573   0.469   2.781
 4132SOL     OW13294   6.088   4.227   3.893
 4132SOL    HW113295   6.063   4.131   3.887
 4132SOL    HW213296   6.184   4.234   3.922
 4133SOL     OW13297   5.018   6.279   1.047
 4133SOL    HW113298   5.063   6.261   1.134
 4133SOL    HW213299   5.070   6.347   0.996
 4134SOL     OW13300   2.487   3.577   1.054
 4134SOL    HW113301   2.410   3.636   1.077
 4134SOL    HW213302   2.458   3.508   0.987
 4135SOL     OW13303   0.426   2.069   2.679
 4135SOL    HW113304   0.501   2.057   2.613
 4135SOL    HW213305   0.398   2.165   2.679
 4136SOL     OW13306   0.804   3.628   1.528
 4136SOL    HW113307   0.816   3.705   1.465
 4136SOL    HW213308   0.894   3.596   1.558
 4137SOL     OW13309   1.294   2.814   6.900
 4137SOL    HW113310   1.301   2.816   6.999
 4137SOL    HW213311   1.227   2.745   6.873
 4138SOL     OW13312   4.322   5.120   0.952
 4138SOL    HW113313   4.267   5.108   1.035
 4138SOL    HW213314   4.364   5.211   0.953
 4139SOL     OW13315   1.528   2.203   3.899
 4139SOL    HW113316   1.431   2.183   3.882
 4139SOL    HW213317   1.542   2.302   3.900
 4140SOL     OW13318   3.065   2.203   3.695
 4140SOL    HW113319   3.151   2.158   3.719
 4140SOL    HW213320   3.028   2.249   3.775
 4141SOL     OW13321   4.639   0.150   6.758
 4141SOL    HW113322   4.658   0.173   6.853
 4141SOL    HW213323   4.698   0.074   6.730
 4142SOL     OW13324   6.801   3.921   1.826
 4142SOL    HW113325   6.799   3.940   1.728
 4142SOL    HW213326   6.798   4.007   1.877
 4143SOL     OW13327   5.528   3.304   0.954
 4143SOL    HW113328   5.461   3.378   0.952
 4143SOL    HW213329   5.487   3.221   0.916
 4144SOL     OW13330   5.088   1.789   0.563
 4144SOL    HW113331   5.090   1.749   0.655
 4144SOL    HW213332   5.180   1.786   0.523
 4145SOL     OW13333   1.008   6.253   0.580
 4145SOL    HW113334   1.003   6.350   0.604
 4145SOL    HW213335   0.916   6.218   0.561
 4146SOL     OW13336   6.123   6.980   3.961
 4146SOL    HW113337   6.173   6.959   3.877
 4146SOL    HW213338   6.180   0.016   4.019
 4147SOL     OW13339   5.808   4.772   6.092
 4147SOL    HW113340   5.800   4.814   6.182
 4147SOL    HW213341   5.769   4.680   6.094
 4148SOL     OW13342   2.760   0.205   5.473
 4148SOL    HW113343   2.799   0.207   5.381
 4148SOL    HW213344   2.663   0.184   5.468
 4149SOL     OW13345   0.672   3.292   1.435
 4149SOL    HW113346   0.638   3.215   1.381
 4149SOL    HW213347   0.651   3.377   1.388
 4150SOL     OW13348   6.536   2.367   5.406
 4150SOL    HW113349   6.580   2.297   5.462
 4150SOL    HW213350   6.578   2.368   5.315
 4151SOL     OW13351   1.828   0.102   5.126
 4151SOL    HW113352   1.909   0.084   5.180
 4151SOL    HW213353   1.748   0.107   5.185
 4152SOL     OW13354   3.945   5.576   1.999
 4152SOL    HW113355   3.888   5.637   1.944
 4152SOL    HW213356   4.041   5.585   1.970
 4153SOL     OW13357   6.632   5.240   1.439
 4153SOL    HW113358   6.556   5.225   1.375
 4153SOL    HW213359   6.603   5.303   1.511
 4154SOL     OW13360   0.443   5.648   3.048
 4154SOL    HW113361   0.507   5.634   3.124
 4154SOL    HW213362   0.357   5.686   3.083
 4155SOL     OW13363   6.670   2.236   1.256
 4155SOL    HW113364   6.664   2.336   1.261
 4155SOL    HW213365   6.602   2.196   1.317
 4156SOL     OW13366   6.412   5.380   4.795
 4156SOL    HW113367   6.320   5.340   4.798
 4156SOL    HW213368   6.429   5.431   4.880
 4157SOL     OW13369   6.241   5.975   2.552
 4157SOL    HW113370   6.259   6.073   2.560
 4157SOL    HW213371   6.302   5.925   2.613
 4158SOL     OW13372   1.796   2.760   1.684
 4158SOL    HW113373   1.878   2.704   1.682
 4158SOL    HW213374   1.821   2.856   1.690
 4159SOL     OW13375   2.782   2.267   3.078
 4159SOL    HW113376   2.761   2.281   3.175
 4159SOL    HW213377   2.881   2.261   3.066
 4160SOL     OW13378   5.498   0.257   0.060
 4160SOL    HW113379   5.551   0.173   0.067
 4160SOL    HW213380   5.548   0.332   0.104
 4161SOL     OW13381   1.606   2.297   1.490
 4161SOL    HW113382   1.571   2.375   1.541
 4161SOL    HW213383   1.675   2.328   1.424
 4162SOL     OW13384   6.303   5.810   1.272
 4162SOL    HW113385   6.286   5.852   1.361
 4162SOL    HW213386   6.392   5.839   1.238
 4163SOL     OW13387   5.781   1.227   2.589
 4163SOL    HW113388   5.775   1.128   2.605
 4163SOL    HW213389   5.704   1.256   2.532
 4164SOL     OW13390   0.717   6.932   5.475
 4164SOL    HW113391   0.653   6.951   5.401
 4164SOL    HW213392   0.806   6.972   5.453
 4165SOL     OW13393   4.311   6.705   5.699
 4165SOL    HW113394   4.357   6.653   5.771
 4165SOL    HW213395   4.264   6.783   5.739
 4166SOL     OW13396   6.180   1.236   1.465
 4166SOL    HW113397   6.255   1.302   1.459
 4166SOL    HW213398   6.132   1.231   1.378
 4167SOL     OW13399   2.707   4.769   5.957
 4167SOL    HW113400   2.675   4.781   5.862
 4167SOL    HW213401   2.806   4.777   5.960
 4168SOL     OW13402   0.108   4.186   0.630
 4168SOL    HW113403   0.134   4.112   0.568
 4168SOL    HW213404   0.191   4.232   0.664
 4169SOL     OW13405   6.065   3.739   5.331
 4169SOL    HW113406   6.059   3.668   5.401
 4169SOL    HW213407   6.008   3.816   5.356
 4170SOL     OW13408   4.902   2.991   5.032
 4170SOL    HW113409   4.998   2.982   5.058
 4170SOL    HW213410   4.855   3.050   5.098
 4171SOL     OW13411   1.291   5.272   0.984
 4171SOL    HW113412   1.340   5.357   0.964
 4171SOL    HW213413   1.316   5.202   0.917
 4172SOL     OW13414   2.824   2.958   0.499
 4172SOL    HW113415   2.885   2.891   0.542
 4172SOL    HW213416   2.854   2.976   0.406
 4173SOL     OW13417   4.654   2.989   5.881
 4173SOL    HW113418   4.645   2.949   5.790
 4173SOL    HW213419   4.662   3.089   5.873
 4174SOL     OW13420   5.003   1.624   2.688
 4174SOL    HW113421   4.990   1.578   2.776
 4174SOL    HW213422   4.914   1.654   2.653
 4175SOL     OW13423   1.605   4.550   5.025
 4175SOL    HW113424   1.597   4.455   4.996
 4175SOL    HW213425   1.673   4.557   5.099
 4176SOL     OW13426   3.957   6.570   1.234
 4176SOL    HW113427   3.960   6.477   1.271
 4176SOL    HW213428   4.041   6.618   1.259
 4177SOL     OW13429   5.287   4.523   4.841
 4177SOL    HW113430   5.353   4.498   4.770
 4177SOL    HW213431   5.208   4.462   4.836
 4178SOL     OW13432   4.780   0.312   2.851
 4178SOL    HW113433   4.841   0.322   2.773
 4178SOL    HW213434   4.781   0.396   2.905
 4179SOL     OW13435   5.186   3.989   3.567
 4179SOL    HW113436   5.247   4.016   3.493
 4179SOL    HW213437   5.191   3.890   3.580
 4180SOL     OW13438   5.103   2.486   0.812
 4180SOL    HW113439   5.194   2.525   0.800
 4180SOL    HW213440   5.047   2.506   0.732
 4181SOL     OW13441   5.255   1.414   6.521
 4181SOL    HW113442   5.188   1.350   6.558
 4181SOL    HW213443   5.211   1.471   6.451
 4182SOL     OW13444   0.514   5.309   3.595
 4182SOL    HW113445   0.442   5.265   3.541
 4182SOL    HW213446   0.599   5.311   3.542
 4183SOL     OW13447   2.684   1.049   0.583
 4183SOL    HW113448   2.753   1.036   0.512
 4183SOL    HW213449   2.693   0.978   0.653
 4184SOL     OW13450   3.529   0.325   2.387
 4184SOL    HW113451   3.463   0.255   2.415
 4184SOL    HW213452   3.622   0.293   2.405
 4185SOL     OW13453   0.718   4.009   2.782
 4185SOL    HW113454   0.784   4.034   2.853
 4185SOL    HW213455   0.761   4.018   2.692
 4186SOL     OW13456   2.501   5.892   6.449
 4186SOL    HW113457   2.510   5.881   6.548
 4186SOL    HW213458   2.478   5.803   6.408
 4187SOL     OW13459   2.714   3.283   6.652
 4187SOL    HW113460   2.803   3.239   6.671
 4187SOL    HW213461   2.645   3.246   6.714
 4188SOL     OW13462   5.190   0.986   5.044
 4188SOL    HW113463   5.209   1.075   5.084
 4188SOL    HW213464   5.130   0.998   4.964
 4189SOL     OW13465   3.481   5.304   4.147
 4189SOL    HW113466   3.386   5.334   4.158
 4189SOL    HW213467   3.487   5.206   4.169
 4190SOL     OW13468   0.569   6.771   0.545
 4190SOL    HW113469   0.617   6.762   0.458
 4190SOL    HW213470   0.630   6.811   0.613
 4191SOL     OW13471   5.216   3.761   5.297
 4191SOL    HW113472   5.297   3.813   5.270
 4191SOL    HW213473   5.238   3.663   5.297
 4192SOL     OW13474   1.360   1.990   1.991
 4192SOL    HW113475   1.301   1.919   2.029
 4192SOL    HW213476   1.358   1.985   1.891
 4193SOL     OW13477   5.255   0.819   0.707
 4193SOL    HW113478   5.225   0.745   0.647
 4193SOL    HW213479   5.354   0.814   0.718
 4194SOL     OW13480   5.098   0.160   4.091
 4194SOL    HW113481   5.089   0.240   4.033
 4194SOL    HW213482   5.195   0.146   4.114
 4195SOL     OW13483   4.186   5.035   1.512
 4195SOL    HW113484   4.264   5.096   1.501
 4195SOL    HW213485   4.122   5.076   1.577
 4196SOL     OW13486   0.063   2.429   2.907
 4196SOL    HW113487   0.159   2.443   2.882
 4196SOL    HW213488   0.055   2.345   2.961
 4197SOL     OW13489   4.474   5.134   5.465
 4197SOL    HW113490   4.535   5.187   5.523
 4197SOL    HW213491   4.390   5.186   5.449
 4198SOL     OW13492   6.635   1.491   1.408
 4198SOL    HW113493   6.676   1.404   1.379
 4198SOL    HW213494   6.654   1.504   1.505
 4199SOL     OW13495   0.973   2.442   5.147
 4199SOL    HW113496   0.987   2.343   5.142
 4199SOL    HW213497   1.010   2.476   5.233
 4200SOL     OW13498   2.756   0.545   6.299
 4200SOL    HW113499   2.851   0.522   6.275
 4200SOL    HW213500   2.734   0.635   6.261
 4201SOL     OW13501   6.269   0.379   3.559
 4201SOL    HW113502   6.192   0.400   3.619
 4201SOL    HW213503   6.290   0.458   3.502
 4202SOL     OW13504   2.437   5.353   6.316
 4202SOL    HW113505   2.531   5.322   6.330
 4202SOL    HW213506   2.385   5.281   6.270
 4203SOL     OW13507   5.082   4.609   0.564
 4203SOL    HW113508   5.125   4.630   0.652
 4203SOL    HW213509   5.124   4.527   0.525
 4204SOL     OW13510   3.899   3.584   4.771
 4204SOL    HW113511   3.945   3.628   4.848
 4204SOL    HW213512   3.959   3.585   4.691
 4205SOL     OW13513   4.129   6.150   5.034
 4205SOL    HW113514   4.044   6.100   5.017
 4205SOL    HW213515   4.120   6.245   5.004
 4206SOL     OW13516   6.367   1.716   5.266
 4206SOL    HW113517   6.427   1.646   5.227
 4206SOL    HW213518   6.298   1.742   5.199
 4207SOL     OW13519   2.095   2.715   1.834
 4207SOL    HW113520   2.124   2.811   1.830
 4207SOL    HW213521   2.052   2.697   1.922
 4208SOL     OW13522   6.993   3.636   5.747
 4208SOL    HW113523   7.008   3.681   5.659
 4208SOL    HW213524   0.048   3.653   5.807
 4209SOL     OW13525   0.182   6.244   3.303
 4209SOL    HW113526   0.144   6.241   3.211
 4209SOL    HW213527   0.109   6.235   3.370
 4210SOL     OW13528   3.603   3.062   2.619
 4210SOL    HW113529   3.701   3.078   2.625
 4210SOL    HW213530   3.558   3.100   2.700
 4211SOL     OW13531   3.500   0.665   5.382
 4211SOL    HW113532   3.456   0.665   5.293
 4211SOL    HW213533   3.590   0.709   5.375
 4212SOL     OW13534   6.371   2.158   3.182
 4212SOL    HW113535   6.403   2.205   3.265
 4212SOL    HW213536   6.450   2.138   3.123
 4213SOL     OW13537   2.833   0.233   2.651
 4213SOL    HW113538   2.894   0.250   2.728
 4213SOL    HW213539   2.849   0.302   2.580
 4214SOL     OW13540   0.283   5.574   5.443
 4214SOL    HW113541   0.272   5.567   5.542
 4214SOL    HW213542   0.365   5.522   5.415
 4215SOL     OW13543   5.109   7.012   5.234
 4215SOL    HW113544   5.204   6.987   5.216
 4215SOL    HW213545   5.068   6.945   5.296
 4216SOL     OW13546   1.516   1.179   2.734
 4216SOL    HW113547   1.615   1.179   2.749
 4216SOL    HW213548   1.472   1.127   2.808
 4217SOL     OW13549   1.019   0.908   2.731
 4217SOL    HW113550   1.064   0.935   2.816
 4217SOL    HW213551   0.975   0.819   2.744
 4218SOL     OW13552   3.313   0.480   1.300
 4218SOL    HW113553   3.253   0.513   1.373
 4218SOL    HW213554   3.345   0.558   1.246
 4219SOL     OW13555   4.415   5.817   4.416
 4219SOL    HW113556   4.477   5.739   4.414
 4219SOL    HW213557   4.462   5.897   4.452
 4220SOL     OW13558   6.272   3.539   1.984
 4220SOL    HW113559   6.267   3.441   1.963
 4220SOL    HW213560   6.329   3.585   1.916
 4221SOL     OW13561   5.991   4.134   5.419
 4221SOL    HW113562   6.064   4.169   5.478
 4221SOL    HW213563   6.017   4.146   5.323
 4222SOL     OW13564   6.664   0.828   2.717
 4222SOL    HW113565   6.640   0.868   2.806
 4222SOL    HW213566   6.649   0.729   2.720
 4223SOL     OW13567   3.847   3.787   0.768
 4223SOL    HW113568   3.898   3.842   0.834
 4223SOL    HW213569   3.751   3.814   0.768
 4224SOL     OW13570   5.430   5.155   4.511
 4224SOL    HW113571   5.440   5.242   4.464
 4224SOL    HW213572   5.483   5.156   4.596
 4225SOL     OW13573   1.984   2.720   5.040
 4225SOL    HW113574   2.081   2.738   5.056
 4225SOL    HW213575   1.963   2.625   5.066
 4226SOL     OW13576   1.043   6.063   2.832
 4226SOL    HW113577   0.976   6.007   2.880
 4226SOL    HW213578   1.052   6.032   2.738
 4227SOL     OW13579   3.630   5.525   2.035
 4227SOL    HW113580   3.567   5.521   1.957
 4227SOL    HW213581   3.694   5.449   2.030
 4228SOL     OW13582   0.302   6.426   5.580
 4228SOL    HW113583   0.211   6.397   5.550
 4228SOL    HW213584   0.293   6.482   5.662
 4229SOL     OW13585   4.988   5.939   5.919
 4229SOL    HW113586   4.982   5.998   5.999
 4229SOL    HW213587   5.069   5.961   5.866
 4230SOL     OW13588   1.937   6.410   3.009
 4230SOL    HW113589   1.895   6.493   2.971
 4230SOL    HW213590   1.865   6.345   3.033
 4231SOL     OW13591   4.974   6.830   5.990
 4231SOL    HW113592   4.975   6.730   5.981
 4231SOL    HW213593   5.050   6.869   5.938
 4232SOL     OW13594   1.275   4.289   3.440
 4232SOL    HW113595   1.322   4.242   3.365
 4232SOL    HW213596   1.232   4.220   3.500
 4233SOL     OW13597   6.412   0.768   5.073
 4233SOL    HW113598   6.331   0.797   5.022
 4233SOL    HW213599   6.392   0.772   5.171
 4234SOL     OW13600   2.064   5.236   5.045
 4234SOL    HW113601   2.070   5.230   5.145
 4234SOL    HW213602   1.972   5.263   5.018
 4235SOL     OW13603   6.658   4.339   6.017
 4235SOL    HW113604   6.739   4.281   6.025
 4235SOL    HW213605   6.603   4.333   6.100
 4236SOL     OW13606   6.214   4.080   2.248
 4236SOL    HW113607   6.187   4.036   2.162
 4236SOL    HW213608   6.134   4.124   2.290
 4237SOL     OW13609   6.082   5.206   4.016
 4237SOL    HW113610   6.171   5.177   3.982
 4237SOL    HW213611   6.042   5.273   3.954
 4238SOL     OW13612   1.367   6.708   3.194
 4238SOL    HW113613   1.340   6.795   3.152
 4238SOL    HW213614   1.328   6.703   3.287
 4239SOL     OW13615   4.727   1.643   3.359
 4239SOL    HW113616   4.778   1.670   3.278
 4239SOL    HW213617   4.634   1.680   3.353
 4240SOL     OW13618   2.320   5.685   0.408
 4240SOL    HW113619   2.352   5.755   0.472
 4240SOL    HW213620   2.332   5.594   0.449
 4241SOL     OW13621   5.645   1.254   1.171
 4241SOL    HW113622   5.670   1.348   1.193
 4241SOL    HW213623   5.599   1.213   1.250
 4242SOL     OW13624   3.279   2.074   3.810
 4242SOL    HW113625   3.241   1.982   3.803
 4242SOL    HW213626   3.229   2.125   3.881
 4243SOL     OW13627   5.628   2.510   3.186
 4243SOL    HW113628   5.554   2.544   3.245
 4243SOL    HW213629   5.684   2.446   3.237
 4244SOL     OW13630   4.464   4.125   1.232
 4244SOL    HW113631   4.410   4.044   1.211
 4244SOL    HW213632   4.480   4.131   1.330
 4245SOL     OW13633   6.330   1.757   6.111
 4245SOL    HW113634   6.380   1.679   6.149
 4245SOL    HW213635   6.306   1.820   6.185
 4246SOL     OW13636   6.567   3.668   2.628
 4246SOL    HW113637   6.666   3.659   2.641
 4246SOL    HW213638   6.538   3.758   2.660
 4247SOL     OW13639   2.263   5.952   3.613
 4247SOL    HW113640   2.256   5.883   3.685
 4247SOL    HW213641   2.347   5.937   3.560
 4248SOL     OW13642   3.356   1.591   4.055
 4248SOL    HW113643   3.397   1.653   3.987
 4248SOL    HW213644   3.292   1.530   4.010
 4249SOL     OW13645   6.632   2.688   5.288
 4249SOL    HW113646   6.639   2.786   5.308
 4249SOL    HW213647   6.722   2.653   5.264
 4250SOL     OW13648   6.693   4.189   2.916
 4250SOL    HW113649   6.760   4.247   2.962
 4250SOL    HW213650   6.697   4.206   2.818
 4251SOL     OW13651   6.154   4.691   0.944
 4251SOL    HW113652   6.065   4.721   0.979
 4251SOL    HW213653   6.163   4.592   0.956
 4252SOL     OW13654   5.863   6.501   5.071
 4252SOL    HW113655   5.831   6.492   4.976
 4252SOL    HW213656   5.851   6.596   5.101
 4253SOL     OW13657   3.493   6.852   1.203
 4253SOL    HW113658   3.454   6.774   1.154
 4253SOL    HW213659   3.464   6.937   1.160
 4254SOL     OW13660   1.077   2.752   2.638
 4254SOL    HW113661   1.171   2.740   2.668
 4254SOL    HW213662   1.061   2.849   2.616
 4255SOL     OW13663   5.578   3.800   3.527
 4255SOL    HW113664   5.575   3.899   3.516
 4255SOL    HW213665   5.508   3.757   3.470
 4256SOL     OW13666   1.584   7.016   0.638
 4256SOL    HW113667   1.563   6.922   0.611
 4256SOL    HW213668   1.508   0.030   0.691
 4257SOL     OW13669   3.336   0.592   4.227
 4257SOL    HW113670   3.431   0.608   4.254
 4257SOL    HW213671   3.333   0.534   4.146
 4258SOL     OW13672   5.443   6.002   1.469
 4258SOL    HW113673   5.526   5.990   1.523
 4258SOL    HW213674   5.403   6.092   1.489
 4259SOL     OW13675   2.864   1.143   0.111
 4259SOL    HW113676   2.783   1.097   0.076
 4259SOL    HW213677   2.942   1.122   0.052
 4260SOL     OW13678   4.724   0.082   6.313
 4260SOL    HW113679   4.732   0.138   6.395
 4260SOL    HW213680   4.650   0.117   6.256
 4261SOL     OW13681   2.293   0.318   1.870
 4261SOL    HW113682   2.203   0.289   1.837
 4261SOL    HW213683   2.285   0.406   1.916
 4262SOL     OW13684   0.308   4.358   5.525
 4262SOL    HW113685   0.241   4.331   5.455
 4262SOL    HW213686   0.399   4.327   5.497
 4263SOL     OW13687   3.096   6.592   3.608
 4263SOL    HW113688   3.037   6.553   3.679
 4263SOL    HW213689   3.046   6.598   3.522
 4264SOL     OW13690   0.323   2.435   2.826
 4264SOL    HW113691   0.336   2.408   2.731
 4264SOL    HW213692   0.413   2.445   2.870
 4265SOL     OW13693   5.393   1.515   0.707
 4265SOL    HW113694   5.464   1.474   0.764
 4265SOL    HW213695   5.435   1.554   0.625
 4266SOL     OW13696   2.143   5.132   0.304
 4266SOL    HW113697   2.155   5.219   0.352
 4266SOL    HW213698   2.073   5.142   0.233
 4267SOL     OW13699   1.869   3.635   4.889
 4267SOL    HW113700   1.831   3.584   4.812
 4267SOL    HW213701   1.946   3.585   4.929
 4268SOL     OW13702   0.859   6.404   6.505
 4268SOL    HW113703   0.859   6.433   6.601
 4268SOL    HW213704   0.789   6.335   6.491
 4269SOL     OW13705   2.276   1.330   1.675
 4269SOL    HW113706   2.202   1.293   1.732
 4269SOL    HW213707   2.360   1.338   1.729
 4270SOL     OW13708   3.882   3.586   3.818
 4270SOL    HW113709   3.952   3.531   3.865
 4270SOL    HW213710   3.912   3.681   3.813
 4271SOL     OW13711   0.279   1.029   6.771
 4271SOL    HW113712   0.221   1.082   6.833
 4271SOL    HW213713   0.236   1.023   6.681
 4272SOL     OW13714   0.290   3.711   5.043
 4272SOL    HW113715   0.316   3.728   4.948
 4272SOL    HW213716   0.337   3.628   5.076
 4273SOL     OW13717   4.525   5.867   5.428
 4273SOL    HW113718   4.493   5.947   5.479
 4273SOL    HW213719   4.624   5.873   5.415
 4274SOL     OW13720   1.945   0.126   2.191
 4274SOL    HW113721   1.855   0.138   2.147
 4274SOL    HW213722   1.985   0.040   2.159
 4275SOL     OW13723   6.313   1.095   4.933
 4275SOL    HW113724   6.263   1.012   4.907
 4275SOL    HW213725   6.250   1.158   4.980
 4276SOL     OW13726   1.833   4.396   3.961
 4276SOL    HW113727   1.894   4.356   3.892
 4276SOL    HW213728   1.865   4.370   4.052
 4277SOL     OW13729   6.139   5.072   4.283
 4277SOL    HW113730   6.042   5.066   4.259
 4277SOL    HW213731   6.187   5.127   4.214
 4278SOL     OW13732   0.392   0.676   4.437
 4278SOL    HW113733   0.389   0.748   4.506
 4278SOL    HW213734   0.461   0.698   4.368
 4279SOL     OW13735   3.566   0.577   4.983
 4279SOL    HW113736   3.651   0.534   5.014
 4279SOL    HW213737   3.579   0.614   4.891
 4280SOL     OW13738   5.281   0.700   5.538
 4280SOL    HW113739   5.352   0.714   5.607
 4280SOL    HW213740   5.318   0.720   5.447
 4281SOL     OW13741   1.486   5.134   4.063
 4281SOL    HW113742   1.497   5.230   4.088
 4281SOL    HW213743   1.557   5.079   4.107
 4282SOL     OW13744   3.598   3.551   6.465
 4282SOL    HW113745   3.602   3.593   6.374
 4282SOL    HW213746   3.534   3.474   6.463
 4283SOL     OW13747   2.415   0.995   3.417
 4283SOL    HW113748   2.368   0.908   3.432
 4283SOL    HW213749   2.487   0.983   3.348
 4284SOL     OW13750   4.574   5.556   1.418
 4284SOL    HW113751   4.624   5.469   1.420
 4284SOL    HW213752   4.637   5.631   1.436
 4285SOL     OW13753   0.975   0.765   5.959
 4285SOL    HW113754   0.891   0.721   5.991
 4285SOL    HW213755   0.985   0.853   6.004
 4286SOL     OW13756   4.877   5.866   6.560
 4286SOL    HW113757   4.781   5.892   6.552
 4286SOL    HW213758   4.928   5.902   6.481
 4287SOL     OW13759   5.635   1.590   6.534
 4287SOL    HW113760   5.578   1.604   6.453
 4287SOL    HW213761   5.650   1.492   6.548
 4288SOL     OW13762   1.267   5.967   3.181
 4288SOL    HW113763   1.172   5.999   3.187
 4288SOL    HW213764   1.282   5.895   3.249
 4289SOL     OW13765   6.902   3.003   0.668
 4289SOL    HW113766   6.939   3.003   0.574
 4289SOL    HW213767   6.934   2.921   0.715
 4290SOL     OW13768   2.765   6.977   2.876
 4290SOL    HW113769   2.847   6.929   2.907
 4290SOL    HW213770   2.757   6.969   2.777
 4291SOL     OW13771   4.079   3.731   1.001
 4291SOL    HW113772   4.127   3.724   1.089
 4291SOL    HW213773   3.986   3.696   1.011
 4292SOL     OW13774   6.185   4.322   6.536
 4292SOL    HW113775   6.112   4.275   6.584
 4292SOL    HW213776   6.150   4.360   6.450
 4293SOL     OW13777   0.642   3.286   0.684
 4293SOL    HW113778   0.579   3.293   0.607
 4293SOL    HW213779   0.642   3.372   0.735
 4294SOL     OW13780   3.095   2.610   0.186
 4294SOL    HW113781   3.137   2.605   0.096
 4294SOL    HW213782   2.996   2.605   0.178
 4295SOL     OW13783   4.064   6.243   4.621
 4295SOL    HW113784   4.117   6.297   4.556
 4295SOL    HW213785   4.125   6.194   4.683
 4296SOL     OW13786   4.185   0.857   0.601
 4296SOL    HW113787   4.202   0.875   0.504
 4296SOL    HW213788   4.226   0.769   0.627
 4297SOL     OW13789   5.557   1.126   6.737
 4297SOL    HW113790   5.472   1.082   6.764
 4297SOL    HW213791   5.621   1.126   6.815
 4298SOL     OW13792   3.168   5.628   0.048
 4298SOL    HW113793   3.190   5.722   0.020
 4298SOL    HW213794   3.088   5.629   0.108
 4299SOL     OW13795   0.962   2.862   0.363
 4299SOL    HW113796   0.972   2.788   0.430
 4299SOL    HW213797   0.905   2.831   0.287
 4300SOL     OW13798   3.663   0.547   0.128
 4300SOL    HW113799   3.675   0.452   0.101
 4300SOL    HW213800   3.582   0.556   0.186
 4301SOL     OW13801   3.327   1.445   0.857
 4301SOL    HW113802   3.331   1.387   0.939
 4301SOL    HW213803   3.259   1.409   0.794
 4302SOL     OW13804   1.397   6.816   5.722
 4302SOL    HW113805   1.413   6.741   5.786
 4302SOL    HW213806   1.365   6.897   5.772
 4303SOL     OW13807   5.934   4.581   4.065
 4303SOL    HW113808   5.875   4.662   4.067
 4303SOL    HW213809   6.029   4.610   4.048
 4304SOL     OW13810   3.116   4.030   3.487
 4304SOL    HW113811   3.210   4.053   3.463
 4304SOL    HW213812   3.062   4.018   3.404
 4305SOL     OW13813   6.640   0.728   4.224
 4305SOL    HW113814   6.708   0.738   4.296
 4305SOL    HW213815   6.565   0.670   4.256
 4306SOL     OW13816   6.265   3.557   6.831
 4306SOL    HW113817   6.338   3.611   6.872
 4306SOL    HW213818   6.300   3.510   6.750
 4307SOL     OW13819   4.712   3.545   6.209
 4307SOL    HW113820   4.730   3.560   6.306
 4307SOL    HW213821   4.630   3.488   6.199
 4308SOL     OW13822   5.604   5.767   6.253
 4308SOL    HW113823   5.520   5.736   6.208
 4308SOL    HW213824   5.580   5.819   6.335
 4309SOL     OW13825   1.461   1.732   0.580
 4309SOL    HW113826   1.431   1.664   0.647
 4309SOL    HW213827   1.439   1.823   0.614
 4310SOL     OW13828   1.411   2.411   3.351
 4310SOL    HW113829   1.417   2.316   3.320
 4310SOL    HW213830   1.412   2.414   3.451
 4311SOL     OW13831   1.602   6.081   3.521
 4311SOL    HW113832   1.580   6.111   3.428
 4311SOL    HW213833   1.545   6.003   3.545
 4312SOL     OW13834   1.390   5.113   0.804
 4312SOL    HW113835   1.457   5.111   0.730
 4312SOL    HW213836   1.378   5.021   0.841
 4313SOL     OW13837   4.871   1.382   1.270
 4313SOL    HW113838   4.832   1.296   1.238
 4313SOL    HW213839   4.835   1.403   1.361
 4314SOL     OW13840   5.937   1.636   4.203
 4314SOL    HW113841   5.903   1.611   4.112
 4314SOL    HW213842   5.902   1.726   4.229
 4315SOL     OW13843   2.717   7.018   2.137
 4315SOL    HW113844   2.663   0.060   2.085
 4315SOL    HW213845   2.744   6.942   2.077
 4316SOL     OW13846   5.110   6.825   1.378
 4316SOL    HW113847   5.034   6.872   1.333
 4316SOL    HW213848   5.117   6.732   1.343
 4317SOL     OW13849   4.431   1.898   4.781
 4317SOL    HW113850   4.404   1.826   4.717
 4317SOL    HW213851   4.478   1.971   4.731
 4318SOL     OW13852   1.235   3.252   3.850
 4318SOL    HW113853   1.271   3.340   3.881
 4318SOL    HW213854   1.216   3.194   3.929
 4319SOL     OW13855   2.225   2.634   0.031
 4319SOL    HW113856   2.155   2.697   7.020
 4319SOL    HW213857   2.228   2.639   0.131
 4320SOL     OW13858   0.063   6.058   2.438
 4320SOL    HW113859   0.078   6.016   2.527
 4320SOL    HW213860   7.022   6.134   2.447
 4321SOL     OW13861   6.537   6.892   4.587
 4321SOL    HW113862   6.561   6.860   4.495
 4321SOL    HW213863   6.438   6.900   4.594
 4322SOL     OW13864   5.935   1.937   6.658
 4322SOL    HW113865   5.917   2.005   6.586
 4322SOL    HW213866   5.853   1.880   6.670
 4323SOL     OW13867   5.011   4.040   1.303
 4323SOL    HW113868   5.090   3.995   1.346
 4323SOL    HW213869   4.950   4.075   1.374
 4324SOL     OW13870   5.813   3.912   6.393
 4324SOL    HW113871   5.793   3.816   6.375
 4324SOL    HW213872   5.742   3.951   6.452
 4325SOL     OW13873   2.153   1.023   1.043
 4325SOL    HW113874   2.174   1.084   1.120
 4325SOL    HW213875   2.147   1.077   0.959
 4326SOL     OW13876   5.851   3.527   4.828
 4326SOL    HW113877   5.808   3.618   4.827
 4326SOL    HW213878   5.785   3.459   4.796
 4327SOL     OW13879   6.227   5.312   2.040
 4327SOL    HW113880   6.210   5.250   1.964
 4327SOL    HW213881   6.211   5.406   2.010
 4328SOL     OW13882   3.863   3.674   6.023
 4328SOL    HW113883   3.833   3.677   6.118
 4328SOL    HW213884   3.911   3.758   6.000
 4329SOL     OW13885   4.137   1.805   6.223
 4329SOL    HW113886   4.074   1.881   6.205
 4329SOL    HW213887   4.148   1.794   6.322
 4330SOL     OW13888   2.742   0.726   4.879
 4330SOL    HW113889   2.691   0.780   4.946
 4330SOL    HW213890   2.819   0.680   4.924
 4331SOL     OW13891   4.923   2.986   0.826
 4331SOL    HW113892   4.882   2.948   0.909
 4331SOL    HW213893   4.851   3.006   0.759
 4332SOL     OW13894   5.123   4.872   2.534
 4332SOL    HW113895   5.198   4.907   2.479
 4332SOL    HW213896   5.099   4.780   2.503
 4333SOL     OW13897   4.127   0.560   5.291
 4333SOL    HW113898   4.078   0.476   5.269
 4333SOL    HW213899   4.166   0.552   5.383
 4334SOL     OW13900   1.976   1.764   2.586
 4334SOL    HW113901   2.018   1.851   2.611
 4334SOL    HW213902   1.964   1.708   2.668
 4335SOL     OW13903   3.604   4.047   3.194
 4335SOL    HW113904   3.618   4.103   3.112
 4335SOL    HW213905   3.687   3.997   3.216
 4336SOL     OW13906   1.119   6.474   6.063
 4336SOL    HW113907   1.121   6.457   6.161
 4336SOL    HW213908   1.039   6.530   6.041
 4337SOL     OW13909   1.008   4.274   0.816
 4337SOL    HW113910   0.952   4.339   0.867
 4337SOL    HW213911   1.065   4.324   0.750
 4338SOL     OW13912   4.727   5.871   4.268
 4338SOL    HW113913   4.738   5.771   4.268
 4338SOL    HW213914   4.666   5.898   4.194
 4339SOL     OW13915   6.589   3.546   5.372
 4339SOL    HW113916   6.519   3.513   5.310
 4339SOL    HW213917   6.626   3.469   5.425
 4340SOL     OW13918   6.369   4.617   1.466
 4340SOL    HW113919   6.363   4.668   1.381
 4340SOL    HW213920   6.329   4.671   1.540
 4341SOL     OW13921   0.777   5.497   2.286
 4341SOL    HW113922   0.800   5.406   2.253
 4341SOL    HW213923   0.725   5.490   2.371
 4342SOL     OW13924   6.517   3.645   4.281
 4342SOL    HW113925   6.433   3.654   4.228
 4342SOL    HW213926   6.528   3.550   4.311
 4343SOL     OW13927   2.150   6.188   6.318
 4343SOL    HW113928   2.205   6.176   6.235
 4343SOL    HW213929   2.198   6.149   6.396
 4344SOL     OW13930   1.545   5.083   3.256
 4344SOL    HW113931   1.581   5.145   3.187
 4344SOL    HW213932   1.621   5.031   3.296
 4345SOL     OW13933   2.211   2.820   5.169
 4345SOL    HW113934   2.269   2.885   5.120
 4345SOL    HW213935   2.268   2.749   5.210
 4346SOL     OW13936   1.769   3.433   2.103
 4346SOL    HW113937   1.850   3.427   2.046
 4346SOL    HW213938   1.796   3.438   2.199
 4347SOL     OW13939   5.941   6.787   2.730
 4347SOL    HW113940   5.935   6.876   2.775
 4347SOL    HW213941   5.852   6.765   2.690
 4348SOL     OW13942   6.726   4.184   3.281
 4348SOL    HW113943   6.743   4.086   3.280
 4348SOL    HW213944   6.660   4.205   3.353
 4349SOL     OW13945   6.612   2.436   2.417
 4349SOL    HW113946   6.674   2.392   2.481
 4349SOL    HW213947   6.580   2.370   2.349
 4350SOL     OW13948   5.167   2.078   3.909
 4350SOL    HW113949   5.125   2.068   3.818
 4350SOL    HW213950   5.175   1.988   3.952
 4351SOL     OW13951   1.960   6.885   1.419
 4351SOL    HW113952   1.982   6.921   1.329
 4351SOL    HW213953   1.922   6.793   1.409
 4352SOL     OW13954   0.574   2.967   2.437
 4352SOL    HW113955   0.521   3.043   2.474
 4352SOL    HW213956   0.512   2.896   2.403
 4353SOL     OW13957   3.271   3.661   0.100
 4353SOL    HW113958   3.369   3.639   0.101
 4353SOL    HW213959   3.218   3.581   0.128
 4354SOL     OW13960   2.238   6.722   6.111
 4354SOL    HW113961   2.306   6.656   6.079
 4354SOL    HW213962   2.244   6.805   6.056
 4355SOL     OW13963   3.525   0.229   2.703
 4355SOL    HW113964   3.531   0.327   2.687
 4355SOL    HW213965   3.465   0.210   2.780
 4356SOL     OW13966   5.215   4.262   1.315
 4356SOL    HW113967   5.192   4.296   1.406
 4356SOL    HW213968   5.151   4.190   1.288
 4357SOL     OW13969   5.969   0.448   0.185
 4357SOL    HW113970   5.898   0.388   0.149
 4357SOL    HW213971   6.032   0.472   0.111
 4358SOL     OW13972   6.862   5.864   0.171
 4358SOL    HW113973   6.840   5.961   0.164
 4358SOL    HW213974   6.784   5.810   0.139
 4359SOL     OW13975   2.026   1.941   5.769
 4359SOL    HW113976   2.024   1.894   5.858
 4359SOL    HW213977   2.093   2.015   5.772
 4360SOL     OW13978   0.989   2.487   3.996
 4360SOL    HW113979   1.062   2.506   4.061
 4360SOL    HW213980   1.025   2.487   3.903
 4361SOL     OW13981   2.450   3.187   1.253
 4361SOL    HW113982   2.429   3.150   1.162
 4361SOL    HW213983   2.543   3.224   1.254
 4362SOL     OW13984   6.336   4.609   3.029
 4362SOL    HW113985   6.285   4.575   3.108
 4362SOL    HW213986   6.433   4.617   3.052
 4363SOL     OW13987   5.144   2.734   0.105
 4363SOL    HW113988   5.047   2.759   0.100
 4363SOL    HW213989   5.190   2.761   0.021
 4364SOL     OW13990   3.612   3.376   5.386
 4364SOL    HW113991   3.567   3.351   5.300
 4364SOL    HW213992   3.542   3.391   5.456
 4365SOL     OW13993   2.205   2.294   2.039
 4365SOL    HW113994   2.161   2.263   1.955
 4365SOL    HW213995   2.159   2.254   2.118
 4366SOL     OW13996   5.905   6.104   0.350
 4366SOL    HW113997   5.846   6.134   0.425
 4366SOL    HW213998   5.933   6.184   0.296
 4367SOL     OW13999   1.959   4.699   4.653
 4367SOL    HW114000   2.005   4.656   4.730
 4367SOL    HW214001   2.007   4.676   4.568
 4368SOL     OW14002   4.295   4.489   0.967
 4368SOL    HW114003   4.352   4.458   0.891
 4368SOL    HW214004   4.287   4.416   1.034
 4369SOL     OW14005   3.431   5.567   4.002
 4369SOL    HW114006   3.466   5.603   3.916
 4369SOL    HW214007   3.505   5.523   4.053
 4370SOL     OW14008   4.743   5.074   2.926
 4370SOL    HW114009   4.744   5.002   2.857
 4370SOL    HW214010   4.787   5.041   3.010
 4371SOL     OW14011   0.566   1.037   1.339
 4371SOL    HW114012   0.625   1.112   1.307
 4371SOL    HW214013   0.558   0.968   1.267
 4372SOL     OW14014   4.289   1.290   2.873
 4372SOL    HW114015   4.233   1.238   2.936
 4372SOL    HW214016   4.239   1.305   2.788
 4373SOL     OW14017   0.458   2.180   6.891
 4373SOL    HW114018   0.422   2.255   6.946
 4373SOL    HW214019   0.469   2.211   6.796
 4374SOL     OW14020   1.094   2.196   2.351
 4374SOL    HW114021   1.125   2.250   2.430
 4374SOL    HW214022   1.164   2.198   2.280
 4375SOL     OW14023   3.817   1.058   2.979
 4375SOL    HW114024   3.834   0.978   2.920
 4375SOL    HW214025   3.719   1.073   2.986
 4376SOL     OW14026   6.306   6.725   2.782
 4376SOL    HW114027   6.326   6.751   2.877
 4376SOL    HW214028   6.225   6.667   2.780
 4377SOL     OW14029   5.371   4.386   0.209
 4377SOL    HW114030   5.396   4.289   0.212
 4377SOL    HW214031   5.431   4.438   0.270
 4378SOL     OW14032   2.168   1.259   2.724
 4378SOL    HW114033   2.074   1.291   2.737
 4378SOL    HW214034   2.231   1.325   2.765
 4379SOL     OW14035   1.957   1.098   2.589
 4379SOL    HW114036   2.053   1.076   2.606
 4379SOL    HW214037   1.929   1.172   2.650
 4380SOL     OW14038   1.802   0.089   2.850
 4380SOL    HW114039   1.880   0.077   2.789
 4380SOL    HW214040   1.743   0.162   2.816
 4381SOL     OW14041   0.338   6.308   5.106
 4381SOL    HW114042   0.364   6.213   5.122
 4381SOL    HW214043   0.269   6.312   5.034
 4382SOL     OW14044   1.093   3.602   5.338
 4382SOL    HW114045   1.090   3.613   5.239
 4382SOL    HW214046   1.175   3.647   5.374
 4383SOL     OW14047   0.536   2.972   6.826
 4383SOL    HW114048   0.632   2.999   6.821
 4383SOL    HW214049   0.479   3.050   6.800
 4384SOL     OW14050   5.963   0.415   4.761
 4384SOL    HW114051   5.975   0.483   4.689
 4384SOL    HW214052   6.053   0.385   4.794
 4385SOL     OW14053   4.669   2.909   5.328
 4385SOL    HW114054   4.590   2.861   5.291
 4385SOL    HW214055   4.664   3.006   5.304
 4386SOL     OW14056   2.001   3.597   5.960
 4386SOL    HW114057   1.946   3.515   5.940
 4386SOL    HW214058   2.097   3.576   5.946
 4387SOL     OW14059   6.610   2.896   1.417
 4387SOL    HW114060   6.701   2.936   1.415
 4387SOL    HW214061   6.546   2.956   1.369
 4388SOL     OW14062   4.087   2.080   5.783
 4388SOL    HW114063   4.081   2.015   5.860
 4388SOL    HW214064   4.166   2.139   5.796
 4389SOL     OW14065   6.624   3.394   1.040
 4389SOL    HW114066   6.559   3.466   1.062
 4389SOL    HW214067   6.678   3.372   1.122
 4390SOL     OW14068   3.850   6.779   1.477
 4390SOL    HW114069   3.878   6.683   1.477
 4390SOL    HW214070   3.805   6.800   1.564
 4391SOL     OW14071   2.378   5.588   6.975
 4391SOL    HW114072   2.423   5.605   6.887
 4391SOL    HW214073   2.279   5.577   6.960
 4392SOL     OW14074   1.116   2.654   5.009
 4392SOL    HW114075   1.040   2.610   5.056
 4392SOL    HW214076   1.158   2.589   4.945
 4393SOL     OW14077   6.298   0.944   1.570
 4393SOL    HW114078   6.247   1.025   1.540
 4393SOL    HW214079   6.275   0.924   1.665
 4394SOL     OW14080   6.520   5.482   2.554
 4394SOL    HW114081   6.595   5.461   2.618
 4394SOL    HW214082   6.517   5.411   2.484
 4395SOL     OW14083   1.810   0.840   1.892
 4395SOL    HW114084   1.826   0.772   1.964
 4395SOL    HW214085   1.852   0.927   1.919
 4396SOL     OW14086   1.895   1.409   3.999
 4396SOL    HW114087   1.808   1.438   3.959
 4396SOL    HW214088   1.880   1.326   4.054
 4397SOL     OW14089   1.599   2.389   4.288
 4397SOL    HW114090   1.515   2.335   4.288
 4397SOL    HW214091   1.651   2.370   4.205
 4398SOL     OW14092   1.714   3.446   6.181
 4398SOL    HW114093   1.682   3.506   6.108
 4398SOL    HW214094   1.764   3.369   6.141
 4399SOL     OW14095   3.593   6.009   2.449
 4399SOL    HW114096   3.657   5.972   2.518
 4399SOL    HW214097   3.614   6.106   2.434
 4400SOL     OW14098   2.488   6.767   4.611
 4400SOL    HW114099   2.564   6.827   4.588
 4400SOL    HW214100   2.490   6.686   4.553
 4401SOL     OW14101   3.082   6.888   5.506
 4401SOL    HW114102   3.007   6.945   5.538
 4401SOL    HW214103   3.160   6.897   5.569
 4402SOL     OW14104   1.585   6.982   2.936
 4402SOL    HW114105   1.576   6.885   2.917
 4402SOL    HW214106   1.668   7.018   2.894
 4403SOL     OW14107   0.966   6.659   7.018
 4403SOL    HW114108   0.902   6.713   6.963
 4403SOL    HW214109   0.915   6.591   0.047
 4404SOL     OW14110   1.163   6.352   5.627
 4404SOL    HW114111   1.180   6.255   5.609
 4404SOL    HW214112   1.250   6.400   5.637
 4405SOL     OW14113   1.955   4.785   1.809
 4405SOL    HW114114   1.876   4.796   1.749
 4405SOL    HW214115   2.018   4.718   1.769
 4406SOL     OW14116   0.579   2.841   0.648
 4406SOL    HW114117   0.526   2.873   0.570
 4406SOL    HW214118   0.626   2.918   0.691
 4407SOL     OW14119   6.804   5.459   1.516
 4407SOL    HW114120   6.782   5.375   1.566
 4407SOL    HW214121   6.885   5.445   1.460
 4408SOL     OW14122   2.214   0.203   0.291
 4408SOL    HW114123   2.296   0.207   0.233
 4408SOL    HW214124   2.169   0.115   0.279
 4409SOL     OW14125   4.443   1.364   1.794
 4409SOL    HW114126   4.486   1.422   1.726
 4409SOL    HW214127   4.463   1.268   1.773
 4410SOL     OW14128   0.624   5.137   0.113
 4410SOL    HW114129   0.723   5.146   0.101
 4410SOL    HW214130   0.585   5.225   0.141
 4411SOL     OW14131   3.508   4.223   4.962
 4411SOL    HW114132   3.430   4.162   4.976
 4411SOL    HW214133   3.493   4.309   5.012
 4412SOL     OW14134   4.708   6.308   4.188
 4412SOL    HW114135   4.766   6.368   4.243
 4412SOL    HW214136   4.765   6.256   4.124
 4413SOL     OW14137   5.462   5.224   3.777
 4413SOL    HW114138   5.534   5.214   3.708
 4413SOL    HW214139   5.430   5.319   3.779
 4414SOL     OW14140   3.212   5.898   1.120
 4414SOL    HW114141   3.152   5.927   1.194
 4414SOL    HW214142   3.158   5.878   1.038
 4415SOL     OW14143   4.627   3.082   0.084
 4415SOL    HW114144   4.591   2.989   0.096
 4415SOL    HW214145   4.553   3.148   0.098
 4416SOL     OW14146   4.369   1.845   4.176
 4416SOL    HW114147   4.273   1.825   4.195
 4416SOL    HW214148   4.412   1.765   4.134
 4417SOL     OW14149   5.691   3.971   4.180
 4417SOL    HW114150   5.607   4.007   4.222
 4417SOL    HW214151   5.760   4.043   4.179
 4418SOL     OW14152   6.159   1.889   2.911
 4418SOL    HW114153   6.187   1.954   2.981
 4418SOL    HW214154   6.063   1.865   2.923
 4419SOL     OW14155   6.422   0.289   5.413
 4419SOL    HW114156   6.512   0.328   5.395
 4419SOL    HW214157   6.402   0.295   5.511
 4420SOL     OW14158   3.926   1.742   2.148
 4420SOL    HW114159   3.954   1.835   2.173
 4420SOL    HW214160   3.827   1.735   2.152
 4421SOL     OW14161   1.903   1.553   5.008
 4421SOL    HW114162   1.895   1.576   4.911
 4421SOL    HW214163   1.990   1.505   5.023
 4422SOL     OW14164   1.012   4.590   6.776
 4422SOL    HW114165   0.978   4.509   6.729
 4422SOL    HW214166   1.007   4.576   6.875
 4423SOL     OW14167   0.142   4.087   5.487
 4423SOL    HW114168   0.058   4.112   5.440
 4423SOL    HW214169   0.212   4.155   5.470
 4424SOL     OW14170   5.539   0.255   4.248
 4424SOL    HW114171   5.474   0.317   4.202
 4424SOL    HW214172   5.541   0.277   4.346
 4425SOL     OW14173   3.131   4.995   0.331
 4425SOL    HW114174   3.129   5.031   0.237
 4425SOL    HW214175   3.038   4.990   0.366
 4426SOL     OW14176   0.487   1.341   3.953
 4426SOL    HW114177   0.405   1.393   3.928
 4426SOL    HW214178   0.512   1.281   3.877
 4427SOL     OW14179   5.536   6.789   2.932
 4427SOL    HW114180   5.566   6.731   2.856
 4427SOL    HW214181   5.613   6.842   2.966
 4428SOL     OW14182   4.304   0.899   4.080
 4428SOL    HW114183   4.324   0.812   4.125
 4428SOL    HW214184   4.305   0.972   4.148
 4429SOL     OW14185   3.247   6.784   2.483
 4429SOL    HW114186   3.256   6.840   2.565
 4429SOL    HW214187   3.243   6.842   2.402
 4430SOL     OW14188   5.209   4.919   4.980
 4430SOL    HW114189   5.128   4.966   5.015
 4430SOL    HW214190   5.230   4.841   5.039
 4431SOL     OW14191   2.808   0.758   3.178
 4431SOL    HW114192   2.855   0.841   3.150
 4431SOL    HW214193   2.876   0.689   3.204
 4432SOL     OW14194   2.585   3.408   5.979
 4432SOL    HW114195   2.683   3.407   5.961
 4432SOL    HW214196   2.545   3.319   5.955
 4433SOL     OW14197   6.702   2.499   4.414
 4433SOL    HW114198   6.748   2.493   4.325
 4433SOL    HW214199   6.658   2.588   4.423
 4434SOL     OW14200   5.723   1.539   3.075
 4434SOL    HW114201   5.717   1.634   3.042
 4434SOL    HW214202   5.736   1.478   2.997
 4435SOL     OW14203   4.366   3.489   0.790
 4435SOL    HW114204   4.286   3.453   0.838
 4435SOL    HW214205   4.393   3.577   0.831
 4436SOL     OW14206   4.453   1.069   1.730
 4436SOL    HW114207   4.387   0.998   1.755
 4436SOL    HW214208   4.538   1.054   1.780
 4437SOL     OW14209   1.203   3.008   2.722
 4437SOL    HW114210   1.254   2.922   2.722
 4437SOL    HW214211   1.245   3.071   2.656
 4438SOL     OW14212   4.608   6.888   6.208
 4438SOL    HW114213   4.645   6.976   6.238
 4438SOL    HW214214   4.552   6.901   6.126
 4439SOL     OW14215   6.949   4.472   1.672
 4439SOL    HW114216   6.880   4.484   1.601
 4439SOL    HW214217   6.938   4.544   1.741
 4440SOL     OW14218   3.131   4.855   0.577
 4440SOL    HW114219   3.208   4.825   0.634
 4440SOL    HW214220   3.165   4.888   0.489
 4441SOL     OW14221   0.103   1.599   1.220
 4441SOL    HW114222   0.036   1.531   1.190
 4441SOL    HW214223   0.071   1.643   1.304
 4442SOL     OW14224   1.257   5.110   4.899
 4442SOL    HW114225   1.281   5.062   4.983
 4442SOL    HW214226   1.317   5.079   4.824
 4443SOL     OW14227   1.939   3.414   5.681
 4443SOL    HW114228   1.922   3.511   5.669
 4443SOL    HW214229   1.865   3.373   5.734
 4444SOL     OW14230   3.967   4.081   6.928
 4444SOL    HW114231   3.970   4.092   0.004
 4444SOL    HW214232   4.057   4.055   6.895
 4445SOL     OW14233   1.173   6.164   0.372
 4445SOL    HW114234   1.126   6.105   0.307
 4445SOL    HW214235   1.113   6.181   0.451
 4446SOL     OW14236   5.444   1.999   0.662
 4446SOL    HW114237   5.395   2.016   0.747
 4446SOL    HW214238   5.541   1.986   0.681
 4447SOL     OW14239   6.494   3.999   4.930
 4447SOL    HW114240   6.543   3.970   4.848
 4447SOL    HW214241   6.557   4.046   4.992
 4448SOL     OW14242   2.471   5.628   1.176
 4448SOL    HW114243   2.422   5.548   1.211
 4448SOL    HW214244   2.414   5.709   1.189
 4449SOL     OW14245   5.146   1.069   6.407
 4449SOL    HW114246   5.169   1.032   6.317
 4449SOL    HW214247   5.213   1.037   6.474
 4450SOL     OW14248   3.096   1.952   6.591
 4450SOL    HW114249   3.146   1.896   6.658
 4450SOL    HW214250   3.000   1.925   6.591
 4451SOL     OW14251   4.846   5.208   4.582
 4451SOL    HW114252   4.906   5.242   4.654
 4451SOL    HW214253   4.764   5.168   4.623
 4452SOL     OW14254   5.686   5.497   3.950
 4452SOL    HW114255   5.724   5.585   3.979
 4452SOL    HW214256   5.701   5.486   3.852
 4453SOL     OW14257   1.492   2.924   1.755
 4453SOL    HW114258   1.519   2.829   1.737
 4453SOL    HW214259   1.549   2.985   1.699
 4454SOL     OW14260   1.609   1.732   0.038
 4454SOL    HW114261   1.543   1.784   0.091
 4454SOL    HW214262   1.593   1.634   0.051
 4455SOL     OW14263   5.678   6.004   5.553
 4455SOL    HW114264   5.758   6.004   5.613
 4455SOL    HW214265   5.602   6.050   5.598
 4456SOL     OW14266   2.605   6.423   2.886
 4456SOL    HW114267   2.511   6.404   2.859
 4456SOL    HW214268   2.668   6.382   2.820
 4457SOL     OW14269   3.538   1.509   3.401
 4457SOL    HW114270   3.597   1.535   3.325
 4457SOL    HW214271   3.491   1.424   3.379
 4458SOL     OW14272   2.189   3.313   1.280
 4458SOL    HW114273   2.216   3.369   1.359
 4458SOL    HW214274   2.263   3.250   1.256
 4459SOL     OW14275   4.157   2.293   4.331
 4459SOL    HW114276   4.228   2.224   4.315
 4459SOL    HW214277   4.068   2.247   4.340
 4460SOL     OW14278   0.773   2.754   0.190
 4460SOL    HW114279   0.728   2.724   0.274
 4460SOL    HW214280   0.713   2.737   0.112
 4461SOL     OW14281   1.547   0.911   1.381
 4461SOL    HW114282   1.530   0.878   1.288
 4461SOL    HW214283   1.460   0.921   1.429
 4462SOL     OW14284   6.081   4.853   1.694
 4462SOL    HW114285   6.181   4.849   1.694
 4462SOL    HW214286   6.043   4.760   1.692
 4463SOL     OW14287   4.593   1.237   1.229
 4463SOL    HW114288   4.586   1.333   1.201
 4463SOL    HW214289   4.578   1.177   1.151
 4464SOL     OW14290   0.369   5.947   0.843
 4464SOL    HW114291   0.430   5.882   0.888
 4464SOL    HW214292   0.345   6.020   0.907
 4465SOL     OW14293   3.449   5.324   0.199
 4465SOL    HW114294   3.419   5.334   0.294
 4465SOL    HW214295   3.419   5.403   0.145
 4466SOL     OW14296   1.260   1.826   2.782
 4466SOL    HW114297   1.327   1.755   2.760
 4466SOL    HW214298   1.169   1.786   2.783
 4467SOL     OW14299   2.440   5.059   3.300
 4467SOL    HW114300   2.512   5.110   3.347
 4467SOL    HW214301   2.480   4.999   3.231
 4468SOL     OW14302   2.136   4.306   0.771
 4468SOL    HW114303   2.204   4.303   0.844
 4468SOL    HW214304   2.117   4.213   0.738
 4469SOL     OW14305   2.899   0.899   1.147
 4469SOL    HW114306   2.879   0.809   1.187
 4469SOL    HW214307   2.937   0.887   1.055
 4470SOL     OW14308   0.949   2.065   2.608
 4470SOL    HW114309   0.954   2.162   2.584
 4470SOL    HW214310   1.038   2.022   2.594
 4471SOL     OW14311   0.819   3.010   6.855
 4471SOL    HW114312   0.853   3.027   6.948
 4471SOL    HW214313   0.876   3.058   6.789
 4472SOL     OW14314   0.331   2.098   1.300
 4472SOL    HW114315   0.387   2.023   1.263
 4472SOL    HW214316   0.291   2.070   1.387
 4473SOL     OW14317   5.567   2.860   4.398
 4473SOL    HW114318   5.551   2.937   4.461
 4473SOL    HW214319   5.479   2.826   4.365
 4474SOL     OW14320   3.174   6.641   1.436
 4474SOL    HW114321   3.255   6.699   1.442
 4474SOL    HW214322   3.113   6.661   1.512
 4475SOL     OW14323   1.045   3.766   1.850
 4475SOL    HW114324   0.953   3.726   1.857
 4475SOL    HW214325   1.049   3.826   1.770
 4476SOL     OW14326   6.309   0.962   3.767
 4476SOL    HW114327   6.397   1.007   3.784
 4476SOL    HW214328   6.323   0.882   3.709
 4477SOL     OW14329   1.666   0.559   5.171
 4477SOL    HW114330   1.585   0.534   5.118
 4477SOL    HW214331   1.653   0.650   5.211
 4478SOL     OW14332   2.627   6.606   2.610
 4478SOL    HW114333   2.528   6.614   2.598
 4478SOL    HW214334   2.654   6.655   2.693
 4479SOL     OW14335   0.451   1.991   1.733
 4479SOL    HW114336   0.445   2.085   1.699
 4479SOL    HW214337   0.545   1.971   1.759
 4480SOL     OW14338   0.190   4.267   4.967
 4480SOL    HW114339   0.199   4.284   4.869
 4480SOL    HW214340   0.194   4.169   4.985
 4481SOL     OW14341   2.288   5.091   5.150
 4481SOL    HW114342   2.343   5.043   5.082
 4481SOL    HW214343   2.202   5.121   5.108
 4482SOL     OW14344   2.468   2.707   5.595
 4482SOL    HW114345   2.536   2.640   5.565
 4482SOL    HW214346   2.443   2.688   5.690
 4483SOL     OW14347   7.016   2.861   2.179
 4483SOL    HW114348   7.013   2.853   2.079
 4483SOL    HW214349   6.966   2.784   2.220
 4484SOL     OW14350   2.856   2.514   6.431
 4484SOL    HW114351   2.838   2.612   6.437
 4484SOL    HW214352   2.769   2.464   6.434
 4485SOL     OW14353   5.626   2.546   5.085
 4485SOL    HW114354   5.539   2.595   5.082
 4485SOL    HW214355   5.613   2.453   5.051
 4486SOL     OW14356   6.165   5.261   4.781
 4486SOL    HW114357   6.129   5.351   4.806
 4486SOL    HW214358   6.090   5.201   4.755
 4487SOL     OW14359   2.604   2.608   6.728
 4487SOL    HW114360   2.655   2.525   6.754
 4487SOL    HW214361   2.630   2.635   6.636
 4488SOL     OW14362   1.167   3.283   4.857
 4488SOL    HW114363   1.242   3.223   4.828
 4488SOL    HW214364   1.204   3.359   4.912
 4489SOL     OW14365   4.931   5.409   4.785
 4489SOL    HW114366   4.892   5.497   4.810
 4489SOL    HW214367   4.993   5.378   4.856
 4490SOL     OW14368   5.431   1.850   1.722
 4490SOL    HW114369   5.480   1.834   1.637
 4490SOL    HW214370   5.496   1.860   1.797
 4491SOL     OW14371   0.157   3.534   3.716
 4491SOL    HW114372   0.067   3.560   3.681
 4491SOL    HW214373   0.210   3.616   3.737
 4492SOL     OW14374   5.780   3.263   1.339
 4492SOL    HW114375   5.810   3.190   1.399
 4492SOL    HW214376   5.759   3.345   1.393
 4493SOL     OW14377   4.759   6.421   5.104
 4493SOL    HW114378   4.821   6.387   5.175
 4493SOL    HW214379   4.702   6.346   5.070
 4494SOL     OW14380   0.586   0.896   5.993
 4494SOL    HW114381   0.638   0.929   5.914
 4494SOL    HW214382   0.644   0.900   6.074
 4495SOL     OW14383   4.852   0.086   3.989
 4495SOL    HW114384   4.945   0.101   4.022
 4495SOL    HW214385   4.836   7.011   3.979
 4496SOL     OW14386   5.476   6.215   0.808
 4496SOL    HW114387   5.507   6.132   0.761
 4496SOL    HW214388   5.514   6.217   0.901
 4497SOL     OW14389   4.560   2.229   6.519
 4497SOL    HW114390   4.481   2.278   6.482
 4497SOL    HW214391   4.577   2.261   6.613
 4498SOL     OW14392   6.818   4.902   6.697
 4498SOL    HW114393   6.822   4.843   6.617
 4498SOL    HW214394   6.777   4.853   6.774
 4499SOL     OW14395   6.241   3.149   3.369
 4499SOL    HW114396   6.252   3.087   3.292
 4499SOL    HW214397   6.276   3.106   3.452
 4500SOL     OW14398   3.810   4.255   6.600
 4500SOL    HW114399   3.880   4.185   6.582
 4500SOL    HW214400   3.765   4.235   6.687
 4501SOL     OW14401   6.627   3.562   3.180
 4501SOL    HW114402   6.726   3.572   3.179
 4501SOL    HW214403   6.602   3.468   3.156
 4502SOL     OW14404   1.155   3.827   0.005
 4502SOL    HW114405   1.176   3.918   0.041
 4502SOL    HW214406   1.061   3.802   0.028
 4503SOL     OW14407   3.579   6.436   2.082
 4503SOL    HW114408   3.678   6.419   2.079
 4503SOL    HW214409   3.544   6.449   1.989
 4504SOL     OW14410   6.847   1.786   4.358
 4504SOL    HW114411   6.788   1.786   4.439
 4504SOL    HW214412   6.839   1.698   4.311
 4505SOL     OW14413   6.376   4.790   1.723
 4505SOL    HW114414   6.457   4.835   1.760
 4505SOL    HW214415   6.362   4.702   1.769
 4506SOL     OW14416   4.866   2.509   3.920
 4506SOL    HW114417   4.898   2.539   4.010
 4506SOL    HW214418   4.919   2.556   3.849
 4507SOL     OW14419   6.785   3.245   4.105
 4507SOL    HW114420   6.770   3.344   4.095
 4507SOL    HW214421   6.794   3.203   4.015
 4508SOL     OW14422   1.189   4.982   0.145
 4508SOL    HW114423   1.115   5.049   0.150
 4508SOL    HW214424   1.231   4.985   0.054
 4509SOL     OW14425   4.993   1.932   3.289
 4509SOL    HW114426   4.936   1.928   3.372
 4509SOL    HW214427   4.942   1.979   3.217
 4510SOL     OW14428   4.455   1.405   4.309
 4510SOL    HW114429   4.430   1.398   4.213
 4510SOL    HW214430   4.473   1.500   4.333
 4511SOL     OW14431   6.052   3.410   0.191
 4511SOL    HW114432   6.142   3.448   0.210
 4511SOL    HW214433   6.048   3.380   0.095
 4512SOL     OW14434   3.464   1.244   5.992
 4512SOL    HW114435   3.478   1.343   5.995
 4512SOL    HW214436   3.507   1.201   6.072
 4513SOL     OW14437   1.042   5.544   6.515
 4513SOL    HW114438   1.025   5.452   6.480
 4513SOL    HW214439   0.959   5.598   6.508
 4514SOL     OW14440   3.328   2.517   6.386
 4514SOL    HW114441   3.250   2.457   6.366
 4514SOL    HW214442   3.300   2.612   6.376
 4515SOL     OW14443   5.813   1.906   5.262
 4515SOL    HW114444   5.799   1.905   5.361
 4515SOL    HW214445   5.729   1.878   5.216
 4516SOL     OW14446   2.517   0.159   6.766
 4516SOL    HW114447   2.565   0.191   6.684
 4516SOL    HW214448   2.418   0.167   6.752
 4517SOL     OW14449   4.578   6.895   6.945
 4517SOL    HW114450   4.529   6.894   6.858
 4517SOL    HW214451   4.657   6.835   6.939
 4518SOL     OW14452   0.695   6.952   1.603
 4518SOL    HW114453   0.790   6.981   1.615
 4518SOL    HW214454   0.681   6.922   1.508
 4519SOL     OW14455   5.322   6.975   0.765
 4519SOL    HW114456   5.312   0.048   0.743
 4519SOL    HW214457   5.324   6.921   0.680
 4520SOL     OW14458   4.519   5.772   6.108
 4520SOL    HW114459   4.427   5.738   6.123
 4520SOL    HW214460   4.554   5.739   6.021
 4521SOL     OW14461   5.207   2.060   5.003
 4521SOL    HW114462   5.199   1.968   5.041
 4521SOL    HW214463   5.126   2.081   4.949
 4522SOL     OW14464   5.762   4.320   3.062
 4522SOL    HW114465   5.842   4.277   3.103
 4522SOL    HW214466   5.785   4.352   2.970
 4523SOL     OW14467   1.000   4.074   0.337
 4523SOL    HW114468   1.045   3.996   0.379
 4523SOL    HW214469   0.926   4.043   0.277
 4524SOL     OW14470   6.038   3.581   2.781
 4524SOL    HW114471   6.028   3.607   2.685
 4524SOL    HW214472   5.969   3.629   2.836
 4525SOL     OW14473   4.004   1.952   6.012
 4525SOL    HW114474   3.979   2.041   6.051
 4525SOL    HW214475   3.920   1.902   5.989
 4526SOL     OW14476   6.588   0.656   6.994
 4526SOL    HW114477   6.496   0.640   0.007
 4526SOL    HW214478   6.650   0.676   0.046
 4527SOL     OW14479   6.128   6.843   2.548
 4527SOL    HW114480   6.068   6.801   2.617
 4527SOL    HW214481   6.209   6.880   2.593
 4528SOL     OW14482   4.311   0.804   6.729
 4528SOL    HW114483   4.289   0.727   6.790
 4528SOL    HW214484   4.347   0.769   6.643
 4529SOL     OW14485   2.312   1.166   5.643
 4529SOL    HW114486   2.406   1.159   5.611
 4529SOL    HW214487   2.286   1.083   5.691
 4530SOL     OW14488   2.497   5.419   2.991
 4530SOL    HW114489   2.413   5.390   3.038
 4530SOL    HW214490   2.490   5.397   2.894
 4531SOL     OW14491   0.799   3.218   6.265
 4531SOL    HW114492   0.840   3.222   6.174
 4531SOL    HW214493   0.870   3.202   6.334
 4532SOL     OW14494   5.968   1.013   2.389
 4532SOL    HW114495   6.034   1.088   2.387
 4532SOL    HW214496   6.015   0.926   2.370
 4533SOL     OW14497   1.880   0.900   2.763
 4533SOL    HW114498   1.912   0.806   2.751
 4533SOL    HW214499   1.914   0.956   2.687
 4534SOL     OW14500   4.917   2.801   5.345
 4534SOL    HW114501   4.933   2.768   5.439
 4534SOL    HW214502   4.828   2.846   5.341
 4535SOL     OW14503   3.679   1.576   1.807
 4535SOL    HW114504   3.691   1.536   1.897
 4535SOL    HW214505   3.597   1.537   1.763
 4536SOL     OW14506   3.341   2.120   4.623
 4536SOL    HW114507   3.430   2.136   4.666
 4536SOL    HW214508   3.269   2.125   4.692
 4537SOL     OW14509   4.063   3.331   1.366
 4537SOL    HW114510   4.079   3.232   1.364
 4537SOL    HW214511   4.071   3.364   1.460
 4538SOL     OW14512   2.600   0.490   2.529
 4538SOL    HW114513   2.502   0.481   2.512
 4538SOL    HW214514   2.616   0.564   2.594
 4539SOL     OW14515   2.507   5.559   4.899
 4539SOL    HW114516   2.438   5.620   4.939
 4539SOL    HW214517   2.585   5.553   4.961
 4540SOL     OW14518   2.405   1.074   0.567
 4540SOL    HW114519   2.502   1.090   0.585
 4540SOL    HW214520   2.351   1.097   0.648
 4541SOL     OW14521   5.627   1.522   6.875
 4541SOL    HW114522   5.692   1.456   6.839
 4541SOL    HW214523   5.625   1.517   6.975
 4542SOL     OW14524   0.089   2.714   1.692
 4542SOL    HW114525   7.013   2.705   1.701
 4542SOL    HW214526   0.126   2.755   1.775
 4543SOL     OW14527   4.855   1.896   1.095
 4543SOL    HW114528   4.833   1.814   1.042
 4543SOL    HW214529   4.951   1.893   1.123
 4544SOL     OW14530   3.927   4.668   6.933
 4544SOL    HW114531   3.911   4.698   0.004
 4544SOL    HW214532   3.968   4.577   6.934
 4545SOL     OW14533   0.032   3.800   5.444
 4545SOL    HW114534   6.962   3.766   5.433
 4545SOL    HW214535   0.031   3.900   5.453
 4546SOL     OW14536   2.876   6.847   4.363
 4546SOL    HW114537   2.833   6.762   4.334
 4546SOL    HW214538   2.890   6.906   4.283
 4547SOL     OW14539   6.558   1.495   0.525
 4547SOL    HW114540   6.527   1.589   0.539
 4547SOL    HW214541   6.658   1.490   0.536
 4548SOL     OW14542   2.658   2.345   3.734
 4548SOL    HW114543   2.571   2.329   3.781
 4548SOL    HW214544   2.663   2.440   3.703
 4549SOL     OW14545   5.138   3.872   2.259
 4549SOL    HW114546   5.061   3.855   2.320
 4549SOL    HW214547   5.137   3.804   2.185
 4550SOL     OW14548   1.116   4.408   3.021
 4550SOL    HW114549   1.147   4.347   2.948
 4550SOL    HW214550   1.179   4.486   3.028
 4551SOL     OW14551   0.873   3.914   5.147
 4551SOL    HW114552   0.968   3.885   5.155
 4551SOL    HW214553   0.869   4.013   5.138
 4552SOL     OW14554   5.554   2.186   1.120
 4552SOL    HW114555   5.471   2.224   1.160
 4552SOL    HW214556   5.614   2.261   1.090
 4553SOL     OW14557   5.355   4.170   6.662
 4553SOL    HW114558   5.380   4.184   6.758
 4553SOL    HW214559   5.276   4.109   6.656
 4554SOL     OW14560   6.665   0.167   1.746
 4554SOL    HW114561   6.728   0.226   1.797
 4554SOL    HW214562   6.612   0.112   1.810
 4555SOL     OW14563   1.241   0.811   5.844
 4555SOL    HW114564   1.325   0.856   5.813
 4555SOL    HW214565   1.163   0.871   5.827
 4556SOL     OW14566   6.393   3.071   4.892
 4556SOL    HW114567   6.492   3.085   4.901
 4556SOL    HW214568   6.366   3.084   4.796
 4557SOL     OW14569   5.022   5.006   4.216
 4557SOL    HW114570   5.099   5.039   4.272
 4557SOL    HW214571   5.036   4.909   4.195
 4558SOL     OW14572   6.662   3.932   4.716
 4558SOL    HW114573   6.603   3.923   4.635
 4558SOL    HW214574   6.751   3.891   4.697
 4559SOL     OW14575   6.930   3.257   2.788
 4559SOL    HW114576   6.994   3.182   2.772
 4559SOL    HW214577   6.884   3.280   2.703
 4560SOL     OW14578   5.554   4.127   1.679
 4560SOL    HW114579   5.481   4.102   1.614
 4560SOL    HW214580   5.580   4.222   1.665
 4561SOL     OW14581   3.664   1.739   2.965
 4561SOL    HW114582   3.660   1.825   2.913
 4561SOL    HW214583   3.582   1.730   3.021
 4562SOL     OW14584   1.339   0.112   0.360
 4562SOL    HW114585   1.347   0.141   0.455
 4562SOL    HW214586   1.431   0.100   0.321
 4563SOL     OW14587   0.419   3.492   0.781
 4563SOL    HW114588   0.337   3.523   0.828
 4563SOL    HW214589   0.463   3.419   0.833
 4564SOL     OW14590   6.364   6.322   2.171
 4564SOL    HW114591   6.303   6.319   2.250
 4564SOL    HW214592   6.310   6.320   2.087
 4565SOL     OW14593   1.563   1.180   4.171
 4565SOL    HW114594   1.559   1.263   4.115
 4565SOL    HW214595   1.633   1.191   4.241
 4566SOL     OW14596   6.889   3.639   0.986
 4566SOL    HW114597   6.915   3.549   1.020
 4566SOL    HW214598   6.910   3.709   1.054
 4567SOL     OW14599   0.050   1.457   6.474
 4567SOL    HW114600   0.015   1.538   6.522
 4567SOL    HW214601   0.039   1.376   6.532
 4568SOL     OW14602   1.907   3.541   5.341
 4568SOL    HW114603   1.853   3.549   5.257
 4568SOL    HW214604   1.917   3.444   5.365
 4569SOL     OW14605   2.924   0.210   3.485
 4569SOL    HW114606   2.983   0.244   3.558
 4569SOL    HW214607   2.894   0.286   3.427
 4570SOL     OW14608   6.175   6.334   2.356
 4570SOL    HW114609   6.189   6.431   2.377
 4570SOL    HW214610   6.223   6.278   2.423
 4571SOL     OW14611   4.444   2.845   6.940
 4571SOL    HW114612   4.471   2.768   6.997
 4571SOL    HW214613   4.361   2.821   6.889
 4572SOL     OW14614   2.180   0.708   6.678
 4572SOL    HW114615   2.123   0.656   6.742
 4572SOL    HW214616   2.269   0.726   6.720
 4573SOL     OW14617   6.930   6.962   0.324
 4573SOL    HW114618   7.003   7.020   0.287
 4573SOL    HW214619   6.952   6.938   0.419
 4574SOL     OW14620   5.504   4.548   0.374
 4574SOL    HW114621   5.528   4.542   0.471
 4574SOL    HW214622   5.447   4.628   0.359
 4575SOL     OW14623   5.714   0.468   5.436
 4575SOL    HW114624   5.618   0.481   5.411
 4575SOL    HW214625   5.727   0.494   5.532
 4576SOL     OW14626   2.892   5.153   5.389
 4576SOL    HW114627   2.908   5.074   5.448
 4576SOL    HW214628   2.849   5.123   5.304
 4577SOL     OW14629   1.401   2.682   3.885
 4577SOL    HW114630   1.382   2.760   3.827
 4577SOL    HW214631   1.387   2.707   3.981
 4578SOL     OW14632   0.751   1.466   4.352
 4578SOL    HW114633   0.797   1.515   4.277
 4578SOL    HW214634   0.708   1.383   4.316
 4579SOL     OW14635   4.655   0.870   2.075
 4579SOL    HW114636   4.740   0.819   2.090
 4579SOL    HW214637   4.619   0.847   1.984
 4580SOL     OW14638   5.527   3.619   0.715
 4580SOL    HW114639   5.449   3.674   0.744
 4580SOL    HW214640   5.568   3.660   0.634
 4581SOL     OW14641   2.579   6.127   2.465
 4581SOL    HW114642   2.498   6.070   2.479
 4581SOL    HW214643   2.600   6.176   2.549
 4582SOL     OW14644   4.820   0.602   3.641
 4582SOL    HW114645   4.919   0.597   3.627
 4582SOL    HW214646   4.780   0.511   3.627
 4583SOL     OW14647   2.914   1.333   6.698
 4583SOL    HW114648   3.000   1.301   6.738
 4583SOL    HW214649   2.911   1.432   6.701
 4584SOL     OW14650   1.801   5.459   5.120
 4584SOL    HW114651   1.708   5.494   5.136
 4584SOL    HW214652   1.831   5.485   5.028
 4585SOL     OW14653   2.356   4.636   3.369
 4585SOL    HW114654   2.263   4.664   3.347
 4585SOL    HW214655   2.396   4.701   3.435
 4586SOL     OW14656   4.291   3.813   0.181
 4586SOL    HW114657   4.203   3.793   0.224
 4586SOL    HW214658   4.356   3.742   0.204
 4587SOL     OW14659   3.542   3.887   3.736
 4587SOL    HW114660   3.627   3.931   3.764
 4587SOL    HW214661   3.535   3.888   3.636
 4588SOL     OW14662   3.265   2.844   5.808
 4588SOL    HW114663   3.346   2.787   5.819
 4588SOL    HW214664   3.272   2.924   5.868
 4589SOL     OW14665   5.193   0.308   1.729
 4589SOL    HW114666   5.289   0.286   1.746
 4589SOL    HW214667   5.136   0.261   1.796
 4590SOL     OW14668   4.165   5.091   1.204
 4590SOL    HW114669   4.109   5.044   1.271
 4590SOL    HW214670   4.215   5.166   1.249
 4591SOL     OW14671   2.042   0.060   5.309
 4591SOL    HW114672   2.028   6.993   5.350
 4591SOL    HW214673   2.059   0.127   5.381
 4592SOL     OW14674   3.680   0.622   2.908
 4592SOL    HW114675   3.661   0.654   3.001
 4592SOL    HW214676   3.615   0.550   2.884
 4593SOL     OW14677   6.155   6.380   1.958
 4593SOL    HW114678   6.167   6.391   1.859
 4593SOL    HW214679   6.092   6.304   1.975
 4594SOL     OW14680   3.451   0.648   3.174
 4594SOL    HW114681   3.455   0.565   3.119
 4594SOL    HW214682   3.469   0.626   3.270
 4595SOL     OW14683   5.009   3.227   5.936
 4595SOL    HW114684   4.990   3.148   5.878
 4595SOL    HW214685   4.922   3.270   5.962
 4596SOL     OW14686   6.791   0.346   2.498
 4596SOL    HW114687   6.817   0.319   2.591
 4596SOL    HW214688   6.803   0.268   2.437
 4597SOL     OW14689   2.697   5.535   6.314
 4597SOL    HW114690   2.697   5.438   6.335
 4597SOL    HW214691   2.612   5.577   6.347
 4598SOL     OW14692   1.557   5.423   1.306
 4598SOL    HW114693   1.565   5.514   1.345
 4598SOL    HW214694   1.487   5.372   1.356
 4599SOL     OW14695   1.392   4.567   1.277
 4599SOL    HW114696   1.299   4.538   1.252
 4599SOL    HW214697   1.390   4.607   1.369
 4600SOL     OW14698   0.346   6.592   5.120
 4600SOL    HW114699   0.346   6.492   5.118
 4600SOL    HW214700   0.300   6.623   5.203
 4601SOL     OW14701   0.823   1.770   5.507
 4601SOL    HW114702   0.790   1.726   5.591
 4601SOL    HW214703   0.796   1.715   5.428
 4602SOL     OW14704   2.384   6.512   0.345
 4602SOL    HW114705   2.306   6.490   0.286
 4602SOL    HW214706   2.459   6.545   0.288
 4603SOL     OW14707   3.584   5.670   0.503
 4603SOL    HW114708   3.498   5.650   0.456
 4603SOL    HW214709   3.660   5.634   0.449
 4604SOL     OW14710   5.116   0.333   6.627
 4604SOL    HW114711   5.167   0.326   6.541
 4604SOL    HW214712   5.035   0.389   6.613
 4605SOL     OW14713   2.220   0.117   1.346
 4605SOL    HW114714   2.211   0.081   1.439
 4605SOL    HW214715   2.311   0.094   1.311
 4606SOL     OW14716   0.243   6.888   2.713
 4606SOL    HW114717   0.319   6.864   2.652
 4606SOL    HW214718   0.278   6.908   2.804
 4607SOL     OW14719   1.784   3.328   3.210
 4607SOL    HW114720   1.818   3.249   3.159
 4607SOL    HW214721   1.688   3.314   3.234
 4608SOL     OW14722   0.031   4.004   3.766
 4608SOL    HW114723   0.067   3.952   3.689
 4608SOL    HW214724   0.029   4.101   3.743
 4609SOL     OW14725   4.931   4.979   0.164
 4609SOL    HW114726   4.941   4.892   0.116
 4609SOL    HW214727   5.005   5.041   0.138
 4610SOL     OW14728   4.641   1.618   6.929
 4610SOL    HW114729   4.564   1.628   6.993
 4610SOL    HW214730   4.727   1.621   6.980
 4611SOL     OW14731   0.447   0.059   6.132
 4611SOL    HW114732   0.420   0.130   6.197
 4611SOL    HW214733   0.427   0.088   6.039
 4612SOL     OW14734   2.543   0.090   1.018
 4612SOL    HW114735   2.578   0.174   0.977
 4612SOL    HW214736   2.607   0.015   1.000
 4613SOL     OW14737   1.737   5.836   2.889
 4613SOL    HW114738   1.758   5.810   2.983
 4613SOL    HW214739   1.649   5.883   2.886
 4614SOL     OW14740   6.031   2.884   3.571
 4614SOL    HW114741   6.025   2.929   3.660
 4614SOL    HW214742   5.995   2.945   3.500
 4615SOL     OW14743   1.398   1.543   0.780
 4615SOL    HW114744   1.409   1.625   0.836
 4615SOL    HW214745   1.309   1.545   0.735
 4616SOL     OW14746   5.762   1.571   4.443
 4616SOL    HW114747   5.752   1.642   4.373
 4616SOL    HW214748   5.858   1.542   4.447
 4617SOL     OW14749   1.643   2.222   2.586
 4617SOL    HW114750   1.653   2.170   2.501
 4617SOL    HW214751   1.581   2.299   2.571
 4618SOL     OW14752   2.222   3.419   5.631
 4618SOL    HW114753   2.263   3.506   5.601
 4618SOL    HW214754   2.125   3.434   5.652
 4619SOL     OW14755   2.876   6.495   3.781
 4619SOL    HW114756   2.832   6.583   3.799
 4619SOL    HW214757   2.811   6.434   3.736
 4620SOL     OW14758   0.784   4.540   1.388
 4620SOL    HW114759   0.874   4.584   1.386
 4620SOL    HW214760   0.713   4.610   1.397
 4621SOL     OW14761   5.190   1.068   2.441
 4621SOL    HW114762   5.232   1.063   2.350
 4621SOL    HW214763   5.115   1.134   2.439
 4622SOL     OW14764   3.941   5.180   0.860
 4622SOL    HW114765   4.000   5.187   0.779
 4622SOL    HW214766   3.980   5.112   0.923
 4623SOL     OW14767   4.344   5.387   0.927
 4623SOL    HW114768   4.389   5.463   0.975
 4623SOL    HW214769   4.329   5.413   0.832
 4624SOL     OW14770   3.522   0.415   2.998
 4624SOL    HW114771   3.585   0.370   3.061
 4624SOL    HW214772   3.455   0.349   2.965
 4625SOL     OW14773   2.019   5.501   1.979
 4625SOL    HW114774   1.973   5.554   1.908
 4625SOL    HW214775   1.950   5.463   2.042
 4626SOL     OW14776   4.505   4.199   1.510
 4626SOL    HW114777   4.448   4.265   1.558
 4626SOL    HW214778   4.559   4.147   1.576
 4627SOL     OW14779   1.267   5.424   5.583
 4627SOL    HW114780   1.311   5.429   5.494
 4627SOL    HW214781   1.245   5.516   5.615
 4628SOL     OW14782   4.510   4.625   4.779
 4628SOL    HW114783   4.464   4.612   4.867
 4628SOL    HW214784   4.609   4.616   4.791
 4629SOL     OW14785   2.073   4.713   5.461
 4629SOL    HW114786   1.987   4.681   5.500
 4629SOL    HW214787   2.078   4.687   5.365
 4630SOL     OW14788   2.395   5.390   2.257
 4630SOL    HW114789   2.411   5.450   2.335
 4630SOL    HW214790   2.479   5.381   2.204
 4631SOL     OW14791   0.647   6.620   4.204
 4631SOL    HW114792   0.564   6.576   4.237
 4631SOL    HW214793   0.710   6.551   4.170
 4632SOL     OW14794   2.620   4.636   2.908
 4632SOL    HW114795   2.705   4.688   2.920
 4632SOL    HW214796   2.602   4.625   2.810
 4633SOL     OW14797   5.588   1.224   4.748
 4633SOL    HW114798   5.675   1.272   4.738
 4633SOL    HW214799   5.597   1.131   4.712
 4634SOL     OW14800   2.732   3.930   5.308
 4634SOL    HW114801   2.719   3.896   5.401
 4634SOL    HW214802   2.644   3.946   5.265
 4635SOL     OW14803   4.317   4.384   1.645
 4635SOL    HW114804   4.307   4.299   1.697
 4635SOL    HW214805   4.348   4.457   1.706
 4636SOL     OW14806   2.188   4.448   0.329
 4636SOL    HW114807   2.201   4.515   0.402
 4636SOL    HW214808   2.272   4.396   0.316
 4637SOL     OW14809   0.980   6.826   0.882
 4637SOL    HW114810   0.976   6.756   0.953
 4637SOL    HW214811   1.042   6.796   0.809
 4638SOL     OW14812   3.575   5.638   6.725
 4638SOL    HW114813   3.505   5.709   6.734
 4638SOL    HW214814   3.655   5.675   6.679
 4639SOL     OW14815   2.642   2.904   5.989
 4639SOL    HW114816   2.653   2.898   6.088
 4639SOL    HW214817   2.731   2.920   5.946
 4640SOL     OW14818   6.178   3.272   4.204
 4640SOL    HW114819   6.102   3.228   4.250
 4640SOL    HW214820   6.192   3.364   4.242
 4641SOL     OW14821   2.177   0.231   4.094
 4641SOL    HW114822   2.250   0.294   4.068
 4641SOL    HW214823   2.168   0.160   4.023
 4642SOL     OW14824   1.694   6.486   2.789
 4642SOL    HW114825   1.638   6.558   2.748
 4642SOL    HW214826   1.764   6.457   2.724
 4643SOL     OW14827   6.797   2.324   0.030
 4643SOL    HW114828   6.780   2.335   0.127
 4643SOL    HW214829   6.719   2.359   7.001
 4644SOL     OW14830   6.951   0.357   5.798
 4644SOL    HW114831   6.949   0.425   5.725
 4644SOL    HW214832   6.975   0.268   5.760
 4645SOL     OW14833   2.262   1.386   3.979
 4645SOL    HW114834   2.207   1.342   4.051
 4645SOL    HW214835   2.226   1.359   3.889
 4646SOL     OW14836   2.483   5.321   3.715
 4646SOL    HW114837   2.541   5.260   3.769
 4646SOL    HW214838   2.530   5.408   3.700
 4647SOL     OW14839   1.702   0.360   3.101
 4647SOL    HW114840   1.716   0.455   3.073
 4647SOL    HW214841   1.631   0.319   3.044
 4648SOL     OW14842   2.818   1.053   4.059
 4648SOL    HW114843   2.820   1.039   4.158
 4648SOL    HW214844   2.874   0.984   4.014
 4649SOL     OW14845   6.381   0.917   0.696
 4649SOL    HW114846   6.308   0.986   0.693
 4649SOL    HW214847   6.340   0.826   0.699
 4650SOL     OW14848   4.687   5.390   2.014
 4650SOL    HW114849   4.618   5.427   1.952
 4650SOL    HW214850   4.684   5.290   2.012
 4651SOL     OW14851   6.093   3.366   6.910
 4651SOL    HW114852   6.138   3.444   6.866
 4651SOL    HW214853   6.161   3.295   6.928
 4652SOL     OW14854   6.233   6.461   4.956
 4652SOL    HW114855   6.189   6.377   4.989
 4652SOL    HW214856   6.219   6.534   5.023
 4653SOL     OW14857   4.957   5.776   0.889
 4653SOL    HW114858   4.978   5.709   0.817
 4653SOL    HW214859   4.970   5.868   0.853
 4654SOL     OW14860   0.529   6.023   6.040
 4654SOL    HW114861   0.586   6.096   6.078
 4654SOL    HW214862   0.517   6.037   5.941
 4655SOL     OW14863   5.434   4.161   1.435
 4655SOL    HW114864   5.376   4.207   1.367
 4655SOL    HW214865   5.474   4.079   1.395
 4656SOL     OW14866   1.086   0.892   1.718
 4656SOL    HW114867   1.023   0.822   1.685
 4656SOL    HW214868   1.092   0.887   1.818
 4657SOL     OW14869   4.596   5.721   1.828
 4657SOL    HW114870   4.552   5.631   1.822
 4657SOL    HW214871   4.570   5.766   1.913
 4658SOL     OW14872   3.271   1.851   4.757
 4658SOL    HW114873   3.315   1.940   4.746
 4658SOL    HW214874   3.218   1.851   4.842
 4659SOL     OW14875   2.695   4.391   0.094
 4659SOL    HW114876   2.722   4.469   0.150
 4659SOL    HW214877   2.693   4.309   0.151
 4660SOL     OW14878   1.361   6.312   4.222
 4660SOL    HW114879   1.351   6.311   4.122
 4660SOL    HW214880   1.280   6.272   4.265
 4661SOL     OW14881   2.589   4.817   5.694
 4661SOL    HW114882   2.614   4.865   5.610
 4661SOL    HW214883   2.569   4.722   5.674
 4662SOL     OW14884   3.154   0.184   5.622
 4662SOL    HW114885   3.083   0.114   5.609
 4662SOL    HW214886   3.130   0.241   5.701
 4663SOL     OW14887   0.571   0.695   0.708
 4663SOL    HW114888   0.484   0.706   0.659
 4663SOL    HW214889   0.616   0.783   0.716
 4664SOL     OW14890   0.559   0.869   0.364
 4664SOL    HW114891   0.483   0.852   0.427
 4664SOL    HW214892   0.638   0.813   0.391
 4665SOL     OW14893   2.642   0.185   5.915
 4665SOL    HW114894   2.699   0.147   5.988
 4665SOL    HW214895   2.615   0.112   5.853
 4666SOL     OW14896   2.252   2.015   6.708
 4666SOL    HW114897   2.332   1.958   6.729
 4666SOL    HW214898   2.221   2.061   6.791
 4667SOL     OW14899   6.209   3.887   1.734
 4667SOL    HW114900   6.157   3.896   1.649
 4667SOL    HW214901   6.305   3.906   1.716
 4668SOL     OW14902   5.097   1.567   4.460
 4668SOL    HW114903   5.169   1.520   4.511
 4668SOL    HW214904   5.102   1.665   4.478
 4669SOL     OW14905   5.281   6.988   6.451
 4669SOL    HW114906   5.192   6.979   6.406
 4669SOL    HW214907   5.310   0.060   6.449
 4670SOL     OW14908   1.002   2.898   6.541
 4670SOL    HW114909   0.980   2.960   6.616
 4670SOL    HW214910   0.933   2.827   6.535
 4671SOL     OW14911   0.834   3.690   6.792
 4671SOL    HW114912   0.931   3.697   6.816
 4671SOL    HW214913   0.785   3.648   6.868
 4672SOL     OW14914   4.005   4.851   6.102
 4672SOL    HW114915   3.926   4.907   6.078
 4672SOL    HW214916   3.981   4.790   6.178
 4673SOL     OW14917   4.945   6.915   0.909
 4673SOL    HW114918   4.914   6.876   0.822
 4673SOL    HW214919   4.889   6.879   0.984
 4674SOL     OW14920   5.522   1.602   0.488
 4674SOL    HW114921   5.559   1.516   0.452
 4674SOL    HW214922   5.596   1.669   0.498
 4675SOL     OW14923   3.373   0.268   0.127
 4675SOL    HW114924   3.323   0.199   0.075
 4675SOL    HW214925   3.420   0.224   0.204
 4676SOL     OW14926   0.298   6.590   4.702
 4676SOL    HW114927   0.367   6.581   4.773
 4676SOL    HW214928   0.303   6.682   4.662
 4677SOL     OW14929   3.053   0.329   6.946
 4677SOL    HW114930   2.978   0.344   7.010
 4677SOL    HW214931   3.117   0.406   6.952
 4678SOL     OW14932   2.298   4.656   2.407
 4678SOL    HW114933   2.230   4.664   2.334
 4678SOL    HW214934   2.345   4.744   2.418
 4679SOL     OW14935   3.705   1.249   0.168
 4679SOL    HW114936   3.731   1.328   0.223
 4679SOL    HW214937   3.651   1.279   0.090
 4680SOL     OW14938   2.174   0.265   2.216
 4680SOL    HW114939   2.237   0.204   2.264
 4680SOL    HW214940   2.090   0.215   2.193
 4681SOL     OW14941   6.067   5.747   5.562
 4681SOL    HW114942   6.092   5.833   5.517
 4681SOL    HW214943   6.140   5.720   5.625
 4682SOL     OW14944   5.061   4.743   6.744
 4682SOL    HW114945   5.140   4.710   6.693
 4682SOL    HW214946   5.047   4.685   6.824
 4683SOL     OW14947   5.178   4.231   2.788
 4683SOL    HW114948   5.214   4.237   2.695
 4683SOL    HW214949   5.089   4.185   2.786
 4684SOL     OW14950   6.857   1.960   4.110
 4684SOL    HW114951   6.769   1.998   4.082
 4684SOL    HW214952   6.843   1.899   4.189
 4685SOL     OW14953   0.685   6.190   4.392
 4685SOL    HW114954   0.661   6.100   4.429
 4685SOL    HW214955   0.706   6.182   4.295
 4686SOL     OW14956   5.020   5.945   0.346
 4686SOL    HW114957   4.947   5.898   0.397
 4686SOL    HW214958   5.109   5.917   0.382
 4687SOL     OW14959   6.367   5.145   5.128
 4687SOL    HW114960   6.444   5.120   5.071
 4687SOL    HW214961   6.286   5.092   5.101
 4688SOL     OW14962   0.000   3.208   6.085
 4688SOL    HW114963   6.992   3.129   6.137
 4688SOL    HW214964   0.071   3.180   6.020
 4689SOL     OW14965   5.483   0.726   6.893
 4689SOL    HW114966   5.450   0.642   6.850
 4689SOL    HW214967   5.569   0.753   6.850
 4690SOL     OW14968   1.395   1.810   0.186
 4690SOL    HW114969   1.365   1.729   0.236
 4690SOL    HW214970   1.370   1.892   0.237
 4691SOL     OW14971   3.096   4.184   1.802
 4691SOL    HW114972   3.154   4.199   1.722
 4691SOL    HW214973   3.057   4.271   1.832
 4692SOL     OW14974   0.034   5.306   2.441
 4692SOL    HW114975   0.087   5.326   2.523
 4692SOL    HW214976   6.989   5.378   2.427
 4693SOL     OW14977   0.962   0.218   4.309
 4693SOL    HW114978   0.959   0.266   4.221
 4693SOL    HW214979   1.012   0.272   4.375
 4694SOL     OW14980   2.783   0.736   0.176
 4694SOL    HW114981   2.743   0.651   0.141
 4694SOL    HW214982   2.724   0.773   0.248
 4695SOL     OW14983   2.696   3.267   1.255
 4695SOL    HW114984   2.721   3.352   1.300
 4695SOL    HW214985   2.776   3.207   1.250
 4696SOL     OW14986   0.817   4.446   5.691
 4696SOL    HW114987   0.803   4.478   5.597
 4696SOL    HW214988   0.878   4.510   5.739
 4697SOL     OW14989   1.372   3.242   0.755
 4697SOL    HW114990   1.300   3.222   0.821
 4697SOL    HW214991   1.353   3.329   0.710
 4698SOL     OW14992   4.374   5.543   3.121
 4698SOL    HW114993   4.451   5.561   3.181
 4698SOL    HW214994   4.384   5.596   3.037
 4699SOL     OW14995   1.149   6.705   2.328
 4699SOL    HW114996   1.163   6.799   2.360
 4699SOL    HW214997   1.097   6.707   2.242
 4700SOL     OW14998   6.130   1.805   2.007
 4700SOL    HW114999   6.168   1.716   1.980
 4700SOL    HW215000   6.034   1.794   2.033
 4701SOL     OW15001   1.246   2.437   0.473
 4701SOL    HW115002   1.147   2.446   0.486
 4701SOL    HW215003   1.294   2.488   0.543
 4702SOL     OW15004   5.899   5.406   6.760
 4702SOL    HW115005   5.996   5.392   6.784
 4702SOL    HW215006   5.885   5.379   6.664
 4703SOL     OW15007   1.204   2.700   2.312
 4703SOL    HW115008   1.219   2.614   2.360
 4703SOL    HW215009   1.182   2.682   2.216
 4704SOL     OW15010   6.878   6.758   6.891
 4704SOL    HW115011   6.881   6.739   6.989
 4704SOL    HW215012   6.971   6.774   6.857
 4705SOL     OW15013   3.752   3.527   2.797
 4705SOL    HW115014   3.830   3.580   2.763
 4705SOL    HW215015   3.728   3.557   2.889
 4706SOL     OW15016   3.924   6.062   6.638
 4706SOL    HW115017   3.912   6.002   6.717
 4706SOL    HW215018   3.839   6.110   6.620
 4707SOL     OW15019   2.126   6.271   0.816
 4707SOL    HW115020   2.115   6.368   0.797
 4707SOL    HW215021   2.110   6.219   0.732
 4708SOL     OW15022   1.435   2.392   6.983
 4708SOL    HW115023   1.461   2.382   0.055
 4708SOL    HW215024   1.474   2.317   6.929
 4709SOL     OW15025   3.511   4.999   5.286
 4709SOL    HW115026   3.514   4.971   5.190
 4709SOL    HW215027   3.416   5.010   5.315
 4710SOL     OW15028   3.854   1.172   5.713
 4710SOL    HW115029   3.878   1.214   5.801
 4710SOL    HW215030   3.757   1.151   5.712
 4711SOL     OW15031   5.000   0.373   2.374
 4711SOL    HW115032   5.092   0.359   2.338
 4711SOL    HW215033   4.940   0.300   2.341
 4712SOL     OW15034   2.967   4.631   0.508
 4712SOL    HW115035   2.900   4.627   0.582
 4712SOL    HW215036   3.024   4.713   0.520
 4713SOL     OW15037   2.859   3.712   0.837
 4713SOL    HW115038   2.812   3.625   0.850
 4713SOL    HW215039   2.841   3.746   0.745
 4714SOL     OW15040   2.041   1.702   0.034
 4714SOL    HW115041   1.996   1.791   0.029
 4714SOL    HW215042   2.065   1.672   6.965
 4715SOL     OW15043   6.770   3.987   1.558
 4715SOL    HW115044   6.815   3.903   1.528
 4715SOL    HW215045   6.777   4.056   1.486
 4716SOL     OW15046   3.858   5.657   6.729
 4716SOL    HW115047   3.895   5.664   6.636
 4716SOL    HW215048   3.915   5.595   6.783
 4717SOL     OW15049   0.864   6.286   3.283
 4717SOL    HW115050   0.897   6.194   3.259
 4717SOL    HW215051   0.934   6.353   3.259
 4718SOL     OW15052   5.329   2.005   6.157
 4718SOL    HW115053   5.372   2.095   6.154
 4718SOL    HW215054   5.315   1.978   6.253
 4719SOL     OW15055   4.838   3.151   2.798
 4719SOL    HW115056   4.738   3.145   2.799
 4719SOL    HW215057   4.870   3.167   2.891
 4720SOL     OW15058   2.452   5.846   5.729
 4720SOL    HW115059   2.499   5.765   5.695
 4720SOL    HW215060   2.446   5.914   5.656
 4721SOL     OW15061   6.490   2.131   1.437
 4721SOL    HW115062   6.570   2.165   1.486
 4721SOL    HW215063   6.436   2.072   1.496
 4722SOL     OW15064   1.528   6.353   0.214
 4722SOL    HW115065   1.531   6.415   0.136
 4722SOL    HW215066   1.580   6.270   0.193
 4723SOL     OW15067   1.803   5.197   5.506
 4723SOL    HW115068   1.708   5.171   5.487
 4723SOL    HW215069   1.823   5.284   5.461
 4724SOL     OW15070   4.520   5.686   2.912
 4724SOL    HW115071   4.510   5.614   2.843
 4724SOL    HW215072   4.617   5.696   2.936
 4725SOL     OW15073   5.725   6.256   2.367
 4725SOL    HW115074   5.811   6.288   2.407
 4725SOL    HW215075   5.648   6.300   2.413
 4726SOL     OW15076   1.582   3.246   6.355
 4726SOL    HW115077   1.658   3.193   6.392
 4726SOL    HW215078   1.618   3.324   6.304
 4727SOL     OW15079   6.892   6.151   6.953
 4727SOL    HW115080   6.983   6.185   6.978
 4727SOL    HW215081   6.855   6.207   6.880
 4728SOL     OW15082   4.472   1.705   1.235
 4728SOL    HW115083   4.530   1.786   1.249
 4728SOL    HW215084   4.469   1.651   1.319
 4729SOL     OW15085   3.059   1.256   2.455
 4729SOL    HW115086   3.046   1.255   2.554
 4729SOL    HW215087   3.075   1.163   2.422
 4730SOL     OW15088   2.230   5.507   5.239
 4730SOL    HW115089   2.159   5.577   5.249
 4730SOL    HW215090   2.252   5.468   5.328
 4731SOL     OW15091   4.500   0.408   6.515
 4731SOL    HW115092   4.445   0.343   6.463
 4731SOL    HW215093   4.595   0.376   6.518
 4732SOL     OW15094   0.093   3.564   6.286
 4732SOL    HW115095   0.037   3.541   6.365
 4732SOL    HW215096   0.040   3.553   6.202
 4733SOL     OW15097   0.862   4.103   3.198
 4733SOL    HW115098   0.843   4.020   3.251
 4733SOL    HW215099   0.922   4.163   3.250
 4734SOL     OW15100   4.898   3.513   6.847
 4734SOL    HW115101   4.856   3.434   6.801
 4734SOL    HW215102   4.840   3.594   6.833
 4735SOL     OW15103   0.861   5.601   4.146
 4735SOL    HW115104   0.802   5.551   4.082
 4735SOL    HW215105   0.917   5.666   4.095
 4736SOL     OW15106   0.638   1.588   6.339
 4736SOL    HW115107   0.595   1.512   6.389
 4736SOL    HW215108   0.567   1.645   6.299
 4737SOL     OW15109   1.244   5.384   2.258
 4737SOL    HW115110   1.283   5.411   2.170
 4737SOL    HW215111   1.222   5.287   2.257
 4738SOL     OW15112   6.888   5.804   2.953
 4738SOL    HW115113   6.862   5.723   3.006
 4738SOL    HW215114   6.868   5.789   2.856
 4739SOL     OW15115   4.616   6.446   2.885
 4739SOL    HW115116   4.628   6.428   2.982
 4739SOL    HW215117   4.659   6.533   2.861
 4740SOL     OW15118   0.403   1.066   1.540
 4740SOL    HW115119   0.309   1.081   1.510
 4740SOL    HW215120   0.461   1.052   1.460
 4741SOL     OW15121   3.246   2.442   1.632
 4741SOL    HW115122   3.331   2.490   1.652
 4741SOL    HW215123   3.254   2.346   1.658
 4742SOL     OW15124   1.742   6.759   5.883
 4742SOL    HW115125   1.684   6.684   5.912
 4742SOL    HW215126   1.730   6.837   5.945
 4743SOL     OW15127   2.136   3.360   2.939
 4743SOL    HW115128   2.048   3.362   2.891
 4743SOL    HW215129   2.163   3.454   2.963
 4744SOL     OW15130   2.004   4.845   1.247
 4744SOL    HW115131   1.939   4.786   1.200
 4744SOL    HW215132   1.954   4.915   1.300
 4745SOL     OW15133   3.319   3.758   6.777
 4745SOL    HW115134   3.311   3.720   6.869
 4745SOL    HW215135   3.348   3.853   6.783
 4746SOL     OW15136   4.402   6.489   3.549
 4746SOL    HW115137   4.463   6.426   3.598
 4746SOL    HW215138   4.322   6.438   3.515
 4747SOL     OW15139   1.028   3.618   0.780
 4747SOL    HW115140   0.943   3.663   0.755
 4747SOL    HW215141   1.087   3.612   0.699
 4748SOL     OW15142   1.329   6.744   1.498
 4748SOL    HW115143   1.377   6.802   1.563
 4748SOL    HW215144   1.247   6.791   1.466
 4749SOL     OW15145   1.599   6.721   6.432
 4749SOL    HW115146   1.668   6.719   6.360
 4749SOL    HW215147   1.508   6.734   6.392
 4750SOL     OW15148   6.304   3.391   5.638
 4750SOL    HW115149   6.367   3.469   5.633
 4750SOL    HW215150   6.312   3.338   5.554
 4751SOL     OW15151   4.783   2.470   3.076
 4751SOL    HW115152   4.743   2.378   3.081
 4751SOL    HW215153   4.725   2.528   3.020
 4752SOL     OW15154   4.803   0.466   0.412
 4752SOL    HW115155   4.856   0.530   0.468
 4752SOL    HW215156   4.846   0.375   0.415
 4753SOL     OW15157   0.774   6.812   4.025
 4753SOL    HW115158   0.737   6.735   4.078
 4753SOL    HW215159   0.833   6.867   4.083
 4754SOL     OW15160   5.033   3.791   5.032
 4754SOL    HW115161   4.956   3.728   5.020
 4754SOL    HW215162   5.052   3.802   5.130
 4755SOL     OW15163   2.494   0.774   0.585
 4755SOL    HW115164   2.432   0.798   0.660
 4755SOL    HW215165   2.567   0.715   0.620
 4756SOL     OW15166   6.456   3.974   5.763
 4756SOL    HW115167   6.465   3.957   5.861
 4756SOL    HW215168   6.387   3.913   5.725
 4757SOL     OW15169   1.506   2.841   1.312
 4757SOL    HW115170   1.599   2.817   1.341
 4757SOL    HW215171   1.470   2.911   1.373
 4758SOL     OW15172   1.304   6.999   3.331
 4758SOL    HW115173   1.357   0.012   3.254
 4758SOL    HW215174   1.366   6.971   3.404
 4759SOL     OW15175   0.521   5.748   6.995
 4759SOL    HW115176   0.552   5.689   6.921
 4759SOL    HW215177   0.427   5.724   7.019
 4760SOL     OW15178   1.764   1.162   0.796
 4760SOL    HW115179   1.733   1.143   0.889
 4760SOL    HW215180   1.750   1.259   0.775
 4761SOL     OW15181   1.610   0.768   0.719
 4761SOL    HW115182   1.552   0.826   0.662
 4761SOL    HW215183   1.595   0.791   0.815
 4762SOL     OW15184   1.600   5.976   1.954
 4762SOL    HW115185   1.509   5.983   1.994
 4762SOL    HW215186   1.614   6.052   1.889
 4763SOL     OW15187   4.432   0.493   2.631
 4763SOL    HW115188   4.431   0.536   2.722
 4763SOL    HW215189   4.457   0.562   2.563
 4764SOL     OW15190   4.557   3.525   5.379
 4764SOL    HW115191   4.604   3.516   5.291
 4764SOL    HW215192   4.582   3.613   5.421
 4765SOL     OW15193   3.964   0.952   6.005
 4765SOL    HW115194   3.881   0.898   6.016
 4765SOL    HW215195   4.041   0.892   5.987
 4766SOL     OW15196   5.832   6.171   4.143
 4766SOL    HW115197   5.806   6.142   4.236
 4766SOL    HW215198   5.798   6.263   4.126
 4767SOL     OW15199   2.564   5.120   5.468
 4767SOL    HW115200   2.659   5.091   5.453
 4767SOL    HW215201   2.503   5.061   5.416
 4768SOL     OW15202   3.968   3.421   6.055
 4768SOL    HW115203   3.937   3.364   6.131
 4768SOL    HW215204   3.918   3.507   6.054
 4769SOL     OW15205   3.277   6.012   0.234
 4769SOL    HW115206   3.183   6.043   0.249
 4769SOL    HW215207   3.340   6.088   0.251
 4770SOL     OW15208   6.468   1.879   5.000
 4770SOL    HW115209   6.561   1.906   4.976
 4770SOL    HW215210   6.420   1.956   5.041
 4771SOL     OW15211   2.520   6.598   6.133
 4771SOL    HW115212   2.502   6.611   6.036
 4771SOL    HW215213   2.599   6.538   6.145
 4772SOL     OW15214   3.415   4.863   1.078
 4772SOL    HW115215   3.427   4.962   1.081
 4772SOL    HW215216   3.474   4.820   1.146
 4773SOL     OW15217   1.073   6.393   4.659
 4773SOL    HW115218   0.981   6.389   4.622
 4773SOL    HW215219   1.115   6.302   4.655
 4774SOL     OW15220   1.158   4.187   1.547
 4774SOL    HW115221   1.225   4.196   1.473
 4774SOL    HW215222   1.071   4.226   1.518
 4775SOL     OW15223   4.961   0.065   4.322
 4775SOL    HW115224   4.905   7.009   4.302
 4775SOL    HW215225   4.987   0.110   4.236
 4776SOL     OW15226   0.846   0.875   4.737
 4776SOL    HW115227   0.854   0.861   4.638
 4776SOL    HW215228   0.823   0.970   4.755
 4777SOL     OW15229   1.525   5.416   0.833
 4777SOL    HW115230   1.606   5.356   0.835
 4777SOL    HW215231   1.542   5.497   0.888
 4778SOL     OW15232   0.249   3.180   4.838
 4778SOL    HW115233   0.254   3.271   4.797
 4778SOL    HW215234   0.215   3.115   4.770
 4779SOL     OW15235   5.688   6.427   4.078
 4779SOL    HW115236   5.604   6.388   4.040
 4779SOL    HW215237   5.730   6.488   4.010
 4780SOL     OW15238   5.915   2.394   6.407
 4780SOL    HW115239   5.893   2.394   6.310
 4780SOL    HW215240   5.844   2.443   6.458
 4781SOL     OW15241   2.684   5.072   2.167
 4781SOL    HW115242   2.724   5.156   2.205
 4781SOL    HW215243   2.735   4.993   2.203
 4782SOL     OW15244   6.751   5.627   6.110
 4782SOL    HW115245   6.663   5.581   6.101
 4782SOL    HW215246   6.771   5.645   6.206
 4783SOL     OW15247   5.857   3.598   6.997
 4783SOL    HW115248   5.839   3.606   6.899
 4783SOL    HW215249   5.827   3.509   0.006
 4784SOL     OW15250   6.019   2.311   6.097
 4784SOL    HW115251   5.957   2.389   6.096
 4784SOL    HW215252   6.053   2.295   6.004
 4785SOL     OW15253   0.343   6.894   3.024
 4785SOL    HW115254   0.432   6.857   2.995
 4785SOL    HW215255   0.350   6.928   3.117
 4786SOL     OW15256   2.516   6.993   0.044
 4786SOL    HW115257   2.592   6.929   0.054
 4786SOL    HW215258   2.444   6.952   7.011
 4787SOL     OW15259   3.968   1.713   3.299
 4787SOL    HW115260   3.905   1.661   3.241
 4787SOL    HW215261   3.965   1.677   3.392
 4788SOL     OW15262   6.219   6.215   0.306
 4788SOL    HW115263   6.157   6.259   0.241
 4788SOL    HW215264   6.314   6.227   0.275
 4789SOL     OW15265   4.889   1.841   1.552
 4789SOL    HW115266   4.831   1.797   1.621
 4789SOL    HW215267   4.937   1.771   1.499
 4790SOL     OW15268   5.426   1.861   5.428
 4790SOL    HW115269   5.391   1.803   5.502
 4790SOL    HW215270   5.432   1.955   5.460
 4791SOL     OW15271   7.010   3.161   1.761
 4791SOL    HW115272   7.016   3.258   1.787
 4791SOL    HW215273   0.050   3.142   1.686
 4792SOL     OW15274   2.210   4.483   4.502
 4792SOL    HW115275   2.221   4.436   4.590
 4792SOL    HW215276   2.281   4.553   4.492
 4793SOL     OW15277   1.725   3.618   5.150
 4793SOL    HW115278   1.768   3.627   5.060
 4793SOL    HW215279   1.634   3.577   5.139
 4794SOL     OW15280   4.657   6.737   4.087
 4794SOL    HW115281   4.563   6.770   4.095
 4794SOL    HW215282   4.694   6.720   4.179
 4795SOL     OW15283   6.717   1.714   4.628
 4795SOL    HW115284   6.696   1.634   4.572
 4795SOL    HW215285   6.635   1.742   4.679
 4796SOL     OW15286   3.494   0.026   6.396
 4796SOL    HW115287   3.505   0.105   6.455
 4796SOL    HW215288   3.576   6.993   6.399
 4797SOL     OW15289   0.819   5.697   4.578
 4797SOL    HW115290   0.852   5.605   4.601
 4797SOL    HW215291   0.763   5.731   4.653
 4798SOL     OW15292   5.828   5.248   5.874
 4798SOL    HW115293   5.792   5.297   5.795
 4798SOL    HW215294   5.836   5.151   5.852
 4799SOL     OW15295   4.246   1.322   0.115
 4799SOL    HW115296   4.208   1.243   0.163
 4799SOL    HW215297   4.181   1.398   0.119
 4800SOL     OW15298   1.419   4.172   6.821
 4800SOL    HW115299   1.338   4.118   6.844
 4800SOL    HW215300   1.487   4.113   6.777
 4801SOL     OW15301   3.798   2.904   6.833
 4801SOL    HW115302   3.748   2.990   6.827
 4801SOL    HW215303   3.787   2.854   6.747
 4802SOL     OW15304   6.619   6.645   1.884
 4802SOL    HW115305   6.714   6.629   1.861
 4802SOL    HW215306   6.563   6.639   1.802
 4803SOL     OW15307   6.563   4.914   1.117
 4803SOL    HW115308   6.503   4.857   1.060
 4803SOL    HW215309   6.628   4.855   1.165
 4804SOL     OW15310   5.640   0.369   1.084
 4804SOL    HW115311   5.666   0.348   1.178
 4804SOL    HW215312   5.702   0.321   1.021
 4805SOL     OW15313   6.609   0.593   2.430
 4805SOL    HW115314   6.572   0.684   2.444
 4805SOL    HW215315   6.631   0.551   2.519
 4806SOL     OW15316   0.923   3.322   2.784
 4806SOL    HW115317   0.943   3.243   2.842
 4806SOL    HW215318   1.009   3.365   2.755
 4807SOL     OW15319   1.436   3.473   6.831
 4807SOL    HW115320   1.494   3.449   6.753
 4807SOL    HW215321   1.408   3.568   6.824
 4808SOL     OW15322   4.383   5.425   0.443
 4808SOL    HW115323   4.332   5.402   0.360
 4808SOL    HW215324   4.469   5.374   0.445
 4809SOL     OW15325   3.991   4.237   1.679
 4809SOL    HW115326   4.014   4.332   1.660
 4809SOL    HW215327   3.900   4.217   1.642
 4810SOL     OW15328   1.581   4.645   3.563
 4810SOL    HW115329   1.651   4.660   3.633
 4810SOL    HW215330   1.625   4.623   3.476
 4811SOL     OW15331   3.977   3.819   3.777
 4811SOL    HW115332   4.030   3.765   3.842
 4811SOL    HW215333   4.006   3.796   3.684
 4812SOL     OW15334   0.556   6.988   2.258
 4812SOL    HW115335   0.519   0.045   2.305
 4812SOL    HW215336   0.580   6.918   2.326
 4813SOL     OW15337   5.960   2.003   6.082
 4813SOL    HW115338   6.006   2.012   6.170
 4813SOL    HW215339   6.001   2.064   6.016
 4814SOL     OW15340   6.939   3.310   2.265
 4814SOL    HW115341   6.991   3.244   2.319
 4814SOL    HW215342   6.989   3.397   2.261
 4815SOL     OW15343   5.128   4.519   2.823
 4815SOL    HW115344   5.028   4.515   2.828
 4815SOL    HW215345   5.165   4.427   2.811
 4816SOL     OW15346   2.313   5.929   1.144
 4816SOL    HW115347   2.255   5.946   1.224
 4816SOL    HW215348   2.312   6.009   1.084
 4817SOL     OW15349   3.143   1.246   1.813
 4817SOL    HW115350   3.050   1.283   1.808
 4817SOL    HW215351   3.187   1.252   1.723
 4818SOL     OW15352   1.310   1.384   3.956
 4818SOL    HW115353   1.353   1.359   3.870
 4818SOL    HW215354   1.287   1.301   4.007
 4819SOL     OW15355   3.171   1.911   1.852
 4819SOL    HW115356   3.217   1.828   1.884
 4819SOL    HW215357   3.078   1.914   1.889
 4820SOL     OW15358   6.475   2.235   0.885
 4820SOL    HW115359   6.477   2.275   0.794
 4820SOL    HW215360   6.546   2.164   0.892
 4821SOL     OW15361   6.552   6.387   1.522
 4821SOL    HW115362   6.548   6.413   1.426
 4821SOL    HW215363   6.499   6.303   1.536
 4822SOL     OW15364   1.761   2.858   4.141
 4822SOL    HW115365   1.778   2.954   4.165
 4822SOL    HW215366   1.810   2.799   4.205
 4823SOL     OW15367   6.865   0.915   3.702
 4823SOL    HW115368   6.852   0.857   3.782
 4823SOL    HW215369   6.922   0.993   3.726
 4824SOL     OW15370   5.899   1.597   3.927
 4824SOL    HW115371   5.806   1.613   3.894
 4824SOL    HW215372   5.964   1.630   3.859
 4825SOL     OW15373   2.371   2.730   4.420
 4825SOL    HW115374   2.318   2.804   4.462
 4825SOL    HW215375   2.419   2.678   4.491
 4826SOL     OW15376   0.842   0.224   0.580
 4826SOL    HW115377   0.833   0.136   0.534
 4826SOL    HW215378   0.856   0.296   0.511
 4827SOL     OW15379   6.129   0.684   1.624
 4827SOL    HW115380   6.049   0.732   1.660
 4827SOL    HW215381   6.159   0.728   1.540
 4828SOL     OW15382   5.763   3.578   1.158
 4828SOL    HW115383   5.827   3.603   1.230
 4828SOL    HW215384   5.808   3.516   1.093
 4829SOL     OW15385   4.040   6.460   6.588
 4829SOL    HW115386   4.053   6.551   6.628
 4829SOL    HW215387   4.082   6.457   6.498
 4830SOL     OW15388   5.161   5.861   3.509
 4830SOL    HW115389   5.077   5.810   3.523
 4830SOL    HW215390   5.235   5.818   3.560
 4831SOL     OW15391   6.419   5.346   5.963
 4831SOL    HW115392   6.486   5.369   6.034
 4831SOL    HW215393   6.329   5.334   6.005
 4832SOL     OW15394   2.894   2.761   5.955
 4832SOL    HW115395   2.938   2.843   5.992
 4832SOL    HW215396   2.936   2.679   5.995
 4833SOL     OW15397   5.136   1.674   3.058
 4833SOL    HW115398   5.182   1.590   3.030
 4833SOL    HW215399   5.170   1.701   3.149
 4834SOL     OW15400   3.556   0.173   0.337
 4834SOL    HW115401   3.508   0.240   0.394
 4834SOL    HW215402   3.621   0.121   0.393
 4835SOL     OW15403   1.576   0.562   6.717
 4835SOL    HW115404   1.576   0.463   6.709
 4835SOL    HW215405   1.574   0.588   6.813
 4836SOL     OW15406   4.638   2.692   3.823
 4836SOL    HW115407   4.575   2.626   3.865
 4836SOL    HW215408   4.731   2.657   3.829
 4837SOL     OW15409   3.794   3.120   1.471
 4837SOL    HW115410   3.791   3.169   1.558
 4837SOL    HW215411   3.701   3.101   1.440
 4838SOL     OW15412   2.332   5.108   1.814
 4838SOL    HW115413   2.239   5.076   1.833
 4838SOL    HW215414   2.397   5.058   1.871
 4839SOL     OW15415   1.918   3.688   5.650
 4839SOL    HW115416   1.928   3.674   5.552
 4839SOL    HW215417   1.952   3.780   5.674
 4840SOL     OW15418   7.021   6.936   6.050
 4840SOL    HW115419   0.012   0.012   6.048
 4840SOL    HW215420   0.012   6.898   5.959
 4841SOL     OW15421   2.902   5.846   1.734
 4841SOL    HW115422   2.895   5.936   1.693
 4841SOL    HW215423   2.971   5.792   1.685
 4842SOL     OW15424   3.346   4.726   1.684
 4842SOL    HW115425   3.273   4.779   1.641
 4842SOL    HW215426   3.312   4.636   1.710
 4843SOL     OW15427   6.044   3.916   0.674
 4843SOL    HW115428   6.097   3.992   0.711
 4843SOL    HW215429   6.052   3.837   0.736
 4844SOL     OW15430   6.826   4.073   6.040
 4844SOL    HW115431   6.812   4.006   6.113
 4844SOL    HW215432   6.912   4.122   6.056
 4845SOL     OW15433   6.531   5.795   4.381
 4845SOL    HW115434   6.561   5.773   4.474
 4845SOL    HW215435   6.453   5.738   4.357
 4846SOL     OW15436   6.585   3.496   2.347
 4846SOL    HW115437   6.643   3.484   2.267
 4846SOL    HW215438   6.637   3.542   2.419
 4847SOL     OW15439   3.488   1.804   5.788
 4847SOL    HW115440   3.396   1.768   5.804
 4847SOL    HW215441   3.488   1.904   5.800
 4848SOL     OW15442   1.806   1.102   3.811
 4848SOL    HW115443   1.866   1.086   3.889
 4848SOL    HW215444   1.837   1.046   3.733
 4849SOL     OW15445   0.859   6.881   6.852
 4849SOL    HW115446   0.840   6.833   6.766
 4849SOL    HW215447   0.836   6.978   6.842
 4850SOL     OW15448   4.422   1.283   2.132
 4850SOL    HW115449   4.375   1.331   2.206
 4850SOL    HW215450   4.506   1.331   2.108
 4851SOL     OW15451   3.440   5.911   4.762
 4851SOL    HW115452   3.378   5.940   4.689
 4851SOL    HW215453   3.394   5.918   4.850
 4852SOL     OW15454   0.763   0.117   6.877
 4852SOL    HW115455   0.794   0.186   6.811
 4852SOL    HW215456   0.676   0.078   6.846
 4853SOL     OW15457   2.906   0.977   2.129
 4853SOL    HW115458   2.843   0.962   2.205
 4853SOL    HW215459   2.914   0.894   2.074
 4854SOL     OW15460   5.227   6.312   2.316
 4854SOL    HW115461   5.176   6.394   2.294
 4854SOL    HW215462   5.284   6.329   2.397
 4855SOL     OW15463   5.900   2.656   2.491
 4855SOL    HW115464   5.907   2.726   2.419
 4855SOL    HW215465   5.808   2.619   2.492
 4856SOL     OW15466   1.450   4.183   2.620
 4856SOL    HW115467   1.457   4.249   2.545
 4856SOL    HW215468   1.509   4.105   2.601
 4857SOL     OW15469   1.917   2.186   5.533
 4857SOL    HW115470   2.008   2.183   5.575
 4857SOL    HW215471   1.866   2.262   5.572
 4858SOL     OW15472   1.989   0.820   4.522
 4858SOL    HW115473   2.010   0.817   4.424
 4858SOL    HW215474   1.995   0.914   4.555
 4859SOL     OW15475   1.207   0.610   4.161
 4859SOL    HW115476   1.110   0.609   4.135
 4859SOL    HW215477   1.245   0.700   4.138
 4860SOL     OW15478   3.507   4.957   1.798
 4860SOL    HW115479   3.531   4.889   1.867
 4860SOL    HW215480   3.408   4.972   1.797
 4861SOL     OW15481   5.365   5.341   0.140
 4861SOL    HW115482   5.410   5.256   0.112
 4861SOL    HW215483   5.432   5.400   0.185
 4862SOL     OW15484   2.887   4.870   4.926
 4862SOL    HW115485   2.868   4.783   4.971
 4862SOL    HW215486   2.853   4.866   4.831
 4863SOL     OW15487   5.802   4.365   1.072
 4863SOL    HW115488   5.811   4.301   0.996
 4863SOL    HW215489   5.782   4.315   1.156
 4864SOL     OW15490   3.916   1.270   3.989
 4864SOL    HW115491   3.887   1.363   3.967
 4864SOL    HW215492   3.836   1.215   4.012
 4865SOL     OW15493   1.965   0.827   5.774
 4865SOL    HW115494   1.981   0.916   5.815
 4865SOL    HW215495   1.919   0.767   5.840
 4866SOL     OW15496   6.980   3.196   0.843
 4866SOL    HW115497   0.037   3.138   0.856
 4866SOL    HW215498   6.927   3.163   0.765
 4867SOL     OW15499   4.085   5.575   3.494
 4867SOL    HW115500   4.045   5.516   3.423
 4867SOL    HW215501   4.165   5.623   3.456
 4868SOL     OW15502   6.346   4.918   2.828
 4868SOL    HW115503   6.414   4.988   2.851
 4868SOL    HW215504   6.312   4.875   2.911
 4869SOL     OW15505   1.824   1.643   1.522
 4869SOL    HW115506   1.776   1.613   1.439
 4869SOL    HW215507   1.758   1.681   1.587
 4870SOL     OW15508   0.781   6.327   1.843
 4870SOL    HW115509   0.796   6.396   1.772
 4870SOL    HW215510   0.866   6.310   1.893
 4871SOL     OW15511   0.763   1.115   3.577
 4871SOL    HW115512   0.719   1.114   3.487
 4871SOL    HW215513   0.786   1.021   3.604
 4872SOL     OW15514   6.224   0.207   3.154
 4872SOL    HW115515   6.159   0.176   3.223
 4872SOL    HW215516   6.309   0.156   3.163
 4873SOL     OW15517   6.996   5.461   4.203
 4873SOL    HW115518   7.020   5.400   4.127
 4873SOL    HW215519   6.930   5.529   4.171
 4874SOL     OW15520   5.346   3.910   2.467
 4874SOL    HW115521   5.289   3.866   2.397
 4874SOL    HW215522   5.432   3.939   2.426
 4875SOL     OW15523   6.326   1.247   0.217
 4875SOL    HW115524   6.382   1.225   0.297
 4875SOL    HW215525   6.381   1.299   0.152
 4876SOL     OW15526   0.164   1.790   3.618
 4876SOL    HW115527   0.144   1.722   3.547
 4876SOL    HW215528   0.106   1.870   3.605
 4877SOL     OW15529   0.465   1.606   5.350
 4877SOL    HW115530   0.559   1.580   5.373
 4877SOL    HW215531   0.466   1.695   5.305
 4878SOL     OW15532   6.535   1.249   1.710
 4878SOL    HW115533   6.595   1.168   1.712
 4878SOL    HW215534   6.449   1.228   1.756
 4879SOL     OW15535   4.380   1.898   2.064
 4879SOL    HW115536   4.288   1.922   2.035
 4879SOL    HW215537   4.404   1.807   2.028
 4880SOL     OW15538   5.675   3.353   7.006
 4880SOL    HW115539   5.697   3.357   0.080
 4880SOL    HW215540   5.577   3.364   6.992
 4881SOL     OW15541   1.735   1.297   0.034
 4881SOL    HW115542   1.709   1.228   6.989
 4881SOL    HW215543   1.753   1.252   0.121
 4882SOL     OW15544   4.478   0.810   5.122
 4882SOL    HW115545   4.530   0.856   5.194
 4882SOL    HW215546   4.386   0.788   5.156
 4883SOL     OW15547   4.733   4.231   1.341
 4883SOL    HW115548   4.779   4.143   1.358
 4883SOL    HW215549   4.640   4.227   1.376
 4884SOL     OW15550   3.123   5.422   1.492
 4884SOL    HW115551   3.193   5.357   1.524
 4884SOL    HW215552   3.117   5.417   1.392
 4885SOL     OW15553   2.168   5.273   1.108
 4885SOL    HW115554   2.263   5.290   1.135
 4885SOL    HW215555   2.147   5.176   1.118
 4886SOL     OW15556   2.401   6.323   1.534
 4886SOL    HW115557   2.331   6.286   1.596
 4886SOL    HW215558   2.408   6.264   1.454
 4887SOL     OW15559   6.996   6.412   1.467
 4887SOL    HW115560   6.932   6.354   1.517
 4887SOL    HW215561   6.945   6.481   1.416
 4888SOL     OW15562   2.793   0.132   4.224
 4888SOL    HW115563   2.700   0.102   4.248
 4888SOL    HW215564   2.808   0.224   4.259
 4889SOL     OW15565   0.128   1.632   5.008
 4889SOL    HW115566   0.052   1.570   4.989
 4889SOL    HW215567   0.151   1.683   4.925
 4890SOL     OW15568   0.283   1.274   5.507
 4890SOL    HW115569   0.190   1.304   5.527
 4890SOL    HW215570   0.348   1.345   5.537
 4891SOL     OW15571   2.209   5.223   6.988
 4891SOL    HW115572   2.166   5.291   0.024
 4891SOL    HW215573   2.138   5.168   6.944
 4892SOL     OW15574   4.360   5.537   2.106
 4892SOL    HW115575   4.304   5.618   2.087
 4892SOL    HW215576   4.444   5.565   2.152
 4893SOL     OW15577   5.717   2.943   2.180
 4893SOL    HW115578   5.704   3.013   2.250
 4893SOL    HW215579   5.810   2.906   2.187
 4894SOL     OW15580   3.814   0.827   2.818
 4894SOL    HW115581   3.759   0.860   2.742
 4894SOL    HW215582   3.778   0.740   2.850
 4895SOL     OW15583   0.641   4.772   4.235
 4895SOL    HW115584   0.644   4.866   4.199
 4895SOL    HW215585   0.550   4.733   4.217
 4896SOL     OW15586   2.285   4.363   2.300
 4896SOL    HW115587   2.279   4.462   2.295
 4896SOL    HW215588   2.327   4.327   2.217
 4897SOL     OW15589   1.567   5.026   5.236
 4897SOL    HW115590   1.473   5.008   5.206
 4897SOL    HW215591   1.612   5.083   5.168
 4898SOL     OW15592   4.219   1.207   5.047
 4898SOL    HW115593   4.316   1.231   5.040
 4898SOL    HW215594   4.206   1.137   5.118
 4899SOL     OW15595   5.903   5.170   2.758
 4899SOL    HW115596   5.900   5.095   2.693
 4899SOL    HW215597   5.811   5.185   2.796
 4900SOL     OW15598   3.634   6.097   4.860
 4900SOL    HW115599   3.625   6.166   4.788
 4900SOL    HW215600   3.580   6.016   4.836
 4901SOL     OW15601   2.308   1.659   5.346
 4901SOL    HW115602   2.307   1.593   5.272
 4901SOL    HW215603   2.254   1.624   5.423
 4902SOL     OW15604   1.268   1.550   4.652
 4902SOL    HW115605   1.175   1.556   4.690
 4902SOL    HW215606   1.309   1.463   4.678
 4903SOL     OW15607   4.064   5.397   0.030
 4903SOL    HW115608   4.030   5.478   0.078
 4903SOL    HW215609   3.996   5.365   6.989
 4904SOL     OW15610   1.821   6.844   5.609
 4904SOL    HW115611   1.810   6.941   5.588
 4904SOL    HW215612   1.785   6.825   5.701
 4905SOL     OW15613   3.565   0.808   3.546
 4905SOL    HW115614   3.566   0.885   3.609
 4905SOL    HW215615   3.481   0.811   3.491
 4906SOL     OW15616   5.015   1.938   6.311
 4906SOL    HW115617   4.956   2.016   6.333
 4906SOL    HW215618   5.025   1.930   6.212
 4907SOL     OW15619   4.985   6.996   1.736
 4907SOL    HW115620   4.993   6.897   1.737
 4907SOL    HW215621   4.908   0.000   1.795
 4908SOL     OW15622   5.522   6.496   6.909
 4908SOL    HW115623   5.461   6.462   6.980
 4908SOL    HW215624   5.585   6.424   6.881
 4909SOL     OW15625   0.035   5.708   3.557
 4909SOL    HW115626   0.055   5.686   3.653
 4909SOL    HW215627   0.121   5.721   3.508
 4910SOL     OW15628   5.499   0.870   4.517
 4910SOL    HW115629   5.460   0.954   4.557
 4910SOL    HW215630   5.468   0.861   4.422
 4911SOL     OW15631   1.811   3.571   3.260
 4911SOL    HW115632   1.723   3.616   3.242
 4911SOL    HW215633   1.802   3.473   3.244
 4912SOL     OW15634   5.683   1.753   5.933
 4912SOL    HW115635   5.690   1.711   6.024
 4912SOL    HW215636   5.635   1.841   5.941
 4913SOL     OW15637   3.916   3.276   5.076
 4913SOL    HW115638   3.869   3.335   5.141
 4913SOL    HW215639   3.923   3.184   5.114
 4914SOL     OW15640   4.767   6.692   5.226
 4914SOL    HW115641   4.773   6.762   5.155
 4914SOL    HW215642   4.769   6.601   5.184
 4915SOL     OW15643   2.182   6.082   5.467
 4915SOL    HW115644   2.082   6.091   5.471
 4915SOL    HW215645   2.224   6.153   5.524
 4916SOL     OW15646   0.757   1.136   3.997
 4916SOL    HW115647   0.706   1.165   3.916
 4916SOL    HW215648   0.776   1.216   4.054
 4917SOL     OW15649   2.640   5.706   1.362
 4917SOL    HW115650   2.572   5.666   1.301
 4917SOL    HW215651   2.634   5.661   1.451
 4918SOL     OW15652   5.508   6.300   1.859
 4918SOL    HW115653   5.567   6.375   1.829
 4918SOL    HW215654   5.442   6.334   1.926
 4919SOL     OW15655   2.862   3.113   0.963
 4919SOL    HW115656   2.911   3.198   0.945
 4919SOL    HW215657   2.776   3.112   0.912
 4920SOL     OW15658   5.539   0.425   4.487
 4920SOL    HW115659   5.611   0.426   4.556
 4920SOL    HW215660   5.462   0.481   4.518
 4921SOL     OW15661   1.381   5.700   6.883
 4921SOL    HW115662   1.351   5.751   6.803
 4921SOL    HW215663   1.459   5.643   6.859
 4922SOL     OW15664   3.116   2.222   4.052
 4922SOL    HW115665   3.060   2.140   4.064
 4922SOL    HW215666   3.061   2.295   4.013
 4923SOL     OW15667   3.385   1.037   2.460
 4923SOL    HW115668   3.388   1.137   2.458
 4923SOL    HW215669   3.293   1.005   2.437
 4924SOL     OW15670   3.408   1.573   4.330
 4924SOL    HW115671   3.392   1.669   4.352
 4924SOL    HW215672   3.379   1.555   4.236
 4925SOL     OW15673   5.629   1.091   1.935
 4925SOL    HW115674   5.715   1.086   1.885
 4925SOL    HW215675   5.645   1.073   2.032
 4926SOL     OW15676   5.893   1.874   1.606
 4926SOL    HW115677   5.841   1.794   1.638
 4926SOL    HW215678   5.850   1.957   1.640
 4927SOL     OW15679   2.951   3.565   4.633
 4927SOL    HW115680   2.948   3.589   4.730
 4927SOL    HW215681   2.908   3.476   4.620
 4928SOL     OW15682   1.515   1.153   0.350
 4928SOL    HW115683   1.457   1.213   0.405
 4928SOL    HW215684   1.465   1.120   0.271
 4929SOL     OW15685   6.371   0.059   4.369
 4929SOL    HW115686   6.385   0.114   4.452
 4929SOL    HW215687   6.459   0.023   4.338
 4930SOL     OW15688   5.804   0.494   2.938
 4930SOL    HW115689   5.859   0.509   2.856
 4930SOL    HW215690   5.852   0.431   2.999
 4931SOL     OW15691   6.277   6.797   1.531
 4931SOL    HW115692   6.294   6.890   1.500
 4931SOL    HW215693   6.247   6.741   1.453
 4932SOL     OW15694   3.855   3.024   3.080
 4932SOL    HW115695   3.850   3.084   3.000
 4932SOL    HW215696   3.781   2.957   3.076
 4933SOL     OW15697   2.725   6.913   2.417
 4933SOL    HW115698   2.707   6.953   2.327
 4933SOL    HW215699   2.816   6.943   2.449
 4934SOL     OW15700   3.600   5.965   3.092
 4934SOL    HW115701   3.665   5.995   3.022
 4934SOL    HW215702   3.512   5.946   3.049
 4935SOL     OW15703   1.804   2.005   6.289
 4935SOL    HW115704   1.838   2.042   6.202
 4935SOL    HW215705   1.798   2.079   6.356
 4936SOL     OW15706   3.474   5.090   1.345
 4936SOL    HW115707   3.514   5.169   1.299
 4936SOL    HW215708   3.392   5.062   1.296
 4937SOL     OW15709   5.900   3.212   6.010
 4937SOL    HW115710   5.808   3.190   6.044
 4937SOL    HW215711   5.919   3.309   6.026
 4938SOL     OW15712   1.796   5.740   5.524
 4938SOL    HW115713   1.707   5.748   5.569
 4938SOL    HW215714   1.868   5.748   5.592
 4939SOL     OW15715   5.475   2.029   5.072
 4939SOL    HW115716   5.379   2.048   5.047
 4939SOL    HW215717   5.503   2.091   5.145
 4940SOL     OW15718   0.877   1.021   4.401
 4940SOL    HW115719   0.948   1.063   4.457
 4940SOL    HW215720   0.787   1.049   4.435
 4941SOL     OW15721   4.472   2.094   6.127
 4941SOL    HW115722   4.458   2.003   6.088
 4941SOL    HW215723   4.430   2.097   6.218
 4942SOL     OW15724   5.212   2.961   5.584
 4942SOL    HW115725   5.175   2.897   5.517
 4942SOL    HW215726   5.137   3.013   5.625
 4943SOL     OW15727   3.856   3.444   0.455
 4943SOL    HW115728   3.916   3.364   0.460
 4943SOL    HW215729   3.853   3.489   0.544
 4944SOL     OW15730   2.439   4.340   2.667
 4944SOL    HW115731   2.388   4.302   2.590
 4944SOL    HW215732   2.468   4.267   2.728
 4945SOL     OW15733   1.034   1.188   3.908
 4945SOL    HW115734   1.053   1.264   3.969
 4945SOL    HW215735   0.954   1.137   3.942
 4946SOL     OW15736   0.133   3.054   1.256
 4946SOL    HW115737   0.111   2.967   1.300
 4946SOL    HW215738   0.227   3.081   1.280
 4947SOL     OW15739   1.535   0.787   0.999
 4947SOL    HW115740   1.495   0.699   0.973
 4947SOL    HW215741   1.465   0.842   1.045
 4948SOL     OW15742   2.324   0.369   2.675
 4948SOL    HW115743   2.405   0.317   2.648
 4948SOL    HW215744   2.325   0.383   2.774
 4949SOL     OW15745   4.503   7.004   5.170
 4949SOL    HW115746   4.440   0.060   5.166
 4949SOL    HW215747   4.451   6.922   5.194
 4950SOL     OW15748   3.043   5.542   3.748
 4950SOL    HW115749   2.992   5.627   3.763
 4950SOL    HW215750   2.998   5.489   3.677
 4951SOL     OW15751   5.463   1.338   4.958
 4951SOL    HW115752   5.513   1.379   5.033
 4951SOL    HW215753   5.527   1.293   4.895
 4952SOL     OW15754   0.449   0.809   4.771
 4952SOL    HW115755   0.452   0.895   4.822
 4952SOL    HW215756   0.354   0.782   4.757
 4953SOL     OW15757   1.980   6.592   1.773
 4953SOL    HW115758   1.968   6.518   1.707
 4953SOL    HW215759   2.041   6.661   1.734
 4954SOL     OW15760   4.971   4.610   6.387
 4954SOL    HW115761   5.017   4.645   6.306
 4954SOL    HW215762   4.922   4.684   6.432
 4955SOL     OW15763   1.331   6.771   6.404
 4955SOL    HW115764   1.277   6.725   6.474
 4955SOL    HW215765   1.288   6.758   6.315
 4956SOL     OW15766   2.972   0.024   5.041
 4956SOL    HW115767   3.055   0.073   5.066
 4956SOL    HW215768   2.948   0.045   4.946
 4957SOL     OW15769   0.211   0.890   3.430
 4957SOL    HW115770   0.234   0.927   3.520
 4957SOL    HW215771   0.211   0.964   3.363
 4958SOL     OW15772   6.861   6.180   5.751
 4958SOL    HW115773   6.945   6.187   5.805
 4958SOL    HW215774   6.783   6.164   5.811
 4959SOL     OW15775   6.662   1.419   6.369
 4959SOL    HW115776   6.604   1.338   6.376
 4959SOL    HW215777   6.750   1.393   6.329
 4960SOL     OW15778   3.429   6.025   3.677
 4960SOL    HW115779   3.510   6.062   3.632
 4960SOL    HW215780   3.374   6.100   3.714
 4961SOL     OW15781   5.029   1.733   5.355
 4961SOL    HW115782   4.967   1.659   5.381
 4961SOL    HW215783   5.070   1.773   5.437
 4962SOL     OW15784   6.029   2.882   1.360
 4962SOL    HW115785   6.035   2.981   1.353
 4962SOL    HW215786   5.957   2.857   1.426
 4963SOL     OW15787   5.996   5.975   0.581
 4963SOL    HW115788   5.957   5.998   0.491
 4963SOL    HW215789   6.088   5.939   0.569
 4964SOL     OW15790   3.642   6.393   3.291
 4964SOL    HW115791   3.656   6.455   3.213
 4964SOL    HW215792   3.571   6.327   3.268
 4965SOL     OW15793   0.116   0.226   4.008
 4965SOL    HW115794   0.093   0.270   4.095
 4965SOL    HW215795   0.141   0.130   4.025
 4966SOL     OW15796   2.296   6.524   5.112
 4966SOL    HW115797   2.352   6.591   5.063
 4966SOL    HW215798   2.352   6.478   5.181
 4967SOL     OW15799   4.213   3.519   6.527
 4967SOL    HW115800   4.135   3.561   6.480
 4967SOL    HW215801   4.285   3.500   6.462
 4968SOL     OW15802   5.364   2.945   3.344
 4968SOL    HW115803   5.378   3.037   3.382
 4968SOL    HW215804   5.268   2.920   3.351
 4969SOL     OW15805   2.205   1.141   2.182
 4969SOL    HW115806   2.115   1.175   2.211
 4969SOL    HW215807   2.274   1.211   2.201
 4970SOL     OW15808   1.428   2.403   4.735
 4970SOL    HW115809   1.473   2.350   4.662
 4970SOL    HW215810   1.490   2.410   4.813
 4971SOL     OW15811   6.567   6.230   3.144
 4971SOL    HW115812   6.490   6.167   3.137
 4971SOL    HW215813   6.647   6.190   3.099
 4972SOL     OW15814   2.144   3.477   0.163
 4972SOL    HW115815   2.089   3.549   0.204
 4972SOL    HW215816   2.085   3.416   0.110
 4973SOL     OW15817   6.912   0.017   1.568
 4973SOL    HW115818   6.904   6.941   1.576
 4973SOL    HW215819   6.887   0.060   1.655
 4974SOL     OW15820   6.303   4.252   0.733
 4974SOL    HW115821   6.223   4.292   0.689
 4974SOL    HW215822   6.286   4.155   0.751
 4975SOL     OW15823   5.923   6.004   0.003
 4975SOL    HW115824   5.878   5.924   6.987
 4975SOL    HW215825   5.858   6.081   0.007
 4976SOL     OW15826   3.234   0.617   4.532
 4976SOL    HW115827   3.266   0.611   4.437
 4976SOL    HW215828   3.287   0.685   4.581
 4977SOL     OW15829   4.759   4.229   0.801
 4977SOL    HW115830   4.753   4.286   0.883
 4977SOL    HW215831   4.814   4.147   0.821
 4978SOL     OW15832   6.702   3.417   5.612
 4978SOL    HW115833   6.772   3.456   5.671
 4978SOL    HW215834   6.616   3.467   5.625
 4979SOL     OW15835   6.968   1.465   5.334
 4979SOL    HW115836   6.923   1.399   5.274
 4979SOL    HW215837   6.908   1.543   5.350
 4980SOL     OW15838   4.456   0.067   3.386
 4980SOL    HW115839   4.450   7.016   3.320
 4980SOL    HW215840   4.549   0.072   3.424
 4981SOL     OW15841   4.857   5.748   5.796
 4981SOL    HW115842   4.907   5.799   5.865
 4981SOL    HW215843   4.921   5.702   5.734
 4982SOL     OW15844   2.410   1.393   0.065
 4982SOL    HW115845   2.416   1.370   0.162
 4982SOL    HW215846   2.431   1.313   0.010
 4983SOL     OW15847   5.102   3.008   4.631
 4983SOL    HW115848   5.093   2.920   4.677
 4983SOL    HW215849   5.029   3.069   4.661
 4984SOL     OW15850   5.552   3.581   4.213
 4984SOL    HW115851   5.500   3.665   4.227
 4984SOL    HW215852   5.582   3.544   4.301
 4985SOL     OW15853   6.679   5.829   3.416
 4985SOL    HW115854   6.601   5.874   3.458
 4985SOL    HW215855   6.721   5.890   3.348
 4986SOL     OW15856   6.710   4.573   3.308
 4986SOL    HW115857   6.671   4.503   3.249
 4986SOL    HW215858   6.810   4.570   3.302
 4987SOL     OW15859   0.676   1.947   1.294
 4987SOL    HW115860   0.603   1.931   1.227
 4987SOL    HW215861   0.652   1.903   1.380
 4988SOL     OW15862   6.742   1.664   3.367
 4988SOL    HW115863   6.812   1.613   3.317
 4988SOL    HW215864   6.676   1.703   3.302
 4989SOL     OW15865   6.144   0.740   1.281
 4989SOL    HW115866   6.231   0.705   1.317
 4989SOL    HW215867   6.160   0.787   1.195
 4990SOL     OW15868   1.278   1.435   6.341
 4990SOL    HW115869   1.219   1.470   6.268
 4990SOL    HW215870   1.243   1.347   6.373
 4991SOL     OW15871   0.602   4.201   3.533
 4991SOL    HW115872   0.677   4.252   3.489
 4991SOL    HW215873   0.624   4.186   3.629
 4992SOL     OW15874   5.089   0.374   3.908
 4992SOL    HW115875   5.170   0.425   3.939
 4992SOL    HW215876   5.053   0.417   3.825
 4993SOL     OW15877   2.556   4.606   3.768
 4993SOL    HW115878   2.578   4.653   3.853
 4993SOL    HW215879   2.613   4.642   3.694
 4994SOL     OW15880   1.338   0.476   2.288
 4994SOL    HW115881   1.367   0.381   2.297
 4994SOL    HW215882   1.419   0.534   2.275
 4995SOL     OW15883   6.848   2.958   5.992
 4995SOL    HW115884   6.790   3.039   5.998
 4995SOL    HW215885   6.897   2.945   6.078
 4996SOL     OW15886   1.284   0.522   2.565
 4996SOL    HW115887   1.294   0.497   2.469
 4996SOL    HW215888   1.289   0.622   2.574
 4997SOL     OW15889   6.118   2.417   2.935
 4997SOL    HW115890   6.057   2.412   3.014
 4997SOL    HW215891   6.080   2.479   2.867
 4998SOL     OW15892   2.167   3.794   4.932
 4998SOL    HW115893   2.235   3.791   5.005
 4998SOL    HW215894   2.095   3.858   4.955
 4999SOL     OW15895   5.164   5.754   1.057
 4999SOL    HW115896   5.169   5.828   1.123
 4999SOL    HW215897   5.078   5.760   1.006
 5000SOL     OW15898   1.357   0.391   4.178
 5000SOL    HW115899   1.323   0.485   4.178
 5000SOL    HW215900   1.446   0.387   4.224
 5001SOL     OW15901   1.704   4.244   5.920
 5001SOL    HW115902   1.690   4.343   5.915
 5001SOL    HW215903   1.800   4.224   5.939
 5002SOL     OW15904   1.351   2.875   3.146
 5002SOL    HW115905   1.280   2.946   3.146
 5002SOL    HW215906   1.439   2.917   3.124
 5003SOL     OW15907   0.691   6.373   3.472
 5003SOL    HW115908   0.762   6.313   3.437
 5003SOL    HW215909   0.724   6.468   3.471
 5004SOL     OW15910   2.498   5.522   5.743
 5004SOL    HW115911   2.542   5.582   5.676
 5004SOL    HW215912   2.512   5.426   5.716
 5005SOL     OW15913   3.394   2.159   0.702
 5005SOL    HW115914   3.455   2.144   0.624
 5005SOL    HW215915   3.339   2.241   0.685
 5006SOL     OW15916   5.350   7.000   6.146
 5006SOL    HW115917   5.299   6.971   6.065
 5006SOL    HW215918   5.292   0.036   6.202
 5007SOL     OW15919   2.310   0.413   6.337
 5007SOL    HW115920   2.278   0.507   6.325
 5007SOL    HW215921   2.231   0.353   6.350
 5008SOL     OW15922   6.886   6.910   4.092
 5008SOL    HW115923   6.903   6.968   4.172
 5008SOL    HW215924   6.805   6.853   4.109
 5009SOL     OW15925   2.124   6.781   1.663
 5009SOL    HW115926   2.114   6.821   1.572
 5009SOL    HW215927   2.151   6.851   1.728
 5010SOL     OW15928   3.276   3.379   3.555
 5010SOL    HW115929   3.196   3.358   3.498
 5010SOL    HW215930   3.359   3.350   3.507
 5011SOL     OW15931   2.126   3.550   2.332
 5011SOL    HW115932   2.163   3.638   2.363
 5011SOL    HW215933   2.156   3.532   2.238
 5012SOL     OW15934   5.514   2.723   6.999
 5012SOL    HW115935   5.486   2.628   7.014
 5012SOL    HW215936   5.438   2.773   6.957
 5013SOL     OW15937   5.152   1.009   0.037
 5013SOL    HW115938   5.060   1.019   7.022
 5013SOL    HW215939   5.174   1.090   0.091
 5014SOL     OW15940   5.624   5.425   0.901
 5014SOL    HW115941   5.600   5.517   0.871
 5014SOL    HW215942   5.722   5.421   0.922
 5015SOL     OW15943   4.323   1.690   3.793
 5015SOL    HW115944   4.372   1.651   3.871
 5015SOL    HW215945   4.388   1.719   3.723
 5016SOL     OW15946   2.218   1.765   2.123
 5016SOL    HW115947   2.127   1.804   2.108
 5016SOL    HW215948   2.285   1.838   2.134
 5017SOL     OW15949   2.027   2.400   0.870
 5017SOL    HW115950   2.060   2.415   0.777
 5017SOL    HW215951   2.104   2.375   0.929
 5018SOL     OW15952   0.606   4.771   1.401
 5018SOL    HW115953   0.545   4.750   1.324
 5018SOL    HW215954   0.644   4.863   1.388
 5019SOL     OW15955   2.737   4.567   0.297
 5019SOL    HW115956   2.816   4.593   0.353
 5019SOL    HW215957   2.679   4.647   0.282
 5020SOL     OW15958   5.310   6.515   5.337
 5020SOL    HW115959   5.347   6.589   5.393
 5020SOL    HW215960   5.241   6.551   5.274
 5021SOL     OW15961   1.440   3.439   5.771
 5021SOL    HW115962   1.477   3.419   5.681
 5021SOL    HW215963   1.458   3.363   5.833
 5022SOL     OW15964   1.613   0.615   1.228
 5022SOL    HW115965   1.698   0.563   1.212
 5022SOL    HW215966   1.608   0.691   1.163
 5023SOL     OW15967   6.610   3.278   0.558
 5023SOL    HW115968   6.598   3.180   0.573
 5023SOL    HW215969   6.636   3.322   0.644
 5024SOL     OW15970   6.844   4.346   3.114
 5024SOL    HW115971   6.815   4.291   3.192
 5024SOL    HW215972   6.931   4.390   3.134
 5025SOL     OW15973   4.686   2.048   1.901
 5025SOL    HW115974   4.775   2.086   1.874
 5025SOL    HW215975   4.627   2.121   1.935
 5026SOL     OW15976   5.963   6.022   6.422
 5026SOL    HW115977   6.042   6.073   6.387
 5026SOL    HW215978   5.885   6.083   6.431
 5027SOL     OW15979   1.067   0.006   2.931
 5027SOL    HW115980   1.004   6.954   2.949
 5027SOL    HW215981   1.018   0.082   2.889
 5028SOL     OW15982   0.450   6.607   2.013
 5028SOL    HW115983   0.489   6.685   1.964
 5028SOL    HW215984   0.420   6.538   1.948
 5029SOL     OW15985   6.930   3.234   3.284
 5029SOL    HW115986   6.991   3.172   3.234
 5029SOL    HW215987   6.836   3.204   3.274
 5030SOL     OW15988   6.596   0.950   0.039
 5030SOL    HW115989   6.571   0.854   0.044
 5030SOL    HW215990   6.534   0.998   7.000
 5031SOL     OW15991   5.807   1.348   4.638
 5031SOL    HW115992   5.840   1.283   4.569
 5031SOL    HW215993   5.768   1.428   4.593
 5032SOL     OW15994   1.557   4.019   0.936
 5032SOL    HW115995   1.636   3.967   0.904
 5032SOL    HW215996   1.478   3.959   0.945
 5033SOL     OW15997   2.069   4.730   6.483
 5033SOL    HW115998   2.047   4.756   6.389
 5033SOL    HW215999   2.069   4.631   6.491
 5034SOL     OW16000   0.213   3.756   2.423
 5034SOL    HW116001   0.126   3.792   2.456
 5034SOL    HW216002   0.271   3.733   2.502
 5035SOL     OW16003   5.937   4.843   1.039
 5035SOL    HW116004   5.985   4.894   1.110
 5035SOL    HW216005   5.913   4.905   0.964
 5036SOL     OW16006   0.370   5.645   6.775
 5036SOL    HW116007   0.416   5.709   6.713
 5036SOL    HW216008   0.325   5.697   6.848
 5037SOL     OW16009   4.602   2.659   2.753
 5037SOL    HW116010   4.545   2.582   2.723
 5037SOL    HW216011   4.625   2.647   2.850
 5038SOL     OW16012   1.442   5.404   5.883
 5038SOL    HW116013   1.419   5.317   5.839
 5038SOL    HW216014   1.528   5.438   5.847
 5039SOL     OW16015   2.184   3.587   5.265
 5039SOL    HW116016   2.200   3.490   5.282
 5039SOL    HW216017   2.091   3.611   5.291
 5040SOL     OW16018   2.482   3.946   6.551
 5040SOL    HW116019   2.434   3.923   6.467
 5040SOL    HW216020   2.471   3.872   6.617
 5041SOL     OW16021   0.759   3.754   1.098
 5041SOL    HW116022   0.819   3.822   1.141
 5041SOL    HW216023   0.782   3.664   1.133
 5042SOL     OW16024   0.298   2.945   6.971
 5042SOL    HW116025   0.255   2.874   6.914
 5042SOL    HW216026   0.397   2.938   6.964
 5043SOL     OW16027   3.265   0.721   5.544
 5043SOL    HW116028   3.331   0.719   5.468
 5043SOL    HW216029   3.192   0.655   5.526
 5044SOL     OW16030   6.425   6.621   3.304
 5044SOL    HW116031   6.327   6.642   3.295
 5044SOL    HW216032   6.435   6.525   3.331
 5045SOL     OW16033   5.005   3.614   0.255
 5045SOL    HW116034   4.967   3.677   0.187
 5045SOL    HW216035   5.016   3.524   0.213
 5046SOL     OW16036   3.845   2.973   4.493
 5046SOL    HW116037   3.903   3.055   4.500
 5046SOL    HW216038   3.822   2.941   4.585
 5047SOL     OW16039   6.450   2.227   2.751
 5047SOL    HW116040   6.356   2.218   2.785
 5047SOL    HW216041   6.499   2.141   2.766
 5048SOL     OW16042   6.289   2.650   1.462
 5048SOL    HW116043   6.242   2.720   1.515
 5048SOL    HW216044   6.384   2.676   1.448
 5049SOL     OW16045   6.380   1.076   3.027
 5049SOL    HW116046   6.388   1.165   3.072
 5049SOL    HW216047   6.317   1.018   3.079
 5050SOL     OW16048   0.367   1.732   2.151
 5050SOL    HW116049   0.336   1.656   2.208
 5050SOL    HW216050   0.309   1.740   2.070
 5051SOL     OW16051   3.905   3.148   0.128
 5051SOL    HW116052   3.953   3.220   0.077
 5051SOL    HW216053   3.811   3.141   0.096
 5052SOL     OW16054   2.599   5.099   6.598
 5052SOL    HW116055   2.538   5.020   6.604
 5052SOL    HW216056   2.637   5.118   6.689
 5053SOL     OW16057   2.035   3.664   3.020
 5053SOL    HW116058   2.014   3.688   3.115
 5053SOL    HW216059   2.098   3.732   2.982
 5054SOL     OW16060   3.694   5.700   5.083
 5054SOL    HW116061   3.625   5.726   5.150
 5054SOL    HW216062   3.780   5.748   5.104
 5055SOL     OW16063   6.628   1.498   4.505
 5055SOL    HW116064   6.646   1.485   4.407
 5055SOL    HW216065   6.643   1.411   4.552
 5056SOL     OW16066   6.753   3.899   6.228
 5056SOL    HW116067   6.735   3.915   6.325
 5056SOL    HW216068   6.704   3.816   6.199
 5057SOL     OW16069   1.662   5.158   3.548
 5057SOL    HW116070   1.602   5.160   3.468
 5057SOL    HW216071   1.678   5.063   3.576
 5058SOL     OW16072   3.608   3.838   6.528
 5058SOL    HW116073   3.627   3.740   6.519
 5058SOL    HW216074   3.579   3.874   6.440
 5059SOL     OW16075   5.222   3.301   4.988
 5059SOL    HW116076   5.127   3.331   4.980
 5059SOL    HW216077   5.225   3.203   5.003
 5060SOL     OW16078   6.866   2.602   5.206
 5060SOL    HW116079   6.936   2.625   5.273
 5060SOL    HW216080   6.896   2.632   5.115
 5061SOL     OW16081   2.943   3.543   3.664
 5061SOL    HW116082   2.911   3.503   3.578
 5061SOL    HW216083   2.950   3.472   3.734
 5062SOL     OW16084   5.873   1.749   2.080
 5062SOL    HW116085   5.801   1.680   2.075
 5062SOL    HW216086   5.916   1.745   2.171
 5063SOL     OW16087   1.012   6.184   1.625
 5063SOL    HW116088   0.936   6.130   1.591
 5063SOL    HW216089   0.985   6.281   1.628
 5064SOL     OW16090   4.976   5.626   0.667
 5064SOL    HW116091   4.924   5.554   0.714
 5064SOL    HW216092   5.027   5.586   0.591
 5065SOL     OW16093   1.655   0.309   2.747
 5065SOL    HW116094   1.584   0.300   2.817
 5065SOL    HW216095   1.640   0.393   2.695
 5066SOL     OW16096   2.588   4.286   1.560
 5066SOL    HW116097   2.680   4.299   1.598
 5066SOL    HW216098   2.594   4.280   1.460
 5067SOL     OW16099   4.571   1.981   2.251
 5067SOL    HW116100   4.486   1.976   2.198
 5067SOL    HW216101   4.591   2.077   2.272
 5068SOL     OW16102   2.976   5.625   0.249
 5068SOL    HW116103   2.878   5.610   0.264
 5068SOL    HW216104   3.018   5.656   0.334
 5069SOL     OW16105   2.317   3.030   5.633
 5069SOL    HW116106   2.334   3.102   5.700
 5069SOL    HW216107   2.362   2.946   5.662
 5070SOL     OW16108   5.763   4.276   4.441
 5070SOL    HW116109   5.770   4.244   4.347
 5070SOL    HW216110   5.786   4.373   4.445
 5071SOL     OW16111   3.924   2.068   3.580
 5071SOL    HW116112   4.004   2.020   3.617
 5071SOL    HW216113   3.896   2.024   3.495
 5072SOL     OW16114   2.259   1.605   1.613
 5072SOL    HW116115   2.273   1.508   1.633
 5072SOL    HW216116   2.337   1.640   1.562
 5073SOL     OW16117   1.588   5.669   1.461
 5073SOL    HW116118   1.528   5.718   1.398
 5073SOL    HW216119   1.540   5.654   1.548
 5074SOL     OW16120   3.704   1.836   1.737
 5074SOL    HW116121   3.706   1.738   1.755
 5074SOL    HW216122   3.741   1.854   1.645
 5075SOL     OW16123   0.892   2.324   0.239
 5075SOL    HW116124   0.852   2.234   0.220
 5075SOL    HW216125   0.980   2.332   0.192
 5076SOL     OW16126   5.313   0.037   6.953
 5076SOL    HW116127   5.353   0.015   6.864
 5076SOL    HW216128   5.310   0.136   6.965
 5077SOL     OW16129   1.125   3.684   5.931
 5077SOL    HW116130   1.084   3.606   5.978
 5077SOL    HW216131   1.058   3.757   5.922
 5078SOL     OW16132   0.306   0.916   4.169
 5078SOL    HW116133   0.348   0.983   4.107
 5078SOL    HW216134   0.250   0.963   4.237
 5079SOL     OW16135   2.379   2.715   5.885
 5079SOL    HW116136   2.361   2.799   5.936
 5079SOL    HW216137   2.466   2.676   5.914
 5080SOL     OW16138   5.831   5.706   5.368
 5080SOL    HW116139   5.778   5.655   5.300
 5080SOL    HW216140   5.842   5.801   5.338
 5081SOL     OW16141   3.052   4.703   5.536
 5081SOL    HW116142   3.092   4.690   5.445
 5081SOL    HW216143   2.956   4.676   5.535
 5082SOL     OW16144   4.462   6.967   0.168
 5082SOL    HW116145   4.511   6.920   0.095
 5082SOL    HW216146   4.446   6.904   0.243
 5083SOL     OW16147   3.680   0.168   0.813
 5083SOL    HW116148   3.759   0.124   0.857
 5083SOL    HW216149   3.599   0.157   0.870
 5084SOL     OW16150   0.390   5.066   4.383
 5084SOL    HW116151   0.456   5.065   4.457
 5084SOL    HW216152   0.394   4.980   4.333
 5085SOL     OW16153   1.503   3.440   5.480
 5085SOL    HW116154   1.453   3.353   5.485
 5085SOL    HW216155   1.491   3.479   5.389
 5086SOL     OW16156   0.123   4.311   2.438
 5086SOL    HW116157   0.028   4.291   2.419
 5086SOL    HW216158   0.180   4.288   2.359
 5087SOL     OW16159   6.824   5.491   2.676
 5087SOL    HW116160   6.823   5.591   2.683
 5087SOL    HW216161   6.899   5.454   2.731
 5088SOL     OW16162   4.669   6.782   3.605
 5088SOL    HW116163   4.638   6.863   3.656
 5088SOL    HW216164   4.749   6.743   3.650
 5089SOL     OW16165   5.473   4.459   4.448
 5089SOL    HW116166   5.383   4.481   4.412
 5089SOL    HW216167   5.541   4.466   4.374
 5090SOL     OW16168   2.443   1.002   2.818
 5090SOL    HW116169   2.489   0.915   2.837
 5090SOL    HW216170   2.346   0.995   2.843
 5091SOL     OW16171   6.020   0.513   0.967
 5091SOL    HW116172   6.006   0.501   0.869
 5091SOL    HW216173   5.985   0.602   0.995
 5092SOL     OW16174   3.398   2.894   3.563
 5092SOL    HW116175   3.350   2.880   3.476
 5092SOL    HW216176   3.383   2.815   3.622
 5093SOL     OW16177   2.926   1.866   1.542
 5093SOL    HW116178   3.008   1.848   1.488
 5093SOL    HW216179   2.910   1.790   1.605
 5094SOL     OW16180   1.782   5.650   6.569
 5094SOL    HW116181   1.823   5.739   6.549
 5094SOL    HW216182   1.684   5.653   6.550
 5095SOL     OW16183   0.643   1.682   2.648
 5095SOL    HW116184   0.675   1.776   2.655
 5095SOL    HW216185   0.660   1.635   2.735
 5096SOL     OW16186   5.168   4.869   6.436
 5096SOL    HW116187   5.185   4.775   6.466
 5096SOL    HW216188   5.143   4.925   6.514
 5097SOL     OW16189   6.957   0.356   0.263
 5097SOL    HW116190   6.862   0.378   0.287
 5097SOL    HW216191   6.998   0.432   0.213
 5098SOL     OW16192   3.452   2.221   0.982
 5098SOL    HW116193   3.543   2.182   0.997
 5098SOL    HW216194   3.433   2.224   0.884
 5099SOL     OW16195   0.094   6.201   1.994
 5099SOL    HW116196   0.172   6.159   2.041
 5099SOL    HW216197   0.044   6.258   2.059
 5100SOL     OW16198   3.000   5.356   3.551
 5100SOL    HW116199   3.020   5.261   3.530
 5100SOL    HW216200   3.070   5.415   3.511
 5101SOL     OW16201   4.987   6.881   5.022
 5101SOL    HW116202   4.889   6.904   5.027
 5101SOL    HW216203   5.036   6.933   5.092
 5102SOL     OW16204   5.077   6.271   4.464
 5102SOL    HW116205   5.021   6.239   4.541
 5102SOL    HW216206   5.085   6.371   4.469
 5103SOL     OW16207   0.857   1.337   4.564
 5103SOL    HW116208   0.794   1.375   4.496
 5103SOL    HW216209   0.898   1.412   4.616
 5104SOL     OW16210   2.856   6.093   1.596
 5104SOL    HW116211   2.879   6.189   1.613
 5104SOL    HW216212   2.757   6.082   1.592
 5105SOL     OW16213   3.002   2.517   6.046
 5105SOL    HW116214   3.060   2.514   5.965
 5105SOL    HW216215   3.049   2.471   6.122
 5106SOL     OW16216   4.071   1.485   1.209
 5106SOL    HW116217   4.153   1.519   1.256
 5106SOL    HW216218   3.995   1.482   1.273
 5107SOL     OW16219   5.126   2.235   0.924
 5107SOL    HW116220   5.112   2.333   0.906
 5107SOL    HW216221   5.047   2.183   0.893
 5108SOL     OW16222   3.997   3.918   5.075
 5108SOL    HW116223   4.006   4.006   5.121
 5108SOL    HW216224   4.078   3.862   5.094
 5109SOL     OW16225   1.266   2.721   0.399
 5109SOL    HW116226   1.282   2.639   0.345
 5109SOL    HW216227   1.186   2.708   0.458
 5110SOL     OW16228   0.302   0.615   6.328
 5110SOL    HW116229   0.292   0.568   6.241
 5110SOL    HW216230   0.333   0.551   6.398
 5111SOL     OW16231   0.987   6.916   4.169
 5111SOL    HW116232   0.949   6.884   4.256
 5111SOL    HW216233   1.086   6.929   4.179
 5112SOL     OW16234   0.948   0.615   2.774
 5112SOL    HW116235   0.930   0.624   2.872
 5112SOL    HW216236   0.957   0.518   2.750
 5113SOL     OW16237   1.436   5.885   1.333
 5113SOL    HW116238   1.378   5.929   1.402
 5113SOL    HW216239   1.452   5.948   1.258
 5114SOL     OW16240   3.811   6.531   6.713
 5114SOL    HW116241   3.769   6.453   6.758
 5114SOL    HW216242   3.878   6.499   6.645
 5115SOL     OW16243   1.814   4.370   2.311
 5115SOL    HW116244   1.892   4.317   2.278
 5115SOL    HW216245   1.842   4.424   2.391
 5116SOL     OW16246   1.974   6.605   0.294
 5116SOL    HW116247   1.894   6.565   0.338
 5116SOL    HW216248   2.006   6.684   0.348
 5117SOL     OW16249   0.893   3.829   3.741
 5117SOL    HW116250   0.840   3.871   3.814
 5117SOL    HW216251   0.832   3.802   3.666
 5118SOL     OW16252   5.907   0.891   0.190
 5118SOL    HW116253   5.969   0.833   0.139
 5118SOL    HW216254   5.958   0.965   0.235
 5119SOL     OW16255   4.552   1.519   1.599
 5119SOL    HW116256   4.617   1.444   1.584
 5119SOL    HW216257   4.580   1.598   1.545
 5120SOL     OW16258   4.938   6.418   5.347
 5120SOL    HW116259   5.007   6.379   5.408
 5120SOL    HW216260   4.977   6.494   5.296
 5121SOL     OW16261   3.025   3.158   6.867
 5121SOL    HW116262   3.026   3.258   6.856
 5121SOL    HW216263   3.065   3.115   6.786
 5122SOL     OW16264   3.141   5.787   3.045
 5122SOL    HW116265   3.198   5.707   3.025
 5122SOL    HW216266   3.192   5.870   3.023
 5123SOL     OW16267   5.880   1.916   4.203
 5123SOL    HW116268   5.825   1.949   4.280
 5123SOL    HW216269   5.972   1.954   4.210
 5124SOL     OW16270   2.404   6.272   4.173
 5124SOL    HW116271   2.346   6.212   4.228
 5124SOL    HW216272   2.373   6.272   4.078
 5125SOL     OW16273   0.259   1.983   3.390
 5125SOL    HW116274   0.321   1.984   3.469
 5125SOL    HW216275   0.301   2.032   3.314
 5126SOL     OW16276   0.625   6.078   6.767
 5126SOL    HW116277   0.535   6.035   6.770
 5126SOL    HW216278   0.691   6.022   6.817
 5127SOL     OW16279   0.447   5.393   6.910
 5127SOL    HW116280   0.412   5.478   6.871
 5127SOL    HW216281   0.376   5.322   6.906
 5128SOL     OW16282   6.841   6.748   0.523
 5128SOL    HW116283   6.938   6.768   0.540
 5128SOL    HW216284   6.829   6.649   0.512
 5129SOL     OW16285   4.986   6.643   2.717
 5129SOL    HW116286   5.044   6.568   2.749
 5129SOL    HW216287   5.006   6.726   2.769
 5130SOL     OW16288   0.014   5.435   2.827
 5130SOL    HW116289   0.106   5.401   2.807
 5130SOL    HW216290   0.001   5.441   2.926
 5131SOL     OW16291   2.135   3.732   4.394
 5131SOL    HW116292   2.182   3.670   4.457
 5131SOL    HW216293   2.171   3.824   4.404
 5132SOL     OW16294   4.372   3.015   5.950
 5132SOL    HW116295   4.469   3.008   5.925
 5132SOL    HW216296   4.364   3.038   6.046
 5133SOL     OW16297   2.774   5.201   0.234
 5133SOL    HW116298   2.679   5.182   0.211
 5133SOL    HW216299   2.785   5.198   0.333
 5134SOL     OW16300   6.657   2.667   1.913
 5134SOL    HW116301   6.633   2.612   1.993
 5134SOL    HW216302   6.595   2.647   1.838
 5135SOL     OW16303   6.426   2.199   4.862
 5135SOL    HW116304   6.428   2.191   4.962
 5135SOL    HW216305   6.406   2.110   4.822
 5136SOL     OW16306   4.782   0.085   5.794
 5136SOL    HW116307   4.782   0.184   5.808
 5136SOL    HW216308   4.689   0.050   5.806
 5137SOL     OW16309   5.612   3.483   6.541
 5137SOL    HW116310   5.516   3.488   6.515
 5137SOL    HW216311   5.630   3.396   6.587
 5138SOL     OW16312   3.162   2.580   5.791
 5138SOL    HW116313   3.164   2.679   5.809
 5138SOL    HW216314   3.256   2.546   5.783
 5139SOL     OW16315   1.441   6.892   3.568
 5139SOL    HW116316   1.403   6.885   3.661
 5139SOL    HW216317   1.496   6.810   3.548
 5140SOL     OW16318   3.557   1.322   0.543
 5140SOL    HW116319   3.648   1.347   0.575
 5140SOL    HW216320   3.522   1.394   0.484
 5141SOL     OW16321   6.984   3.894   0.702
 5141SOL    HW116322   0.012   3.881   0.787
 5141SOL    HW216323   0.025   3.913   0.627
 5142SOL     OW16324   6.279   1.124   4.015
 5142SOL    HW116325   6.278   1.063   3.936
 5142SOL    HW216326   6.192   1.117   4.064
 5143SOL     OW16327   0.653   4.524   4.084
 5143SOL    HW116328   0.713   4.592   4.042
 5143SOL    HW216329   0.632   4.452   4.018
 5144SOL     OW16330   0.777   5.620   6.532
 5144SOL    HW116331   0.726   5.640   6.448
 5144SOL    HW216332   0.772   5.522   6.551
 5145SOL     OW16333   1.558   4.663   6.214
 5145SOL    HW116334   1.643   4.633   6.257
 5145SOL    HW216335   1.480   4.621   6.260
 5146SOL     OW16336   4.172   3.413   5.585
 5146SOL    HW116337   4.096   3.380   5.530
 5146SOL    HW216338   4.140   3.433   5.678
 5147SOL     OW16339   6.758   4.691   2.536
 5147SOL    HW116340   6.760   4.782   2.495
 5147SOL    HW216341   6.664   4.666   2.558
 5148SOL     OW16342   0.931   6.596   1.072
 5148SOL    HW116343   1.028   6.577   1.061
 5148SOL    HW216344   0.878   6.520   1.034
 5149SOL     OW16345   5.977   5.894   4.272
 5149SOL    HW116346   6.040   5.920   4.198
 5149SOL    HW216347   5.883   5.893   4.236
 5150SOL     OW16348   2.178   5.225   2.817
 5150SOL    HW116349   2.256   5.177   2.778
 5150SOL    HW216350   2.148   5.178   2.901
 5151SOL     OW16351   5.345   1.804   0.448
 5151SOL    HW116352   5.401   1.722   0.452
 5151SOL    HW216353   5.384   1.874   0.509
 5152SOL     OW16354   2.080   4.488   6.729
 5152SOL    HW116355   2.158   4.549   6.745
 5152SOL    HW216356   2.041   4.461   6.816
 5153SOL     OW16357   2.432   0.710   6.766
 5153SOL    HW116358   2.495   0.787   6.759
 5153SOL    HW216359   2.421   0.668   6.676
 5154SOL     OW16360   1.889   2.846   6.538
 5154SOL    HW116361   1.813   2.911   6.539
 5154SOL    HW216362   1.928   2.839   6.629
 5155SOL     OW16363   3.475   6.573   2.300
 5155SOL    HW116364   3.517   6.526   2.222
 5155SOL    HW216365   3.546   6.623   2.351
 5156SOL     OW16366   6.928   3.351   5.799
 5156SOL    HW116367   6.898   3.354   5.894
 5156SOL    HW216368   6.995   3.424   5.784
 5157SOL     OW16369   4.335   2.425   3.607
 5157SOL    HW116370   4.305   2.356   3.541
 5157SOL    HW216371   4.272   2.503   3.603
 5158SOL     OW16372   2.958   1.122   1.443
 5158SOL    HW116373   3.010   1.068   1.377
 5158SOL    HW216374   2.973   1.085   1.535
 5159SOL     OW16375   0.322   3.268   4.503
 5159SOL    HW116376   0.383   3.331   4.457
 5159SOL    HW216377   0.329   3.177   4.462
 5160SOL     OW16378   0.385   4.567   3.109
 5160SOL    HW116379   0.360   4.657   3.144
 5160SOL    HW216380   0.319   4.538   3.040
 5161SOL     OW16381   1.936   3.557   4.287
 5161SOL    HW116382   1.965   3.638   4.338
 5161SOL    HW216383   1.948   3.573   4.189
 5162SOL     OW16384   1.115   4.746   4.064
 5162SOL    HW116385   1.175   4.814   4.024
 5162SOL    HW216386   1.058   4.789   4.134
 5163SOL     OW16387   3.727   5.084   1.035
 5163SOL    HW116388   3.634   5.077   0.999
 5163SOL    HW216389   3.792   5.087   0.960
 5164SOL     OW16390   5.337   2.501   0.132
 5164SOL    HW116391   5.274   2.576   0.152
 5164SOL    HW216392   5.294   2.437   0.069
 5165SOL     OW16393   6.206   3.576   5.160
 5165SOL    HW116394   6.182   3.601   5.066
 5165SOL    HW216395   6.170   3.645   5.223
 5166SOL     OW16396   0.905   5.990   2.202
 5166SOL    HW116397   0.940   5.901   2.234
 5166SOL    HW216398   0.970   6.062   2.226
 5167SOL     OW16399   5.831   6.903   5.666
 5167SOL    HW116400   5.818   6.852   5.751
 5167SOL    HW216401   5.915   6.955   5.672
 5168SOL     OW16402   5.093   2.962   3.373
 5168SOL    HW116403   5.014   2.996   3.425
 5168SOL    HW216404   5.080   2.982   3.276
 5169SOL     OW16405   3.605   2.097   5.749
 5169SOL    HW116406   3.614   2.097   5.849
 5169SOL    HW216407   3.687   2.055   5.709
 5170SOL     OW16408   6.913   3.444   6.106
 5170SOL    HW116409   6.830   3.447   6.051
 5170SOL    HW216410   6.953   3.352   6.102
 5171SOL     OW16411   2.266   5.134   3.985
 5171SOL    HW116412   2.187   5.136   3.923
 5171SOL    HW216413   2.247   5.191   4.065
 5172SOL     OW16414   6.650   3.007   2.236
 5172SOL    HW116415   6.739   3.034   2.273
 5172SOL    HW216416   6.663   2.961   2.148
 5173SOL     OW16417   6.028   4.737   5.945
 5173SOL    HW116418   6.030   4.651   5.893
 5173SOL    HW216419   5.945   4.741   6.000
 5174SOL     OW16420   2.144   4.776   3.726
 5174SOL    HW116421   2.185   4.688   3.701
 5174SOL    HW216422   2.140   4.783   3.826
 5175SOL     OW16423   2.516   4.581   6.959
 5175SOL    HW116424   2.443   4.543   7.016
 5175SOL    HW216425   2.601   4.531   6.977
 5176SOL     OW16426   4.295   3.486   0.446
 5176SOL    HW116427   4.215   3.426   0.447
 5176SOL    HW216428   4.378   3.432   0.460
 5177SOL     OW16429   4.537   0.213   6.093
 5177SOL    HW116430   4.594   0.293   6.110
 5177SOL    HW216431   4.520   0.204   5.995
 5178SOL     OW16432   1.779   3.182   1.292
 5178SOL    HW116433   1.840   3.241   1.238
 5178SOL    HW216434   1.785   3.208   1.388
 5179SOL     OW16435   4.139   5.934   5.236
 5179SOL    HW116436   4.119   5.939   5.334
 5179SOL    HW216437   4.123   6.023   5.194
 5180SOL     OW16438   3.044   2.878   6.367
 5180SOL    HW116439   3.046   2.848   6.462
 5180SOL    HW216440   3.125   2.844   6.319
 5181SOL     OW16441   5.296   1.845   2.125
 5181SOL    HW116442   5.317   1.942   2.114
 5181SOL    HW216443   5.292   1.822   2.222
 5182SOL     OW16444   4.624   4.986   1.353
 5182SOL    HW116445   4.679   5.065   1.324
 5182SOL    HW216446   4.571   4.952   1.275
 5183SOL     OW16447   4.006   0.597   2.599
 5183SOL    HW116448   4.068   0.669   2.629
 5183SOL    HW216449   3.935   0.636   2.541
 5184SOL     OW16450   0.626   2.197   4.134
 5184SOL    HW116451   0.647   2.255   4.213
 5184SOL    HW216452   0.672   2.233   4.053
 5185SOL     OW16453   4.869   0.055   3.260
 5185SOL    HW116454   4.901   6.984   3.271
 5185SOL    HW216455   4.876   0.082   3.164
 5186SOL     OW16456   5.342   3.486   0.906
 5186SOL    HW116457   5.300   3.568   0.946
 5186SOL    HW216458   5.408   3.513   0.836
 5187SOL     OW16459   6.445   0.737   3.641
 5187SOL    HW116460   6.479   0.706   3.730
 5187SOL    HW216461   6.520   0.777   3.588
 5188SOL     OW16462   0.914   5.081   0.511
 5188SOL    HW116463   0.911   5.120   0.419
 5188SOL    HW216464   0.889   4.984   0.506
 5189SOL     OW16465   5.058   4.712   1.190
 5189SOL    HW116466   5.070   4.742   1.096
 5189SOL    HW216467   5.056   4.612   1.193
 5190SOL     OW16468   0.693   2.358   4.359
 5190SOL    HW116469   0.759   2.427   4.328
 5190SOL    HW216470   0.627   2.401   4.421
 5191SOL     OW16471   4.336   0.442   2.092
 5191SOL    HW116472   4.422   0.493   2.096
 5191SOL    HW216473   4.259   0.505   2.098
 5192SOL     OW16474   3.724   5.627   2.509
 5192SOL    HW116475   3.659   5.584   2.446
 5192SOL    HW216476   3.805   5.656   2.458
 5193SOL     OW16477   4.924   5.116   3.962
 5193SOL    HW116478   4.825   5.124   3.969
 5193SOL    HW216479   4.963   5.105   4.054
 5194SOL     OW16480   4.460   0.407   6.813
 5194SOL    HW116481   4.403   0.485   6.839
 5194SOL    HW216482   4.447   0.387   6.716
 5195SOL     OW16483   6.833   5.984   4.045
 5195SOL    HW116484   6.898   6.001   4.119
 5195SOL    HW216485   6.789   5.895   4.058
 5196SOL     OW16486   1.154   3.855   0.900
 5196SOL    HW116487   1.102   3.796   0.838
 5196SOL    HW216488   1.124   3.839   0.994
 5197SOL     OW16489   1.898   5.856   4.399
 5197SOL    HW116490   1.968   5.814   4.457
 5197SOL    HW216491   1.822   5.886   4.456
 5198SOL     OW16492   3.846   0.234   3.929
 5198SOL    HW116493   3.942   0.253   3.949
 5198SOL    HW216494   3.838   0.145   3.883
 5199SOL     OW16495   1.920   5.870   0.286
 5199SOL    HW116496   1.985   5.880   0.211
 5199SOL    HW216497   1.870   5.784   0.277
 5200SOL     OW16498   1.092   1.807   5.101
 5200SOL    HW116499   1.084   1.712   5.132
 5200SOL    HW216500   1.166   1.852   5.150
 5201SOL     OW16501   5.208   5.690   4.098
 5201SOL    HW116502   5.172   5.671   4.189
 5201SOL    HW216503   5.167   5.628   4.031
 5202SOL     OW16504   6.070   3.686   6.210
 5202SOL    HW116505   6.047   3.653   6.301
 5202SOL    HW216506   6.160   3.732   6.213
 5203SOL     OW16507   1.896   0.423   0.060
 5203SOL    HW116508   1.950   0.490   0.009
 5203SOL    HW216509   1.933   0.413   0.152
 5204SOL     OW16510   3.389   6.330   0.171
 5204SOL    HW116511   3.362   6.412   0.222
 5204SOL    HW216512   3.320   6.309   0.102
 5205SOL     OW16513   6.986   5.630   0.658
 5205SOL    HW116514   6.976   5.727   0.635
 5205SOL    HW216515   6.976   5.575   0.575
 5206SOL     OW16516   0.848   5.100   5.683
 5206SOL    HW116517   0.793   5.071   5.605
 5206SOL    HW216518   0.925   5.155   5.651
 5207SOL     OW16519   0.718   0.854   3.693
 5207SOL    HW116520   0.643   0.805   3.648
 5207SOL    HW216521   0.784   0.788   3.728
 5208SOL     OW16522   4.471   2.527   0.516
 5208SOL    HW116523   4.552   2.565   0.562
 5208SOL    HW216524   4.447   2.585   0.439
 5209SOL     OW16525   5.663   0.646   1.672
 5209SOL    HW116526   5.595   0.626   1.602
 5209SOL    HW216527   5.714   0.563   1.694
 5210SOL     OW16528   5.207   3.957   1.051
 5210SOL    HW116529   5.206   3.924   1.145
 5210SOL    HW216530   5.115   3.986   1.025
 5211SOL     OW16531   5.122   1.693   4.723
 5211SOL    HW116532   5.087   1.644   4.803
 5211SOL    HW216533   5.222   1.697   4.728
 5212SOL     OW16534   1.104   2.981   1.036
 5212SOL    HW116535   1.138   2.943   1.122
 5212SOL    HW216536   1.121   2.916   0.962
 5213SOL     OW16537   4.147   3.531   1.205
 5213SOL    HW116538   4.187   3.601   1.264
 5213SOL    HW216539   4.094   3.467   1.261
 5214SOL     OW16540   5.330   3.567   5.555
 5214SOL    HW116541   5.269   3.490   5.576
 5214SOL    HW216542   5.286   3.652   5.584
 5215SOL     OW16543   0.208   4.377   4.385
 5215SOL    HW116544   0.282   4.420   4.332
 5215SOL    HW216545   0.134   4.443   4.397
 5216SOL     OW16546   4.762   5.653   1.057
 5216SOL    HW116547   4.832   5.677   0.989
 5216SOL    HW216548   4.803   5.598   1.130
 5217SOL     OW16549   4.003   5.756   4.647
 5217SOL    HW116550   4.072   5.776   4.717
 5217SOL    HW216551   3.922   5.717   4.691
 5218SOL     OW16552   0.357   0.989   1.026
 5218SOL    HW116553   0.310   1.011   1.111
 5218SOL    HW216554   0.396   0.897   1.033
 5219SOL     OW16555   3.591   1.943   4.053
 5219SOL    HW116556   3.646   1.880   4.108
 5219SOL    HW216557   3.635   2.033   4.051
 5220SOL     OW16558   1.936   4.852   2.753
 5220SOL    HW116559   1.862   4.815   2.697
 5220SOL    HW216560   1.927   4.817   2.847
 5221SOL     OW16561   0.094   0.226   2.222
 5221SOL    HW116562   0.080   0.323   2.246
 5221SOL    HW216563   0.030   0.170   2.275
 5222SOL     OW16564   3.581   5.494   2.314
 5222SOL    HW116565   3.624   5.518   2.227
 5222SOL    HW216566   3.482   5.512   2.307
 5223SOL     OW16567   0.513   2.574   0.799
 5223SOL    HW116568   0.478   2.648   0.741
 5223SOL    HW216569   0.466   2.489   0.777
 5224SOL     OW16570   0.086   1.834   4.306
 5224SOL    HW116571   0.006   1.798   4.353
 5224SOL    HW216572   0.058   1.888   4.227
 5225SOL     OW16573   6.989   0.589   3.996
 5225SOL    HW116574   7.016   0.550   3.908
 5225SOL    HW216575   0.047   0.608   4.051
 5226SOL     OW16576   0.655   6.071   3.480
 5226SOL    HW116577   0.586   6.046   3.548
 5226SOL    HW216578   0.619   6.144   3.422
 5227SOL     OW16579   6.716   3.963   5.804
 5227SOL    HW116580   6.621   3.993   5.794
 5227SOL    HW216581   6.746   3.979   5.898
 5228SOL     OW16582   0.607   2.332   0.406
 5228SOL    HW116583   0.638   2.286   0.490
 5228SOL    HW216584   0.555   2.414   0.431
 5229SOL     OW16585   3.162   6.300   0.024
 5229SOL    HW116586   3.147   6.221   6.989
 5229SOL    HW216587   3.095   6.301   0.098
 5230SOL     OW16588   6.338   0.116   2.861
 5230SOL    HW116589   6.239   0.127   2.870
 5230SOL    HW216590   6.383   0.155   2.941
 5231SOL     OW16591   4.521   2.406   3.808
 5231SOL    HW116592   4.453   2.416   3.735
 5231SOL    HW216593   4.610   2.386   3.768
 5232SOL     OW16594   1.148   4.107   5.857
 5232SOL    HW116595   1.242   4.074   5.849
 5232SOL    HW216596   1.095   4.041   5.911
 5233SOL     OW16597   3.538   0.594   1.710
 5233SOL    HW116598   3.491   0.675   1.674
 5233SOL    HW216599   3.493   0.512   1.675
 5234SOL     OW16600   2.878   3.074   6.515
 5234SOL    HW116601   2.928   2.993   6.484
 5234SOL    HW216602   2.915   3.156   6.470
 5235SOL     OW16603   1.730   2.503   0.807
 5235SOL    HW116604   1.814   2.519   0.860
 5235SOL    HW216605   1.710   2.584   0.753
 5236SOL     OW16606   3.540   5.254   1.903
 5236SOL    HW116607   3.504   5.235   1.994
 5236SOL    HW216608   3.640   5.257   1.906
 5237SOL     OW16609   2.250   1.042   4.398
 5237SOL    HW116610   2.185   1.071   4.469
 5237SOL    HW216611   2.280   1.122   4.347
 5238SOL     OW16612   1.008   5.878   1.477
 5238SOL    HW116613   1.086   5.919   1.431
 5238SOL    HW216614   1.036   5.846   1.568
 5239SOL     OW16615   3.324   3.096   0.156
 5239SOL    HW116616   3.285   3.071   0.245
 5239SOL    HW216617   3.360   3.189   0.161
 5240SOL     OW16618   2.922   2.220   5.254
 5240SOL    HW116619   2.868   2.303   5.269
 5240SOL    HW216620   2.979   2.231   5.173
 5241SOL     OW16621   0.684   5.486   2.693
 5241SOL    HW116622   0.653   5.568   2.740
 5241SOL    HW216623   0.782   5.491   2.676
 5242SOL     OW16624   5.125   0.201   2.003
 5242SOL    HW116625   5.202   0.158   2.051
 5242SOL    HW216626   5.040   0.176   2.048
 5243SOL     OW16627   2.561   6.084   1.544
 5243SOL    HW116628   2.527   6.080   1.450
 5243SOL    HW216629   2.545   6.175   1.581
 5244SOL     OW16630   4.815   4.071   0.183
 5244SOL    HW116631   4.834   4.169   0.195
 5244SOL    HW216632   4.848   4.021   0.263
 5245SOL     OW16633   3.824   4.563   0.832
 5245SOL    HW116634   3.898   4.522   0.886
 5245SOL    HW216635   3.784   4.492   0.774
 5246SOL     OW16636   6.324   2.797   2.331
 5246SOL    HW116637   6.326   2.756   2.240
 5246SOL    HW216638   6.354   2.892   2.326
 5247SOL     OW16639   3.406   0.861   6.183
 5247SOL    HW116640   3.405   0.852   6.282
 5247SOL    HW216641   3.401   0.958   6.158
 5248SOL     OW16642   0.189   1.818   3.183
 5248SOL    HW116643   0.204   1.874   3.264
 5248SOL    HW216644   0.105   1.846   3.137
 5249SOL     OW16645   1.563   6.145   6.703
 5249SOL    HW116646   1.553   6.137   6.802
 5249SOL    HW216647   1.480   6.112   6.658
 5250SOL     OW16648   0.828   5.464   1.040
 5250SOL    HW116649   0.792   5.542   0.988
 5250SOL    HW216650   0.925   5.452   1.020
 5251SOL     OW16651   1.426   4.372   0.819
 5251SOL    HW116652   1.509   4.361   0.873
 5251SOL    HW216653   1.446   4.353   0.723
 5252SOL     OW16654   2.228   6.591   1.268
 5252SOL    HW116655   2.186   6.660   1.210
 5252SOL    HW216656   2.315   6.562   1.229
 5253SOL     OW16657   6.913   3.832   4.667
 5253SOL    HW116658   6.926   3.738   4.635
 5253SOL    HW216659   6.951   3.841   4.759
 5254SOL     OW16660   5.858   0.273   3.564
 5254SOL    HW116661   5.941   0.241   3.609
 5254SOL    HW216662   5.803   0.327   3.629
 5255SOL     OW16663   5.468   2.615   4.801
 5255SOL    HW116664   5.452   2.642   4.896
 5255SOL    HW216665   5.451   2.517   4.791
 5256SOL     OW16666   4.911   1.876   4.289
 5256SOL    HW116667   4.846   1.951   4.301
 5256SOL    HW216668   4.988   1.888   4.352
 5257SOL     OW16669   4.402   0.142   1.387
 5257SOL    HW116670   4.430   0.058   1.432
 5257SOL    HW216671   4.477   0.208   1.389
 5258SOL     OW16672   5.426   2.487   2.545
 5258SOL    HW116673   5.400   2.568   2.597
 5258SOL    HW216674   5.457   2.515   2.454
 5259SOL     OW16675   4.979   5.946   2.843
 5259SOL    HW116676   4.964   5.995   2.929
 5259SOL    HW216677   4.951   6.004   2.767
 5260SOL     OW16678   4.426   4.821   0.635
 5260SOL    HW116679   4.439   4.743   0.573
 5260SOL    HW216680   4.467   4.903   0.594
 5261SOL     OW16681   0.002   4.287   6.115
 5261SOL    HW116682   6.960   4.336   6.172
 5261SOL    HW216683   0.025   4.342   6.035
 5262SOL     OW16684   3.428   1.243   3.412
 5262SOL    HW116685   3.333   1.234   3.384
 5262SOL    HW216686   3.441   1.199   3.501
 5263SOL     OW16687   1.696   1.302   2.932
 5263SOL    HW116688   1.616   1.361   2.921
 5263SOL    HW216689   1.693   1.259   3.023
 5264SOL     OW16690   6.342   3.168   1.636
 5264SOL    HW116691   6.360   3.167   1.538
 5264SOL    HW216692   6.415   3.119   1.684
 5265SOL     OW16693   6.482   2.878   4.566
 5265SOL    HW116694   6.573   2.860   4.605
 5265SOL    HW216695   6.461   2.975   4.575
 5266SOL     OW16696   2.870   5.879   0.154
 5266SOL    HW116697   2.802   5.907   0.222
 5266SOL    HW216698   2.904   5.787   0.177
 5267SOL     OW16699   5.322   2.430   4.637
 5267SOL    HW116700   5.238   2.475   4.666
 5267SOL    HW216701   5.351   2.469   4.549
 5268SOL     OW16702   4.937   0.797   0.327
 5268SOL    HW116703   4.939   0.826   0.422
 5268SOL    HW216704   4.849   0.755   0.307
 5269SOL     OW16705   0.667   6.781   2.410
 5269SOL    HW116706   0.750   6.811   2.458
 5269SOL    HW216707   0.692   6.728   2.329
 5270SOL     OW16708   5.989   1.425   1.868
 5270SOL    HW116709   5.966   1.386   1.957
 5270SOL    HW216710   5.911   1.476   1.833
 5271SOL     OW16711   5.565   4.834   5.159
 5271SOL    HW116712   5.586   4.741   5.129
 5271SOL    HW216713   5.509   4.831   5.242
 5272SOL     OW16714   3.323   5.412   1.125
 5272SOL    HW116715   3.395   5.477   1.149
 5272SOL    HW216716   3.364   5.324   1.100
 5273SOL     OW16717   0.416   3.356   2.963
 5273SOL    HW116718   0.375   3.273   3.001
 5273SOL    HW216719   0.446   3.339   2.870
 5274SOL     OW16720   5.330   6.905   3.063
 5274SOL    HW116721   5.311   6.998   3.031
 5274SOL    HW216722   5.395   6.861   3.001
 5275SOL     OW16723   4.011   0.811   1.017
 5275SOL    HW116724   4.105   0.829   0.987
 5275SOL    HW216725   4.011   0.736   1.083
 5276SOL     OW16726   2.181   0.552   1.506
 5276SOL    HW116727   2.140   0.575   1.594
 5276SOL    HW216728   2.126   0.481   1.461
 5277SOL     OW16729   2.688   1.164   2.802
 5277SOL    HW116730   2.707   1.211   2.889
 5277SOL    HW216731   2.604   1.111   2.810
 5278SOL     OW16732   4.839   5.605   4.228
 5278SOL    HW116733   4.930   5.646   4.239
 5278SOL    HW216734   4.831   5.526   4.288
 5279SOL     OW16735   2.857   5.624   0.594
 5279SOL    HW116736   2.879   5.679   0.675
 5279SOL    HW216737   2.779   5.664   0.547
 5280SOL     OW16738   3.318   6.318   5.160
 5280SOL    HW116739   3.257   6.327   5.081
 5280SOL    HW216740   3.352   6.409   5.187
 5281SOL     OW16741   6.488   1.882   2.508
 5281SOL    HW116742   6.492   1.980   2.488
 5281SOL    HW216743   6.404   1.860   2.557
 5282SOL     OW16744   3.706   1.441   3.640
 5282SOL    HW116745   3.669   1.487   3.559
 5282SOL    HW216746   3.796   1.404   3.619
 5283SOL     OW16747   4.992   6.788   2.080
 5283SOL    HW116748   4.971   6.716   2.145
 5283SOL    HW216749   5.073   6.762   2.026
 5284SOL     OW16750   5.430   4.325   3.455
 5284SOL    HW116751   5.447   4.326   3.356
 5284SOL    HW216752   5.367   4.398   3.479
 5285SOL     OW16753   2.982   4.935   4.245
 5285SOL    HW116754   3.013   5.000   4.314
 5285SOL    HW216755   2.948   4.985   4.165
 5286SOL     OW16756   2.557   4.446   0.984
 5286SOL    HW116757   2.575   4.514   0.913
 5286SOL    HW216758   2.485   4.479   1.045
 5287SOL     OW16759   2.696   1.320   0.718
 5287SOL    HW116760   2.787   1.323   0.759
 5287SOL    HW216761   2.682   1.230   0.676
 5288SOL     OW16762   3.516   0.328   1.426
 5288SOL    HW116763   3.483   0.276   1.504
 5288SOL    HW216764   3.441   0.377   1.383
 5289SOL     OW16765   1.578   5.083   0.014
 5289SOL    HW116766   1.592   5.015   6.965
 5289SOL    HW216767   1.492   5.133   7.020
 5290SOL     OW16768   2.558   5.088   6.173
 5290SOL    HW116769   2.534   5.091   6.076
 5290SOL    HW216770   2.482   5.048   6.225
 5291SOL     OW16771   2.680   5.664   5.298
 5291SOL    HW116772   2.658   5.572   5.330
 5291SOL    HW216773   2.778   5.668   5.276
 5292SOL     OW16774   6.068   2.679   0.426
 5292SOL    HW116775   6.097   2.772   0.404
 5292SOL    HW216776   5.969   2.672   0.413
 5293SOL     OW16777   0.899   0.744   4.488
 5293SOL    HW116778   0.889   0.829   4.438
 5293SOL    HW216779   0.843   0.673   4.445
 5294SOL     OW16780   5.145   3.885   6.372
 5294SOL    HW116781   5.160   3.808   6.434
 5294SOL    HW216782   5.121   3.966   6.425
 5295SOL     OW16783   5.361   0.863   2.817
 5295SOL    HW116784   5.374   0.895   2.911
 5295SOL    HW216785   5.307   0.931   2.766
 5296SOL     OW16786   1.389   5.407   6.827
 5296SOL    HW116787   1.403   5.411   6.728
 5296SOL    HW216788   1.472   5.438   6.873
 5297SOL     OW16789   1.604   2.826   0.932
 5297SOL    HW116790   1.548   2.765   0.988
 5297SOL    HW216791   1.636   2.776   0.852
 5298SOL     OW16792   6.384   5.836   2.281
 5298SOL    HW116793   6.388   5.848   2.380
 5298SOL    HW216794   6.425   5.915   2.236
 5299SOL     OW16795   2.450   0.792   1.498
 5299SOL    HW116796   2.489   0.884   1.505
 5299SOL    HW216797   2.354   0.799   1.469
 5300SOL     OW16798   0.624   5.530   3.291
 5300SOL    HW116799   0.604   5.446   3.341
 5300SOL    HW216800   0.718   5.527   3.256
 5301SOL     OW16801   3.814   1.496   0.296
 5301SOL    HW116802   3.757   1.543   0.364
 5301SOL    HW216803   3.901   1.544   0.288
 5302SOL     OW16804   6.353   4.261   2.054
 5302SOL    HW116805   6.308   4.198   2.117
 5302SOL    HW216806   6.389   4.340   2.105
 5303SOL     OW16807   6.134   5.876   3.973
 5303SOL    HW116808   6.231   5.850   3.971
 5303SOL    HW216809   6.100   5.884   3.880
 5304SOL     OW16810   5.163   2.330   6.250
 5304SOL    HW116811   5.119   2.398   6.308
 5304SOL    HW216812   5.186   2.249   6.304
 5305SOL     OW16813   1.370   0.887   4.522
 5305SOL    HW116814   1.331   0.805   4.564
 5305SOL    HW216815   1.396   0.952   4.593
 5306SOL     OW16816   2.698   6.324   5.449
 5306SOL    HW116817   2.665   6.407   5.404
 5306SOL    HW216818   2.778   6.289   5.400
 5307SOL     OW16819   4.359   6.241   6.412
 5307SOL    HW116820   4.355   6.221   6.315
 5307SOL    HW216821   4.300   6.178   6.462
 5308SOL     OW16822   0.258   0.573   3.860
 5308SOL    HW116823   0.167   0.532   3.853
 5308SOL    HW216824   0.325   0.502   3.883
 5309SOL     OW16825   4.031   3.378   3.064
 5309SOL    HW116826   4.097   3.372   3.139
 5309SOL    HW216827   3.944   3.338   3.094
 5310SOL     OW16828   4.809   2.692   1.676
 5310SOL    HW116829   4.840   2.690   1.581
 5310SOL    HW216830   4.715   2.725   1.680
 5311SOL     OW16831   0.968   5.799   6.717
 5311SOL    HW116832   1.064   5.774   6.724
 5311SOL    HW216833   0.954   5.859   6.638
 5312SOL     OW16834   0.772   4.865   2.250
 5312SOL    HW116835   0.725   4.847   2.337
 5312SOL    HW216836   0.860   4.908   2.269
 5313SOL     OW16837   0.739   5.364   6.619
 5313SOL    HW116838   0.763   5.270   6.595
 5313SOL    HW216839   0.765   5.383   6.713
 5314SOL     OW16840   4.289   5.055   0.308
 5314SOL    HW116841   4.361   5.035   0.374
 5314SOL    HW216842   4.328   5.098   0.227
 5315SOL     OW16843   4.783   4.240   1.915
 5315SOL    HW116844   4.687   4.257   1.938
 5315SOL    HW216845   4.803   4.281   1.826
 5316SOL     OW16846   0.266   5.574   4.641
 5316SOL    HW116847   0.200   5.575   4.716
 5316SOL    HW216848   0.276   5.480   4.607
 5317SOL     OW16849   5.707   1.108   3.511
 5317SOL    HW116850   5.670   1.090   3.602
 5317SOL    HW216851   5.798   1.148   3.520
 5318SOL     OW16852   7.004   2.274   4.656
 5318SOL    HW116853   0.010   2.189   4.614
 5318SOL    HW216854   7.004   2.265   4.755
 5319SOL     OW16855   5.674   0.031   6.422
 5319SOL    HW116856   5.654   0.014   6.325
 5319SOL    HW216857   5.677   0.130   6.438
 5320SOL     OW16858   5.979   4.516   6.995
 5320SOL    HW116859   6.047   4.476   6.934
 5320SOL    HW216860   6.009   4.505   0.067
 5321SOL     OW16861   1.695   5.023   4.213
 5321SOL    HW116862   1.649   4.998   4.298
 5321SOL    HW216863   1.705   4.942   4.155
 5322SOL     OW16864   3.760   6.298   6.929
 5322SOL    HW116865   3.842   6.268   6.978
 5322SOL    HW216866   3.737   6.392   6.956
 5323SOL     OW16867   4.044   2.351   1.159
 5323SOL    HW116868   4.019   2.270   1.213
 5323SOL    HW216869   4.057   2.324   1.064
 5324SOL     OW16870   3.866   2.003   1.931
 5324SOL    HW116871   3.828   1.916   1.900
 5324SOL    HW216872   3.794   2.073   1.934
 5325SOL     OW16873   4.715   6.669   2.803
 5325SOL    HW116874   4.723   6.747   2.866
 5325SOL    HW216875   4.806   6.645   2.769
 5326SOL     OW16876   0.044   5.689   1.852
 5326SOL    HW116877   6.985   5.708   1.798
 5326SOL    HW216878   0.026   5.612   1.914
 5327SOL     OW16879   0.243   6.352   4.587
 5327SOL    HW116880   0.177   6.320   4.655
 5327SOL    HW216881   0.255   6.451   4.596
 5328SOL     OW16882   3.637   3.044   6.210
 5328SOL    HW116883   3.727   3.030   6.251
 5328SOL    HW216884   3.567   3.039   6.281
 5329SOL     OW16885   0.254   4.581   0.518
 5329SOL    HW116886   0.189   4.516   0.479
 5329SOL    HW216887   0.287   4.642   0.446
 5330SOL     OW16888   3.971   3.687   0.069
 5330SOL    HW116889   4.029   3.635   0.131
 5330SOL    HW216890   4.011   3.687   7.001
 5331SOL     OW16891   4.492   2.232   0.840
 5331SOL    HW116892   4.517   2.201   0.931
 5331SOL    HW216893   4.542   2.317   0.819
 5332SOL     OW16894   6.338   5.152   0.526
 5332SOL    HW116895   6.323   5.061   0.488
 5332SOL    HW216896   6.385   5.209   0.459
 5333SOL     OW16897   2.243   0.788   3.520
 5333SOL    HW116898   2.295   0.800   3.604
 5333SOL    HW216899   2.223   0.690   3.508
 5334SOL     OW16900   4.453   4.854   3.858
 5334SOL    HW116901   4.531   4.855   3.921
 5334SOL    HW216902   4.384   4.789   3.892
 5335SOL     OW16903   6.400   4.433   2.397
 5335SOL    HW116904   6.438   4.511   2.448
 5335SOL    HW216905   6.318   4.399   2.444
 5336SOL     OW16906   1.965   1.682   4.014
 5336SOL    HW116907   1.935   1.587   4.014
 5336SOL    HW216908   2.049   1.690   3.961
 5337SOL     OW16909   6.001   4.682   1.367
 5337SOL    HW116910   5.956   4.772   1.361
 5337SOL    HW216911   6.086   4.684   1.315
 5338SOL     OW16912   5.961   2.789   6.890
 5338SOL    HW116913   6.016   2.856   6.941
 5338SOL    HW216914   5.951   2.706   6.944
 5339SOL     OW16915   6.019   2.068   2.065
 5339SOL    HW116916   6.032   1.996   1.998
 5339SOL    HW216917   5.944   2.128   2.037
 5340SOL     OW16918   5.160   3.107   1.936
 5340SOL    HW116919   5.181   3.200   1.966
 5340SOL    HW216920   5.156   3.046   2.015
 5341SOL     OW16921   4.778   4.601   3.215
 5341SOL    HW116922   4.730   4.634   3.133
 5341SOL    HW216923   4.728   4.523   3.253
 5342SOL     OW16924   5.693   6.728   5.887
 5342SOL    HW116925   5.634   6.677   5.949
 5342SOL    HW216926   5.762   6.666   5.849
 5343SOL     OW16927   3.663   3.672   4.932
 5343SOL    HW116928   3.744   3.643   4.881
 5343SOL    HW216929   3.601   3.595   4.944
 5344SOL     OW16930   0.707   1.344   0.335
 5344SOL    HW116931   0.751   1.376   0.251
 5344SOL    HW216932   0.743   1.253   0.359
 5345SOL     OW16933   4.671   1.190   0.006
 5345SOL    HW116934   4.621   1.224   6.949
 5345SOL    HW216935   4.733   1.261   0.039
 5346SOL     OW16936   2.534   5.081   3.917
 5346SOL    HW116937   2.587   5.074   4.001
 5346SOL    HW216938   2.438   5.101   3.940
 5347SOL     OW16939   6.837   2.675   3.283
 5347SOL    HW116940   6.878   2.754   3.329
 5347SOL    HW216941   6.890   2.652   3.201
 5348SOL     OW16942   6.152   1.266   5.056
 5348SOL    HW116943   6.219   1.334   5.085
 5348SOL    HW216944   6.106   1.298   4.973
 5349SOL     OW16945   0.264   2.861   1.887
 5349SOL    HW116946   0.300   2.918   1.813
 5349SOL    HW216947   0.321   2.872   1.969
 5350SOL     OW16948   1.526   0.204   5.619
 5350SOL    HW116949   1.478   0.139   5.560
 5350SOL    HW216950   1.500   0.186   5.714
 5351SOL     OW16951   0.249   5.679   1.649
 5351SOL    HW116952   0.172   5.706   1.706
 5351SOL    HW216953   0.216   5.653   1.558
 5352SOL     OW16954   1.890   4.078   3.043
 5352SOL    HW116955   1.798   4.041   3.047
 5352SOL    HW216956   1.919   4.085   2.947
 5353SOL     OW16957   3.784   5.587   3.887
 5353SOL    HW116958   3.725   5.509   3.865
 5353SOL    HW216959   3.879   5.559   3.877
 5354SOL     OW16960   3.527   4.597   0.604
 5354SOL    HW116961   3.440   4.550   0.587
 5354SOL    HW216962   3.595   4.531   0.636
 5355SOL     OW16963   5.104   5.448   5.447
 5355SOL    HW116964   5.165   5.379   5.486
 5355SOL    HW216965   5.099   5.526   5.509
 5356SOL     OW16966   6.818   3.727   1.522
 5356SOL    HW116967   6.741   3.735   1.459
 5356SOL    HW216968   6.855   3.634   1.519
 5357SOL     OW16969   4.199   4.703   1.709
 5357SOL    HW116970   4.255   4.637   1.759
 5357SOL    HW216971   4.244   4.728   1.623
 5358SOL     OW16972   4.423   1.551   0.075
 5358SOL    HW116973   4.349   1.618   0.074
 5358SOL    HW216974   4.389   1.464   0.038
 5359SOL     OW16975   2.148   2.054   0.340
 5359SOL    HW116976   2.230   2.013   0.299
 5359SOL    HW216977   2.141   2.025   0.435
 5360SOL     OW16978   5.570   4.958   3.745
 5360SOL    HW116979   5.525   4.873   3.716
 5360SOL    HW216980   5.528   4.991   3.828
 5361SOL     OW16981   3.307   6.012   3.004
 5361SOL    HW116982   3.340   6.032   2.911
 5361SOL    HW216983   3.279   6.097   3.049
 5362SOL     OW16984   5.332   6.889   2.674
 5362SOL    HW116985   5.317   6.806   2.728
 5362SOL    HW216986   5.283   6.965   2.717
 5363SOL     OW16987   5.512   6.547   4.934
 5363SOL    HW116988   5.574   6.503   4.869
 5363SOL    HW216989   5.457   6.477   4.981
 5364SOL     OW16990   5.529   0.685   2.427
 5364SOL    HW116991   5.541   0.782   2.408
 5364SOL    HW216992   5.552   0.632   2.345
 5365SOL     OW16993   3.307   3.053   3.350
 5365SOL    HW116994   3.392   3.094   3.384
 5365SOL    HW216995   3.328   2.987   3.279
 5366SOL     OW16996   0.010   0.400   1.484
 5366SOL    HW116997   6.997   0.492   1.500
 5366SOL    HW216998   6.960   0.341   1.451
 5367SOL     OW16999   5.773   0.217   0.442
 5367SOL    HW117000   5.745   0.301   0.395
 5367SOL    HW217001   5.815   0.154   0.376
 5368SOL     OW17002   6.734   5.740   2.152
 5368SOL    HW117003   6.637   5.736   2.178
 5368SOL    HW217004   6.771   5.829   2.177
 5369SOL     OW17005   2.714   4.925   1.646
 5369SOL    HW117006   2.716   4.828   1.622
 5369SOL    HW217007   2.760   4.939   1.734
 5370SOL     OW17008   3.915   3.823   1.624
 5370SOL    HW117009   3.960   3.733   1.624
 5370SOL    HW217010   3.949   3.877   1.700
 5371SOL     OW17011   6.680   5.272   4.869
 5371SOL    HW117012   6.649   5.180   4.893
 5371SOL    HW217013   6.607   5.320   4.821
 5372SOL     OW17014   2.041   6.888   3.283
 5372SOL    HW117015   2.026   6.960   3.350
 5372SOL    HW217016   1.971   6.893   3.212
 5373SOL     OW17017   4.224   6.794   6.134
 5373SOL    HW117018   4.193   6.711   6.087
 5373SOL    HW217019   4.297   6.837   6.081
 5374SOL     OW17020   2.499   4.732   1.347
 5374SOL    HW117021   2.455   4.817   1.317
 5374SOL    HW217022   2.444   4.690   1.420
 5375SOL     OW17023   0.649   6.687   5.548
 5375SOL    HW117024   0.652   6.780   5.513
 5375SOL    HW217025   0.571   6.677   5.609
 5376SOL     OW17026   1.517   2.426   1.867
 5376SOL    HW117027   1.481   2.430   1.774
 5376SOL    HW217028   1.441   2.428   1.932
 5377SOL     OW17029   2.045   0.688   3.039
 5377SOL    HW117030   2.119   0.723   3.096
 5377SOL    HW217031   2.083   0.645   2.958
 5378SOL     OW17032   5.415   0.498   1.048
 5378SOL    HW117033   5.378   0.563   1.114
 5378SOL    HW217034   5.497   0.455   1.085
 5379SOL     OW17035   1.505   2.760   5.468
 5379SOL    HW117036   1.567   2.836   5.488
 5379SOL    HW217037   1.531   2.718   5.381
 5380SOL     OW17038   3.717   0.258   1.229
 5380SOL    HW117039   3.752   0.178   1.278
 5380SOL    HW217040   3.624   0.277   1.261
 5381SOL     OW17041   5.678   6.633   2.711
 5381SOL    HW117042   5.695   6.536   2.729
 5381SOL    HW217043   5.634   6.643   2.621
 5382SOL     OW17044   4.460   1.668   2.703
 5382SOL    HW117045   4.444   1.724   2.621
 5382SOL    HW217046   4.398   1.697   2.775
 5383SOL     OW17047   1.183   3.118   4.084
 5383SOL    HW117048   1.108   3.173   4.121
 5383SOL    HW217049   1.229   3.071   4.159
 5384SOL     OW17050   4.349   5.753   5.233
 5384SOL    HW117051   4.421   5.774   5.299
 5384SOL    HW217052   4.274   5.819   5.243
 5385SOL     OW17053   6.570   2.831   6.320
 5385SOL    HW117054   6.668   2.811   6.321
 5385SOL    HW217055   6.519   2.751   6.352
 5386SOL     OW17056   5.746   3.033   3.955
 5386SOL    HW117057   5.712   3.036   3.861
 5386SOL    HW217058   5.671   3.009   4.016
 5387SOL     OW17059   2.800   0.070   3.133
 5387SOL    HW117060   2.778   0.031   3.044
 5387SOL    HW217061   2.898   0.090   3.138
 5388SOL     OW17062   0.679   6.451   2.669
 5388SOL    HW117063   0.690   6.432   2.767
 5388SOL    HW217064   0.768   6.447   2.624
 5389SOL     OW17065   4.562   2.249   4.563
 5389SOL    HW117066   4.547   2.150   4.560
 5389SOL    HW217067   4.473   2.296   4.561
 5390SOL     OW17068   6.268   3.496   3.972
 5390SOL    HW117069   6.211   3.523   3.894
 5390SOL    HW217070   6.237   3.408   4.008
 5391SOL     OW17071   2.255   2.338   0.057
 5391SOL    HW117072   2.261   2.434   0.030
 5391SOL    HW217073   2.190   2.328   0.132
 5392SOL     OW17074   4.685   2.347   3.401
 5392SOL    HW117075   4.730   2.430   3.368
 5392SOL    HW217076   4.743   2.301   3.468
 5393SOL     OW17077   4.380   0.067   4.817
 5393SOL    HW117078   4.301   0.041   4.872
 5393SOL    HW217079   4.451   0.105   4.876
 5394SOL     OW17080   1.423   0.025   0.951
 5394SOL    HW117081   1.339   0.045   1.001
 5394SOL    HW217082   1.457   6.958   0.977
 5395SOL     OW17083   4.952   1.314   0.899
 5395SOL    HW117084   4.966   1.292   0.802
 5395SOL    HW217085   4.926   1.410   0.908
 5396SOL     OW17086   5.521   5.509   2.632
 5396SOL    HW117087   5.621   5.501   2.628
 5396SOL    HW217088   5.490   5.495   2.726
 5397SOL     OW17089   6.351   1.760   2.734
 5397SOL    HW117090   6.328   1.670   2.768
 5397SOL    HW217091   6.282   1.826   2.764
 5398SOL     OW17092   4.790   2.195   4.013
 5398SOL    HW117093   4.703   2.182   4.059
 5398SOL    HW217094   4.803   2.292   3.992
 5399SOL     OW17095   1.603   6.872   5.198
 5399SOL    HW117096   1.626   6.903   5.106
 5399SOL    HW217097   1.631   6.942   5.264
 5400SOL     OW17098   3.748   2.950   0.843
 5400SOL    HW117099   3.683   3.017   0.877
 5400SOL    HW217100   3.700   2.883   0.786
 5401SOL     OW17101   5.194   4.889   3.145
 5401SOL    HW117102   5.221   4.799   3.111
 5401SOL    HW217103   5.095   4.888   3.165
 5402SOL     OW17104   2.633   6.846   0.531
 5402SOL    HW117105   2.711   6.891   0.574
 5402SOL    HW217106   2.601   6.901   0.453
 5403SOL     OW17107   5.687   3.086   0.193
 5403SOL    HW117108   5.745   3.057   0.117
 5403SOL    HW217109   5.626   3.012   0.219
 5404SOL     OW17110   0.854   1.032   1.062
 5404SOL    HW117111   0.932   0.971   1.049
 5404SOL    HW217112   0.773   0.978   1.086
 5405SOL     OW17113   5.379   5.692   0.320
 5405SOL    HW117114   5.420   5.743   0.395
 5405SOL    HW217115   5.440   5.618   0.292
 5406SOL     OW17116   2.609   0.841   4.692
 5406SOL    HW117117   2.583   0.769   4.627
 5406SOL    HW217118   2.666   0.802   4.764
 5407SOL     OW17119   2.672   0.694   1.332
 5407SOL    HW117120   2.592   0.701   1.391
 5407SOL    HW217121   2.645   0.660   1.242
 5408SOL     OW17122   2.963   2.005   4.199
 5408SOL    HW117123   3.025   2.033   4.273
 5408SOL    HW217124   2.906   1.929   4.230
 5409SOL     OW17125   6.602   2.630   1.419
 5409SOL    HW117126   6.628   2.603   1.512
 5409SOL    HW217127   6.610   2.729   1.408
 5410SOL     OW17128   0.136   2.623   1.203
 5410SOL    HW117129   0.130   2.628   1.104
 5410SOL    HW217130   0.097   2.536   1.234
 5411SOL     OW17131   5.458   5.085   0.082
 5411SOL    HW117132   5.535   5.022   0.085
 5411SOL    HW217133   5.374   5.034   0.065
 5412SOL     OW17134   1.563   1.366   6.429
 5412SOL    HW117135   1.466   1.374   6.454
 5412SOL    HW217136   1.575   1.393   6.333
 5413SOL     OW17137   6.311   0.354   5.097
 5413SOL    HW117138   6.373   0.279   5.120
 5413SOL    HW217139   6.226   0.343   5.149
 5414SOL     OW17140   6.954   4.649   5.421
 5414SOL    HW117141   6.897   4.721   5.461
 5414SOL    HW217142   6.932   4.561   5.465
 5415SOL     OW17143   2.767   6.483   0.652
 5415SOL    HW117144   2.739   6.531   0.569
 5415SOL    HW217145   2.787   6.549   0.725
 5416SOL     OW17146   2.713   5.253   5.052
 5416SOL    HW117147   2.617   5.261   5.076
 5416SOL    HW217148   2.743   5.158   5.067
 5417SOL     OW17149   4.729   6.253   3.554
 5417SOL    HW117150   4.743   6.253   3.653
 5417SOL    HW217151   4.782   6.327   3.512
 5418SOL     OW17152   6.077   4.438   4.269
 5418SOL    HW117153   6.154   4.491   4.304
 5418SOL    HW217154   6.035   4.486   4.192
 5419SOL     OW17155   4.281   6.685   6.780
 5419SOL    HW117156   4.323   6.711   6.868
 5419SOL    HW217157   4.188   6.721   6.777
 5420SOL     OW17158   1.355   1.699   1.606
 5420SOL    HW117159   1.397   1.630   1.548
 5420SOL    HW217160   1.257   1.706   1.584
 5421SOL     OW17161   3.313   5.432   2.181
 5421SOL    HW117162   3.315   5.468   2.088
 5421SOL    HW217163   3.352   5.340   2.182
 5422SOL     OW17164   2.240   6.007   3.920
 5422SOL    HW117165   2.147   6.024   3.889
 5422SOL    HW217166   2.295   6.090   3.910
 5423SOL     OW17167   6.800   5.997   2.127
 5423SOL    HW117168   6.790   6.094   2.107
 5423SOL    HW217169   6.896   5.970   2.118
 5424SOL     OW17170   4.855   4.003   4.980
 5424SOL    HW117171   4.846   4.008   4.880
 5424SOL    HW217172   4.905   3.920   5.004
 5425SOL     OW17173   0.505   3.240   5.373
 5425SOL    HW117174   0.408   3.260   5.390
 5425SOL    HW217175   0.559   3.323   5.386
 5426SOL     OW17176   5.124   5.260   2.069
 5426SOL    HW117177   5.165   5.348   2.094
 5426SOL    HW217178   5.036   5.250   2.114
 5427SOL     OW17179   4.792   2.756   6.710
 5427SOL    HW117180   4.751   2.847   6.718
 5427SOL    HW217181   4.730   2.688   6.748
 5428SOL     OW17182   6.237   5.469   3.047
 5428SOL    HW117183   6.304   5.432   2.982
 5428SOL    HW217184   6.169   5.399   3.068
 5429SOL     OW17185   3.239   0.884   4.011
 5429SOL    HW117186   3.330   0.849   3.987
 5429SOL    HW217187   3.190   0.815   4.064
 5430SOL     OW17188   2.220   3.848   6.038
 5430SOL    HW117189   2.155   3.897   6.095
 5430SOL    HW217190   2.313   3.868   6.069
 5431SOL     OW17191   3.316   4.838   6.245
 5431SOL    HW117192   3.296   4.914   6.307
 5431SOL    HW217193   3.309   4.869   6.150
 5432SOL     OW17194   5.557   5.772   1.338
 5432SOL    HW117195   5.640   5.759   1.393
 5432SOL    HW217196   5.493   5.832   1.387
 5433SOL     OW17197   1.428   0.532   0.990
 5433SOL    HW117198   1.426   0.506   1.086
 5433SOL    HW217199   1.434   0.450   0.933
 5434SOL     OW17200   5.010   1.158   4.846
 5434SOL    HW117201   4.991   1.066   4.814
 5434SOL    HW217202   4.949   1.181   4.921
 5435SOL     OW17203   6.492   3.896   0.938
 5435SOL    HW117204   6.526   3.811   0.897
 5435SOL    HW217205   6.569   3.949   0.973
 5436SOL     OW17206   1.362   5.665   2.581
 5436SOL    HW117207   1.361   5.763   2.562
 5436SOL    HW217208   1.424   5.646   2.657
 5437SOL     OW17209   2.876   5.023   6.563
 5437SOL    HW117210   2.897   5.120   6.563
 5437SOL    HW217211   2.777   5.010   6.551
 5438SOL     OW17212   4.924   4.029   1.990
 5438SOL    HW117213   4.881   4.118   1.976
 5438SOL    HW217214   4.916   3.975   1.905
 5439SOL     OW17215   0.900   4.052   0.733
 5439SOL    HW117216   0.940   4.128   0.784
 5439SOL    HW217217   0.871   3.981   0.797
 5440SOL     OW17218   5.760   6.274   3.393
 5440SOL    HW117219   5.836   6.210   3.393
 5440SOL    HW217220   5.675   6.225   3.408
 5441SOL     OW17221   4.712   2.813   4.059
 5441SOL    HW117222   4.677   2.804   3.966
 5441SOL    HW217223   4.660   2.754   4.120
 5442SOL     OW17224   5.376   0.099   4.061
 5442SOL    HW117225   5.436   0.101   4.140
 5442SOL    HW217226   5.418   0.150   3.985
 5443SOL     OW17227   5.049   6.634   4.930
 5443SOL    HW117228   5.142   6.636   4.893
 5443SOL    HW217229   5.022   6.727   4.955
 5444SOL     OW17230   0.203   1.503   4.030
 5444SOL    HW117231   0.184   1.594   3.995
 5444SOL    HW217232   0.232   1.509   4.126
 5445SOL     OW17233   5.091   4.912   5.599
 5445SOL    HW117234   5.045   4.924   5.511
 5445SOL    HW217235   5.077   4.993   5.656
 5446SOL     OW17236   0.195   4.755   5.008
 5446SOL    HW117237   0.119   4.817   4.990
 5446SOL    HW217238   0.243   4.784   5.091
 5447SOL     OW17239   1.472   1.933   1.371
 5447SOL    HW117240   1.476   1.983   1.285
 5447SOL    HW217241   1.555   1.950   1.424
 5448SOL     OW17242   4.469   6.123   3.508
 5448SOL    HW117243   4.488   6.030   3.540
 5448SOL    HW217244   4.535   6.187   3.546
 5449SOL     OW17245   3.541   1.589   2.498
 5449SOL    HW117246   3.534   1.490   2.489
 5449SOL    HW217247   3.563   1.629   2.408
 5450SOL     OW17248   3.856   6.226   1.934
 5450SOL    HW117249   3.929   6.161   1.958
 5450SOL    HW217250   3.875   6.315   1.975
 5451SOL     OW17251   1.305   0.535   3.168
 5451SOL    HW117252   1.371   0.578   3.107
 5451SOL    HW217253   1.303   0.584   3.255
 5452SOL     OW17254   1.865   5.041   1.394
 5452SOL    HW117255   1.805   5.103   1.344
 5452SOL    HW217256   1.883   5.078   1.485
 5453SOL     OW17257   5.452   4.075   2.834
 5453SOL    HW117258   5.367   4.028   2.809
 5453SOL    HW217259   5.480   4.046   2.926
 5454SOL     OW17260   5.889   5.681   2.774
 5454SOL    HW117261   5.970   5.684   2.716
 5454SOL    HW217262   5.856   5.774   2.790
 5455SOL     OW17263   0.340   1.549   2.368
 5455SOL    HW117264   0.354   1.450   2.376
 5455SOL    HW217265   0.270   1.578   2.433
 5456SOL     OW17266   4.772   0.759   6.774
 5456SOL    HW117267   4.851   0.786   6.718
 5456SOL    HW217268   4.784   0.794   6.867
 5457SOL     OW17269   6.368   2.032   0.499
 5457SOL    HW117270   6.459   2.072   0.498
 5457SOL    HW217271   6.367   1.950   0.441
 5458SOL     OW17272   6.419   4.738   0.977
 5458SOL    HW117273   6.319   4.728   0.972
 5458SOL    HW217274   6.461   4.690   0.900
 5459SOL     OW17275   1.550   4.563   5.391
 5459SOL    HW117276   1.529   4.466   5.402
 5459SOL    HW217277   1.612   4.576   5.314
 5460SOL     OW17278   1.951   1.532   0.915
 5460SOL    HW117279   2.035   1.566   0.958
 5460SOL    HW217280   1.958   1.433   0.902
 5461SOL     OW17281   0.542   1.694   6.074
 5461SOL    HW117282   0.608   1.769   6.070
 5461SOL    HW217283   0.455   1.727   6.109
 5462SOL     OW17284   5.620   6.278   6.683
 5462SOL    HW117285   5.698   6.309   6.739
 5462SOL    HW217286   5.573   6.358   6.645
 5463SOL     OW17287   6.864   2.400   6.581
 5463SOL    HW117288   6.931   2.330   6.605
 5463SOL    HW217289   6.855   2.465   6.656
 5464SOL     OW17290   6.233   6.012   5.699
 5464SOL    HW117291   6.186   6.040   5.615
 5464SOL    HW217292   6.181   5.941   5.745
 5465SOL     OW17293   6.355   6.822   3.059
 5465SOL    HW117294   6.350   6.922   3.049
 5465SOL    HW217295   6.267   6.788   3.092
 5466SOL     OW17296   5.823   2.273   5.358
 5466SOL    HW117297   5.873   2.256   5.273
 5466SOL    HW217298   5.801   2.370   5.365
 5467SOL     OW17299   5.931   4.081   3.672
 5467SOL    HW117300   6.005   4.039   3.619
 5467SOL    HW217301   5.880   4.143   3.613
 5468SOL     OW17302   0.036   2.011   3.028
 5468SOL    HW117303   7.019   2.001   2.937
 5468SOL    HW217304   0.002   2.094   3.071
 5469SOL     OW17305   2.144   0.795   6.035
 5469SOL    HW117306   2.115   0.742   6.115
 5469SOL    HW217307   2.139   0.892   6.056
 5470SOL     OW17308   4.048   5.501   4.446
 5470SOL    HW117309   4.127   5.477   4.502
 5470SOL    HW217310   4.012   5.590   4.476
 5471SOL     OW17311   5.109   0.106   2.851
 5471SOL    HW117312   5.173   0.156   2.909
 5471SOL    HW217313   5.135   0.115   2.755
 5472SOL     OW17314   2.967   2.185   6.200
 5472SOL    HW117315   3.009   2.097   6.221
 5472SOL    HW217316   2.873   2.186   6.234
 5473SOL     OW17317   1.737   4.725   0.422
 5473SOL    HW117318   1.802   4.667   0.471
 5473SOL    HW217319   1.784   4.774   0.349
 5474SOL     OW17320   1.233   5.386   3.603
 5474SOL    HW117321   1.284   5.349   3.525
 5474SOL    HW217322   1.261   5.480   3.620
 5475SOL     OW17323   1.634   1.938   0.339
 5475SOL    HW117324   1.564   1.915   0.406
 5475SOL    HW217325   1.594   1.995   0.267
 5476SOL     OW17326   2.079   5.217   5.321
 5476SOL    HW117327   2.057   5.135   5.374
 5476SOL    HW217328   2.178   5.224   5.309
 5477SOL     OW17329   1.559   4.477   2.973
 5477SOL    HW117330   1.646   4.486   2.924
 5477SOL    HW217331   1.576   4.466   3.070
 5478SOL     OW17332   5.254   5.680   6.383
 5478SOL    HW117333   5.162   5.710   6.358
 5478SOL    HW217334   5.311   5.677   6.301
 5479SOL     OW17335   4.319   1.381   4.046
 5479SOL    HW117336   4.328   1.359   3.949
 5479SOL    HW217337   4.289   1.300   4.096
 5480SOL     OW17338   6.194   4.849   4.844
 5480SOL    HW117339   6.136   4.813   4.771
 5480SOL    HW217340   6.141   4.859   4.927
 5481SOL     OW17341   4.082   0.736   5.893
 5481SOL    HW117342   4.175   0.715   5.865
 5481SOL    HW217343   4.018   0.712   5.819
 5482SOL     OW17344   3.638   3.756   2.082
 5482SOL    HW117345   3.605   3.811   2.006
 5482SOL    HW217346   3.710   3.695   2.051
 5483SOL     OW17347   6.667   2.778   5.884
 5483SOL    HW117348   6.739   2.837   5.919
 5483SOL    HW217349   6.703   2.724   5.808
 5484SOL     OW17350   6.764   6.698   3.765
 5484SOL    HW117351   6.697   6.648   3.709
 5484SOL    HW217352   6.853   6.697   3.720
 5485SOL     OW17353   2.727   0.254   4.579
 5485SOL    HW117354   2.674   0.297   4.653
 5485SOL    HW217355   2.746   0.322   4.508
 5486SOL     OW17356   1.563   0.019   4.031
 5486SOL    HW117357   1.539   0.034   3.935
 5486SOL    HW217358   1.565   6.944   4.049
 5487SOL     OW17359   6.098   3.771   6.795
 5487SOL    HW117360   6.140   3.681   6.808
 5487SOL    HW217361   6.099   3.821   6.882
 5488SOL     OW17362   4.586   1.632   0.292
 5488SOL    HW117363   4.532   1.656   0.373
 5488SOL    HW217364   4.527   1.588   0.225
 5489SOL     OW17365   1.371   4.343   2.184
 5489SOL    HW117366   1.287   4.295   2.161
 5489SOL    HW217367   1.432   4.343   2.105
 5490SOL     OW17368   3.092   6.810   0.475
 5490SOL    HW117369   3.177   6.770   0.510
 5490SOL    HW217370   3.114   6.876   0.403
 5491SOL     OW17371   1.284   4.442   6.677
 5491SOL    HW117372   1.241   4.353   6.660
 5491SOL    HW217373   1.242   4.511   6.618
 5492SOL     OW17374   1.039   0.970   5.757
 5492SOL    HW117375   1.057   1.066   5.736
 5492SOL    HW217376   0.944   0.961   5.789
 5493SOL     OW17377   3.716   2.914   5.287
 5493SOL    HW117378   3.677   2.951   5.203
 5493SOL    HW217379   3.689   2.819   5.298
 5494SOL     OW17380   6.614   2.870   0.382
 5494SOL    HW117381   6.572   2.852   0.471
 5494SOL    HW217382   6.551   2.924   0.325
 5495SOL     OW17383   3.276   3.070   0.417
 5495SOL    HW117384   3.224   3.143   0.461
 5495SOL    HW217385   3.257   2.984   0.463
 5496SOL     OW17386   3.536   5.993   1.632
 5496SOL    HW117387   3.505   6.052   1.557
 5496SOL    HW217388   3.487   6.017   1.715
 5497SOL     OW17389   0.170   2.331   3.209
 5497SOL    HW117390   0.249   2.274   3.184
 5497SOL    HW217391   0.087   2.290   3.172
 5498SOL     OW17392   4.828   0.895   0.584
 5498SOL    HW117393   4.764   0.867   0.512
 5498SOL    HW217394   4.794   0.863   0.672
 5499SOL     OW17395   0.736   1.487   3.596
 5499SOL    HW117396   0.810   1.507   3.532
 5499SOL    HW217397   0.771   1.433   3.672
 5500SOL     OW17398   1.965   5.851   6.808
 5500SOL    HW117399   2.016   5.813   6.731
 5500SOL    HW217400   1.927   5.940   6.783
 5501SOL     OW17401   3.530   0.104   1.573
 5501SOL    HW117402   3.534   0.102   1.673
 5501SOL    HW217403   3.599   0.043   1.536
 5502SOL     OW17404   5.908   4.347   6.047
 5502SOL    HW117405   5.931   4.301   6.133
 5502SOL    HW217406   5.915   4.281   5.971
 5503SOL     OW17407   0.782   4.762   2.842
 5503SOL    HW117408   0.722   4.840   2.823
 5503SOL    HW217409   0.727   4.678   2.843
 5504SOL     OW17410   2.586   0.862   5.026
 5504SOL    HW117411   2.619   0.941   5.078
 5504SOL    HW217412   2.486   0.864   5.022
 5505SOL     OW17413   1.981   5.814   4.866
 5505SOL    HW117414   2.006   5.906   4.898
 5505SOL    HW217415   2.031   5.746   4.919
 5506SOL     OW17416   6.653   6.916   5.348
 5506SOL    HW117417   6.582   6.880   5.408
 5506SOL    HW217418   6.739   6.925   5.400
 5507SOL     OW17419   2.920   6.600   3.382
 5507SOL    HW117420   2.837   6.651   3.360
 5507SOL    HW217421   2.946   6.544   3.303
 5508SOL     OW17422   2.603   0.861   0.336
 5508SOL    HW117423   2.561   0.842   0.425
 5508SOL    HW217424   2.629   0.957   0.331
 5509SOL     OW17425   0.160   6.281   0.583
 5509SOL    HW117426   0.220   6.344   0.534
 5509SOL    HW217427   0.204   6.191   0.588
 5510SOL     OW17428   5.176   6.572   0.296
 5510SOL    HW117429   5.157   6.598   0.201
 5510SOL    HW217430   5.221   6.649   0.342
 5511SOL     OW17431   2.089   0.560   3.352
 5511SOL    HW117432   2.003   0.610   3.350
 5511SOL    HW217433   2.111   0.526   3.261
 5512SOL     OW17434   6.158   2.152   0.597
 5512SOL    HW117435   6.237   2.110   0.554
 5512SOL    HW217436   6.146   2.245   0.561
 5513SOL     OW17437   4.852   4.146   5.441
 5513SOL    HW117438   4.806   4.160   5.528
 5513SOL    HW217439   4.785   4.136   5.368
 5514SOL     OW17440   4.955   5.417   2.688
 5514SOL    HW117441   5.028   5.431   2.755
 5514SOL    HW217442   4.985   5.453   2.600
 5515SOL     OW17443   6.625   3.684   0.831
 5515SOL    HW117444   6.603   3.594   0.794
 5515SOL    HW217445   6.714   3.680   0.878
 5516SOL     OW17446   1.372   3.075   0.387
 5516SOL    HW117447   1.452   3.127   0.417
 5516SOL    HW217448   1.403   2.995   0.335
 5517SOL     OW17449   2.745   2.371   2.513
 5517SOL    HW117450   2.756   2.330   2.604
 5517SOL    HW217451   2.834   2.372   2.467
 5518SOL     OW17452   6.761   5.901   6.032
 5518SOL    HW117453   6.680   5.857   5.992
 5518SOL    HW217454   6.807   5.836   6.092
 5519SOL     OW17455   4.956   3.422   2.905
 5519SOL    HW117456   4.938   3.383   2.814
 5519SOL    HW217457   4.961   3.348   2.972
 5520SOL     OW17458   0.637   4.536   2.840
 5520SOL    HW117459   0.685   4.475   2.904
 5520SOL    HW217460   0.540   4.512   2.838
 5521SOL     OW17461   4.313   5.799   2.388
 5521SOL    HW117462   4.403   5.784   2.346
 5521SOL    HW217463   4.283   5.715   2.433
 5522SOL     OW17464   1.478   3.578   1.044
 5522SOL    HW117465   1.502   3.605   1.137
 5522SOL    HW217466   1.503   3.482   1.030
 5523SOL     OW17467   3.418   6.449   2.914
 5523SOL    HW117468   3.417   6.449   2.814
 5523SOL    HW217469   3.385   6.537   2.948
 5524SOL     OW17470   6.740   5.845   5.018
 5524SOL    HW117471   6.743   5.821   5.115
 5524SOL    HW217472   6.658   5.804   4.977
 5525SOL     OW17473   6.509   4.380   0.135
 5525SOL    HW117474   6.559   4.311   0.082
 5525SOL    HW217475   6.500   4.349   0.229
 5526SOL     OW17476   6.001   3.931   4.885
 5526SOL    HW117477   6.017   3.981   4.800
 5526SOL    HW217478   6.057   3.848   4.886
 5527SOL     OW17479   0.958   3.355   3.369
 5527SOL    HW117480   1.026   3.389   3.434
 5527SOL    HW217481   0.989   3.374   3.276
 5528SOL     OW17482   1.110   2.296   5.736
 5528SOL    HW117483   1.075   2.220   5.791
 5528SOL    HW217484   1.059   2.379   5.759
 5529SOL     OW17485   2.307   0.312   4.456
 5529SOL    HW117486   2.320   0.219   4.490
 5529SOL    HW217487   2.272   0.370   4.529
 5530SOL     OW17488   0.067   2.156   2.094
 5530SOL    HW117489   0.149   2.181   2.043
 5530SOL    HW217490   7.015   2.215   2.067
 5531SOL     OW17491   4.153   3.476   4.096
 5531SOL    HW117492   4.165   3.433   4.007
 5531SOL    HW217493   4.110   3.411   4.159
 5532SOL     OW17494   1.590   1.419   1.220
 5532SOL    HW117495   1.663   1.487   1.216
 5532SOL    HW217496   1.628   1.330   1.246
 5533SOL     OW17497   2.847   0.774   2.709
 5533SOL    HW117498   2.899   0.768   2.794
 5533SOL    HW217499   2.762   0.723   2.719
 5534SOL     OW17500   1.016   3.531   6.430
 5534SOL    HW117501   1.102   3.503   6.387
 5534SOL    HW217502   1.004   3.630   6.418
 5535SOL     OW17503   0.215   3.365   3.438
 5535SOL    HW117504   0.230   3.287   3.377
 5535SOL    HW217505   0.150   3.340   3.510
 5536SOL     OW17506   2.925   0.797   3.949
 5536SOL    HW117507   2.996   0.761   4.010
 5536SOL    HW217508   2.843   0.741   3.956
 5537SOL     OW17509   3.401   1.129   4.227
 5537SOL    HW117510   3.433   1.043   4.185
 5537SOL    HW217511   3.304   1.121   4.250
 5538SOL     OW17512   3.439   0.230   4.681
 5538SOL    HW117513   3.411   0.137   4.657
 5538SOL    HW217514   3.521   0.255   4.630
 5539SOL     OW17515   0.583   1.991   0.672
 5539SOL    HW117516   0.592   1.940   0.758
 5539SOL    HW217517   0.486   1.999   0.648
 5540SOL     OW17518   4.896   3.462   2.292
 5540SOL    HW117519   4.876   3.492   2.198
 5540SOL    HW217520   4.839   3.383   2.315
 5541SOL     OW17521   5.461   2.884   6.059
 5541SOL    HW117522   5.377   2.930   6.031
 5541SOL    HW217523   5.522   2.873   5.981
 5542SOL     OW17524   5.857   6.078   5.921
 5542SOL    HW117525   5.788   6.082   5.993
 5542SOL    HW217526   5.925   6.008   5.944
 5543SOL     OW17527   1.855   5.021   6.475
 5543SOL    HW117528   1.892   4.947   6.419
 5543SOL    HW217529   1.755   5.017   6.474
 5544SOL     OW17530   5.138   5.454   5.767
 5544SOL    HW117531   5.225   5.465   5.719
 5544SOL    HW217532   5.125   5.530   5.830
 5545SOL     OW17533   4.825   0.981   2.692
 5545SOL    HW117534   4.786   1.009   2.604
 5545SOL    HW217535   4.925   0.982   2.685
 5546SOL     OW17536   1.121   6.233   4.337
 5546SOL    HW117537   1.142   6.217   4.433
 5546SOL    HW217538   1.048   6.172   4.308
 5547SOL     OW17539   4.216   0.739   5.129
 5547SOL    HW117540   4.184   0.671   5.195
 5547SOL    HW217541   4.201   0.705   5.036
 5548SOL     OW17542   6.482   3.602   5.617
 5548SOL    HW117543   6.437   3.681   5.659
 5548SOL    HW217544   6.519   3.629   5.528
 5549SOL     OW17545   3.809   4.319   1.169
 5549SOL    HW117546   3.849   4.241   1.216
 5549SOL    HW217547   3.872   4.353   1.099
 5550SOL     OW17548   2.413   4.378   2.058
 5550SOL    HW117549   2.459   4.449   2.112
 5550SOL    HW217550   2.450   4.376   1.965
 5551SOL     OW17551   1.351   6.404   2.792
 5551SOL    HW117552   1.277   6.336   2.792
 5551SOL    HW217553   1.371   6.431   2.886
 5552SOL     OW17554   6.649   1.211   6.700
 5552SOL    HW117555   6.612   1.302   6.721
 5552SOL    HW217556   6.575   1.151   6.672
 5553SOL     OW17557   4.805   6.455   6.417
 5553SOL    HW117558   4.840   6.543   6.388
 5553SOL    HW217559   4.711   6.465   6.451
 5554SOL     OW17560   4.709   2.260   0.095
 5554SOL    HW117561   4.786   2.309   0.055
 5554SOL    HW217562   4.735   2.166   0.116
 5555SOL     OW17563   0.982   3.651   2.099
 5555SOL    HW117564   1.017   3.564   2.135
 5555SOL    HW217565   1.030   3.673   2.014
 5556SOL     OW17566   6.283   1.304   3.151
 5556SOL    HW117567   6.201   1.361   3.140
 5556SOL    HW217568   6.352   1.354   3.204
 5557SOL     OW17569   4.176   6.028   2.258
 5557SOL    HW117570   4.243   5.971   2.306
 5557SOL    HW217571   4.087   5.983   2.261
 5558SOL     OW17572   2.708   3.771   6.445
 5558SOL    HW117573   2.654   3.728   6.372
 5558SOL    HW217574   2.685   3.868   6.451
 5559SOL     OW17575   2.075   0.614   1.742
 5559SOL    HW117576   2.088   0.713   1.730
 5559SOL    HW217577   2.137   0.581   1.814
 5560SOL     OW17578   0.273   5.489   1.436
 5560SOL    HW117579   0.344   5.554   1.411
 5560SOL    HW217580   0.313   5.417   1.493
 5561SOL     OW17581   2.110   0.824   4.273
 5561SOL    HW117582   2.168   0.900   4.303
 5561SOL    HW217583   2.054   0.854   4.196
 5562SOL     OW17584   3.883   2.589   6.584
 5562SOL    HW117585   3.918   2.668   6.534
 5562SOL    HW217586   3.942   2.572   6.664
 5563SOL     OW17587   2.995   4.845   2.450
 5563SOL    HW117588   2.959   4.777   2.514
 5563SOL    HW217589   3.016   4.930   2.499
 5564SOL     OW17590   4.662   0.034   0.817
 5564SOL    HW117591   4.717   6.973   0.819
 5564SOL    HW217592   4.598   0.030   0.740
 5565SOL     OW17593   3.947   2.298   5.887
 5565SOL    HW117594   3.957   2.384   5.837
 5565SOL    HW217595   3.999   2.226   5.841
 5566SOL     OW17596   1.305   4.439   6.947
 5566SOL    HW117597   1.335   4.353   6.988
 5566SOL    HW217598   1.309   4.431   6.847
 5567SOL     OW17599   0.040   3.438   0.760
 5567SOL    HW117600   0.095   3.493   0.822
 5567SOL    HW217601   0.020   3.349   0.801
 5568SOL     OW17602   5.097   1.038   3.429
 5568SOL    HW117603   5.036   0.992   3.364
 5568SOL    HW217604   5.050   1.050   3.517
 5569SOL     OW17605   2.008   1.309   2.291
 5569SOL    HW117606   2.097   1.303   2.336
 5569SOL    HW217607   1.937   1.279   2.354
 5570SOL     OW17608   6.908   3.859   4.398
 5570SOL    HW117609   6.916   3.841   4.496
 5570SOL    HW217610   6.987   3.911   4.366
 5571SOL     OW17611   6.216   6.344   1.421
 5571SOL    HW117612   6.270   6.261   1.435
 5571SOL    HW217613   6.171   6.369   1.507
 5572SOL     OW17614   1.482   3.591   4.714
 5572SOL    HW117615   1.491   3.629   4.622
 5572SOL    HW217616   1.493   3.492   4.710
 5573SOL     OW17617   1.697   5.755   4.734
 5573SOL    HW117618   1.621   5.729   4.793
 5573SOL    HW217619   1.783   5.746   4.784
 5574SOL     OW17620   0.272   1.919   2.328
 5574SOL    HW117621   0.175   1.896   2.338
 5574SOL    HW217622   0.319   1.846   2.280
 5575SOL     OW17623   0.120   1.444   0.811
 5575SOL    HW117624   0.169   1.386   0.745
 5575SOL    HW217625   0.160   1.536   0.810
 5576SOL     OW17626   0.850   4.838   1.822
 5576SOL    HW117627   0.925   4.868   1.763
 5576SOL    HW217628   0.778   4.907   1.821
 5577SOL     OW17629   2.646   2.976   6.314
 5577SOL    HW117630   2.727   2.933   6.355
 5577SOL    HW217631   2.660   3.075   6.308
 5578SOL     OW17632   3.195   3.422   1.799
 5578SOL    HW117633   3.265   3.494   1.803
 5578SOL    HW217634   3.127   3.446   1.730
 5579SOL     OW17635   0.479   3.894   0.376
 5579SOL    HW117636   0.433   3.966   0.427
 5579SOL    HW217637   0.449   3.805   0.410
 5580SOL     OW17638   4.889   2.489   5.327
 5580SOL    HW117639   4.896   2.459   5.232
 5580SOL    HW217640   4.969   2.544   5.351
 5581SOL     OW17641   1.954   0.245   1.722
 5581SOL    HW117642   1.895   0.166   1.740
 5581SOL    HW217643   1.898   0.328   1.721
 5582SOL     OW17644   3.148   3.422   6.149
 5582SOL    HW117645   3.138   3.477   6.066
 5582SOL    HW217646   3.205   3.342   6.130
 5583SOL     OW17647   5.203   0.627   2.794
 5583SOL    HW117648   5.122   0.642   2.738
 5583SOL    HW217649   5.261   0.708   2.791
 5584SOL     OW17650   6.831   5.006   4.144
 5584SOL    HW117651   6.761   4.989   4.076
 5584SOL    HW217652   6.887   4.924   4.157
 5585SOL     OW17653   5.530   5.510   3.077
 5585SOL    HW117654   5.486   5.426   3.109
 5585SOL    HW217655   5.460   5.573   3.043
 5586SOL     OW17656   0.414   2.773   5.996
 5586SOL    HW117657   0.489   2.831   5.963
 5586SOL    HW217658   0.417   2.685   5.950
 5587SOL     OW17659   4.176   6.452   0.866
 5587SOL    HW117660   4.126   6.394   0.931
 5587SOL    HW217661   4.193   6.400   0.782
 5588SOL     OW17662   2.714   5.014   3.055
 5588SOL    HW117663   2.795   4.965   3.086
 5588SOL    HW217664   2.718   5.108   3.087
 5589SOL     OW17665   6.666   3.165   5.982
 5589SOL    HW117666   6.639   3.135   5.890
 5589SOL    HW217667   6.652   3.263   5.990
 5590SOL     OW17668   0.195   6.077   3.771
 5590SOL    HW117669   0.097   6.064   3.755
 5590SOL    HW217670   0.225   6.165   3.733
 5591SOL     OW17671   5.620   1.448   1.471
 5591SOL    HW117672   5.676   1.381   1.518
 5591SOL    HW217673   5.528   1.411   1.456
 5592SOL     OW17674   1.427   5.633   2.137
 5592SOL    HW117675   1.476   5.639   2.224
 5592SOL    HW217676   1.430   5.539   2.104
 5593SOL     OW17677   1.094   3.080   0.480
 5593SOL    HW117678   1.189   3.107   0.467
 5593SOL    HW217679   1.072   3.004   0.419
 5594SOL     OW17680   4.574   1.217   6.616
 5594SOL    HW117681   4.620   1.291   6.568
 5594SOL    HW217682   4.593   1.223   6.714
 5595SOL     OW17683   0.149   0.992   4.712
 5595SOL    HW117684   0.166   0.995   4.613
 5595SOL    HW217685   0.118   0.900   4.737
 5596SOL     OW17686   4.596   0.806   2.623
 5596SOL    HW117687   4.561   0.798   2.716
 5596SOL    HW217688   4.680   0.861   2.624
 5597SOL     OW17689   5.120   2.814   4.831
 5597SOL    HW117690   5.083   2.725   4.856
 5597SOL    HW217691   5.124   2.873   4.911
 5598SOL     OW17692   5.262   4.163   4.131
 5598SOL    HW117693   5.175   4.116   4.151
 5598SOL    HW217694   5.321   4.101   4.079
 5599SOL     OW17695   1.301   2.077   2.621
 5599SOL    HW117696   1.373   2.061   2.554
 5599SOL    HW217697   1.293   1.997   2.681
 5600SOL     OW17698   1.490   1.494   1.477
 5600SOL    HW117699   1.478   1.492   1.378
 5600SOL    HW217700   1.565   1.433   1.502
 5601SOL     OW17701   2.028   0.594   6.203
 5601SOL    HW117702   2.042   0.496   6.189
 5601SOL    HW217703   2.079   0.624   6.283
 5602SOL     OW17704   0.036   1.741   1.444
 5602SOL    HW117705   6.989   1.811   1.456
 5602SOL    HW217706   0.040   1.683   1.526
 5603SOL     OW17707   5.843   2.941   0.442
 5603SOL    HW117708   5.863   3.012   0.374
 5603SOL    HW217709   5.916   2.938   0.510
 5604SOL     OW17710   6.379   2.619   4.882
 5604SOL    HW117711   6.394   2.585   4.975
 5604SOL    HW217712   6.415   2.553   4.816
 5605SOL     OW17713   0.282   1.440   5.121
 5605SOL    HW117714   0.281   1.428   5.220
 5605SOL    HW217715   0.220   1.514   5.096
 5606SOL     OW17716   4.774   6.583   0.762
 5606SOL    HW117717   4.739   6.548   0.676
 5606SOL    HW217718   4.839   6.657   0.744
 5607SOL     OW17719   5.078   0.908   2.634
 5607SOL    HW117720   5.122   0.942   2.551
 5607SOL    HW217721   5.067   0.808   2.627
 5608SOL     OW17722   5.902   0.284   4.006
 5608SOL    HW117723   5.995   0.323   4.007
 5608SOL    HW217724   5.863   0.288   4.098
 5609SOL     OW17725   3.065   5.809   0.932
 5609SOL    HW117726   2.989   5.746   0.946
 5609SOL    HW217727   3.090   5.810   0.835
 5610SOL     OW17728   3.879   5.974   0.154
 5610SOL    HW117729   3.962   5.920   0.167
 5610SOL    HW217730   3.821   5.930   0.086
 5611SOL     OW17731   1.522   5.966   2.813
 5611SOL    HW117732   1.437   5.951   2.863
 5611SOL    HW217733   1.520   5.918   2.726
 5612SOL     OW17734   3.916   2.181   6.149
 5612SOL    HW117735   3.917   2.219   6.057
 5612SOL    HW217736   3.966   2.242   6.211
 5613SOL     OW17737   6.013   4.291   3.368
 5613SOL    HW117738   5.997   4.261   3.274
 5613SOL    HW217739   6.071   4.225   3.415
 5614SOL     OW17740   4.755   2.110   4.348
 5614SOL    HW117741   4.679   2.170   4.325
 5614SOL    HW217742   4.796   2.139   4.434
 5615SOL     OW17743   0.180   1.732   3.884
 5615SOL    HW117744   0.160   1.825   3.915
 5615SOL    HW217745   0.179   1.730   3.784
 5616SOL     OW17746   2.759   1.695   4.737
 5616SOL    HW117747   2.852   1.659   4.744
 5616SOL    HW217748   2.757   1.770   4.671
 5617SOL     OW17749   2.499   6.607   5.853
 5617SOL    HW117750   2.415   6.552   5.853
 5617SOL    HW217751   2.503   6.662   5.770
 5618SOL     OW17752   0.146   4.495   3.533
 5618SOL    HW117753   0.123   4.411   3.484
 5618SOL    HW217754   0.236   4.527   3.504
 5619SOL     OW17755   3.229   3.694   5.109
 5619SOL    HW117756   3.260   3.746   5.030
 5619SOL    HW217757   3.216   3.599   5.083
 5620SOL     OW17758   3.972   3.557   0.701
 5620SOL    HW117759   3.934   3.640   0.741
 5620SOL    HW217760   4.034   3.513   0.766
 5621SOL     OW17761   2.094   2.309   0.285
 5621SOL    HW117762   2.088   2.338   0.380
 5621SOL    HW217763   2.116   2.211   0.281
 5622SOL     OW17764   4.361   0.195   6.312
 5622SOL    HW117765   4.331   0.110   6.356
 5622SOL    HW217766   4.400   0.174   6.222
 5623SOL     OW17767   3.140   5.267   5.352
 5623SOL    HW117768   3.147   5.360   5.315
 5623SOL    HW217769   3.044   5.240   5.358
 5624SOL     OW17770   1.401   4.120   3.673
 5624SOL    HW117771   1.393   4.190   3.744
 5624SOL    HW217772   1.310   4.088   3.648
 5625SOL     OW17773   5.777   1.017   5.586
 5625SOL    HW117774   5.817   1.091   5.640
 5625SOL    HW217775   5.847   0.979   5.525
 5626SOL     OW17776   2.435   5.837   4.366
 5626SOL    HW117777   2.385   5.923   4.379
 5626SOL    HW217778   2.390   5.764   4.417
 5627SOL     OW17779   0.585   5.674   6.315
 5627SOL    HW117780   0.489   5.693   6.335
 5627SOL    HW217781   0.618   5.737   6.244
 5628SOL     OW17782   1.046   2.226   0.839
 5628SOL    HW117783   0.959   2.185   0.864
 5628SOL    HW217784   1.117   2.198   0.905
 5629SOL     OW17785   3.618   3.719   2.398
 5629SOL    HW117786   3.568   3.682   2.477
 5629SOL    HW217787   3.554   3.766   2.337
 5630SOL     OW17788   1.304   3.453   0.103
 5630SOL    HW117789   1.361   3.495   0.031
 5630SOL    HW217790   1.281   3.521   0.171
 5631SOL     OW17791   4.605   1.906   0.961
 5631SOL    HW117792   4.658   1.903   1.046
 5631SOL    HW217793   4.511   1.932   0.981
 5632SOL     OW17794   3.372   2.377   6.066
 5632SOL    HW117795   3.369   2.439   6.144
 5632SOL    HW217796   3.468   2.355   6.045
 5633SOL     OW17797   6.176   4.177   4.263
 5633SOL    HW117798   6.114   4.255   4.270
 5633SOL    HW217799   6.268   4.209   4.242
 5634SOL     OW17800   1.963   4.495   4.353
 5634SOL    HW117801   1.967   4.584   4.308
 5634SOL    HW217802   2.007   4.500   4.442
 5635SOL     OW17803   1.953   4.439   5.353
 5635SOL    HW117804   1.905   4.351   5.359
 5635SOL    HW217805   2.033   4.437   5.413
 5636SOL     OW17806   4.500   6.464   4.175
 5636SOL    HW117807   4.585   6.412   4.177
 5636SOL    HW217808   4.465   6.466   4.082
 5637SOL     OW17809   5.585   0.292   3.477
 5637SOL    HW117810   5.679   0.262   3.467
 5637SOL    HW217811   5.553   0.330   3.390
 5638SOL     OW17812   6.417   3.518   1.163
 5638SOL    HW117813   6.363   3.586   1.114
 5638SOL    HW217814   6.481   3.564   1.224
 5639SOL     OW17815   0.394   1.115   2.206
 5639SOL    HW117816   0.456   1.042   2.233
 5639SOL    HW217817   0.300   1.083   2.212
 5640SOL     OW17818   3.221   0.093   3.802
 5640SOL    HW117819   3.175   0.027   3.743
 5640SOL    HW217820   3.196   0.076   3.897
 5641SOL     OW17821   1.075   4.769   5.279
 5641SOL    HW117822   1.168   4.767   5.315
 5641SOL    HW217823   1.077   4.747   5.182
 5642SOL     OW17824   1.496   6.648   5.292
 5642SOL    HW117825   1.557   6.725   5.272
 5642SOL    HW217826   1.525   6.568   5.240
 5643SOL     OW17827   4.600   0.896   5.596
 5643SOL    HW117828   4.601   0.993   5.620
 5643SOL    HW217829   4.590   0.841   5.679
 5644SOL     OW17830   3.350   0.302   5.430
 5644SOL    HW117831   3.296   0.366   5.375
 5644SOL    HW217832   3.289   0.252   5.492
 5645SOL     OW17833   6.492   4.733   3.858
 5645SOL    HW117834   6.405   4.777   3.834
 5645SOL    HW217835   6.560   4.757   3.789
 5646SOL     OW17836   1.761   5.391   3.353
 5646SOL    HW117837   1.815   5.466   3.391
 5646SOL    HW217838   1.799   5.304   3.384
 5647SOL     OW17839   4.407   5.861   1.586
 5647SOL    HW117840   4.453   5.899   1.666
 5647SOL    HW217841   4.461   5.786   1.549
 5648SOL     OW17842   2.171   6.128   2.274
 5648SOL    HW117843   2.181   6.075   2.189
 5648SOL    HW217844   2.215   6.216   2.263
 5649SOL     OW17845   0.934   6.839   4.438
 5649SOL    HW117846   1.004   6.902   4.473
 5649SOL    HW217847   0.957   6.746   4.464
 5650SOL     OW17848   0.495   5.288   1.368
 5650SOL    HW117849   0.481   5.284   1.467
 5650SOL    HW217850   0.543   5.372   1.344
 5651SOL     OW17851   1.683   1.151   1.306
 5651SOL    HW117852   1.660   1.055   1.324
 5651SOL    HW217853   1.723   1.158   1.215
 5652SOL     OW17854   6.013   6.613   1.570
 5652SOL    HW117855   6.067   6.676   1.514
 5652SOL    HW217856   5.918   6.645   1.573
 5653SOL     OW17857   6.002   6.628   6.408
 5653SOL    HW117858   5.990   6.547   6.351
 5653SOL    HW217859   6.030   6.705   6.351
 5654SOL     OW17860   0.822   6.356   4.575
 5654SOL    HW117861   0.822   6.296   4.495
 5654SOL    HW217862   0.728   6.376   4.602
 5655SOL     OW17863   0.339   3.033   3.985
 5655SOL    HW117864   0.384   3.112   4.028
 5655SOL    HW217865   0.287   3.064   3.905
 5656SOL     OW17866   7.010   4.193   6.595
 5656SOL    HW117867   0.022   4.104   6.568
 5656SOL    HW217868   0.060   4.261   6.591
 5657SOL     OW17869   6.003   3.570   6.446
 5657SOL    HW117870   6.010   3.477   6.482
 5657SOL    HW217871   6.058   3.631   6.503
 5658SOL     OW17872   2.936   2.980   6.126
 5658SOL    HW117873   2.930   3.080   6.131
 5658SOL    HW217874   2.950   2.944   6.219
 5659SOL     OW17875   3.471   3.276   6.095
 5659SOL    HW117876   3.489   3.367   6.058
 5659SOL    HW217877   3.557   3.233   6.122
 5660SOL     OW17878   4.465   6.893   5.974
 5660SOL    HW117879   4.527   6.831   5.926
 5660SOL    HW217880   4.434   6.964   5.911
 5661SOL     OW17881   2.083   6.040   4.999
 5661SOL    HW117882   2.128   6.119   5.042
 5661SOL    HW217883   2.073   5.967   5.066
 5662SOL     OW17884   3.051   6.820   3.262
 5662SOL    HW117885   2.982   6.805   3.333
 5662SOL    HW217886   3.133   6.767   3.284
 5663SOL     OW17887   2.452   2.575   0.715
 5663SOL    HW117888   2.420   2.591   0.808
 5663SOL    HW217889   2.517   2.499   0.714
 5664SOL     OW17890   6.812   3.421   4.522
 5664SOL    HW117891   6.889   3.365   4.552
 5664SOL    HW217892   6.841   3.481   4.447
 5665SOL     OW17893   1.536   0.926   0.514
 5665SOL    HW117894   1.536   1.016   0.471
 5665SOL    HW217895   1.599   0.866   0.465
 5666SOL     OW17896   6.750   0.132   3.502
 5666SOL    HW117897   6.683   0.198   3.469
 5666SOL    HW217898   6.771   0.067   3.428
 5667SOL     OW17899   1.434   4.906   4.822
 5667SOL    HW117900   1.505   4.858   4.770
 5667SOL    HW217901   1.440   4.880   4.919
 5668SOL     OW17902   5.556   3.247   3.210
 5668SOL    HW117903   5.592   3.212   3.124
 5668SOL    HW217904   5.553   3.347   3.208
 5669SOL     OW17905   6.284   3.710   1.015
 5669SOL    HW117906   6.340   3.791   0.996
 5669SOL    HW217907   6.262   3.664   0.929
 5670SOL     OW17908   1.472   3.561   4.120
 5670SOL    HW117909   1.531   3.638   4.096
 5670SOL    HW217910   1.406   3.590   4.190
 5671SOL     OW17911   6.103   6.315   5.343
 5671SOL    HW117912   6.069   6.280   5.256
 5671SOL    HW217913   6.196   6.282   5.359
 5672SOL     OW17914   4.858   4.018   6.271
 5672SOL    HW117915   4.938   4.019   6.331
 5672SOL    HW217916   4.886   4.047   6.179
 5673SOL     OW17917   1.759   6.636   1.103
 5673SOL    HW117918   1.812   6.613   1.022
 5673SOL    HW217919   1.722   6.728   1.094
 5674SOL     OW17920   1.363   4.757   5.374
 5674SOL    HW117921   1.400   4.839   5.419
 5674SOL    HW217922   1.432   4.685   5.375
 5675SOL     OW17923   4.454   2.937   6.529
 5675SOL    HW117924   4.531   2.978   6.577
 5675SOL    HW217925   4.464   2.954   6.431
 5676SOL     OW17926   2.576   2.040   3.038
 5676SOL    HW117927   2.485   2.062   3.073
 5676SOL    HW217928   2.639   2.114   3.060
 5677SOL     OW17929   1.091   0.819   0.661
 5677SOL    HW117930   1.132   0.898   0.708
 5677SOL    HW217931   1.077   0.745   0.727
 5678SOL     OW17932   3.744   0.083   3.067
 5678SOL    HW117933   3.779   0.114   2.978
 5678SOL    HW217934   3.660   0.030   3.053
 5679SOL     OW17935   5.782   1.103   3.824
 5679SOL    HW117936   5.701   1.052   3.797
 5679SOL    HW217937   5.863   1.044   3.818
 5680SOL     OW17938   1.602   4.913   6.829
 5680SOL    HW117939   1.610   4.828   6.776
 5680SOL    HW217940   1.649   4.987   6.780
 5681SOL     OW17941   0.486   3.964   1.698
 5681SOL    HW117942   0.441   3.886   1.654
 5681SOL    HW217943   0.554   3.931   1.763
 5682SOL     OW17944   1.934   5.165   4.417
 5682SOL    HW117945   1.937   5.151   4.318
 5682SOL    HW217946   1.844   5.201   4.443
 5683SOL     OW17947   3.932   1.624   6.197
 5683SOL    HW117948   4.011   1.685   6.186
 5683SOL    HW217949   3.955   1.551   6.262
 5684SOL     OW17950   2.383   3.873   6.313
 5684SOL    HW117951   2.462   3.817   6.289
 5684SOL    HW217952   2.374   3.948   6.247
 5685SOL     OW17953   2.676   1.255   3.516
 5685SOL    HW117954   2.606   1.207   3.569
 5685SOL    HW217955   2.754   1.276   3.574
 5686SOL     OW17956   2.983   1.474   5.453
 5686SOL    HW117957   2.980   1.465   5.553
 5686SOL    HW217958   3.054   1.540   5.428
 5687SOL     OW17959   0.745   5.309   5.992
 5687SOL    HW117960   0.812   5.379   5.967
 5687SOL    HW217961   0.686   5.344   6.064
 5688SOL     OW17962   1.745   2.194   2.977
 5688SOL    HW117963   1.820   2.130   2.996
 5688SOL    HW217964   1.765   2.282   3.021
 5689SOL     OW17965   2.713   1.290   2.378
 5689SOL    HW117966   2.756   1.359   2.436
 5689SOL    HW217967   2.747   1.199   2.403
 5690SOL     OW17968   1.727   6.088   0.137
 5690SOL    HW117969   1.662   6.013   0.131
 5690SOL    HW217970   1.776   6.083   0.224
 5691SOL     OW17971   3.829   0.670   1.916
 5691SOL    HW117972   3.815   0.750   1.974
 5691SOL    HW217973   3.769   0.675   1.837
 5692SOL     OW17974   5.625   4.496   0.627
 5692SOL    HW117975   5.671   4.407   0.619
 5692SOL    HW217976   5.581   4.503   0.717
 5693SOL     OW17977   4.146   1.309   2.043
 5693SOL    HW117978   4.225   1.257   2.075
 5693SOL    HW217979   4.063   1.267   2.079
 5694SOL     OW17980   1.293   0.671   2.859
 5694SOL    HW117981   1.294   0.754   2.804
 5694SOL    HW217982   1.213   0.616   2.836
 5695SOL     OW17983   1.469   1.669   3.502
 5695SOL    HW117984   1.442   1.668   3.405
 5695SOL    HW217985   1.406   1.611   3.554
 5696SOL     OW17986   0.494   6.815   4.012
 5696SOL    HW117987   0.524   6.792   3.920
 5696SOL    HW217988   0.557   6.881   4.053
 5697SOL     OW17989   6.219   2.338   1.885
 5697SOL    HW117990   6.285   2.306   1.817
 5697SOL    HW217991   6.139   2.277   1.885
 5698SOL     OW17992   0.980   4.458   3.856
 5698SOL    HW117993   0.939   4.530   3.912
 5698SOL    HW217994   1.074   4.484   3.832
 5699SOL     OW17995   1.123   2.275   2.693
 5699SOL    HW117996   1.174   2.195   2.661
 5699SOL    HW217997   1.177   2.324   2.761
 5700SOL     OW17998   6.363   6.812   3.960
 5700SOL    HW117999   6.322   6.835   4.048
 5700SOL    HW218000   6.320   6.730   3.923
 5701SOL     OW18001   0.865   0.088   1.266
 5701SOL    HW118002   0.901   0.044   1.349
 5701SOL    HW218003   0.918   0.058   1.187
 5702SOL     OW18004   2.320   5.625   4.502
 5702SOL    HW118005   2.364   5.543   4.536
 5702SOL    HW218006   2.255   5.659   4.570
 5703SOL     OW18007   6.662   4.361   0.549
 5703SOL    HW118008   6.757   4.333   0.531
 5703SOL    HW218009   6.609   4.282   0.579
 5704SOL     OW18010   5.165   3.981   3.276
 5704SOL    HW118011   5.122   3.938   3.355
 5704SOL    HW218012   5.137   4.077   3.271
 5705SOL     OW18013   4.858   6.196   0.035
 5705SOL    HW118014   4.794   6.210   6.982
 5705SOL    HW218015   4.909   6.111   0.021
 5706SOL     OW18016   5.491   2.551   2.310
 5706SOL    HW118017   5.471   2.501   2.226
 5706SOL    HW218018   5.486   2.649   2.292
 5707SOL     OW18019   5.883   0.071   1.225
 5707SOL    HW118020   5.855   7.008   1.266
 5707SOL    HW218021   5.963   0.056   1.166
 5708SOL     OW18022   5.088   5.954   2.448
 5708SOL    HW118023   5.127   5.958   2.356
 5708SOL    HW218024   5.122   5.872   2.496
 5709SOL     OW18025   0.895   1.380   2.410
 5709SOL    HW118026   0.866   1.472   2.437
 5709SOL    HW218027   0.909   1.323   2.491
 5710SOL     OW18028   3.488   2.340   0.432
 5710SOL    HW118029   3.493   2.253   0.480
 5710SOL    HW218030   3.411   2.340   0.369
 5711SOL     OW18031   5.077   1.412   1.747
 5711SOL    HW118032   5.174   1.424   1.726
 5711SOL    HW218033   5.048   1.482   1.812
 5712SOL     OW18034   6.124   6.969   0.138
 5712SOL    HW118035   6.213   7.003   0.168
 5712SOL    HW218036   6.090   6.902   0.204
 5713SOL     OW18037   2.603   3.941   1.715
 5713SOL    HW118038   2.562   4.030   1.736
 5713SOL    HW218039   2.702   3.951   1.705
 5714SOL     OW18040   6.557   6.376   1.169
 5714SOL    HW118041   6.643   6.421   1.146
 5714SOL    HW218042   6.509   6.352   1.085
 5715SOL     OW18043   0.241   0.154   2.766
 5715SOL    HW118044   0.165   0.135   2.828
 5715SOL    HW218045   0.249   0.078   2.700
 5716SOL     OW18046   1.675   5.530   5.827
 5716SOL    HW118047   1.693   5.619   5.785
 5716SOL    HW218048   1.758   5.474   5.825
 5717SOL     OW18049   1.638   5.248   0.459
 5717SOL    HW118050   1.595   5.203   0.537
 5717SOL    HW218051   1.707   5.313   0.491
 5718SOL     OW18052   1.329   3.756   0.684
 5718SOL    HW118053   1.296   3.822   0.751
 5718SOL    HW218054   1.426   3.739   0.698
 5719SOL     OW18055   2.683   3.799   0.162
 5719SOL    HW118056   2.645   3.802   0.069
 5719SOL    HW218057   2.633   3.862   0.221
 5720SOL     OW18058   1.565   6.494   4.545
 5720SOL    HW118059   1.619   6.578   4.553
 5720SOL    HW218060   1.518   6.492   4.457
 5721SOL     OW18061   5.857   4.183   0.875
 5721SOL    HW118062   5.850   4.087   0.900
 5721SOL    HW218063   5.839   4.193   0.777
 5722SOL     OW18064   6.656   2.394   5.150
 5722SOL    HW118065   6.702   2.307   5.132
 5722SOL    HW218066   6.723   2.468   5.154
 5723SOL     OW18067   3.767   3.593   0.237
 5723SOL    HW118068   3.830   3.549   0.301
 5723SOL    HW218069   3.819   3.649   0.173
 5724SOL     OW18070   5.990   2.938   4.167
 5724SOL    HW118071   5.936   3.018   4.143
 5724SOL    HW218072   5.930   2.865   4.201
 5725SOL     OW18073   5.987   5.378   3.821
 5725SOL    HW118074   5.949   5.467   3.796
 5725SOL    HW218075   5.934   5.306   3.777
 5726SOL     OW18076   0.267   5.621   4.162
 5726SOL    HW118077   0.353   5.587   4.123
 5726SOL    HW218078   0.244   5.569   4.244
 5727SOL     OW18079   5.998   2.733   4.546
 5727SOL    HW118080   6.067   2.763   4.612
 5727SOL    HW218081   6.004   2.633   4.534
 5728SOL     OW18082   5.254   6.589   5.703
 5728SOL    HW118083   5.294   6.658   5.642
 5728SOL    HW218084   5.162   6.566   5.671
 5729SOL     OW18085   1.308   1.103   0.144
 5729SOL    HW118086   1.385   1.043   0.120
 5729SOL    HW218087   1.222   1.052   0.134
 5730SOL     OW18088   5.359   5.003   6.165
 5730SOL    HW118089   5.439   5.062   6.155
 5730SOL    HW218090   5.371   4.941   6.242
 5731SOL     OW18091   6.862   0.405   3.053
 5731SOL    HW118092   6.854   0.321   3.107
 5731SOL    HW218093   6.958   0.423   3.033
 5732SOL     OW18094   0.747   5.947   3.817
 5732SOL    HW118095   0.663   5.938   3.870
 5732SOL    HW218096   0.742   5.889   3.736
 5733SOL     OW18097   3.323   6.639   5.174
 5733SOL    HW118098   3.395   6.582   5.212
 5733SOL    HW218099   3.355   6.679   5.088
 5734SOL     OW18100   1.334   0.391   5.573
 5734SOL    HW118101   1.423   0.347   5.567
 5734SOL    HW218102   1.342   0.486   5.542
 5735SOL     OW18103   4.201   1.635   1.003
 5735SOL    HW118104   4.147   1.562   1.045
 5735SOL    HW218105   4.214   1.709   1.069
 5736SOL     OW18106   6.271   4.118   0.226
 5736SOL    HW118107   6.253   4.041   0.287
 5736SOL    HW218108   6.337   4.180   0.270
 5737SOL     OW18109   5.798   6.599   0.704
 5737SOL    HW118110   5.743   6.534   0.653
 5737SOL    HW218111   5.857   6.550   0.768
 5738SOL     OW18112   2.021   2.558   5.956
 5738SOL    HW118113   2.037   2.636   6.016
 5738SOL    HW218114   2.079   2.566   5.874
 5739SOL     OW18115   1.628   1.192   6.159
 5739SOL    HW118116   1.578   1.117   6.204
 5739SOL    HW218117   1.572   1.275   6.160
 5740SOL     OW18118   4.398   4.561   0.521
 5740SOL    HW118119   4.312   4.525   0.484
 5740SOL    HW218120   4.428   4.504   0.598
 5741SOL     OW18121   0.603   5.337   4.468
 5741SOL    HW118122   0.599   5.333   4.368
 5741SOL    HW218123   0.545   5.411   4.500
 5742SOL     OW18124   5.315   6.192   2.839
 5742SOL    HW118125   5.335   6.269   2.900
 5742SOL    HW218126   5.266   6.122   2.889
 5743SOL     OW18127   2.136   6.285   5.096
 5743SOL    HW118128   2.046   6.303   5.057
 5743SOL    HW218129   2.195   6.365   5.082
 5744SOL     OW18130   4.977   0.177   1.556
 5744SOL    HW118131   5.057   0.235   1.570
 5744SOL    HW218132   4.979   0.101   1.622
 5745SOL     OW18133   3.940   1.121   4.687
 5745SOL    HW118134   3.885   1.116   4.771
 5745SOL    HW218135   3.897   1.183   4.622
 5746SOL     OW18136   4.698   0.778   0.795
 5746SOL    HW118137   4.701   0.793   0.894
 5746SOL    HW218138   4.617   0.724   0.771
 5747SOL     OW18139   0.404   5.021   2.673
 5747SOL    HW118140   0.366   4.931   2.696
 5747SOL    HW218141   0.415   5.028   2.574
 5748SOL     OW18142   1.603   4.869   0.984
 5748SOL    HW118143   1.504   4.858   0.993
 5748SOL    HW218144   1.627   4.966   0.994
 5749SOL     OW18145   2.824   0.594   4.627
 5749SOL    HW118146   2.769   0.631   4.702
 5749SOL    HW218147   2.914   0.567   4.661
 5750SOL     OW18148   5.915   5.173   5.032
 5750SOL    HW118149   5.972   5.135   4.960
 5750SOL    HW218150   5.868   5.100   5.081
 5751SOL     OW18151   2.680   2.356   4.359
 5751SOL    HW118152   2.657   2.438   4.413
 5751SOL    HW218153   2.759   2.310   4.401
 5752SOL     OW18154   6.339   1.081   6.333
 5752SOL    HW118155   6.438   1.078   6.347
 5752SOL    HW218156   6.310   1.176   6.322
 5753SOL     OW18157   3.079   3.710   6.003
 5753SOL    HW118158   3.026   3.724   6.087
 5753SOL    HW218159   3.106   3.799   5.966
 5754SOL     OW18160   5.460   5.771   1.074
 5754SOL    HW118161   5.366   5.737   1.083
 5754SOL    HW218162   5.506   5.766   1.163
 5755SOL     OW18163   3.262   3.251   5.511
 5755SOL    HW118164   3.216   3.215   5.592
 5755SOL    HW218165   3.197   3.303   5.456
 5756SOL     OW18166   6.620   5.341   3.669
 5756SOL    HW118167   6.624   5.377   3.575
 5756SOL    HW218168   6.680   5.261   3.676
 5757SOL     OW18169   6.335   6.225   2.549
 5757SOL    HW118170   6.423   6.260   2.518
 5757SOL    HW218171   6.308   6.270   2.634
 5758SOL     OW18172   3.043   1.930   3.950
 5758SOL    HW118173   3.010   1.936   4.045
 5758SOL    HW218174   2.995   1.856   3.903
 5759SOL     OW18175   4.768   1.823   6.480
 5759SOL    HW118176   4.825   1.885   6.533
 5759SOL    HW218177   4.782   1.729   6.512
 5760SOL     OW18178   1.579   6.191   1.791
 5760SOL    HW118179   1.636   6.268   1.819
 5760SOL    HW218180   1.512   6.222   1.724
 5761SOL     OW18181   5.612   0.881   5.832
 5761SOL    HW118182   5.653   0.883   5.923
 5761SOL    HW218183   5.629   0.968   5.785
 5762SOL     OW18184   4.707   0.005   0.317
 5762SOL    HW118185   4.626   0.004   0.259
 5762SOL    HW218186   4.752   6.939   0.312
 5763SOL     OW18187   0.315   0.006   0.304
 5763SOL    HW118188   0.247   0.052   0.247
 5763SOL    HW218189   0.274   6.947   0.345
 5764SOL     OW18190   5.447   4.800   6.368
 5764SOL    HW118191   5.390   4.833   6.444
 5764SOL    HW218192   5.506   4.727   6.401
 5765SOL     OW18193   6.482   4.385   6.592
 5765SOL    HW118194   6.570   4.356   6.555
 5765SOL    HW218195   6.408   4.349   6.536
 5766SOL     OW18196   2.562   1.312   1.477
 5766SOL    HW118197   2.628   1.354   1.414
 5766SOL    HW218198   2.480   1.369   1.481
 5767SOL     OW18199   2.296   6.836   0.436
 5767SOL    HW118200   2.383   6.882   0.419
 5767SOL    HW218201   2.232   6.858   0.362
 5768SOL     OW18202   0.064   0.006   2.962
 5768SOL    HW118203   0.015   6.942   2.960
 5768SOL    HW218204   0.160   7.014   2.984
 5769SOL     OW18205   2.536   6.899   3.588
 5769SOL    HW118206   2.445   6.934   3.564
 5769SOL    HW218207   2.550   6.810   3.543
 5770SOL     OW18208   6.706   6.941   1.072
 5770SOL    HW118209   6.793   6.987   1.056
 5770SOL    HW218210   6.634   6.987   1.020
 5771SOL     OW18211   1.405   6.525   1.625
 5771SOL    HW118212   1.390   6.441   1.574
 5771SOL    HW218213   1.361   6.602   1.578
 5772SOL     OW18214   6.269   3.201   0.655
 5772SOL    HW118215   6.366   3.201   0.633
 5772SOL    HW218216   6.232   3.109   0.641
 5773SOL     OW18217   5.979   0.096   3.805
 5773SOL    HW118218   6.033   0.034   3.862
 5773SOL    HW218219   5.943   0.170   3.861
 5774SOL     OW18220   2.443   4.866   3.503
 5774SOL    HW118221   2.421   4.908   3.591
 5774SOL    HW218222   2.434   4.934   3.431
 5775SOL     OW18223   1.923   0.669   1.200
 5775SOL    HW118224   1.887   0.589   1.248
 5775SOL    HW218225   2.023   0.662   1.196
 5776SOL     OW18226   7.015   0.559   6.172
 5776SOL    HW118227   7.011   0.521   6.264
 5776SOL    HW218228   0.088   0.571   6.145
 5777SOL     OW18229   5.748   1.047   4.133
 5777SOL    HW118230   5.775   0.952   4.146
 5777SOL    HW218231   5.754   1.070   4.036
 5778SOL     OW18232   2.212   0.594   1.984
 5778SOL    HW118233   2.284   0.655   1.952
 5778SOL    HW218234   2.232   0.564   2.077
 5779SOL     OW18235   3.807   0.422   0.759
 5779SOL    HW118236   3.784   0.465   0.846
 5779SOL    HW218237   3.775   0.328   0.758
 5780SOL     OW18238   6.610   5.169   1.780
 5780SOL    HW118239   6.583   5.252   1.732
 5780SOL    HW218240   6.561   5.163   1.867
 5781SOL     OW18241   2.120   4.518   4.809
 5781SOL    HW118242   2.194   4.452   4.791
 5781SOL    HW218243   2.078   4.497   4.897
 5782SOL     OW18244   1.528   1.183   1.741
 5782SOL    HW118245   1.518   1.083   1.739
 5782SOL    HW218246   1.478   1.219   1.819
 5783SOL     OW18247   1.709   1.641   0.881
 5783SOL    HW118248   1.714   1.719   0.818
 5783SOL    HW218249   1.801   1.606   0.897
 5784SOL     OW18250   0.505   6.536   0.268
 5784SOL    HW118251   0.530   6.462   0.205
 5784SOL    HW218252   0.554   6.524   0.355
 5785SOL     OW18253   1.419   1.388   1.005
 5785SOL    HW118254   1.478   1.410   1.083
 5785SOL    HW218255   1.424   1.461   0.937
 5786SOL     OW18256   1.484   3.438   1.420
 5786SOL    HW118257   1.395   3.462   1.458
 5786SOL    HW218258   1.475   3.361   1.357
 5787SOL     OW18259   5.494   2.320   4.157
 5787SOL    HW118260   5.568   2.384   4.137
 5787SOL    HW218261   5.455   2.286   4.071
 5788SOL     OW18262   3.123   0.336   1.060
 5788SOL    HW118263   3.199   0.271   1.057
 5788SOL    HW218264   3.155   0.424   1.095
 5789SOL     OW18265   3.825   2.984   6.520
 5789SOL    HW118266   3.908   3.008   6.470
 5789SOL    HW218267   3.777   2.911   6.470
 5790SOL     OW18268   6.361   6.015   4.956
 5790SOL    HW118269   6.318   6.016   4.865
 5790SOL    HW218270   6.458   6.034   4.947
 5791SOL     OW18271   3.164   1.367   2.249
 5791SOL    HW118272   3.165   1.285   2.193
 5791SOL    HW218273   3.114   1.349   2.334
 5792SOL     OW18274   5.040   3.628   3.185
 5792SOL    HW118275   4.966   3.627   3.117
 5792SOL    HW218276   5.116   3.683   3.150
 5793SOL     OW18277   5.914   2.305   5.624
 5793SOL    HW118278   5.879   2.298   5.531
 5793SOL    HW218279   5.858   2.369   5.676
 5794SOL     OW18280   3.005   6.879   6.131
 5794SOL    HW118281   3.075   6.878   6.060
 5794SOL    HW218282   3.033   6.939   6.206
 5795SOL     OW18283   0.928   5.903   1.920
 5795SOL    HW118284   0.877   5.980   1.881
 5795SOL    HW218285   0.936   5.914   2.019
 5796SOL     OW18286   4.775   1.019   6.155
 5796SOL    HW118287   4.688   1.039   6.110
 5796SOL    HW218288   4.759   1.006   6.253
 5797SOL     OW18289   5.641   1.370   0.359
 5797SOL    HW118290   5.605   1.278   0.366
 5797SOL    HW218291   5.699   1.390   0.438
 5798SOL     OW18292   0.853   3.938   4.695
 5798SOL    HW118293   0.820   3.853   4.736
 5798SOL    HW218294   0.838   4.014   4.759
 5799SOL     OW18295   1.042   6.886   3.294
 5799SOL    HW118296   1.129   6.933   3.310
 5799SOL    HW218297   0.991   6.881   3.380
 5800SOL     OW18298   0.781   6.913   0.717
 5800SOL    HW118299   0.869   6.929   0.673
 5800SOL    HW218300   0.787   6.834   0.778
 5801SOL     OW18301   2.289   2.818   2.667
 5801SOL    HW118302   2.220   2.801   2.737
 5801SOL    HW218303   2.330   2.908   2.682
 5802SOL     OW18304   6.317   2.627   2.878
 5802SOL    HW118305   6.361   2.606   2.790
 5802SOL    HW218306   6.271   2.545   2.912
 5803SOL     OW18307   1.368   4.324   3.855
 5803SOL    HW118308   1.385   4.398   3.789
 5803SOL    HW218309   1.336   4.364   3.941
 5804SOL     OW18310   6.924   6.973   3.772
 5804SOL    HW118311   6.849   0.013   3.752
 5804SOL    HW218312   6.914   6.939   3.866
 5805SOL     OW18313   1.216   3.625   1.109
 5805SOL    HW118314   1.147   3.553   1.118
 5805SOL    HW218315   1.257   3.619   1.018
 5806SOL     OW18316   0.399   3.760   4.276
 5806SOL    HW118317   0.320   3.760   4.338
 5806SOL    HW218318   0.406   3.671   4.231
 5807SOL     OW18319   1.229   6.142   1.165
 5807SOL    HW118320   1.289   6.218   1.189
 5807SOL    HW218321   1.146   6.176   1.120
 5808SOL     OW18322   6.640   6.740   4.019
 5808SOL    HW118323   6.694   6.737   3.935
 5808SOL    HW218324   6.543   6.750   3.996
 5809SOL     OW18325   1.006   2.137   5.926
 5809SOL    HW118326   0.997   2.169   6.021
 5809SOL    HW218327   0.973   2.043   5.920
 5810SOL     OW18328   4.459   6.769   4.894
 5810SOL    HW118329   4.374   6.779   4.843
 5810SOL    HW218330   4.439   6.750   4.990
 5811SOL     OW18331   2.876   2.728   5.648
 5811SOL    HW118332   2.939   2.743   5.723
 5811SOL    HW218333   2.807   2.800   5.647
 5812SOL     OW18334   5.981   3.197   0.374
 5812SOL    HW118335   6.014   3.271   0.316
 5812SOL    HW218336   5.914   3.233   0.440
 5813SOL     OW18337   3.405   6.165   1.455
 5813SOL    HW118338   3.425   6.236   1.388
 5813SOL    HW218339   3.306   6.148   1.458
 5814SOL     OW18340   6.746   1.976   2.234
 5814SOL    HW118341   6.688   1.958   2.155
 5814SOL    HW218342   6.833   1.927   2.224
 5815SOL     OW18343   6.188   1.542   3.957
 5815SOL    HW118344   6.088   1.545   3.955
 5815SOL    HW218345   6.223   1.521   3.865
 5816SOL     OW18346   0.096   5.020   2.225
 5816SOL    HW118347   0.121   5.049   2.133
 5816SOL    HW218348   0.017   5.072   2.256
 5817SOL     OW18349   5.470   3.942   5.423
 5817SOL    HW118350   5.381   3.957   5.465
 5817SOL    HW218351   5.511   4.030   5.399
 5818SOL     OW18352   1.088   6.078   5.280
 5818SOL    HW118353   1.009   6.036   5.323
 5818SOL    HW218354   1.073   6.176   5.270
 5819SOL     OW18355   2.906   5.271   0.014
 5819SOL    HW118356   2.994   5.223   0.014
 5819SOL    HW218357   2.853   5.241   0.094
 5820SOL     OW18358   5.252   5.026   2.319
 5820SOL    HW118359   5.253   4.947   2.257
 5820SOL    HW218360   5.168   5.078   2.305
 5821SOL     OW18361   6.748   1.278   1.303
 5821SOL    HW118362   6.725   1.181   1.317
 5821SOL    HW218363   6.844   1.293   1.323
 5822SOL     OW18364   1.585   1.974   2.973
 5822SOL    HW118365   1.625   2.064   2.993
 5822SOL    HW218366   1.579   1.961   2.874
 5823SOL     OW18367   2.321   6.259   4.566
 5823SOL    HW118368   2.379   6.312   4.627
 5823SOL    HW218369   2.262   6.321   4.514
 5824SOL     OW18370   0.962   0.032   2.377
 5824SOL    HW118371   0.987   0.036   2.281
 5824SOL    HW218372   0.866   0.008   2.386
 5825SOL     OW18373   6.747   6.115   4.624
 5825SOL    HW118374   6.785   6.204   4.648
 5825SOL    HW218375   6.821   6.048   4.615
 5826SOL     OW18376   6.986   0.268   5.318
 5826SOL    HW118377   7.008   0.354   5.272
 5826SOL    HW218378   0.033   0.248   5.387
 5827SOL     OW18379   1.249   3.550   4.937
 5827SOL    HW118380   1.261   3.609   5.017
 5827SOL    HW218381   1.311   3.580   4.864
 5828SOL     OW18382   5.286   6.892   3.967
 5828SOL    HW118383   5.318   6.893   3.873
 5828SOL    HW218384   5.307   6.980   4.010
 5829SOL     OW18385   1.773   0.858   4.736
 5829SOL    HW118386   1.837   0.839   4.662
 5829SOL    HW218387   1.823   0.887   4.817
 5830SOL     OW18388   3.723   5.189   5.326
 5830SOL    HW118389   3.691   5.099   5.297
 5830SOL    HW218390   3.763   5.237   5.248
 5831SOL     OW18391   1.091   1.371   5.336
 5831SOL    HW118392   0.991   1.374   5.341
 5831SOL    HW218393   1.122   1.276   5.341
 5832SOL     OW18394   3.339   4.393   1.381
 5832SOL    HW118395   3.293   4.482   1.383
 5832SOL    HW218396   3.317   4.347   1.295
 5833SOL     OW18397   4.116   3.869   5.425
 5833SOL    HW118398   4.120   3.876   5.525
 5833SOL    HW218399   4.087   3.777   5.399
 5834SOL     OW18400   6.840   4.415   6.506
 5834SOL    HW118401   6.875   4.322   6.516
 5834SOL    HW218402   6.829   4.436   6.409
 5835SOL     OW18403   5.716   0.965   2.546
 5835SOL    HW118404   5.672   0.899   2.607
 5835SOL    HW218405   5.803   0.928   2.514
 5836SOL     OW18406   3.785   6.353   2.653
 5836SOL    HW118407   3.687   6.342   2.633
 5836SOL    HW218408   3.836   6.278   2.612
 5837SOL     OW18409   3.378   4.138   0.562
 5837SOL    HW118410   3.371   4.039   0.551
 5837SOL    HW218411   3.432   4.176   0.487
 5838SOL     OW18412   3.476   1.960   1.376
 5838SOL    HW118413   3.453   1.948   1.472
 5838SOL    HW218414   3.477   2.057   1.353
 5839SOL     OW18415   0.383   2.934   1.645
 5839SOL    HW118416   0.447   3.011   1.636
 5839SOL    HW218417   0.433   2.848   1.630
 5840SOL     OW18418   0.302   3.881   2.219
 5840SOL    HW118419   0.269   3.818   2.290
 5840SOL    HW218420   0.364   3.948   2.259
 5841SOL     OW18421   4.488   0.665   1.811
 5841SOL    HW118422   4.433   0.748   1.815
 5841SOL    HW218423   4.540   0.664   1.725
 5842SOL     OW18424   3.717   1.904   0.212
 5842SOL    HW118425   3.716   1.925   0.310
 5842SOL    HW218426   3.807   1.926   0.175
 5843SOL     OW18427   2.048   3.675   1.243
 5843SOL    HW118428   1.970   3.655   1.184
 5843SOL    HW218429   2.015   3.711   1.330
 5844SOL     OW18430   0.538   6.656   4.876
 5844SOL    HW118431   0.468   6.654   4.947
 5844SOL    HW218432   0.600   6.579   4.888
 5845SOL     OW18433   0.142   6.760   1.765
 5845SOL    HW118434   0.140   6.799   1.857
 5845SOL    HW218435   0.148   6.835   1.698
 5846SOL     OW18436   6.781   3.719   5.434
 5846SOL    HW118437   6.742   3.808   5.460
 5846SOL    HW218438   6.710   3.649   5.441
 5847SOL     OW18439   2.490   2.966   1.647
 5847SOL    HW118440   2.491   2.878   1.599
 5847SOL    HW218441   2.430   2.958   1.727
 5848SOL     OW18442   2.468   5.919   4.080
 5848SOL    HW118443   2.384   5.950   4.034
 5848SOL    HW218444   2.449   5.904   4.177
 5849SOL     OW18445   2.463   6.428   5.299
 5849SOL    HW118446   2.457   6.329   5.281
 5849SOL    HW218447   2.418   6.449   5.386
 5850SOL     OW18448   1.115   2.565   2.037
 5850SOL    HW118449   1.092   2.629   1.963
 5850SOL    HW218450   1.041   2.499   2.047
 5851SOL     OW18451   5.798   3.451   4.368
 5851SOL    HW118452   5.870   3.425   4.432
 5851SOL    HW218453   5.839   3.485   4.283
 5852SOL     OW18454   4.786   5.720   3.450
 5852SOL    HW118455   4.756   5.741   3.543
 5852SOL    HW218456   4.853   5.646   3.452
 5853SOL     OW18457   3.893   4.949   5.078
 5853SOL    HW118458   3.894   4.954   5.178
 5853SOL    HW218459   3.955   5.018   5.041
 5854SOL     OW18460   3.643   4.387   5.642
 5854SOL    HW118461   3.733   4.409   5.679
 5854SOL    HW218462   3.643   4.402   5.543
 5855SOL     OW18463   2.156   2.438   3.769
 5855SOL    HW118464   2.074   2.381   3.764
 5855SOL    HW218465   2.134   2.524   3.816
 5856SOL     OW18466   1.721   6.821   2.583
 5856SOL    HW118467   1.621   6.820   2.584
 5856SOL    HW218468   1.752   6.912   2.553
 5857SOL     OW18469   0.053   3.126   5.472
 5857SOL    HW118470   0.096   3.039   5.496
 5857SOL    HW218471   0.122   3.199   5.478
 5858SOL     OW18472   2.802   1.488   2.561
 5858SOL    HW118473   2.881   1.440   2.598
 5858SOL    HW218474   2.749   1.528   2.636
 5859SOL     OW18475   5.658   6.134   1.641
 5859SOL    HW118476   5.599   6.197   1.692
 5859SOL    HW218477   5.711   6.186   1.574
 5860SOL     OW18478   0.384   4.577   3.426
 5860SOL    HW118479   0.468   4.607   3.471
 5860SOL    HW218480   0.406   4.506   3.359
 5861SOL     OW18481   5.849   0.648   5.302
 5861SOL    HW118482   5.810   0.571   5.352
 5861SOL    HW218483   5.788   0.675   5.228
 5862SOL     OW18484   6.436   5.705   2.040
 5862SOL    HW118485   6.408   5.753   2.124
 5862SOL    HW218486   6.387   5.618   2.034
 5863SOL     OW18487   3.004   1.139   4.541
 5863SOL    HW118488   2.908   1.126   4.568
 5863SOL    HW218489   3.038   1.225   4.579
 5864SOL     OW18490   3.226   3.766   3.183
 5864SOL    HW118491   3.247   3.745   3.279
 5864SOL    HW218492   3.223   3.681   3.130
 5865SOL     OW18493   5.693   1.450   5.694
 5865SOL    HW118494   5.724   1.408   5.609
 5865SOL    HW218495   5.673   1.546   5.679
 5866SOL     OW18496   2.868   3.075   1.229
 5866SOL    HW118497   2.967   3.082   1.241
 5866SOL    HW218498   2.846   3.070   1.131
 5867SOL     OW18499   1.977   2.369   1.552
 5867SOL    HW118500   1.903   2.378   1.487
 5867SOL    HW218501   2.058   2.333   1.506
 5868SOL     OW18502   1.191   1.899   6.020
 5868SOL    HW118503   1.233   1.982   6.056
 5868SOL    HW218504   1.205   1.895   5.921
 5869SOL     OW18505   1.621   4.384   3.257
 5869SOL    HW118506   1.716   4.356   3.242
 5869SOL    HW218507   1.588   4.347   3.344
 5870SOL     OW18508   4.224   4.690   5.563
 5870SOL    HW118509   4.288   4.764   5.541
 5870SOL    HW218510   4.200   4.640   5.480
 5871SOL     OW18511   3.459   3.406   3.239
 5871SOL    HW118512   3.539   3.430   3.294
 5871SOL    HW218513   3.459   3.460   3.154
 5872SOL     OW18514   3.780   5.742   1.529
 5872SOL    HW118515   3.731   5.661   1.497
 5872SOL    HW218516   3.789   5.807   1.454
 5873SOL     OW18517   2.614   5.339   2.079
 5873SOL    HW118518   2.584   5.373   1.990
 5873SOL    HW218519   2.651   5.247   2.068
 5874SOL     OW18520   2.221   4.248   5.209
 5874SOL    HW118521   2.286   4.322   5.195
 5874SOL    HW218522   2.231   4.180   5.137
 5875SOL     OW18523   3.732   2.296   0.007
 5875SOL    HW118524   3.724   2.353   0.089
 5875SOL    HW218525   3.690   2.344   6.953
 5876SOL     OW18526   3.891   3.525   2.278
 5876SOL    HW118527   3.836   3.457   2.230
 5876SOL    HW218528   3.988   3.511   2.256
 5877SOL     OW18529   5.852   6.114   1.094
 5877SOL    HW118530   5.905   6.046   1.043
 5877SOL    HW218531   5.897   6.132   1.182
 5878SOL     OW18532   1.137   6.251   3.655
 5878SOL    HW118533   1.046   6.213   3.642
 5878SOL    HW218534   1.138   6.309   3.737
 5879SOL     OW18535   6.323   3.488   0.214
 5879SOL    HW118536   6.364   3.572   0.251
 5879SOL    HW218537   6.385   3.447   0.147
 5880SOL     OW18538   2.847   5.290   1.078
 5880SOL    HW118539   2.833   5.213   1.140
 5880SOL    HW218540   2.908   5.262   1.004
 5881SOL     OW18541   0.382   5.030   3.573
 5881SOL    HW118542   0.318   5.004   3.501
 5881SOL    HW218543   0.456   4.963   3.577
 5882SOL     OW18544   5.560   0.061   1.116
 5882SOL    HW118545   5.595   0.150   1.146
 5882SOL    HW218546   5.580   0.049   1.019
 5883SOL     OW18547   0.284   2.348   6.565
 5883SOL    HW118548   0.275   2.278   6.494
 5883SOL    HW218549   0.375   2.344   6.605
 5884SOL     OW18550   2.232   1.209   3.373
 5884SOL    HW118551   2.317   1.189   3.422
 5884SOL    HW218552   2.186   1.123   3.350
 5885SOL     OW18553   6.839   6.773   1.601
 5885SOL    HW118554   6.858   6.718   1.681
 5885SOL    HW218555   6.751   6.746   1.561
 5886SOL     OW18556   0.371   2.170   4.904
 5886SOL    HW118557   0.336   2.157   4.811
 5886SOL    HW218558   0.451   2.110   4.918
 5887SOL     OW18559   4.098   1.380   3.263
 5887SOL    HW118560   4.029   1.377   3.335
 5887SOL    HW218561   4.071   1.319   3.188
 5888SOL     OW18562   3.138   6.668   2.850
 5888SOL    HW118563   3.146   6.584   2.797
 5888SOL    HW218564   3.222   6.682   2.902
 5889SOL     OW18565   1.593   0.123   1.299
 5889SOL    HW118566   1.665   0.103   1.366
 5889SOL    HW218567   1.508   0.144   1.347
 5890SOL     OW18568   1.135   0.188   5.442
 5890SOL    HW118569   1.056   0.158   5.496
 5890SOL    HW218570   1.176   0.268   5.486
 5891SOL     OW18571   4.060   3.059   6.394
 5891SOL    HW118572   4.121   3.013   6.459
 5891SOL    HW218573   4.067   3.015   6.305
 5892SOL     OW18574   1.068   6.481   1.314
 5892SOL    HW118575   1.079   6.401   1.373
 5892SOL    HW218576   0.970   6.497   1.298
 5893SOL     OW18577   1.474   3.743   3.527
 5893SOL    HW118578   1.410   3.778   3.596
 5893SOL    HW218579   1.484   3.644   3.539
 5894SOL     OW18580   1.301   5.102   3.143
 5894SOL    HW118581   1.316   5.094   3.044
 5894SOL    HW218582   1.389   5.104   3.190
 5895SOL     OW18583   5.397   2.877   3.962
 5895SOL    HW118584   5.444   2.938   4.026
 5895SOL    HW218585   5.463   2.838   3.898
 5896SOL     OW18586   4.164   1.730   0.019
 5896SOL    HW118587   4.163   1.819   6.996
 5896SOL    HW218588   4.141   1.743   0.116
 5897SOL     OW18589   3.583   0.081   2.158
 5897SOL    HW118590   3.576   0.175   2.125
 5897SOL    HW218591   3.499   0.031   2.134
 5898SOL     OW18592   2.180   0.359   3.188
 5898SOL    HW118593   2.253   0.300   3.224
 5898SOL    HW218594   2.097   0.304   3.175
 5899SOL     OW18595   5.364   0.127   5.592
 5899SOL    HW118596   5.456   0.093   5.610
 5899SOL    HW218597   5.359   0.224   5.614
 5900SOL     OW18598   4.642   5.161   3.946
 5900SOL    HW118599   4.559   5.123   3.906
 5900SOL    HW218600   4.652   5.257   3.917
 5901SOL     OW18601   2.673   0.515   6.569
 5901SOL    HW118602   2.713   0.531   6.479
 5901SOL    HW218603   2.719   0.572   6.637
 5902SOL     OW18604   0.155   2.129   1.036
 5902SOL    HW118605   0.236   2.102   1.087
 5902SOL    HW218606   0.104   2.047   1.009
 5903SOL     OW18607   4.743   4.309   0.508
 5903SOL    HW118608   4.751   4.279   0.603
 5903SOL    HW218609   4.647   4.324   0.485
 5904SOL     OW18610   0.064   3.532   2.266
 5904SOL    HW118611   0.020   3.560   2.351
 5904SOL    HW218612   0.152   3.579   2.257
 5905SOL     OW18613   6.374   5.776   2.931
 5905SOL    HW118614   6.323   5.690   2.925
 5905SOL    HW218615   6.431   5.776   3.013
 5906SOL     OW18616   5.323   1.075   4.568
 5906SOL    HW118617   5.238   1.062   4.516
 5906SOL    HW218618   5.312   1.153   4.630
 5907SOL     OW18619   2.106   5.990   2.016
 5907SOL    HW118620   2.099   5.897   2.051
 5907SOL    HW218621   2.037   6.005   1.946
 5908SOL     OW18622   1.114   2.568   5.375
 5908SOL    HW118623   1.146   2.565   5.470
 5908SOL    HW218624   1.182   2.615   5.318
 5909SOL     OW18625   0.570   5.249   0.905
 5909SOL    HW118626   0.602   5.222   0.995
 5909SOL    HW218627   0.643   5.234   0.838
 5910SOL     OW18628   0.632   3.025   3.513
 5910SOL    HW118629   0.725   2.991   3.529
 5910SOL    HW218630   0.568   2.975   3.571
 5911SOL     OW18631   6.795   5.636   6.525
 5911SOL    HW118632   6.799   5.679   6.435
 5911SOL    HW218633   6.870   5.569   6.533
 5912SOL     OW18634   6.063   1.042   5.203
 5912SOL    HW118635   6.070   1.103   5.282
 5912SOL    HW218636   6.112   1.083   5.126
 5913SOL     OW18637   4.896   3.166   7.002
 5913SOL    HW118638   4.887   3.158   6.903
 5913SOL    HW218639   4.809   3.143   0.022
 5914SOL     OW18640   0.817   6.706   6.644
 5914SOL    HW118641   0.717   6.708   6.645
 5914SOL    HW218642   0.850   6.730   6.553
 5915SOL     OW18643   3.692   6.012   0.361
 5915SOL    HW118644   3.753   6.015   0.282
 5915SOL    HW218645   3.732   6.064   0.436
 5916SOL     OW18646   6.999   6.864   2.665
 5916SOL    HW118647   0.075   6.857   2.655
 5916SOL    HW218648   6.974   6.841   2.759
 5917SOL     OW18649   3.387   3.606   5.383
 5917SOL    HW118650   3.350   3.637   5.296
 5917SOL    HW218651   3.369   3.508   5.394
 5918SOL     OW18652   1.570   5.228   6.424
 5918SOL    HW118653   1.481   5.273   6.425
 5918SOL    HW218654   1.563   5.140   6.470
 5919SOL     OW18655   3.076   3.938   2.643
 5919SOL    HW118656   3.167   3.972   2.664
 5919SOL    HW218657   3.046   3.974   2.555
 5920SOL     OW18658   5.327   0.960   6.558
 5920SOL    HW118659   5.311   0.950   6.657
 5920SOL    HW218660   5.422   0.988   6.543
 5921SOL     OW18661   4.299   5.571   6.093
 5921SOL    HW118662   4.332   5.477   6.084
 5921SOL    HW218663   4.264   5.602   6.005
 5922SOL     OW18664   6.077   3.900   4.291
 5922SOL    HW118665   6.105   3.858   4.377
 5922SOL    HW218666   6.078   4.000   4.301
 5923SOL     OW18667   0.122   0.716   1.686
 5923SOL    HW118668   0.188   0.779   1.727
 5923SOL    HW218669   0.054   0.690   1.754
 5924SOL     OW18670   5.894   6.868   3.178
 5924SOL    HW118671   5.876   6.778   3.218
 5924SOL    HW218672   5.833   6.882   3.100
 5925SOL     OW18673   3.777   5.724   1.824
 5925SOL    HW118674   3.806   5.730   1.728
 5925SOL    HW218675   3.750   5.815   1.856
 5926SOL     OW18676   4.931   4.218   2.483
 5926SOL    HW118677   4.864   4.287   2.510
 5926SOL    HW218678   4.901   4.173   2.399
 5927SOL     OW18679   0.877   4.166   2.029
 5927SOL    HW118680   0.795   4.129   1.985
 5927SOL    HW218681   0.958   4.132   1.982
 5928SOL     OW18682   3.700   0.059   1.836
 5928SOL    HW118683   3.754   0.143   1.837
 5928SOL    HW218684   3.686   0.027   1.930
 5929SOL     OW18685   5.890   1.229   5.745
 5929SOL    HW118686   5.912   1.324   5.723
 5929SOL    HW218687   5.945   1.199   5.823
 5930SOL     OW18688   0.693   2.837   2.663
 5930SOL    HW118689   0.791   2.839   2.683
 5930SOL    HW218690   0.677   2.874   2.571
 5931SOL     OW18691   6.031   5.910   2.375
 5931SOL    HW118692   6.128   5.929   2.389
 5931SOL    HW218693   6.003   5.835   2.434
 5932SOL     OW18694   2.939   0.284   6.702
 5932SOL    HW118695   2.991   0.279   6.787
 5932SOL    HW218696   3.002   0.278   6.624
 5933SOL     OW18697   6.671   4.956   3.915
 5933SOL    HW118698   6.581   4.990   3.942
 5933SOL    HW218699   6.705   5.008   3.837
 5934SOL     OW18700   3.591   2.963   5.548
 5934SOL    HW118701   3.611   2.933   5.641
 5934SOL    HW218702   3.673   2.952   5.491
 5935SOL     OW18703   0.960   5.609   5.656
 5935SOL    HW118704   0.896   5.542   5.619
 5935SOL    HW218705   0.927   5.701   5.637
 5936SOL     OW18706   3.048   3.859   2.088
 5936SOL    HW118707   3.039   3.776   2.143
 5936SOL    HW218708   3.004   3.844   1.999
 5937SOL     OW18709   5.838   2.990   1.945
 5937SOL    HW118710   5.789   2.992   2.032
 5937SOL    HW218711   5.819   3.075   1.894
 5938SOL     OW18712   5.953   6.100   4.788
 5938SOL    HW118713   5.984   6.061   4.875
 5938SOL    HW218714   6.006   6.181   4.767
 5939SOL     OW18715   2.890   6.138   4.619
 5939SOL    HW118716   2.952   6.091   4.556
 5939SOL    HW218717   2.917   6.234   4.627
 5940SOL     OW18718   4.119   5.259   3.928
 5940SOL    HW118719   4.095   5.330   3.862
 5940SOL    HW218720   4.167   5.301   4.005
 5941SOL     OW18721   5.487   2.677   3.373
 5941SOL    HW118722   5.446   2.760   3.337
 5941SOL    HW218723   5.522   2.694   3.465
 5942SOL     OW18724   5.320   3.720   6.535
 5942SOL    HW118725   5.330   3.623   6.555
 5942SOL    HW218726   5.341   3.736   6.438
 5943SOL     OW18727   3.765   3.242   6.556
 5943SOL    HW118728   3.745   3.260   6.653
 5943SOL    HW218729   3.795   3.147   6.545
 5944SOL     OW18730   1.027   2.612   0.165
 5944SOL    HW118731   1.027   2.524   0.118
 5944SOL    HW218732   0.934   2.647   0.171
 5945SOL     OW18733   0.442   5.851   5.375
 5945SOL    HW118734   0.421   5.929   5.317
 5945SOL    HW218735   0.410   5.868   5.468
 5946SOL     OW18736   3.487   4.654   0.029
 5946SOL    HW118737   3.554   4.712   0.075
 5946SOL    HW218738   3.408   4.709   0.002
 5947SOL     OW18739   3.295   3.701   3.474
 5947SOL    HW118740   3.304   3.604   3.498
 5947SOL    HW218741   3.213   3.738   3.517
 5948SOL     OW18742   4.541   4.549   2.347
 5948SOL    HW118743   4.551   4.643   2.314
 5948SOL    HW218744   4.552   4.485   2.271
 5949SOL     OW18745   4.901   4.815   0.993
 5949SOL    HW118746   4.846   4.802   0.911
 5949SOL    HW218747   4.864   4.758   1.067
 5950SOL     OW18748   5.002   2.273   5.502
 5950SOL    HW118749   5.007   2.350   5.439
 5950SOL    HW218750   5.064   2.201   5.471
 5951SOL     OW18751   0.676   5.782   5.188
 5951SOL    HW118752   0.593   5.810   5.237
 5951SOL    HW218753   0.677   5.683   5.179
 5952SOL     OW18754   4.612   5.666   3.674
 5952SOL    HW118755   4.518   5.654   3.641
 5952SOL    HW218756   4.642   5.582   3.719
 5953SOL     OW18757   6.711   4.196   5.273
 5953SOL    HW118758   6.758   4.284   5.283
 5953SOL    HW218759   6.750   4.146   5.196
 5954SOL     OW18760   0.620   5.651   5.566
 5954SOL    HW118761   0.668   5.569   5.536
 5954SOL    HW218762   0.599   5.708   5.486
 5955SOL     OW18763   4.080   4.966   1.778
 5955SOL    HW118764   4.097   4.870   1.756
 5955SOL    HW218765   3.999   4.973   1.837
 5956SOL     OW18766   5.973   1.789   3.724
 5956SOL    HW118767   5.897   1.823   3.668
 5956SOL    HW218768   5.983   1.846   3.805
 5957SOL     OW18769   2.421   1.795   3.786
 5957SOL    HW118770   2.415   1.699   3.814
 5957SOL    HW218771   2.503   1.836   3.825
 5958SOL     OW18772   4.115   0.301   2.912
 5958SOL    HW118773   4.135   0.271   2.819
 5958SOL    HW218774   4.033   0.358   2.912
 5959SOL     OW18775   4.357   2.703   5.874
 5959SOL    HW118776   4.330   2.765   5.800
 5959SOL    HW218777   4.429   2.642   5.841
 5960SOL     OW18778   2.611   6.145   4.309
 5960SOL    HW118779   2.672   6.208   4.259
 5960SOL    HW218780   2.518   6.181   4.307
 5961SOL     OW18781   4.777   1.262   2.639
 5961SOL    HW118782   4.701   1.300   2.586
 5961SOL    HW218783   4.750   1.175   2.679
 5962SOL     OW18784   5.513   5.780   5.875
 5962SOL    HW118785   5.520   5.878   5.892
 5962SOL    HW218786   5.424   5.759   5.834
 5963SOL     OW18787   2.983   3.817   6.485
 5963SOL    HW118788   2.911   3.884   6.501
 5963SOL    HW218789   2.999   3.764   6.569
 5964SOL     OW18790   2.693   6.956   4.533
 5964SOL    HW118791   2.761   6.911   4.475
 5964SOL    HW218792   2.739   7.023   4.592
 5965SOL     OW18793   1.939   0.622   0.286
 5965SOL    HW118794   1.951   0.526   0.313
 5965SOL    HW218795   2.028   0.662   0.264
 5966SOL     OW18796   0.945   6.717   6.103
 5966SOL    HW118797   0.991   6.733   6.016
 5966SOL    HW218798   0.846   6.726   6.092
 5967SOL     OW18799   1.805   0.115   5.586
 5967SOL    HW118800   1.889   0.165   5.563
 5967SOL    HW218801   1.748   0.172   5.645
 5968SOL     OW18802   5.805   2.468   0.325
 5968SOL    HW118803   5.804   2.566   0.345
 5968SOL    HW218804   5.726   2.445   0.268
 5969SOL     OW18805   4.970   0.841   6.574
 5969SOL    HW118806   5.052   0.849   6.517
 5969SOL    HW218807   4.903   0.784   6.527
 5970SOL     OW18808   0.567   4.599   0.935
 5970SOL    HW118809   0.589   4.503   0.920
 5970SOL    HW218810   0.561   4.645   0.846
 5971SOL     OW18811   6.306   0.100   1.484
 5971SOL    HW118812   6.404   0.082   1.476
 5971SOL    HW218813   6.292   0.191   1.524
 5972SOL     OW18814   4.995   6.040   6.377
 5972SOL    HW118815   5.071   6.014   6.436
 5972SOL    HW218816   4.940   6.111   6.423
 5973SOL     OW18817   1.709   2.885   2.886
 5973SOL    HW118818   1.656   2.935   2.955
 5973SOL    HW218819   1.765   2.816   2.932
 5974SOL     OW18820   4.880   0.196   0.424
 5974SOL    HW118821   4.812   0.130   0.394
 5974SOL    HW218822   4.972   0.160   0.404
 5975SOL     OW18823   3.808   6.071   0.659
 5975SOL    HW118824   3.898   6.063   0.701
 5975SOL    HW218825   3.796   6.164   0.625
 5976SOL     OW18826   3.328   2.982   5.427
 5976SOL    HW118827   3.289   3.071   5.449
 5976SOL    HW218828   3.426   2.983   5.444
 5977SOL     OW18829   0.558   5.875   0.612
 5977SOL    HW118830   0.467   5.838   0.633
 5977SOL    HW218831   0.613   5.879   0.696
 5978SOL     OW18832   3.616   5.547   1.415
 5978SOL    HW118833   3.588   5.453   1.431
 5978SOL    HW218834   3.600   5.570   1.319
 5979SOL     OW18835   6.800   0.652   2.102
 5979SOL    HW118836   6.738   0.604   2.040
 5979SOL    HW218837   6.805   0.603   2.189
 5980SOL     OW18838   3.828   3.233   1.719
 5980SOL    HW118839   3.781   3.148   1.743
 5980SOL    HW218840   3.820   3.298   1.794
 5981SOL     OW18841   4.855   1.677   0.083
 5981SOL    HW118842   4.894   1.682   0.175
 5981SOL    HW218843   4.908   1.735   0.021
 5982SOL     OW18844   6.210   2.171   2.846
 5982SOL    HW118845   6.175   2.261   2.873
 5982SOL    HW218846   6.134   2.117   2.809
 5983SOL     OW18847   1.285   1.146   4.115
 5983SOL    HW118848   1.245   1.178   4.201
 5983SOL    HW218849   1.384   1.134   4.127
 5984SOL     OW18850   5.638   6.660   3.316
 5984SOL    HW118851   5.626   6.755   3.287
 5984SOL    HW218852   5.638   6.600   3.236
 5985SOL     OW18853   6.623   2.703   3.628
 5985SOL    HW118854   6.605   2.778   3.565
 5985SOL    HW218855   6.705   2.722   3.681
 5986SOL     OW18856   3.778   3.509   5.575
 5986SOL    HW118857   3.837   3.435   5.543
 5986SOL    HW218858   3.747   3.564   5.497
 5987SOL     OW18859   5.439   0.899   4.934
 5987SOL    HW118860   5.376   0.951   4.992
 5987SOL    HW218861   5.387   0.848   4.866
 5988SOL     OW18862   3.535   0.534   6.809
 5988SOL    HW118863   3.492   0.555   6.721
 5988SOL    HW218864   3.603   0.604   6.830
 5989SOL     OW18865   1.387   5.187   5.695
 5989SOL    HW118866   1.324   5.263   5.678
 5989SOL    HW218867   1.428   5.157   5.609
 5990SOL     OW18868   4.070   4.035   0.215
 5990SOL    HW118869   4.090   3.963   0.281
 5990SOL    HW218870   4.141   4.106   0.220
 5991SOL     OW18871   4.397   6.195   6.892
 5991SOL    HW118872   4.359   6.116   6.843
 5991SOL    HW218873   4.372   6.279   6.844
 5992SOL     OW18874   3.467   6.707   1.828
 5992SOL    HW118875   3.501   6.614   1.822
 5992SOL    HW218876   3.397   6.713   1.899
 5993SOL     OW18877   5.365   4.343   6.450
 5993SOL    HW118878   5.423   4.282   6.396
 5993SOL    HW218879   5.334   4.295   6.532
 5994SOL     OW18880   6.609   2.766   0.913
 5994SOL    HW118881   6.597   2.667   0.926
 5994SOL    HW218882   6.556   2.815   0.983
 5995SOL     OW18883   4.868   2.781   1.930
 5995SOL    HW118884   4.811   2.862   1.944
 5995SOL    HW218885   4.852   2.745   1.838
 5996SOL     OW18886   1.368   5.159   1.848
 5996SOL    HW118887   1.425   5.148   1.766
 5996SOL    HW218888   1.378   5.078   1.905
 5997SOL     OW18889   1.226   6.568   3.425
 5997SOL    HW118890   1.257   6.496   3.487
 5997SOL    HW218891   1.178   6.527   3.348
 5998SOL     OW18892   6.032   0.626   1.991
 5998SOL    HW118893   6.086   0.570   1.929
 5998SOL    HW218894   5.999   0.570   2.067
 5999SOL     OW18895   2.404   3.110   1.004
 5999SOL    HW118896   2.322   3.064   0.969
 5999SOL    HW218897   2.394   3.209   0.993
 6000SOL     OW18898   0.783   6.118   0.534
 6000SOL    HW118899   0.794   6.025   0.501
 6000SOL    HW218900   0.688   6.133   0.563
 6001SOL     OW18901   6.161   5.338   6.823
 6001SOL    HW118902   6.226   5.361   6.751
 6001SOL    HW218903   6.193   5.376   6.910
 6002SOL     OW18904   6.247   6.910   5.688
 6002SOL    HW118905   6.183   6.980   5.655
 6002SOL    HW218906   6.318   6.953   5.743
 6003SOL     OW18907   5.641   2.466   4.490
 6003SOL    HW118908   5.637   2.376   4.532
 6003SOL    HW218909   5.686   2.530   4.552
 6004SOL     OW18910   6.407   2.210   3.681
 6004SOL    HW118911   6.368   2.257   3.761
 6004SOL    HW218912   6.505   2.198   3.694
 6005SOL     OW18913   5.628   4.531   5.110
 6005SOL    HW118914   5.671   4.505   5.196
 6005SOL    HW218915   5.699   4.553   5.043
 6006SOL     OW18916   3.008   0.857   5.099
 6006SOL    HW118917   2.917   0.844   5.140
 6006SOL    HW218918   3.000   0.861   5.000
 6007SOL     OW18919   0.339   3.144   6.268
 6007SOL    HW118920   0.352   3.163   6.365
 6007SOL    HW218921   0.283   3.063   6.256
 6008SOL     OW18922   2.520   4.697   5.378
 6008SOL    HW118923   2.465   4.772   5.342
 6008SOL    HW218924   2.607   4.693   5.330
 6009SOL     OW18925   4.131   6.015   3.070
 6009SOL    HW118926   4.163   6.002   3.164
 6009SOL    HW218927   4.184   6.089   3.027
 6010SOL     OW18928   0.798   4.363   3.397
 6010SOL    HW118929   0.741   4.420   3.338
 6010SOL    HW218930   0.892   4.365   3.363
 6011SOL     OW18931   4.982   3.180   3.053
 6011SOL    HW118932   4.919   3.175   3.130
 6011SOL    HW218933   5.042   3.100   3.055
 6012SOL     OW18934   6.361   0.607   0.113
 6012SOL    HW118935   6.365   0.610   0.213
 6012SOL    HW218936   6.277   0.561   0.084
 6013SOL     OW18937   5.057   1.024   2.972
 6013SOL    HW118938   5.040   1.123   2.963
 6013SOL    HW218939   5.155   1.009   2.983
 6014SOL     OW18940   3.486   4.153   3.676
 6014SOL    HW118941   3.559   4.085   3.681
 6014SOL    HW218942   3.437   4.156   3.764
 6015SOL     OW18943   6.191   3.504   4.357
 6015SOL    HW118944   6.111   3.501   4.418
 6015SOL    HW218945   6.267   3.548   4.405
 6016SOL     OW18946   5.934   1.686   5.802
 6016SOL    HW118947   5.860   1.715   5.863
 6016SOL    HW218948   6.020   1.724   5.834
 6017SOL     OW18949   7.021   4.930   4.999
 6017SOL    HW118950   6.944   4.871   4.973
 6017SOL    HW218951   7.019   4.947   5.097
 6018SOL     OW18952   3.278   1.129   5.162
 6018SOL    HW118953   3.200   1.116   5.223
 6018SOL    HW218954   3.268   1.215   5.112
 6019SOL     OW18955   0.765   3.367   5.606
 6019SOL    HW118956   0.712   3.438   5.560
 6019SOL    HW218957   0.845   3.408   5.650
 6020SOL     OW18958   0.679   5.348   0.424
 6020SOL    HW118959   0.608   5.411   0.455
 6020SOL    HW218960   0.652   5.309   0.336
 6021SOL     OW18961   4.757   0.477   3.244
 6021SOL    HW118962   4.698   0.433   3.311
 6021SOL    HW218963   4.704   0.505   3.164
 6022SOL     OW18964   0.145   1.638   3.380
 6022SOL    HW118965   0.164   1.701   3.304
 6022SOL    HW218966   0.065   1.582   3.357
 6023SOL     OW18967   5.210   0.553   2.072
 6023SOL    HW118968   5.247   0.529   1.982
 6023SOL    HW218969   5.112   0.572   2.063
 6024SOL     OW18970   0.914   4.487   0.957
 6024SOL    HW118971   0.945   4.580   0.978
 6024SOL    HW218972   0.814   4.485   0.960
 6025SOL     OW18973   3.467   1.345   3.069
 6025SOL    HW118974   3.512   1.398   2.997
 6025SOL    HW218975   3.369   1.364   3.068
 6026SOL     OW18976   0.111   5.586   4.867
 6026SOL    HW118977   0.032   5.644   4.888
 6026SOL    HW218978   0.097   5.495   4.906
 6027SOL     OW18979   0.342   3.185   5.781
 6027SOL    HW118980   0.375   3.092   5.761
 6027SOL    HW218981   0.247   3.180   5.812
 6028SOL     OW18982   5.338   4.895   0.991
 6028SOL    HW118983   5.411   4.913   1.058
 6028SOL    HW218984   5.265   4.962   1.003
 6029SOL     OW18985   2.597   6.931   4.081
 6029SOL    HW118986   2.510   6.951   4.035
 6029SOL    HW218987   2.617   6.833   4.073
 6030SOL     OW18988   5.181   3.877   4.432
 6030SOL    HW118989   5.127   3.797   4.405
 6030SOL    HW218990   5.208   3.868   4.528
 6031SOL     OW18991   2.501   5.405   4.530
 6031SOL    HW118992   2.495   5.387   4.629
 6031SOL    HW218993   2.566   5.342   4.489
 6032SOL     OW18994   2.897   4.759   2.919
 6032SOL    HW118995   2.863   4.779   3.011
 6032SOL    HW218996   2.996   4.768   2.917
 6033SOL     OW18997   1.910   3.362   2.759
 6033SOL    HW118998   1.969   3.366   2.678
 6033SOL    HW218999   1.887   3.267   2.779
 6034SOL     OW19000   1.039   0.475   6.388
 6034SOL    HW119001   1.023   0.563   6.432
 6034SOL    HW219002   1.006   0.401   6.448
 6035SOL     OW19003   1.458   0.252   2.373
 6035SOL    HW119004   1.547   0.207   2.380
 6035SOL    HW219005   1.387   0.192   2.411
 6036SOL     OW19006   5.861   4.929   1.369
 6036SOL    HW119007   5.808   4.913   1.452
 6036SOL    HW219008   5.804   4.976   1.301
 6037SOL     OW19009   3.349   6.665   0.564
 6037SOL    HW119010   3.446   6.666   0.590
 6037SOL    HW219011   3.292   6.679   0.645
 6038SOL     OW19012   1.066   2.632   6.805
 6038SOL    HW119013   1.120   2.550   6.827
 6038SOL    HW219014   1.081   2.657   6.709
 6039SOL     OW19015   4.078   3.310   3.377
 6039SOL    HW119016   4.073   3.235   3.442
 6039SOL    HW219017   4.118   3.390   3.422
 6040SOL     OW19018   1.786   1.374   0.505
 6040SOL    HW119019   1.734   1.375   0.591
 6040SOL    HW219020   1.867   1.432   0.515
 6041SOL     OW19021   3.211   2.052   5.181
 6041SOL    HW119022   3.235   2.043   5.277
 6041SOL    HW219023   3.191   2.147   5.160
 6042SOL     OW19024   3.727   6.758   2.969
 6042SOL    HW119025   3.687   6.669   2.992
 6042SOL    HW219026   3.749   6.759   2.871
 6043SOL     OW19027   1.096   0.529   4.407
 6043SOL    HW119028   0.996   0.534   4.401
 6043SOL    HW219029   1.136   0.567   4.324
 6044SOL     OW19030   2.415   2.149   1.753
 6044SOL    HW119031   2.443   2.176   1.845
 6044SOL    HW219032   2.494   2.110   1.705
 6045SOL     OW19033   5.356   3.504   3.782
 6045SOL    HW119034   5.423   3.524   3.853
 6045SOL    HW219035   5.399   3.515   3.692
 6046SOL     OW19036   3.394   2.684   0.480
 6046SOL    HW119037   3.346   2.610   0.527
 6046SOL    HW219038   3.328   2.751   0.446
 6047SOL     OW19039   5.357   2.054   1.399
 6047SOL    HW119040   5.307   2.107   1.331
 6047SOL    HW219041   5.293   2.022   1.470
 6048SOL     OW19042   5.158   5.456   5.134
 6048SOL    HW119043   5.233   5.507   5.092
 6048SOL    HW219044   5.178   5.440   5.230
 6049SOL     OW19045   4.971   4.255   6.130
 6049SOL    HW119046   4.996   4.285   6.221
 6049SOL    HW219047   4.919   4.327   6.084
 6050SOL     OW19048   1.981   5.099   0.896
 6050SOL    HW119049   1.902   5.125   0.952
 6050SOL    HW219050   2.043   5.042   0.950
 6051SOL     OW19051   1.869   6.415   2.613
 6051SOL    HW119052   1.821   6.462   2.540
 6051SOL    HW219053   1.965   6.445   2.615
 6052SOL     OW19054   5.344   1.385   1.664
 6052SOL    HW119055   5.332   1.484   1.661
 6052SOL    HW219056   5.358   1.351   1.571
 6053SOL     OW19057   3.936   0.537   6.109
 6053SOL    HW119058   3.993   0.592   6.048
 6053SOL    HW219059   3.987   0.516   6.193
 6054SOL     OW19060   3.211   4.285   0.790
 6054SOL    HW119061   3.300   4.311   0.827
 6054SOL    HW219062   3.223   4.212   0.723
 6055SOL     OW19063   3.816   5.836   5.978
 6055SOL    HW119064   3.853   5.820   5.886
 6055SOL    HW219065   3.741   5.773   5.995
 6056SOL     OW19066   5.057   3.510   5.183
 6056SOL    HW119067   4.999   3.542   5.109
 6056SOL    HW219068   5.001   3.473   5.257
 6057SOL     OW19069   6.097   0.367   2.431
 6057SOL    HW119070   6.136   0.427   2.361
 6057SOL    HW219071   6.125   0.272   2.413
 6058SOL     OW19072   5.549   4.106   0.288
 6058SOL    HW119073   5.549   4.109   0.388
 6058SOL    HW219074   5.630   4.057   0.257
 6059SOL     OW19075   5.114   4.485   5.622
 6059SOL    HW119076   5.025   4.527   5.643
 6059SOL    HW219077   5.183   4.557   5.612
 6060SOL     OW19078   2.447   3.193   6.783
 6060SOL    HW119079   2.355   3.181   6.820
 6060SOL    HW219080   2.509   3.126   6.824
 6061SOL     OW19081   4.575   3.965   0.794
 6061SOL    HW119082   4.644   3.907   0.836
 6061SOL    HW219083   4.597   3.977   0.697
 6062SOL     OW19084   2.524   1.621   6.913
 6062SOL    HW119085   2.459   1.557   6.873
 6062SOL    HW219086   2.568   1.579   6.993
 6063SOL     OW19087   3.735   3.369   5.807
 6063SOL    HW119088   3.684   3.286   5.784
 6063SOL    HW219089   3.742   3.427   5.725
 6064SOL     OW19090   1.516   1.140   0.976
 6064SOL    HW119091   1.484   1.229   1.009
 6064SOL    HW219092   1.489   1.128   0.880
 6065SOL     OW19093   0.528   5.628   1.581
 6065SOL    HW119094   0.607   5.655   1.635
 6065SOL    HW219095   0.448   5.617   1.641
 6066SOL     OW19096   5.466   1.287   5.769
 6066SOL    HW119097   5.460   1.222   5.693
 6066SOL    HW219098   5.551   1.339   5.763
 6067SOL     OW19099   4.825   0.798   5.494
 6067SOL    HW119100   4.908   0.844   5.525
 6067SOL    HW219101   4.746   0.854   5.516
 6068SOL     OW19102   5.083   2.523   4.691
 6068SOL    HW119103   5.030   2.576   4.758
 6068SOL    HW219104   5.021   2.466   4.637
 6069SOL     OW19105   6.651   3.777   5.156
 6069SOL    HW119106   6.551   3.772   5.160
 6069SOL    HW219107   6.690   3.741   5.240
 6070SOL     OW19108   3.154   3.068   1.167
 6070SOL    HW119109   3.150   2.971   1.145
 6070SOL    HW219110   3.227   3.111   1.113
 6071SOL     OW19111   1.050   5.761   4.343
 6071SOL    HW119112   1.111   5.754   4.422
 6071SOL    HW219113   0.963   5.717   4.365
 6072SOL     OW19114   0.646   0.815   1.812
 6072SOL    HW119115   0.593   0.731   1.806
 6072SOL    HW219116   0.674   0.830   1.907
 6073SOL     OW19117   5.204   2.782   1.042
 6073SOL    HW119118   5.239   2.689   1.052
 6073SOL    HW219119   5.224   2.835   1.124
 6074SOL     OW19120   1.829   6.299   1.909
 6074SOL    HW119121   1.828   6.398   1.899
 6074SOL    HW219122   1.840   6.275   2.005
 6075SOL     OW19123   4.696   6.878   5.002
 6075SOL    HW119124   4.618   6.894   5.062
 6075SOL    HW219125   4.666   6.831   4.920
 6076SOL     OW19126   2.678   5.161   3.445
 6076SOL    HW119127   2.690   5.127   3.538
 6076SOL    HW219128   2.690   5.261   3.445
 6077SOL     OW19129   6.477   6.004   0.925
 6077SOL    HW119130   6.435   5.942   0.859
 6077SOL    HW219131   6.496   5.955   1.010
 6078SOL     OW19132   4.773   4.896   0.367
 6078SOL    HW119133   4.834   4.926   0.294
 6078SOL    HW219134   4.731   4.809   0.341
 6079SOL     OW19135   5.524   4.716   6.675
 6079SOL    HW119136   5.530   4.656   6.755
 6079SOL    HW219137   5.562   4.806   6.699
 6080SOL     OW19138   0.318   5.322   0.990
 6080SOL    HW119139   0.400   5.327   0.932
 6080SOL    HW219140   0.303   5.411   1.033
 6081SOL     OW19141   0.045   2.732   5.359
 6081SOL    HW119142   0.127   2.695   5.315
 6081SOL    HW219143   0.015   2.814   5.310
 6082SOL     OW19144   3.411   6.618   2.619
 6082SOL    HW119145   3.507   6.643   2.608
 6082SOL    HW219146   3.355   6.671   2.555
 6083SOL     OW19147   5.759   5.912   0.649
 6083SOL    HW119148   5.856   5.928   0.630
 6083SOL    HW219149   5.721   5.991   0.697
 6084SOL     OW19150   0.801   6.629   2.211
 6084SOL    HW119151   0.829   6.536   2.187
 6084SOL    HW219152   0.870   6.694   2.179
 6085SOL     OW19153   6.913   5.936   6.791
 6085SOL    HW119154   6.994   5.958   6.737
 6085SOL    HW219155   6.904   6.000   6.866
 6086SOL     OW19156   2.423   1.839   5.926
 6086SOL    HW119157   2.391   1.767   5.864
 6086SOL    HW219158   2.403   1.929   5.886
 6087SOL     OW19159   3.776   5.647   0.978
 6087SOL    HW119160   3.738   5.719   0.921
 6087SOL    HW219161   3.768   5.559   0.931
 6088SOL     OW19162   5.660   6.922   4.649
 6088SOL    HW119163   5.597   6.938   4.725
 6088SOL    HW219164   5.754   6.919   4.683
 6089SOL     OW19165   5.966   2.382   3.145
 6089SOL    HW119166   6.006   2.369   3.236
 6089SOL    HW219167   5.928   2.475   3.139
 6090SOL     OW19168   2.172   4.820   4.457
 6090SOL    HW119169   2.262   4.779   4.468
 6090SOL    HW219170   2.169   4.872   4.371
 6091SOL     OW19171   2.707   1.600   0.361
 6091SOL    HW119172   2.654   1.556   0.434
 6091SOL    HW219173   2.740   1.530   0.298
 6092SOL     OW19174   4.716   1.023   1.830
 6092SOL    HW119175   4.766   1.105   1.801
 6092SOL    HW219176   4.780   0.953   1.860
 6093SOL     OW19177   2.478   2.408   1.678
 6093SOL    HW119178   2.405   2.349   1.710
 6093SOL    HW219179   2.533   2.439   1.755
 6094SOL     OW19180   1.588   6.116   3.249
 6094SOL    HW119181   1.598   6.022   3.214
 6094SOL    HW219182   1.633   6.179   3.187
 6095SOL     OW19183   4.780   4.991   6.888
 6095SOL    HW119184   4.704   4.976   6.952
 6095SOL    HW219185   4.866   4.966   6.933
 6096SOL     OW19186   6.225   6.586   2.429
 6096SOL    HW119187   6.318   6.607   2.400
 6096SOL    HW219188   6.189   6.662   2.482
 6097SOL     OW19189   1.786   5.242   2.501
 6097SOL    HW119190   1.827   5.191   2.576
 6097SOL    HW219191   1.772   5.181   2.423
 6098SOL     OW19192   0.274   1.408   5.871
 6098SOL    HW119193   0.324   1.412   5.957
 6098SOL    HW219194   0.328   1.449   5.798
 6099SOL     OW19195   5.054   5.889   5.355
 6099SOL    HW119196   5.048   5.975   5.405
 6099SOL    HW219197   5.146   5.879   5.316
 6100SOL     OW19198   6.891   6.228   2.514
 6100SOL    HW119199   6.834   6.285   2.573
 6100SOL    HW219200   6.832   6.175   2.453
 6101SOL     OW19201   6.915   2.897   2.700
 6101SOL    HW119202   6.896   2.839   2.621
 6101SOL    HW219203   6.829   2.938   2.732
 6102SOL     OW19204   4.239   5.113   2.819
 6102SOL    HW119205   4.277   5.029   2.858
 6102SOL    HW219206   4.235   5.184   2.890
 6103SOL     OW19207   6.538   0.650   1.138
 6103SOL    HW119208   6.579   0.710   1.069
 6103SOL    HW219209   6.441   0.635   1.115
 6104SOL     OW19210   5.870   6.785   5.091
 6104SOL    HW119211   5.772   6.789   5.071
 6104SOL    HW219212   5.909   6.877   5.086
 6105SOL     OW19213   1.710   5.312   6.189
 6105SOL    HW119214   1.691   5.288   6.284
 6105SOL    HW219215   1.726   5.411   6.183
 6106SOL     OW19216   1.265   4.769   6.924
 6106SOL    HW119217   1.204   4.699   6.888
 6106SOL    HW219218   1.353   4.728   6.949
 6107SOL     OW19219   4.888   5.494   5.099
 6107SOL    HW119220   4.841   5.568   5.147
 6107SOL    HW219221   4.986   5.503   5.111
 6108SOL     OW19222   2.366   2.393   3.608
 6108SOL    HW119223   2.334   2.358   3.520
 6108SOL    HW219224   2.287   2.413   3.666
 6109SOL     OW19225   5.489   1.153   5.539
 6109SOL    HW119226   5.583   1.124   5.521
 6109SOL    HW219227   5.427   1.103   5.479
 6110SOL     OW19228   2.693   3.003   0.726
 6110SOL    HW119229   2.739   2.995   0.638
 6110SOL    HW219230   2.729   2.934   0.789
 6111SOL     OW19231   1.113   3.217   2.441
 6111SOL    HW119232   1.017   3.213   2.413
 6111SOL    HW219233   1.125   3.286   2.512
 6112SOL     OW19234   4.218   0.769   2.698
 6112SOL    HW119235   4.155   0.843   2.725
 6112SOL    HW219236   4.224   0.702   2.772
 6113SOL     OW19237   2.354   2.701   6.796
 6113SOL    HW119238   2.448   2.683   6.767
 6113SOL    HW219239   2.341   2.669   6.890
 6114SOL     OW19240   4.872   3.727   2.737
 6114SOL    HW119241   4.872   3.648   2.676
 6114SOL    HW219242   4.857   3.810   2.683
 6115SOL     OW19243   6.379   1.003   4.477
 6115SOL    HW119244   6.301   0.947   4.506
 6115SOL    HW219245   6.412   1.056   4.554
 6116SOL     OW19246   3.765   1.474   6.048
 6116SOL    HW119247   3.829   1.539   6.090
 6116SOL    HW219248   3.816   1.394   6.015
 6117SOL     OW19249   1.889   2.016   3.308
 6117SOL    HW119250   1.866   1.956   3.232
 6117SOL    HW219251   1.967   2.073   3.283
 6118SOL     OW19252   5.928   1.240   1.303
 6118SOL    HW119253   5.944   1.330   1.264
 6118SOL    HW219254   5.880   1.249   1.390
 6119SOL     OW19255   1.635   4.002   0.397
 6119SOL    HW119256   1.547   4.002   0.446
 6119SOL    HW219257   1.655   4.094   0.365
 6120SOL     OW19258   1.780   6.224   5.630
 6120SOL    HW119259   1.747   6.289   5.561
 6120SOL    HW219260   1.864   6.258   5.671
 6121SOL     OW19261   1.321   3.726   5.440
 6121SOL    HW119262   1.398   3.788   5.445
 6121SOL    HW219263   1.334   3.650   5.505
 6122SOL     OW19264   4.508   5.562   6.636
 6122SOL    HW119265   4.478   5.529   6.547
 6122SOL    HW219266   4.526   5.484   6.696
 6123SOL     OW19267   4.711   6.741   5.968
 6123SOL    HW119268   4.782   6.809   5.985
 6123SOL    HW219269   4.683   6.699   6.054
 6124SOL     OW19270   0.772   6.819   5.876
 6124SOL    HW119271   0.809   6.891   5.817
 6124SOL    HW219272   0.812   6.731   5.851
 6125SOL     OW19273   2.416   4.285   0.344
 6125SOL    HW119274   2.501   4.336   0.357
 6125SOL    HW219275   2.422   4.232   0.259
 6126SOL     OW19276   6.984   1.070   5.091
 6126SOL    HW119277   0.010   1.080   5.177
 6126SOL    HW219278   6.960   0.974   5.077
 6127SOL     OW19279   4.029   0.074   1.978
 6127SOL    HW119280   4.101   0.005   1.967
 6127SOL    HW219281   3.963   0.043   2.047
 6128SOL     OW19282   5.474   5.645   0.804
 6128SOL    HW119283   5.390   5.590   0.804
 6128SOL    HW219284   5.480   5.697   0.889
 6129SOL     OW19285   0.736   3.316   2.584
 6129SOL    HW119286   0.809   3.315   2.652
 6129SOL    HW219287   0.726   3.409   2.548
 6130SOL     OW19288   5.189   2.662   2.750
 6130SOL    HW119289   5.115   2.629   2.692
 6130SOL    HW219290   5.181   2.761   2.762
 6131SOL     OW19291   0.597   1.778   3.101
 6131SOL    HW119292   0.594   1.868   3.144
 6131SOL    HW219293   0.567   1.709   3.167
 6132SOL     OW19294   3.699   2.199   6.738
 6132SOL    HW119295   3.637   2.185   6.661
 6132SOL    HW219296   3.681   2.288   6.780
 6133SOL     OW19297   2.125   3.192   3.195
 6133SOL    HW119298   2.132   3.235   3.105
 6133SOL    HW219299   2.063   3.245   3.253
 6134SOL     OW19300   4.447   6.510   6.982
 6134SOL    HW119301   4.398   6.428   6.951
 6134SOL    HW219302   4.422   6.530   0.053
 6135SOL     OW19303   0.455   5.681   1.324
 6135SOL    HW119304   0.476   5.770   1.284
 6135SOL    HW219305   0.503   5.672   1.412
 6136SOL     OW19306   1.196   2.699   1.543
 6136SOL    HW119307   1.122   2.666   1.601
 6136SOL    HW219308   1.177   2.793   1.514
 6137SOL     OW19309   0.226   4.127   2.656
 6137SOL    HW119310   0.208   4.198   2.588
 6137SOL    HW219311   0.315   4.144   2.699
 6138SOL     OW19312   3.485   0.074   3.772
 6138SOL    HW119313   3.502   0.034   3.682
 6138SOL    HW219314   3.387   0.077   3.790
 6139SOL     OW19315   1.117   6.857   5.585
 6139SOL    HW119316   1.139   6.868   5.488
 6139SOL    HW219317   1.148   6.767   5.615
 6140SOL     OW19318   0.556   0.563   2.330
 6140SOL    HW119319   0.576   0.505   2.409
 6140SOL    HW219320   0.497   0.512   2.266
 6141SOL     OW19321   0.178   0.063   6.623
 6141SOL    HW119322   0.144   7.017   6.560
 6141SOL    HW219323   0.101   0.114   6.661
 6142SOL     OW19324   0.312   5.430   6.340
 6142SOL    HW119325   0.317   5.348   6.283
 6142SOL    HW219326   0.374   5.420   6.418
 6143SOL     OW19327   6.938   4.262   0.798
 6143SOL    HW119328   6.953   4.258   0.896
 6143SOL    HW219329   7.023   4.243   0.749
 6144SOL     OW19330   5.383   5.065   3.972
 6144SOL    HW119331   5.305   5.118   4.004
 6144SOL    HW219332   5.414   5.102   3.884
 6145SOL     OW19333   5.293   4.843   4.071
 6145SOL    HW119334   5.324   4.782   3.998
 6145SOL    HW219335   5.319   4.937   4.049
 6146SOL     OW19336   3.285   6.001   3.454
 6146SOL    HW119337   3.316   5.923   3.401
 6146SOL    HW219338   3.346   6.015   3.533
 6147SOL     OW19339   1.929   2.480   5.153
 6147SOL    HW119340   1.946   2.381   5.149
 6147SOL    HW219341   1.951   2.514   5.244
 6148SOL     OW19342   4.079   5.912   5.503
 6148SOL    HW119343   4.007   5.857   5.461
 6148SOL    HW219344   4.114   5.864   5.584
 6149SOL     OW19345   2.800   6.713   1.600
 6149SOL    HW119346   2.717   6.663   1.624
 6149SOL    HW219347   2.794   6.745   1.505
 6150SOL     OW19348   5.962   4.191   6.662
 6150SOL    HW119349   5.897   4.267   6.666
 6150SOL    HW219350   5.912   4.104   6.664
 6151SOL     OW19351   6.180   4.865   5.575
 6151SOL    HW119352   6.120   4.906   5.644
 6151SOL    HW219353   6.274   4.897   5.590
 6152SOL     OW19354   0.682   5.665   4.826
 6152SOL    HW119355   0.591   5.651   4.865
 6152SOL    HW219356   0.744   5.595   4.861
 6153SOL     OW19357   5.901   5.165   1.127
 6153SOL    HW119358   5.975   5.191   1.189
 6153SOL    HW219359   5.939   5.124   1.045
 6154SOL     OW19360   5.722   3.131   2.369
 6154SOL    HW119361   5.668   3.210   2.339
 6154SOL    HW219362   5.808   3.163   2.409
 6155SOL     OW19363   3.142   1.109   2.749
 6155SOL    HW119364   3.094   1.040   2.696
 6155SOL    HW219365   3.201   1.064   2.817
 6156SOL     OW19366   4.450   4.884   1.539
 6156SOL    HW119367   4.506   4.933   1.473
 6156SOL    HW219368   4.366   4.852   1.495
 6157SOL     OW19369   0.768   2.358   2.942
 6157SOL    HW119370   0.779   2.260   2.962
 6157SOL    HW219371   0.853   2.406   2.962
 6158SOL     OW19372   4.065   2.557   6.800
 6158SOL    HW119373   4.053   2.493   6.875
 6158SOL    HW219374   4.125   2.632   6.830
 6159SOL     OW19375   4.194   2.730   0.419
 6159SOL    HW119376   4.256   2.725   0.341
 6159SOL    HW219377   4.119   2.665   0.406
 6160SOL     OW19378   5.925   0.304   6.511
 6160SOL    HW119379   5.962   0.225   6.462
 6160SOL    HW219380   5.825   0.300   6.507
 6161SOL     OW19381   5.644   1.555   0.153
 6161SOL    HW119382   5.646   1.474   0.211
 6161SOL    HW219383   5.719   1.616   0.178
 6162SOL     OW19384   5.919   6.357   3.863
 6162SOL    HW119385   5.973   6.421   3.918
 6162SOL    HW219386   5.944   6.263   3.888
 6163SOL     OW19387   5.303   6.064   2.212
 6163SOL    HW119388   5.379   6.014   2.253
 6163SOL    HW219389   5.294   6.154   2.255
 6164SOL     OW19390   3.425   4.160   4.452
 6164SOL    HW119391   3.332   4.192   4.470
 6164SOL    HW219392   3.486   4.190   4.526
 6165SOL     OW19393   4.544   1.609   6.107
 6165SOL    HW119394   4.540   1.540   6.179
 6165SOL    HW219395   4.612   1.678   6.130
 6166SOL     OW19396   5.875   1.546   0.584
 6166SOL    HW119397   5.954   1.603   0.564
 6166SOL    HW219398   5.822   1.586   0.659
 6167SOL     OW19399   1.044   4.685   2.900
 6167SOL    HW119400   1.044   4.675   2.999
 6167SOL    HW219401   0.954   4.717   2.870
 6168SOL     OW19402   0.334   3.287   3.675
 6168SOL    HW119403   0.415   3.293   3.617
 6168SOL    HW219404   0.285   3.374   3.674
 6169SOL     OW19405   1.309   2.036   0.306
 6169SOL    HW119406   1.309   2.133   0.283
 6169SOL    HW219407   1.222   2.012   0.349
 6170SOL     OW19408   3.332   4.217   5.541
 6170SOL    HW119409   3.394   4.255   5.610
 6170SOL    HW219410   3.244   4.265   5.545
 6171SOL     OW19411   1.638   3.540   1.657
 6171SOL    HW119412   1.738   3.542   1.657
 6171SOL    HW219413   1.606   3.491   1.575
 6172SOL     OW19414   1.169   1.086   3.709
 6172SOL    HW119415   1.132   1.142   3.783
 6172SOL    HW219416   1.156   0.990   3.730
 6173SOL     OW19417   6.690   4.905   2.408
 6173SOL    HW119418   6.634   4.869   2.334
 6173SOL    HW219419   6.638   4.975   2.458
 6174SOL     OW19420   6.184   5.185   2.723
 6174SOL    HW119421   6.089   5.190   2.755
 6174SOL    HW219422   6.209   5.090   2.708
 6175SOL     OW19423   5.268   0.325   3.625
 6175SOL    HW119424   5.190   0.386   3.610
 6175SOL    HW219425   5.336   0.338   3.553
 6176SOL     OW19426   6.521   2.465   0.206
 6176SOL    HW119427   6.424   2.456   0.186
 6176SOL    HW219428   6.552   2.558   0.185
 6177SOL     OW19429   6.212   1.938   1.293
 6177SOL    HW119430   6.122   1.947   1.251
 6177SOL    HW219431   6.225   2.010   1.361
 6178SOL     OW19432   4.616   5.095   2.431
 6178SOL    HW119433   4.543   5.026   2.434
 6178SOL    HW219434   4.665   5.097   2.517
 6179SOL     OW19435   6.454   5.027   4.462
 6179SOL    HW119436   6.531   5.089   4.479
 6179SOL    HW219437   6.422   4.988   4.549
 6180SOL     OW19438   3.374   6.126   6.360
 6180SOL    HW119439   3.394   6.167   6.450
 6180SOL    HW219440   3.454   6.077   6.327
 6181SOL     OW19441   4.152   6.720   1.313
 6181SOL    HW119442   4.207   6.780   1.257
 6181SOL    HW219443   4.189   6.718   1.406
 6182SOL     OW19444   5.624   3.708   5.603
 6182SOL    HW119445   5.579   3.784   5.556
 6182SOL    HW219446   5.593   3.621   5.565
 6183SOL     OW19447   3.086   0.037   2.787
 6183SOL    HW119448   3.046   0.126   2.808
 6183SOL    HW219449   3.050   6.992   2.851
 6184SOL     OW19450   1.123   6.731   6.568
 6184SOL    HW119451   1.143   6.727   6.666
 6184SOL    HW219452   1.024   6.721   6.553
 6185SOL     OW19453   0.517   4.620   6.332
 6185SOL    HW119454   0.568   4.578   6.407
 6185SOL    HW219455   0.467   4.699   6.366
 6186SOL     OW19456   5.897   0.196   5.188
 6186SOL    HW119457   5.924   0.285   5.152
 6186SOL    HW219458   5.859   0.207   5.280
 6187SOL     OW19459   4.637   4.520   4.216
 6187SOL    HW119460   4.706   4.585   4.251
 6187SOL    HW219461   4.568   4.503   4.286
 6188SOL     OW19462   2.276   0.097   0.558
 6188SOL    HW119463   2.303   0.075   0.464
 6188SOL    HW219464   2.285   0.015   0.615
 6189SOL     OW19465   4.832   4.049   3.902
 6189SOL    HW119466   4.821   3.995   3.819
 6189SOL    HW219467   4.889   4.129   3.883
 6190SOL     OW19468   6.589   3.665   6.236
 6190SOL    HW119469   6.542   3.634   6.319
 6190SOL    HW219470   6.634   3.587   6.193
 6191SOL     OW19471   4.174   2.966   0.020
 6191SOL    HW119472   4.233   2.893   0.055
 6191SOL    HW219473   4.220   3.010   6.966
 6192SOL     OW19474   3.113   3.331   6.534
 6192SOL    HW119475   3.098   3.401   6.603
 6192SOL    HW219476   3.071   3.358   6.448
 6193SOL     OW19477   4.985   0.646   2.649
 6193SOL    HW119478   4.956   0.659   2.555
 6193SOL    HW219479   4.983   0.548   2.671
 6194SOL     OW19480   0.915   6.945   0.401
 6194SOL    HW119481   0.852   6.867   0.398
 6194SOL    HW219482   0.920   6.987   0.310
 6195SOL     OW19483   3.873   5.781   5.710
 6195SOL    HW119484   3.885   5.732   5.624
 6195SOL    HW219485   3.832   5.870   5.692
 6196SOL     OW19486   5.966   2.177   1.441
 6196SOL    HW119487   5.893   2.189   1.507
 6196SOL    HW219488   5.951   2.239   1.363
 6197SOL     OW19489   4.484   4.262   0.401
 6197SOL    HW119490   4.393   4.303   0.394
 6197SOL    HW219491   4.492   4.187   0.334
 6198SOL     OW19492   3.080   5.269   2.198
 6198SOL    HW119493   3.131   5.205   2.256
 6198SOL    HW219494   3.142   5.340   2.164
 6199SOL     OW19495   0.995   0.041   1.024
 6199SOL    HW119496   0.928   0.104   0.984
 6199SOL    HW219497   0.991   6.977   0.975
 6200SOL     OW19498   2.069   0.913   5.321
 6200SOL    HW119499   2.025   0.997   5.352
 6200SOL    HW219500   2.061   0.906   5.221
 6201SOL     OW19501   1.946   3.945   4.998
 6201SOL    HW119502   1.881   3.881   4.957
 6201SOL    HW219503   1.916   3.968   5.090
 6202SOL     OW19504   4.070   1.793   1.781
 6202SOL    HW119505   4.100   1.726   1.850
 6202SOL    HW219506   3.994   1.756   1.729
 6203SOL     OW19507   5.687   6.494   3.021
 6203SOL    HW119508   5.708   6.421   2.956
 6203SOL    HW219509   5.770   6.521   3.070
 6204SOL     OW19510   0.713   5.087   4.978
 6204SOL    HW119511   0.651   5.164   4.967
 6204SOL    HW219512   0.771   5.102   5.059
 6205SOL     OW19513   5.926   6.589   6.986
 6205SOL    HW119514   5.979   6.578   0.047
 6205SOL    HW219515   5.918   6.686   6.964
 6206SOL     OW19516   6.687   0.648   2.945
 6206SOL    HW119517   6.661   0.556   2.917
 6206SOL    HW219518   6.609   0.693   2.989
 6207SOL     OW19519   1.664   4.457   4.388
 6207SOL    HW119520   1.747   4.430   4.339
 6207SOL    HW219521   1.687   4.473   4.485
 6208SOL     OW19522   5.842   1.726   6.203
 6208SOL    HW119523   5.894   1.802   6.163
 6208SOL    HW219524   5.876   1.707   6.295
 6209SOL     OW19525   4.786   5.580   0.073
 6209SOL    HW119526   4.818   5.668   0.109
 6209SOL    HW219527   4.788   5.583   6.996
 6210SOL     OW19528   5.906   4.426   3.846
 6210SOL    HW119529   5.960   4.346   3.872
 6210SOL    HW219530   5.911   4.494   3.920
 6211SOL     OW19531   3.093   6.302   4.933
 6211SOL    HW119532   3.062   6.384   4.886
 6211SOL    HW219533   3.044   6.293   5.020
 6212SOL     OW19534   2.421   5.049   2.717
 6212SOL    HW119535   2.490   4.987   2.754
 6212SOL    HW219536   2.414   5.036   2.618
 6213SOL     OW19537   5.148   0.571   6.985
 6213SOL    HW119538   5.048   0.581   6.983
 6213SOL    HW219539   5.184   0.622   0.040
 6214SOL     OW19540   4.387   5.105   3.846
 6214SOL    HW119541   4.394   5.005   3.837
 6214SOL    HW219542   4.293   5.130   3.867
 6215SOL     OW19543   4.057   2.157   0.702
 6215SOL    HW119544   4.058   2.072   0.755
 6215SOL    HW219545   4.123   2.150   0.627
 6216SOL     OW19546   6.399   2.183   2.474
 6216SOL    HW119547   6.301   2.165   2.480
 6216SOL    HW219548   6.438   2.188   2.566
 6217SOL     OW19549   0.317   3.067   2.977
 6217SOL    HW119550   0.415   3.065   2.955
 6217SOL    HW219551   0.268   3.007   2.913
 6218SOL     OW19552   3.361   4.906   5.561
 6218SOL    HW119553   3.334   4.935   5.469
 6218SOL    HW219554   3.327   4.971   5.628
 6219SOL     OW19555   1.034   1.873   4.040
 6219SOL    HW119556   1.036   1.950   4.102
 6219SOL    HW219557   0.957   1.882   3.977
 6220SOL     OW19558   1.496   3.070   5.347
 6220SOL    HW119559   1.541   3.144   5.297
 6220SOL    HW219560   1.565   3.014   5.393
 6221SOL     OW19561   6.191   5.718   6.596
 6221SOL    HW119562   6.247   5.800   6.602
 6221SOL    HW219563   6.096   5.743   6.577
 6222SOL     OW19564   1.426   6.341   1.238
 6222SOL    HW119565   1.392   6.435   1.235
 6222SOL    HW219566   1.515   6.336   1.193
 6223SOL     OW19567   0.229   4.325   4.701
 6223SOL    HW119568   0.297   4.363   4.639
 6223SOL    HW219569   0.187   4.244   4.659
 6224SOL     OW19570   2.539   1.977   6.115
 6224SOL    HW119571   2.614   1.932   6.164
 6224SOL    HW219572   2.514   1.923   6.034
 6225SOL     OW19573   3.544   3.506   1.023
 6225SOL    HW119574   3.518   3.424   1.074
 6225SOL    HW219575   3.621   3.484   0.962
 6226SOL     OW19576   6.019   1.484   5.647
 6226SOL    HW119577   6.068   1.530   5.573
 6226SOL    HW219578   5.983   1.551   5.711
 6227SOL     OW19579   3.719   5.422   6.080
 6227SOL    HW119580   3.707   5.371   5.995
 6227SOL    HW219581   3.813   5.409   6.113
 6228SOL     OW19582   1.284   2.431   2.856
 6228SOL    HW119583   1.247   2.501   2.917
 6228SOL    HW219584   1.365   2.390   2.898
 6229SOL     OW19585   0.568   2.696   2.329
 6229SOL    HW119586   0.657   2.720   2.368
 6229SOL    HW219587   0.552   2.598   2.340
 6230SOL     OW19588   0.981   1.370   4.134
 6230SOL    HW119589   0.894   1.416   4.113
 6230SOL    HW219590   1.042   1.433   4.180
 6231SOL     OW19591   6.775   5.015   1.347
 6231SOL    HW119592   6.796   4.961   1.429
 6231SOL    HW219593   6.717   5.092   1.372
 6232SOL     OW19594   6.355   1.682   1.086
 6232SOL    HW119595   6.343   1.591   1.124
 6232SOL    HW219596   6.271   1.712   1.042
 6233SOL     OW19597   6.249   0.950   0.154
 6233SOL    HW119598   6.326   0.903   0.111
 6233SOL    HW219599   6.263   1.049   0.148
 6234SOL     OW19600   6.464   1.744   5.682
 6234SOL    HW119601   6.435   1.824   5.628
 6234SOL    HW219602   6.517   1.774   5.761
 6235SOL     OW19603   1.245   0.626   1.478
 6235SOL    HW119604   1.304   0.668   1.546
 6235SOL    HW219605   1.178   0.692   1.445
 6236SOL     OW19606   0.384   4.180   0.423
 6236SOL    HW119607   0.345   4.265   0.457
 6236SOL    HW219608   0.453   4.200   0.352
 6237SOL     OW19609   3.416   6.134   6.663
 6237SOL    HW119610   3.378   6.052   6.706
 6237SOL    HW219611   3.387   6.215   6.714
 6238SOL     OW19612   3.974   4.837   3.201
 6238SOL    HW119613   4.001   4.796   3.288
 6238SOL    HW219614   4.029   4.918   3.183
 6239SOL     OW19615   3.402   6.077   1.891
 6239SOL    HW119616   3.333   6.011   1.919
 6239SOL    HW219617   3.486   6.062   1.944
 6240SOL     OW19618   2.662   3.257   6.371
 6240SOL    HW119619   2.696   3.261   6.465
 6240SOL    HW219620   2.593   3.329   6.358
 6241SOL     OW19621   3.212   7.007   1.615
 6241SOL    HW119622   3.149   0.017   1.544
 6241SOL    HW219623   3.279   6.945   1.573
 6242SOL     OW19624   5.437   1.592   3.546
 6242SOL    HW119625   5.393   1.503   3.533
 6242SOL    HW219626   5.401   1.657   3.480
 6243SOL     OW19627   6.187   6.652   3.838
 6243SOL    HW119628   6.243   6.577   3.802
 6243SOL    HW219629   6.193   6.731   3.778
 6244SOL     OW19630   0.909   2.076   2.191
 6244SOL    HW119631   0.980   2.109   2.253
 6244SOL    HW219632   0.927   2.112   2.099
 6245SOL     OW19633   1.805   3.827   0.099
 6245SOL    HW119634   1.713   3.836   0.062
 6245SOL    HW219635   1.807   3.859   0.193
 6246SOL     OW19636   1.906   2.620   5.402
 6246SOL    HW119637   1.845   2.676   5.346
 6246SOL    HW219638   1.851   2.563   5.464
 6247SOL     OW19639   1.526   6.567   4.211
 6247SOL    HW119640   1.495   6.473   4.195
 6247SOL    HW219641   1.448   6.624   4.235
 6248SOL     OW19642   3.089   4.052   0.420
 6248SOL    HW119643   3.184   4.077   0.439
 6248SOL    HW219644   3.030   4.087   0.492
 6249SOL     OW19645   0.733   4.207   0.577
 6249SOL    HW119646   0.810   4.256   0.538
 6249SOL    HW219647   0.760   4.114   0.599
 6250SOL     OW19648   0.024   5.954   0.947
 6250SOL    HW119649   0.065   5.864   0.939
 6250SOL    HW219650   6.953   5.952   0.913
 6251SOL     OW19651   3.608   5.118   6.835
 6251SOL    HW119652   3.509   5.103   6.830
 6251SOL    HW219653   3.653   5.073   6.758
 6252SOL     OW19654   1.063   6.730   5.860
 6252SOL    HW119655   1.159   6.709   5.875
 6252SOL    HW219656   1.042   6.720   5.762
 6253SOL     OW19657   2.171   4.001   3.158
 6253SOL    HW119658   2.082   4.032   3.124
 6253SOL    HW219659   2.243   4.060   3.121
 6254SOL     OW19660   4.982   1.283   0.595
 6254SOL    HW119661   4.998   1.190   0.562
 6254SOL    HW219662   5.056   1.342   0.562
 6255SOL     OW19663   2.704   0.409   1.252
 6255SOL    HW119664   2.620   0.397   1.305
 6255SOL    HW219665   2.761   0.479   1.295
 6256SOL     OW19666   3.474   5.032   2.501
 6256SOL    HW119667   3.417   4.999   2.577
 6256SOL    HW219668   3.540   4.961   2.476
 6257SOL     OW19669   4.760   2.383   0.655
 6257SOL    HW119670   4.730   2.309   0.594
 6257SOL    HW219671   4.757   2.470   0.606
 6258SOL     OW19672   4.286   0.187   4.086
 6258SOL    HW119673   4.349   0.262   4.067
 6258SOL    HW219674   4.209   0.190   4.021
 6259SOL     OW19675   2.655   2.403   0.673
 6259SOL    HW119676   2.708   2.325   0.707
 6259SOL    HW219677   2.710   2.453   0.605
 6260SOL     OW19678   3.227   5.378   6.848
 6260SOL    HW119679   3.152   5.437   6.819
 6260SOL    HW219680   3.193   5.285   6.859
 6261SOL     OW19681   3.992   0.267   5.973
 6261SOL    HW119682   3.968   0.194   6.036
 6261SOL    HW219683   3.960   0.355   6.009
 6262SOL     OW19684   1.594   5.053   0.639
 6262SOL    HW119685   1.564   5.000   0.560
 6262SOL    HW219686   1.671   5.006   0.684
 6263SOL     OW19687   6.997   0.108   5.663
 6263SOL    HW119688   6.980   0.042   5.589
 6263SOL    HW219689   0.061   0.154   5.647
 6264SOL     OW19690   1.315   6.764   1.886
 6264SOL    HW119691   1.309   6.668   1.913
 6264SOL    HW219692   1.398   6.779   1.832
 6265SOL     OW19693   3.365   3.889   0.388
 6265SOL    HW119694   3.405   3.798   0.383
 6265SOL    HW219695   3.299   3.901   0.314
 6266SOL     OW19696   4.242   6.802   4.754
 6266SOL    HW119697   4.253   6.816   4.656
 6266SOL    HW219698   4.159   6.748   4.772
 6267SOL     OW19699   2.883   0.708   6.740
 6267SOL    HW119700   2.918   0.735   6.651
 6267SOL    HW219701   2.960   0.690   6.802
 6268SOL     OW19702   3.593   6.530   3.552
 6268SOL    HW119703   3.523   6.471   3.592
 6268SOL    HW219704   3.622   6.493   3.464
 6269SOL     OW19705   6.646   5.752   1.876
 6269SOL    HW119706   6.558   5.719   1.912
 6269SOL    HW219707   6.713   5.755   1.949
 6270SOL     OW19708   2.024   0.572   5.021
 6270SOL    HW119709   2.082   0.526   5.089
 6270SOL    HW219710   1.939   0.520   5.010
 6271SOL     OW19711   5.756   2.407   5.807
 6271SOL    HW119712   5.668   2.454   5.798
 6271SOL    HW219713   5.745   2.324   5.862
 6272SOL     OW19714   0.657   2.060   6.664
 6272SOL    HW119715   0.620   2.044   6.756
 6272SOL    HW219716   0.756   2.072   6.669
 6273SOL     OW19717   1.783   6.648   3.028
 6273SOL    HW119718   1.734   6.692   3.103
 6273SOL    HW219719   1.738   6.670   2.941
 6274SOL     OW19720   2.159   5.349   5.990
 6274SOL    HW119721   2.204   5.329   5.903
 6274SOL    HW219722   2.064   5.376   5.973
 6275SOL     OW19723   2.049   5.839   5.200
 6275SOL    HW119724   2.139   5.855   5.242
 6275SOL    HW219725   2.004   5.761   5.245
 6276SOL     OW19726   1.789   4.999   3.009
 6276SOL    HW119727   1.878   5.042   3.025
 6276SOL    HW219728   1.724   5.067   2.974
 6277SOL     OW19729   5.591   3.671   1.870
 6277SOL    HW119730   5.675   3.642   1.916
 6277SOL    HW219731   5.554   3.752   1.916
 6278SOL     OW19732   5.304   6.679   4.816
 6278SOL    HW119733   5.376   6.652   4.879
 6278SOL    HW219734   5.335   6.755   4.759
 6279SOL     OW19735   3.729   0.591   6.486
 6279SOL    HW119736   3.733   0.538   6.402
 6279SOL    HW219737   3.801   0.560   6.549
 6280SOL     OW19738   0.897   1.957   4.978
 6280SOL    HW119739   0.902   1.950   4.879
 6280SOL    HW219740   0.976   1.910   5.019
 6281SOL     OW19741   1.765   4.901   3.669
 6281SOL    HW119742   1.859   4.932   3.652
 6281SOL    HW219743   1.753   4.880   3.766
 6282SOL     OW19744   1.661   6.957   4.849
 6282SOL    HW119745   1.589   6.976   4.783
 6282SOL    HW219746   1.740   7.016   4.830
 6283SOL     OW19747   6.498   3.064   6.204
 6283SOL    HW119748   6.569   3.081   6.135
 6283SOL    HW219749   6.514   2.974   6.246
 6284SOL     OW19750   1.715   5.192   4.798
 6284SOL    HW119751   1.726   5.102   4.756
 6284SOL    HW219752   1.650   5.246   4.745
 6285SOL     OW19753   0.975   3.426   3.874
 6285SOL    HW119754   1.065   3.385   3.862
 6285SOL    HW219755   0.982   3.525   3.864
 6286SOL     OW19756   6.516   1.754   3.819
 6286SOL    HW119757   6.454   1.678   3.797
 6286SOL    HW219758   6.544   1.747   3.915
 6287SOL     OW19759   3.865   5.189   3.894
 6287SOL    HW119760   3.954   5.230   3.918
 6287SOL    HW219761   3.880   5.102   3.848
 6288SOL     OW19762   5.249   4.776   2.779
 6288SOL    HW119763   5.246   4.828   2.694
 6288SOL    HW219764   5.184   4.700   2.774
 6289SOL     OW19765   1.760   4.549   2.073
 6289SOL    HW119766   1.793   4.491   2.148
 6289SOL    HW219767   1.770   4.645   2.098
 6290SOL     OW19768   5.884   3.752   4.120
 6290SOL    HW119769   5.944   3.810   4.174
 6290SOL    HW219770   5.795   3.797   4.110
 6291SOL     OW19771   3.356   2.884   4.916
 6291SOL    HW119772   3.364   2.784   4.922
 6291SOL    HW219773   3.351   2.922   5.008
 6292SOL     OW19774   1.631   2.011   3.685
 6292SOL    HW119775   1.701   1.942   3.703
 6292SOL    HW219776   1.613   2.063   3.769
 6293SOL     OW19777   3.690   0.165   0.094
 6293SOL    HW119778   3.771   0.109   0.110
 6293SOL    HW219779   3.646   0.186   0.182
 6294SOL     OW19780   3.528   5.060   4.235
 6294SOL    HW119781   3.457   4.997   4.266
 6294SOL    HW219782   3.591   5.012   4.174
 6295SOL     OW19783   5.392   4.921   5.675
 6295SOL    HW119784   5.452   4.956   5.747
 6295SOL    HW219785   5.307   4.887   5.716
 6296SOL     OW19786   0.317   6.687   5.420
 6296SOL    HW119787   0.278   6.595   5.430
 6296SOL    HW219788   0.396   6.696   5.481
 6297SOL     OW19789   4.783   6.558   4.614
 6297SOL    HW119790   4.801   6.540   4.711
 6297SOL    HW219791   4.780   6.471   4.564
 6298SOL     OW19792   1.622   2.926   6.480
 6298SOL    HW119793   1.584   2.983   6.553
 6298SOL    HW219794   1.555   2.917   6.407
 6299SOL     OW19795   5.200   1.609   6.930
 6299SOL    HW119796   5.112   1.562   6.923
 6299SOL    HW219797   5.267   1.566   6.869
 6300SOL     OW19798   5.613   0.526   0.119
 6300SOL    HW119799   5.671   0.559   0.045
 6300SOL    HW219800   5.521   0.564   0.110
 6301SOL     OW19801   3.898   0.827   0.728
 6301SOL    HW119802   3.928   0.817   0.823
 6301SOL    HW219803   3.973   0.865   0.673
 6302SOL     OW19804   1.901   0.578   3.689
 6302SOL    HW119805   1.982   0.627   3.657
 6302SOL    HW219806   1.922   0.532   3.776
 6303SOL     OW19807   1.781   1.016   4.368
 6303SOL    HW119808   1.708   0.958   4.404
 6303SOL    HW219809   1.815   1.076   4.440
 6304SOL     OW19810   2.327   1.468   1.348
 6304SOL    HW119811   2.230   1.493   1.353
 6304SOL    HW219812   2.383   1.546   1.373
 6305SOL     OW19813   5.574   0.230   2.098
 6305SOL    HW119814   5.629   0.190   2.171
 6305SOL    HW219815   5.605   0.324   2.080
 6306SOL     OW19816   1.273   3.625   4.303
 6306SOL    HW119817   1.278   3.659   4.397
 6306SOL    HW219818   1.219   3.688   4.248
 6307SOL     OW19819   3.986   4.132   5.535
 6307SOL    HW119820   4.058   4.066   5.513
 6307SOL    HW219821   3.971   4.133   5.634
 6308SOL     OW19822   2.077   2.128   4.585
 6308SOL    HW119823   2.057   2.035   4.553
 6308SOL    HW219824   2.060   2.193   4.511
 6309SOL     OW19825   5.259   4.218   4.678
 6309SOL    HW119826   5.343   4.265   4.705
 6309SOL    HW219827   5.258   4.205   4.578
 6310SOL     OW19828   1.918   5.683   3.215
 6310SOL    HW119829   1.983   5.732   3.156
 6310SOL    HW219830   1.854   5.749   3.254
 6311SOL     OW19831   5.059   0.873   5.647
 6311SOL    HW119832   5.151   0.834   5.643
 6311SOL    HW219833   5.063   0.969   5.622
 6312SOL     OW19834   5.796   5.463   5.663
 6312SOL    HW119835   5.753   5.550   5.639
 6312SOL    HW219836   5.880   5.453   5.611
 6313SOL     OW19837   1.367   6.456   3.930
 6313SOL    HW119838   1.356   6.503   3.842
 6313SOL    HW219839   1.453   6.407   3.932
 6314SOL     OW19840   3.968   6.312   1.700
 6314SOL    HW119841   3.909   6.280   1.774
 6314SOL    HW219842   3.916   6.371   1.638
 6315SOL     OW19843   3.437   3.360   6.400
 6315SOL    HW119844   3.428   3.333   6.304
 6315SOL    HW219845   3.357   3.413   6.428
 6316SOL     OW19846   4.794   1.574   6.624
 6316SOL    HW119847   4.760   1.556   6.716
 6316SOL    HW219848   4.893   1.588   6.627
 6317SOL     OW19849   4.815   5.789   2.656
 6317SOL    HW119850   4.880   5.858   2.690
 6317SOL    HW219851   4.814   5.711   2.718
 6318SOL     OW19852   2.932   1.994   4.821
 6318SOL    HW119853   2.893   1.922   4.879
 6318SOL    HW219854   2.900   1.982   4.727
 6319SOL     OW19855   6.612   2.072   4.036
 6319SOL    HW119856   6.673   2.115   3.970
 6319SOL    HW219857   6.526   2.049   3.992
 6320SOL     OW19858   5.845   5.424   4.952
 6320SOL    HW119859   5.805   5.464   5.034
 6320SOL    HW219860   5.871   5.329   4.969
 6321SOL     OW19861   3.000   3.396   1.010
 6321SOL    HW119862   2.905   3.418   1.033
 6321SOL    HW219863   3.057   3.408   1.091
 6322SOL     OW19864   1.727   2.154   0.055
 6322SOL    HW119865   1.781   2.238   0.060
 6322SOL    HW219866   1.691   2.143   6.985
 6323SOL     OW19867   2.834   2.659   1.331
 6323SOL    HW119868   2.783   2.578   1.301
 6323SOL    HW219869   2.907   2.631   1.393
 6324SOL     OW19870   5.291   0.235   6.379
 6324SOL    HW119871   5.252   0.241   6.287
 6324SOL    HW219872   5.359   0.307   6.391
 6325SOL     OW19873   2.345   1.826   2.444
 6325SOL    HW119874   2.419   1.832   2.378
 6325SOL    HW219875   2.279   1.757   2.415
 6326SOL     OW19876   4.986   5.283   1.354
 6326SOL    HW119877   5.058   5.214   1.350
 6326SOL    HW219878   5.024   5.369   1.387
 6327SOL     OW19879   0.225   0.244   5.173
 6327SOL    HW119880   0.255   0.151   5.152
 6327SOL    HW219881   0.162   0.276   5.102
 6328SOL     OW19882   1.972   3.620   0.817
 6328SOL    HW119883   1.924   3.663   0.740
 6328SOL    HW219884   1.917   3.627   0.899
 6329SOL     OW19885   2.353   2.816   3.195
 6329SOL    HW119886   2.397   2.749   3.255
 6329SOL    HW219887   2.383   2.803   3.101
 6330SOL     OW19888   4.586   1.067   1.020
 6330SOL    HW119889   4.505   1.080   0.962
 6330SOL    HW219890   4.592   0.972   1.048
 6331SOL     OW19891   6.304   2.108   6.851
 6331SOL    HW119892   6.335   2.189   6.901
 6331SOL    HW219893   6.224   2.069   6.897
 6332SOL     OW19894   6.030   3.537   1.659
 6332SOL    HW119895   6.048   3.602   1.733
 6332SOL    HW219896   6.107   3.535   1.596
 6333SOL     OW19897   4.386   5.556   5.041
 6333SOL    HW119898   4.361   5.626   5.108
 6333SOL    HW219899   4.459   5.591   4.982
 6334SOL     OW19900   3.051   6.933   1.893
 6334SOL    HW119901   3.082   6.898   1.804
 6334SOL    HW219902   3.113   6.900   1.964
 6335SOL     OW19903   4.625   1.068   0.375
 6335SOL    HW119904   4.584   1.047   0.464
 6335SOL    HW219905   4.559   1.118   0.318
 6336SOL     OW19906   0.756   1.892   6.201
 6336SOL    HW119907   0.704   1.977   6.210
 6336SOL    HW219908   0.745   1.838   6.284
 6337SOL     OW19909   4.679   4.420   6.233
 6337SOL    HW119910   4.747   4.492   6.220
 6337SOL    HW219911   4.687   4.353   6.159
 6338SOL     OW19912   3.327   1.781   3.291
 6338SOL    HW119913   3.235   1.799   3.256
 6338SOL    HW219914   3.320   1.730   3.377
 6339SOL     OW19915   1.316   2.733   2.767
 6339SOL    HW119916   1.410   2.756   2.741
 6339SOL    HW219917   1.318   2.676   2.849
 6340SOL     OW19918   1.737   4.713   2.604
 6340SOL    HW119919   1.802   4.657   2.552
 6340SOL    HW219920   1.644   4.692   2.573
 6341SOL     OW19921   0.890   4.372   4.158
 6341SOL    HW119922   0.812   4.415   4.112
 6341SOL    HW219923   0.860   4.289   4.203
 6342SOL     OW19924   2.644   1.928   1.806
 6342SOL    HW119925   2.699   2.005   1.836
 6342SOL    HW219926   2.630   1.933   1.707
 6343SOL     OW19927   4.902   2.118   6.531
 6343SOL    HW119928   4.871   2.168   6.450
 6343SOL    HW219929   4.919   2.183   6.605
 6344SOL     OW19930   5.839   3.419   5.093
 6344SOL    HW119931   5.913   3.380   5.148
 6344SOL    HW219932   5.877   3.466   5.014
 6345SOL     OW19933   5.204   1.895   2.387
 6345SOL    HW119934   5.188   1.968   2.321
 6345SOL    HW219935   5.129   1.829   2.382
 6346SOL     OW19936   6.832   4.485   3.981
 6346SOL    HW119937   6.918   4.520   3.942
 6346SOL    HW219938   6.851   4.405   4.036
 6347SOL     OW19939   2.100   0.361   1.332
 6347SOL    HW119940   2.140   0.384   1.244
 6347SOL    HW219941   2.137   0.274   1.365
 6348SOL     OW19942   1.754   4.261   5.007
 6348SOL    HW119943   1.816   4.279   5.084
 6348SOL    HW219944   1.807   4.233   4.927
 6349SOL     OW19945   3.203   0.199   1.362
 6349SOL    HW119946   3.110   0.180   1.333
 6349SOL    HW219947   3.230   0.290   1.333
 6350SOL     OW19948   2.500   4.623   4.194
 6350SOL    HW119949   2.419   4.678   4.173
 6350SOL    HW219950   2.569   4.637   4.123
 6351SOL     OW19951   6.364   3.633   3.235
 6351SOL    HW119952   6.455   3.604   3.206
 6351SOL    HW219953   6.295   3.574   3.194
 6352SOL     OW19954   3.140   5.325   5.039
 6352SOL    HW119955   3.193   5.360   4.961
 6352SOL    HW219956   3.073   5.259   5.007
 6353SOL     OW19957   0.497   0.660   5.870
 6353SOL    HW119958   0.513   0.743   5.924
 6353SOL    HW219959   0.491   0.684   5.773
 6354SOL     OW19960   1.918   6.013   3.177
 6354SOL    HW119961   2.013   6.003   3.209
 6354SOL    HW219962   1.856   5.971   3.243
 6355SOL     OW19963   0.663   5.415   6.259
 6355SOL    HW119964   0.583   5.377   6.305
 6355SOL    HW219965   0.657   5.515   6.260
 6356SOL     OW19966   3.701   4.944   2.359
 6356SOL    HW119967   3.714   5.041   2.341
 6356SOL    HW219968   3.788   4.902   2.384
 6357SOL     OW19969   5.095   3.007   2.184
 6357SOL    HW119970   4.995   3.011   2.193
 6357SOL    HW219971   5.136   3.073   2.246
 6358SOL     OW19972   1.465   2.179   6.276
 6358SOL    HW119973   1.525   2.248   6.317
 6358SOL    HW219974   1.445   2.108   6.344
 6359SOL     OW19975   6.244   6.648   5.729
 6359SOL    HW119976   6.226   6.745   5.713
 6359SOL    HW219977   6.339   6.627   5.704
 6360SOL     OW19978   1.456   3.896   3.836
 6360SOL    HW119979   1.383   3.960   3.858
 6360SOL    HW219980   1.514   3.934   3.764
 6361SOL     OW19981   6.092   0.402   0.431
 6361SOL    HW119982   6.023   0.442   0.492
 6361SOL    HW219983   6.060   0.408   0.336
 6362SOL     OW19984   0.275   6.020   0.598
 6362SOL    HW119985   0.255   5.940   0.541
 6362SOL    HW219986   0.297   5.990   0.691
 6363SOL     OW19987   2.339   4.226   3.419
 6363SOL    HW119988   2.335   4.150   3.484
 6363SOL    HW219989   2.399   4.297   3.454
 6364SOL     OW19990   3.122   1.313   6.064
 6364SOL    HW119991   3.164   1.362   5.987
 6364SOL    HW219992   3.027   1.343   6.074
 6365SOL     OW19993   5.797   0.255   4.256
 6365SOL    HW119994   5.699   0.250   4.237
 6365SOL    HW219995   5.832   0.164   4.278
 6366SOL     OW19996   1.155   5.621   6.250
 6366SOL    HW119997   1.127   5.567   6.329
 6366SOL    HW219998   1.074   5.652   6.200
 6367SOL     OW19999   4.356   6.796   4.494
 6367SOL    HW120000   4.315   6.726   4.435
 6367SOL    HW220001   4.443   6.762   4.531
 6368SOL     OW20002   3.465   5.607   3.711
 6368SOL    HW120003   3.536   5.609   3.641
 6368SOL    HW220004   3.392   5.544   3.684
 6369SOL     OW20005   1.905   4.756   4.245
 6369SOL    HW120006   1.850   4.813   4.306
 6369SOL    HW220007   1.991   4.803   4.224
 6370SOL     OW20008   0.653   3.583   2.614
 6370SOL    HW120009   0.592   3.535   2.551
 6370SOL    HW220010   0.634   3.681   2.611
 6371SOL     OW20011   5.223   3.593   4.410
 6371SOL    HW120012   5.257   3.506   4.444
 6371SOL    HW220013   5.174   3.579   4.324
 6372SOL     OW20014   3.359   0.083   1.831
 6372SOL    HW120015   3.325   0.039   1.914
 6372SOL    HW220016   3.304   0.053   1.753
 6373SOL     OW20017   5.478   4.250   3.741
 6373SOL    HW120018   5.458   4.245   3.643
 6373SOL    HW220019   5.528   4.168   3.769
 6374SOL     OW20020   3.203   3.834   4.550
 6374SOL    HW120021   3.204   3.928   4.583
 6374SOL    HW220022   3.119   3.818   4.497
 6375SOL     OW20023   6.850   1.537   4.232
 6375SOL    HW120024   6.903   1.565   4.152
 6375SOL    HW220025   6.823   1.441   4.223
 6376SOL     OW20026   6.388   2.478   5.132
 6376SOL    HW120027   6.318   2.407   5.124
 6376SOL    HW220028   6.479   2.435   5.137
 6377SOL     OW20029   6.277   1.506   5.760
 6377SOL    HW120030   6.206   1.481   5.695
 6377SOL    HW220031   6.315   1.595   5.736
 6378SOL     OW20032   5.154   5.578   3.854
 6378SOL    HW120033   5.216   5.641   3.807
 6378SOL    HW220034   5.060   5.610   3.842
 6379SOL     OW20035   2.328   4.367   4.287
 6379SOL    HW120036   2.402   4.428   4.260
 6379SOL    HW220037   2.292   4.394   4.376
 6380SOL     OW20038   0.899   1.486   6.393
 6380SOL    HW120039   0.951   1.492   6.309
 6380SOL    HW220040   0.812   1.534   6.382
 6381SOL     OW20041   4.109   3.175   1.934
 6381SOL    HW120042   4.175   3.171   1.859
 6381SOL    HW220043   4.144   3.124   2.013
 6382SOL     OW20044   0.732   2.226   0.621
 6382SOL    HW120045   0.678   2.150   0.658
 6382SOL    HW220046   0.748   2.294   0.693
 6383SOL     OW20047   1.998   1.989   2.956
 6383SOL    HW120048   2.027   2.000   2.861
 6383SOL    HW220049   1.980   1.893   2.975
 6384SOL     OW20050   5.400   4.477   1.245
 6384SOL    HW120051   5.332   4.405   1.258
 6384SOL    HW220052   5.358   4.555   1.200
 6385SOL     OW20053   6.781   5.146   3.752
 6385SOL    HW120054   6.843   5.071   3.727
 6385SOL    HW220055   6.827   5.208   3.815
 6386SOL     OW20056   2.319   4.648   6.747
 6386SOL    HW120057   2.399   4.632   6.805
 6386SOL    HW220058   2.347   4.697   6.665
 6387SOL     OW20059   0.926   1.878   6.598
 6387SOL    HW120060   0.979   1.961   6.586
 6387SOL    HW220061   0.874   1.859   6.514
 6388SOL     OW20062   4.277   4.309   1.158
 6388SOL    HW120063   4.239   4.361   1.235
 6388SOL    HW220064   4.356   4.256   1.189
 6389SOL     OW20065   1.094   6.313   2.843
 6389SOL    HW120066   1.074   6.218   2.866
 6389SOL    HW220067   1.027   6.372   2.887
 6390SOL     OW20068   0.972   1.564   4.706
 6390SOL    HW120069   0.952   1.587   4.801
 6390SOL    HW220070   0.985   1.647   4.653
 6391SOL     OW20071   2.599   6.753   5.597
 6391SOL    HW120072   2.675   6.688   5.592
 6391SOL    HW220073   2.540   6.741   5.518
 6392SOL     OW20074   2.014   0.127   3.405
 6392SOL    HW120075   1.971   0.161   3.322
 6392SOL    HW220076   2.077   0.196   3.441
 6393SOL     OW20077   5.850   0.278   1.607
 6393SOL    HW120078   5.837   0.179   1.593
 6393SOL    HW220079   5.940   0.304   1.573
 6394SOL     OW20080   2.470   4.693   0.818
 6394SOL    HW120081   2.378   4.723   0.793
 6394SOL    HW220082   2.529   4.692   0.737
 6395SOL     OW20083   6.187   3.082   2.156
 6395SOL    HW120084   6.154   3.033   2.076
 6395SOL    HW220085   6.279   3.119   2.138
 6396SOL     OW20086   5.394   3.209   6.388
 6396SOL    HW120087   5.384   3.221   6.486
 6396SOL    HW220088   5.489   3.229   6.362
 6397SOL     OW20089   5.490   2.681   6.473
 6397SOL    HW120090   5.453   2.593   6.445
 6397SOL    HW220091   5.443   2.754   6.424
 6398SOL     OW20092   3.153   0.482   0.783
 6398SOL    HW120093   3.244   0.445   0.801
 6398SOL    HW220094   3.123   0.536   0.861
 6399SOL     OW20095   1.124   5.534   6.800
 6399SOL    HW120096   1.218   5.501   6.804
 6399SOL    HW220097   1.102   5.559   6.706
 6400SOL     OW20098   2.242   6.733   2.252
 6400SOL    HW120099   2.209   6.639   2.255
 6400SOL    HW220100   2.341   6.734   2.239
 6401SOL     OW20101   0.673   4.631   3.479
 6401SOL    HW120102   0.757   4.653   3.430
 6401SOL    HW220103   0.695   4.601   3.572
 6402SOL     OW20104   4.561   1.365   2.880
 6402SOL    HW120105   4.462   1.349   2.877
 6402SOL    HW220106   4.585   1.414   2.964
 6403SOL     OW20107   6.720   6.385   6.467
 6403SOL    HW120108   6.696   6.291   6.490
 6403SOL    HW220109   6.817   6.400   6.487
 6404SOL     OW20110   4.131   1.382   2.607
 6404SOL    HW120111   4.060   1.326   2.648
 6404SOL    HW220112   4.089   1.454   2.552
 6405SOL     OW20113   2.601   0.474   3.842
 6405SOL    HW120114   2.562   0.496   3.753
 6405SOL    HW220115   2.605   0.375   3.853
 6406SOL     OW20116   1.383   2.381   3.622
 6406SOL    HW120117   1.309   2.397   3.688
 6406SOL    HW220118   1.421   2.290   3.637
 6407SOL     OW20119   2.942   6.952   4.111
 6407SOL    HW120120   3.024   7.004   4.088
 6407SOL    HW220121   2.874   7.013   4.153
 6408SOL     OW20122   5.996   1.997   0.221
 6408SOL    HW120123   6.019   2.094   0.225
 6408SOL    HW220124   6.080   1.944   0.211
 6409SOL     OW20125   0.261   4.838   3.421
 6409SOL    HW120126   0.163   4.821   3.414
 6409SOL    HW220127   0.311   4.751   3.410
 6410SOL     OW20128   2.062   1.485   0.555
 6410SOL    HW120129   2.066   1.506   0.652
 6410SOL    HW220130   2.127   1.542   0.505
 6411SOL     OW20131   0.379   2.776   3.388
 6411SOL    HW120132   0.311   2.836   3.347
 6411SOL    HW220133   0.368   2.683   3.352
 6412SOL     OW20134   0.512   2.659   5.228
 6412SOL    HW120135   0.582   2.602   5.185
 6412SOL    HW220136   0.505   2.635   5.325
 6413SOL     OW20137   4.571   4.774   3.369
 6413SOL    HW120138   4.553   4.750   3.465
 6413SOL    HW220139   4.656   4.731   3.340
 6414SOL     OW20140   5.932   0.802   1.004
 6414SOL    HW120141   5.856   0.825   0.944
 6414SOL    HW220142   5.939   0.869   1.077
 6415SOL     OW20143   1.959   2.397   3.383
 6415SOL    HW120144   1.871   2.364   3.417
 6415SOL    HW220145   1.955   2.408   3.284
 6416SOL     OW20146   1.206   1.079   6.117
 6416SOL    HW120147   1.210   0.980   6.105
 6416SOL    HW220148   1.113   1.111   6.098
 6417SOL     OW20149   6.733   4.381   2.018
 6417SOL    HW120150   6.660   4.332   1.971
 6417SOL    HW220151   6.791   4.316   2.067
 6418SOL     OW20152   4.612   4.886   1.751
 6418SOL    HW120153   4.697   4.834   1.748
 6418SOL    HW220154   4.552   4.857   1.676
 6419SOL     OW20155   2.533   4.581   2.660
 6419SOL    HW120156   2.494   4.489   2.654
 6419SOL    HW220157   2.588   4.599   2.579
 6420SOL     OW20158   3.098   3.891   5.460
 6420SOL    HW120159   3.088   3.809   5.404
 6420SOL    HW220160   3.028   3.958   5.434
 6421SOL     OW20161   5.624   1.080   2.225
 6421SOL    HW120162   5.608   1.036   2.314
 6421SOL    HW220163   5.681   1.161   2.237
 6422SOL     OW20164   7.023   0.320   4.285
 6422SOL    HW120165   0.076   0.366   4.330
 6422SOL    HW220166   6.948   0.385   4.270
 6423SOL     OW20167   4.639   4.809   2.542
 6423SOL    HW120168   4.680   4.797   2.452
 6423SOL    HW220169   4.707   4.847   2.605
 6424SOL     OW20170   6.509   5.841   5.443
 6424SOL    HW120171   6.516   5.925   5.497
 6424SOL    HW220172   6.444   5.854   5.369
 6425SOL     OW20173   6.363   6.020   3.156
 6425SOL    HW120174   6.276   6.001   3.111
 6425SOL    HW220175   6.426   5.945   3.140
 6426SOL     OW20176   0.678   4.984   3.453
 6426SOL    HW120177   0.761   4.955   3.405
 6426SOL    HW220178   0.634   5.059   3.403
 6427SOL     OW20179   2.507   3.107   5.894
 6427SOL    HW120180   2.570   3.032   5.915
 6427SOL    HW220181   2.550   3.167   5.826
 6428SOL     OW20182   6.379   2.785   6.764
 6428SOL    HW120183   6.338   2.851   6.701
 6428SOL    HW220184   6.472   2.763   6.734
 6429SOL     OW20185   0.909   1.662   5.810
 6429SOL    HW120186   0.901   1.744   5.867
 6429SOL    HW220187   0.979   1.602   5.848
 6430SOL     OW20188   5.274   1.052   2.178
 6430SOL    HW120189   5.372   1.074   2.175
 6430SOL    HW220190   5.228   1.097   2.101
 6431SOL     OW20191   5.393   6.463   3.296
 6431SOL    HW120192   5.430   6.395   3.360
 6431SOL    HW220193   5.448   6.546   3.301
 6432SOL     OW20194   4.287   3.775   6.603
 6432SOL    HW120195   4.355   3.783   6.531
 6432SOL    HW220196   4.247   3.683   6.601
 6433SOL     OW20197   3.713   4.119   0.703
 6433SOL    HW120198   3.661   4.035   0.688
 6433SOL    HW220199   3.698   4.151   0.797
 6434SOL     OW20200   1.988   3.672   0.278
 6434SOL    HW120201   2.030   3.736   0.213
 6434SOL    HW220202   1.905   3.713   0.316
 6435SOL     OW20203   4.040   6.445   6.996
 6435SOL    HW120204   4.107   6.471   6.927
 6435SOL    HW220205   4.053   6.349   7.022
 6436SOL     OW20206   2.078   3.139   3.502
 6436SOL    HW120207   1.993   3.088   3.489
 6436SOL    HW220208   2.149   3.102   3.443
 6437SOL     OW20209   2.511   1.117   1.193
 6437SOL    HW120210   2.583   1.182   1.215
 6437SOL    HW220211   2.433   1.131   1.255
 6438SOL     OW20212   0.750   4.665   6.502
 6438SOL    HW120213   0.784   4.685   6.410
 6438SOL    HW220214   0.802   4.589   6.541
 6439SOL     OW20215   6.463   0.898   1.376
 6439SOL    HW120216   6.413   0.946   1.304
 6439SOL    HW220217   6.416   0.910   1.463
 6440SOL     OW20218   2.210   1.915   0.550
 6440SOL    HW120219   2.256   1.826   0.556
 6440SOL    HW220220   2.147   1.925   0.627
 6441SOL     OW20221   1.435   6.523   2.563
 6441SOL    HW120222   1.407   6.485   2.651
 6441SOL    HW220223   1.391   6.472   2.489
 6442SOL     OW20224   2.664   0.929   3.823
 6442SOL    HW120225   2.752   0.962   3.791
 6442SOL    HW220226   2.640   0.973   3.910
 6443SOL     OW20227   4.159   2.629   6.384
 6443SOL    HW120228   4.148   2.669   6.293
 6443SOL    HW220229   4.230   2.559   6.382
 6444SOL     OW20230   6.729   2.493   3.919
 6444SOL    HW120231   6.782   2.575   3.899
 6444SOL    HW220232   6.738   2.470   4.016
 6445SOL     OW20233   5.095   3.124   6.162
 6445SOL    HW120234   5.157   3.176   6.222
 6445SOL    HW220235   5.076   3.178   6.080
 6446SOL     OW20236   1.216   0.813   6.134
 6446SOL    HW120237   1.219   0.795   6.035
 6446SOL    HW220238   1.257   0.736   6.183
 6447SOL     OW20239   0.241   5.317   2.708
 6447SOL    HW120240   0.245   5.244   2.775
 6447SOL    HW220241   0.330   5.327   2.663
 6448SOL     OW20242   5.006   4.879   2.913
 6448SOL    HW120243   4.972   4.906   2.823
 6448SOL    HW220244   5.082   4.814   2.902
 6449SOL     OW20245   2.797   4.928   0.145
 6449SOL    HW120246   2.791   5.019   0.185
 6449SOL    HW220247   2.881   4.883   0.175
 6450SOL     OW20248   7.019   3.830   1.141
 6450SOL    HW120249   0.013   3.814   1.238
 6450SOL    HW220250   6.977   3.920   1.129
 6451SOL     OW20251   2.669   6.640   5.246
 6451SOL    HW120252   2.581   6.608   5.280
 6451SOL    HW220253   2.738   6.635   5.319
 6452SOL     OW20254   3.300   6.539   4.645
 6452SOL    HW120255   3.226   6.598   4.611
 6452SOL    HW220256   3.334   6.482   4.569
 6453SOL     OW20257   1.106   6.968   0.610
 6453SOL    HW120258   1.070   6.972   0.516
 6453SOL    HW220259   1.187   0.004   0.617
 6454SOL     OW20260   3.305   1.618   3.526
 6454SOL    HW120261   3.387   1.583   3.480
 6454SOL    HW220262   3.227   1.561   3.503
 6455SOL     OW20263   0.144   2.172   3.850
 6455SOL    HW120264   0.122   2.078   3.875
 6455SOL    HW220265   0.236   2.175   3.810
 6456SOL     OW20266   1.494   0.760   3.836
 6456SOL    HW120267   1.509   0.727   3.929
 6456SOL    HW220268   1.517   0.688   3.771
 6457SOL     OW20269   4.766   1.479   0.674
 6457SOL    HW120270   4.827   1.401   0.656
 6457SOL    HW220271   4.814   1.546   0.730
 6458SOL     OW20272   1.190   0.305   3.239
 6458SOL    HW120273   1.217   0.282   3.333
 6458SOL    HW220274   1.219   0.399   3.219
 6459SOL     OW20275   5.996   5.149   0.535
 6459SOL    HW120276   6.013   5.243   0.505
 6459SOL    HW220277   6.054   5.129   0.614
 6460SOL     OW20278   4.603   5.345   5.591
 6460SOL    HW120279   4.607   5.434   5.544
 6460SOL    HW220280   4.689   5.329   5.639
 6461SOL     OW20281   2.783   4.743   5.295
 6461SOL    HW120282   2.806   4.726   5.391
 6461SOL    HW220283   2.831   4.678   5.237
 6462SOL     OW20284   2.407   2.726   4.955
 6462SOL    HW120285   2.412   2.824   4.975
 6462SOL    HW220286   2.318   2.705   4.914
 6463SOL     OW20287   0.696   3.948   6.996
 6463SOL    HW120288   0.672   4.037   6.959
 6463SOL    HW220289   0.688   3.879   6.923
 6464SOL     OW20290   0.953   5.414   5.260
 6464SOL    HW120291   0.872   5.471   5.247
 6464SOL    HW220292   0.946   5.333   5.202
 6465SOL     OW20293   6.407   2.553   3.641
 6465SOL    HW120294   6.483   2.618   3.646
 6465SOL    HW220295   6.386   2.534   3.545
 6466SOL     OW20296   0.974   1.251   6.526
 6466SOL    HW120297   1.057   1.204   6.497
 6466SOL    HW220298   0.976   1.346   6.493
 6467SOL     OW20299   3.325   1.046   0.100
 6467SOL    HW120300   3.382   1.016   0.176
 6467SOL    HW220301   3.374   1.034   0.014
 6468SOL     OW20302   4.193   6.864   1.925
 6468SOL    HW120303   4.241   6.934   1.871
 6468SOL    HW220304   4.245   6.779   1.924
 6469SOL     OW20305   4.280   0.577   5.511
 6469SOL    HW120306   4.380   0.582   5.500
 6469SOL    HW220307   4.244   0.669   5.528
 6470SOL     OW20308   6.286   5.443   6.614
 6470SOL    HW120309   6.384   5.444   6.595
 6470SOL    HW220310   6.251   5.536   6.617
 6471SOL     OW20311   6.364   6.093   5.922
 6471SOL    HW120312   6.348   6.185   5.956
 6471SOL    HW220313   6.299   6.073   5.848
 6472SOL     OW20314   0.415   4.355   1.192
 6472SOL    HW120315   0.396   4.432   1.253
 6472SOL    HW220316   0.426   4.272   1.246
 6473SOL     OW20317   2.331   1.762   4.114
 6473SOL    HW120318   2.393   1.762   4.193
 6473SOL    HW220319   2.267   1.838   4.123
 6474SOL     OW20320   1.841   3.805   5.996
 6474SOL    HW120321   1.867   3.866   5.921
 6474SOL    HW220322   1.865   3.711   5.973
 6475SOL     OW20323   0.307   5.307   4.611
 6475SOL    HW120324   0.291   5.310   4.512
 6475SOL    HW220325   0.334   5.215   4.637
 6476SOL     OW20326   4.646   3.580   1.138
 6476SOL    HW120327   4.618   3.675   1.126
 6476SOL    HW220328   4.594   3.540   1.213
 6477SOL     OW20329   6.893   5.207   1.199
 6477SOL    HW120330   6.862   5.159   1.281
 6477SOL    HW220331   6.825   5.274   1.171
 6478SOL     OW20332   3.876   6.129   2.529
 6478SOL    HW120333   3.843   6.035   2.543
 6478SOL    HW220334   3.975   6.130   2.538
 6479SOL     OW20335   3.801   5.804   3.354
 6479SOL    HW120336   3.789   5.894   3.312
 6479SOL    HW220337   3.870   5.810   3.426
 6480SOL     OW20338   3.063   1.974   5.748
 6480SOL    HW120339   3.152   1.999   5.786
 6480SOL    HW220340   3.019   2.054   5.709
 6481SOL     OW20341   3.417   2.107   2.234
 6481SOL    HW120342   3.329   2.079   2.273
 6481SOL    HW220343   3.417   2.206   2.220
 6482SOL     OW20344   0.549   0.434   6.031
 6482SOL    HW120345   0.517   0.519   5.989
 6482SOL    HW220346   0.621   0.456   6.097
 6483SOL     OW20347   1.739   6.057   1.552
 6483SOL    HW120348   1.794   6.078   1.471
 6483SOL    HW220349   1.730   6.139   1.608
 6484SOL     OW20350   3.952   0.499   2.093
 6484SOL    HW120351   3.992   0.423   2.041
 6484SOL    HW220352   3.921   0.569   2.029
 6485SOL     OW20353   1.604   4.059   3.002
 6485SOL    HW120354   1.604   4.061   3.102
 6485SOL    HW220355   1.518   4.097   2.968
 6486SOL     OW20356   1.863   4.234   4.538
 6486SOL    HW120357   1.905   4.272   4.456
 6486SOL    HW220358   1.778   4.186   4.513
 6487SOL     OW20359   6.884   5.997   5.554
 6487SOL    HW120360   6.863   6.061   5.628
 6487SOL    HW220361   6.799   5.955   5.521
 6488SOL     OW20362   3.069   6.006   5.348
 6488SOL    HW120363   3.166   6.016   5.325
 6488SOL    HW220364   3.056   6.026   5.445
 6489SOL     OW20365   2.239   3.531   6.567
 6489SOL    HW120366   2.204   3.445   6.605
 6489SOL    HW220367   2.332   3.547   6.601
 6490SOL     OW20368   4.186   1.820   6.503
 6490SOL    HW120369   4.089   1.814   6.527
 6490SOL    HW220370   4.221   1.909   6.531
 6491SOL     OW20371   3.872   1.307   6.900
 6491SOL    HW120372   3.852   1.267   6.810
 6491SOL    HW220373   3.898   1.235   6.964
 6492SOL     OW20374   5.355   5.770   7.020
 6492SOL    HW120375   5.339   5.838   6.949
 6492SOL    HW220376   5.420   5.806   0.064
 6493SOL     OW20377   1.190   5.527   4.479
 6493SOL    HW120378   1.096   5.546   4.450
 6493SOL    HW220379   1.219   5.595   4.546
 6494SOL     OW20380   0.813   1.340   3.206
 6494SOL    HW120381   0.788   1.261   3.260
 6494SOL    HW220382   0.787   1.326   3.110
 6495SOL     OW20383   4.689   5.957   4.514
 6495SOL    HW120384   4.766   5.915   4.563
 6495SOL    HW220385   4.692   5.932   4.418
 6496SOL     OW20386   0.162   6.873   2.039
 6496SOL    HW120387   0.120   6.865   2.129
 6496SOL    HW220388   0.215   6.958   2.035
 6497SOL     OW20389   2.639   3.773   6.878
 6497SOL    HW120390   2.547   3.744   6.902
 6497SOL    HW220391   2.667   3.730   6.792
 6498SOL     OW20392   2.336   4.226   3.758
 6498SOL    HW120393   2.341   4.316   3.801
 6498SOL    HW220394   2.294   4.160   3.820
 6499SOL     OW20395   5.385   2.382   4.951
 6499SOL    HW120396   5.362   2.296   4.905
 6499SOL    HW220397   5.341   2.384   5.040
 6500SOL     OW20398   6.625   4.623   4.067
 6500SOL    HW120399   6.711   4.588   4.031
 6500SOL    HW220400   6.565   4.647   3.990
 6501SOL     OW20401   6.252   2.922   6.581
 6501SOL    HW120402   6.182   2.976   6.628
 6501SOL    HW220403   6.225   2.908   6.486
 6502SOL     OW20404   6.165   4.003   1.999
 6502SOL    HW120405   6.091   4.064   1.971
 6502SOL    HW220406   6.190   3.944   1.922
 6503SOL     OW20407   5.447   0.303   3.874
 6503SOL    HW120408   5.383   0.319   3.799
 6503SOL    HW220409   5.500   0.386   3.890
 6504SOL     OW20410   4.952   6.663   6.320
 6504SOL    HW120411   4.934   6.746   6.371
 6504SOL    HW220412   4.929   6.677   6.224
 6505SOL     OW20413   5.302   5.086   1.496
 6505SOL    HW120414   5.309   4.988   1.515
 6505SOL    HW220415   5.254   5.100   1.409
 6506SOL     OW20416   6.314   3.710   1.411
 6506SOL    HW120417   6.296   3.614   1.433
 6506SOL    HW220418   6.239   3.767   1.443
 6507SOL     OW20419   1.912   5.424   5.869
 6507SOL    HW120420   1.934   5.407   5.773
 6507SOL    HW220421   1.942   5.517   5.894
 6508SOL     OW20422   2.501   0.669   3.330
 6508SOL    HW120423   2.408   0.663   3.295
 6508SOL    HW220424   2.561   0.705   3.259
 6509SOL     OW20425   2.812   2.097   3.682
 6509SOL    HW120426   2.893   2.138   3.640
 6509SOL    HW220427   2.750   2.170   3.711
 6510SOL     OW20428   6.647   4.195   6.996
 6510SOL    HW120429   6.578   4.175   6.927
 6510SOL    HW220430   6.736   4.207   6.951
 6511SOL     OW20431   4.597   0.615   4.938
 6511SOL    HW120432   4.674   0.552   4.950
 6511SOL    HW220433   4.601   0.686   5.009
 6512SOL     OW20434   5.277   6.999   1.826
 6512SOL    HW120435   5.185   0.007   1.851
 6512SOL    HW220436   5.336   0.055   1.809
 6513SOL     OW20437   3.419   5.091   2.900
 6513SOL    HW120438   3.353   5.120   2.970
 6513SOL    HW220439   3.369   5.065   2.817
 6514SOL     OW20440   5.944   0.437   3.360
 6514SOL    HW120441   5.858   0.488   3.355
 6514SOL    HW220442   5.934   0.362   3.425
 6515SOL     OW20443   0.710   5.025   4.156
 6515SOL    HW120444   0.751   5.029   4.065
 6515SOL    HW220445   0.701   5.118   4.192
 6516SOL     OW20446   0.345   3.372   1.442
 6516SOL    HW120447   0.424   3.396   1.498
 6516SOL    HW220448   0.266   3.355   1.500
 6517SOL     OW20449   6.809   1.467   0.631
 6517SOL    HW120450   6.771   1.387   0.678
 6517SOL    HW220451   6.845   1.532   0.699
 6518SOL     OW20452   7.017   0.576   0.108
 6518SOL    HW120453   0.045   0.651   0.150
 6518SOL    HW220454   0.020   0.566   0.012
 6519SOL     OW20455   2.678   1.901   3.481
 6519SOL    HW120456   2.579   1.905   3.472
 6519SOL    HW220457   2.709   1.976   3.539
 6520SOL     OW20458   5.284   5.501   2.142
 6520SOL    HW120459   5.220   5.578   2.153
 6520SOL    HW220460   5.341   5.493   2.224
 6521SOL     OW20461   1.375   2.292   4.158
 6521SOL    HW120462   1.342   2.220   4.097
 6521SOL    HW220463   1.304   2.361   4.169
 6522SOL     OW20464   3.541   4.487   6.855
 6522SOL    HW120465   3.575   4.547   6.782
 6522SOL    HW220466   3.508   4.543   6.931
 6523SOL     OW20467   3.230   0.837   6.680
 6523SOL    HW120468   3.192   0.791   6.760
 6523SOL    HW220469   3.165   0.834   6.605
 6524SOL     OW20470   2.905   3.438   2.225
 6524SOL    HW120471   2.825   3.428   2.167
 6524SOL    HW220472   2.988   3.435   2.169
 6525SOL     OW20473   1.836   3.596   2.870
 6525SOL    HW120474   1.852   3.513   2.815
 6525SOL    HW220475   1.917   3.615   2.925
 6526SOL     OW20476   2.373   0.167   6.049
 6526SOL    HW120477   2.353   0.114   5.967
 6526SOL    HW220478   2.472   0.181   6.056
 6527SOL     OW20479   0.691   1.815   4.386
 6527SOL    HW120480   0.751   1.894   4.383
 6527SOL    HW220481   0.744   1.734   4.412
 6528SOL     OW20482   0.255   0.945   3.701
 6528SOL    HW120483   0.209   0.927   3.788
 6528SOL    HW220484   0.238   1.039   3.672
 6529SOL     OW20485   6.928   1.531   3.236
 6529SOL    HW120486   6.896   1.573   3.151
 6529SOL    HW220487   7.001   1.465   3.215
 6530SOL     OW20488   6.446   3.688   1.833
 6530SOL    HW120489   6.442   3.755   1.759
 6530SOL    HW220490   6.525   3.707   1.891
 6531SOL     OW20491   5.780   3.776   4.793
 6531SOL    HW120492   5.822   3.863   4.819
 6531SOL    HW220493   5.743   3.783   4.701
 6532SOL     OW20494   6.336   0.598   6.736
 6532SOL    HW120495   6.417   0.594   6.794
 6532SOL    HW220496   6.299   0.506   6.723
 6533SOL     OW20497   4.508   6.118   0.994
 6533SOL    HW120498   4.494   6.201   1.048
 6533SOL    HW220499   4.559   6.051   1.049
 6534SOL     OW20500   3.223   4.173   1.558
 6534SOL    HW120501   3.284   4.242   1.522
 6534SOL    HW220502   3.241   4.085   1.513
 6535SOL     OW20503   6.585   3.057   4.269
 6535SOL    HW120504   6.617   2.985   4.331
 6535SOL    HW220505   6.659   3.083   4.208
 6536SOL     OW20506   0.777   2.555   5.524
 6536SOL    HW120507   0.831   2.632   5.489
 6536SOL    HW220508   0.823   2.469   5.501
 6537SOL     OW20509   5.774   5.539   0.086
 6537SOL    HW120510   5.741   5.626   0.048
 6537SOL    HW220511   5.874   5.537   0.081
 6538SOL     OW20512   3.140   4.345   0.187
 6538SOL    HW120513   3.056   4.313   0.142
 6538SOL    HW220514   3.219   4.296   0.150
 6539SOL     OW20515   3.329   1.150   6.266
 6539SOL    HW120516   3.426   1.175   6.269
 6539SOL    HW220517   3.280   1.213   6.205
 6540SOL     OW20518   4.670   1.358   5.206
 6540SOL    HW120519   4.709   1.450   5.198
 6540SOL    HW220520   4.637   1.343   5.299
 6541SOL     OW20521   3.721   1.629   5.310
 6541SOL    HW120522   3.671   1.676   5.238
 6541SOL    HW220523   3.720   1.530   5.293
 6542SOL     OW20524   6.886   4.760   3.853
 6542SOL    HW120525   6.957   4.770   3.923
 6542SOL    HW220526   6.800   4.799   3.886
 6543SOL     OW20527   6.367   3.917   7.017
 6543SOL    HW120528   6.273   3.953   7.020
 6543SOL    HW220529   6.422   3.960   0.065
 6544SOL     OW20530   0.592   6.116   2.779
 6544SOL    HW120531   0.544   6.051   2.838
 6544SOL    HW220532   0.527   6.161   2.718
 6545SOL     OW20533   5.406   2.199   6.455
 6545SOL    HW120534   5.484   2.158   6.409
 6545SOL    HW220535   5.341   2.127   6.481
 6546SOL     OW20536   4.409   4.158   6.584
 6546SOL    HW120537   4.460   4.160   6.499
 6546SOL    HW220538   4.371   4.248   6.602
 6547SOL     OW20539   4.843   1.565   5.794
 6547SOL    HW120540   4.762   1.599   5.747
 6547SOL    HW220541   4.896   1.641   5.830
 6548SOL     OW20542   0.636   3.335   0.099
 6548SOL    HW120543   0.624   3.236   0.098
 6548SOL    HW220544   0.573   3.376   0.165
 6549SOL     OW20545   4.193   1.685   0.632
 6549SOL    HW120546   4.266   1.687   0.700
 6549SOL    HW220547   4.111   1.644   0.672
 6550SOL     OW20548   0.388   6.289   3.713
 6550SOL    HW120549   0.487   6.282   3.721
 6550SOL    HW220550   0.350   6.325   3.798
 6551SOL     OW20551   2.041   4.297   2.171
 6551SOL    HW120552   2.011   4.347   2.089
 6551SOL    HW220553   2.132   4.329   2.197
 6552SOL     OW20554   2.395   6.664   5.441
 6552SOL    HW120555   2.333   6.593   5.475
 6552SOL    HW220556   2.356   6.754   5.460
 6553SOL     OW20557   0.595   1.707   2.387
 6553SOL    HW120558   0.581   1.711   2.486
 6553SOL    HW220559   0.509   1.687   2.341
 6554SOL     OW20560   6.665   1.556   5.638
 6554SOL    HW120561   6.587   1.617   5.653
 6554SOL    HW220562   6.649   1.469   5.684
 6555SOL     OW20563   0.776   2.248   1.556
 6555SOL    HW120564   0.726   2.317   1.607
 6555SOL    HW220565   0.793   2.169   1.615
 6556SOL     OW20566   4.368   4.677   5.261
 6556SOL    HW120567   4.362   4.765   5.214
 6556SOL    HW220568   4.305   4.612   5.217
 6557SOL     OW20569   4.323   5.493   1.456
 6557SOL    HW120570   4.303   5.456   1.547
 6557SOL    HW220571   4.419   5.519   1.451
 6558SOL     OW20572   6.533   5.593   0.202
 6558SOL    HW120573   6.505   5.520   0.140
 6558SOL    HW220574   6.473   5.672   0.189
 6559SOL     OW20575   6.554   3.979   6.828
 6559SOL    HW120576   6.518   4.040   6.757
 6559SOL    HW220577   6.479   3.928   6.869
 6560SOL     OW20578   3.848   3.592   1.076
 6560SOL    HW120579   3.793   3.672   1.054
 6560SOL    HW220580   3.797   3.509   1.052
 6561SOL     OW20581   3.540   4.031   2.301
 6561SOL    HW120582   3.448   4.050   2.333
 6561SOL    HW220583   3.546   4.050   2.203
 6562SOL     OW20584   5.849   4.706   6.846
 6562SOL    HW120585   5.812   4.660   6.765
 6562SOL    HW220586   5.867   4.638   6.917
 6563SOL     OW20587   0.017   6.175   0.364
 6563SOL    HW120588   0.079   6.230   0.308
 6563SOL    HW220589   0.064   6.145   0.447
 6564SOL     OW20590   6.515   3.940   2.692
 6564SOL    HW120591   6.540   3.898   2.779
 6564SOL    HW220592   6.548   4.035   2.691
 6565SOL     OW20593   6.135   2.471   4.238
 6565SOL    HW120594   6.147   2.570   4.229
 6565SOL    HW220595   6.040   2.451   4.261
 6566SOL     OW20596   2.936   6.976   1.546
 6566SOL    HW120597   2.987   6.903   1.592
 6566SOL    HW220598   2.936   6.960   1.448
 6567SOL     OW20599   3.830   2.818   1.465
 6567SOL    HW120600   3.828   2.913   1.496
 6567SOL    HW220601   3.917   2.800   1.418
 6568SOL     OW20602   5.021   6.364   2.982
 6568SOL    HW120603   5.018   6.270   3.015
 6568SOL    HW220604   5.103   6.410   3.017
 6569SOL     OW20605   3.461   4.019   0.904
 6569SOL    HW120606   3.517   4.097   0.876
 6569SOL    HW220607   3.401   3.992   0.829
 6570SOL     OW20608   4.521   6.558   2.043
 6570SOL    HW120609   4.579   6.609   2.107
 6570SOL    HW220610   4.493   6.472   2.086
 6571SOL     OW20611   2.762   6.132   2.025
 6571SOL    HW120612   2.819   6.202   1.980
 6571SOL    HW220613   2.791   6.041   1.995
 6572SOL     OW20614   6.702   5.723   5.655
 6572SOL    HW120615   6.794   5.699   5.625
 6572SOL    HW220616   6.640   5.724   5.576
 6573SOL     OW20617   2.877   1.029   2.623
 6573SOL    HW120618   2.818   1.092   2.673
 6573SOL    HW220619   2.848   0.935   2.640
 6574SOL     OW20620   3.012   5.993   2.429
 6574SOL    HW120621   3.034   5.950   2.342
 6574SOL    HW220622   3.096   6.029   2.470
 6575SOL     OW20623   0.999   1.479   1.909
 6575SOL    HW120624   0.920   1.417   1.908
 6575SOL    HW220625   0.982   1.555   1.847
 6576SOL     OW20626   1.374   6.480   6.419
 6576SOL    HW120627   1.279   6.505   6.398
 6576SOL    HW220628   1.414   6.549   6.480
 6577SOL     OW20629   0.393   2.110   3.760
 6577SOL    HW120630   0.411   2.207   3.744
 6577SOL    HW220631   0.415   2.058   3.678
 6578SOL     OW20632   0.376   4.463   2.819
 6578SOL    HW120633   0.399   4.382   2.873
 6578SOL    HW220634   0.305   4.439   2.753
 6579SOL     OW20635   0.150   3.942   4.753
 6579SOL    HW120636   0.133   3.958   4.656
 6579SOL    HW220637   0.212   3.864   4.763
 6580SOL     OW20638   0.015   1.275   1.293
 6580SOL    HW120639   0.076   1.254   1.216
 6580SOL    HW220640   0.065   1.263   1.379
 6581SOL     OW20641   3.331   1.501   6.754
 6581SOL    HW120642   3.392   1.557   6.810
 6581SOL    HW220643   3.368   1.494   6.662
 6582SOL     OW20644   1.996   0.655   2.264
 6582SOL    HW120645   1.951   0.647   2.175
 6582SOL    HW220646   1.979   0.747   2.301
 6583SOL     OW20647   4.238   0.210   5.334
 6583SOL    HW120648   4.146   0.236   5.365
 6583SOL    HW220649   4.284   0.291   5.297
 6584SOL     OW20650   5.006   1.849   6.953
 6584SOL    HW120651   5.102   1.824   6.965
 6584SOL    HW220652   4.990   1.873   6.857
 6585SOL     OW20653   6.923   0.923   0.516
 6585SOL    HW120654   6.973   1.008   0.535
 6585SOL    HW220655   6.879   0.930   0.427
 6586SOL     OW20656   6.207   2.584   6.134
 6586SOL    HW120657   6.153   2.610   6.214
 6586SOL    HW220658   6.187   2.490   6.109
 6587SOL     OW20659   2.671   5.783   4.790
 6587SOL    HW120660   2.605   5.848   4.752
 6587SOL    HW220661   2.627   5.695   4.805
 6588SOL     OW20662   1.707   3.841   1.580
 6588SOL    HW120663   1.619   3.879   1.554
 6588SOL    HW220664   1.694   3.748   1.614
 6589SOL     OW20665   4.729   0.271   6.512
 6589SOL    HW120666   4.734   0.198   6.581
 6589SOL    HW220667   4.796   0.342   6.533
 6590SOL     OW20668   0.754   1.258   5.857
 6590SOL    HW120669   0.721   1.282   5.766
 6590SOL    HW220670   0.730   1.331   5.921
 6591SOL     OW20671   4.913   6.097   2.604
 6591SOL    HW120672   4.974   6.044   2.546
 6591SOL    HW220673   4.923   6.194   2.582
 6592SOL     OW20674   6.006   6.627   4.035
 6592SOL    HW120675   6.082   6.655   3.976
 6592SOL    HW220676   5.919   6.639   3.985
 6593SOL     OW20677   2.401   1.924   3.526
 6593SOL    HW120678   2.393   1.875   3.612
 6593SOL    HW220679   2.323   1.902   3.467
 6594SOL     OW20680   3.987   1.709   0.246
 6594SOL    HW120681   3.915   1.775   0.223
 6594SOL    HW220682   4.061   1.757   0.293
 6595SOL     OW20683   0.820   3.345   1.025
 6595SOL    HW120684   0.863   3.362   1.114
 6595SOL    HW220685   0.889   3.354   0.953
 6596SOL     OW20686   3.386   7.014   4.574
 6596SOL    HW120687   3.318   6.942   4.562
 6596SOL    HW220688   3.437   0.003   4.489
 6597SOL     OW20689   1.698   6.413   3.315
 6597SOL    HW120690   1.771   6.477   3.342
 6597SOL    HW220691   1.692   6.409   3.216
 6598SOL     OW20692   0.435   6.978   4.281
 6598SOL    HW120693   0.525   6.944   4.309
 6598SOL    HW220694   0.414   6.944   4.189
 6599SOL     OW20695   3.340   5.711   5.566
 6599SOL    HW120696   3.341   5.806   5.596
 6599SOL    HW220697   3.402   5.700   5.488
 6600SOL     OW20698   4.654   5.105   6.100
 6600SOL    HW120699   4.697   5.183   6.144
 6600SOL    HW220700   4.682   5.101   6.004
 6601SOL     OW20701   0.697   1.138   6.597
 6601SOL    HW120702   0.626   1.203   6.567
 6601SOL    HW220703   0.786   1.169   6.563
 6602SOL     OW20704   7.011   1.304   1.900
 6602SOL    HW120705   6.948   1.371   1.938
 6602SOL    HW220706   0.073   1.305   1.951
 6603SOL     OW20707   0.814   2.839   4.318
 6603SOL    HW120708   0.904   2.819   4.280
 6603SOL    HW220709   0.795   2.937   4.310
 6604SOL     OW20710   2.337   6.502   0.618
 6604SOL    HW120711   2.332   6.545   0.528
 6604SOL    HW220712   2.389   6.416   0.611
 6605SOL     OW20713   5.777   4.630   1.115
 6605SOL    HW120714   5.836   4.701   1.077
 6605SOL    HW220715   5.808   4.541   1.082
 6606SOL     OW20716   5.194   0.231   2.610
 6606SOL    HW120717   5.178   0.160   2.541
 6606SOL    HW220718   5.214   0.318   2.565
 6607SOL     OW20719   1.810   2.472   1.336
 6607SOL    HW120720   1.835   2.494   1.241
 6607SOL    HW220721   1.774   2.554   1.381
 6608SOL     OW20722   4.772   6.126   1.984
 6608SOL    HW120723   4.816   6.156   1.900
 6608SOL    HW220724   4.832   6.145   2.062
 6609SOL     OW20725   4.562   0.822   5.863
 6609SOL    HW120726   4.658   0.813   5.887
 6609SOL    HW220727   4.519   0.890   5.923
 6610SOL     OW20728   2.490   1.424   6.285
 6610SOL    HW120729   2.477   1.515   6.246
 6610SOL    HW220730   2.588   1.407   6.296
 6611SOL     OW20731   6.269   2.802   3.402
 6611SOL    HW120732   6.178   2.830   3.432
 6611SOL    HW220733   6.265   2.766   3.309
 6612SOL     OW20734   0.124   2.826   6.779
 6612SOL    HW120735   0.047   2.883   6.747
 6612SOL    HW220736   0.120   2.738   6.733
 6613SOL     OW20737   5.989   6.113   4.495
 6613SOL    HW120738   6.069   6.103   4.434
 6613SOL    HW220739   6.001   6.056   4.576
 6614SOL     OW20740   5.470   6.139   0.177
 6614SOL    HW120741   5.507   6.124   0.269
 6614SOL    HW220742   5.545   6.144   0.112
 6615SOL     OW20743   0.783   4.468   3.659
 6615SOL    HW120744   0.863   4.469   3.719
 6615SOL    HW220745   0.805   4.420   3.575
 6616SOL     OW20746   4.211   1.421   6.132
 6616SOL    HW120747   4.211   1.321   6.131
 6616SOL    HW220748   4.158   1.453   6.210
 6617SOL     OW20749   2.998   5.869   3.299
 6617SOL    HW120750   3.055   5.861   3.217
 6617SOL    HW220751   3.047   5.832   3.377
 6618SOL     OW20752   1.200   3.113   3.163
 6618SOL    HW120753   1.272   3.177   3.191
 6618SOL    HW220754   1.125   3.118   3.229
 6619SOL     OW20755   6.809   6.749   4.378
 6619SOL    HW120756   6.860   6.812   4.436
 6619SOL    HW220757   6.852   6.658   4.381
 6620SOL     OW20758   2.691   2.575   5.285
 6620SOL    HW120759   2.612   2.629   5.254
 6620SOL    HW220760   2.722   2.517   5.210
 6621SOL     OW20761   2.040   3.164   6.518
 6621SOL    HW120762   1.966   3.119   6.469
 6621SOL    HW220763   2.125   3.113   6.503
 6622SOL     OW20764   6.013   6.177   1.303
 6622SOL    HW120765   6.012   6.093   1.357
 6622SOL    HW220766   6.085   6.238   1.337
 6623SOL     OW20767   3.153   3.706   0.698
 6623SOL    HW120768   3.070   3.708   0.753
 6623SOL    HW220769   3.233   3.708   0.758
 6624SOL     OW20770   1.543   0.512   4.622
 6624SOL    HW120771   1.453   0.555   4.616
 6624SOL    HW220772   1.546   0.430   4.565
 6625SOL     OW20773   5.385   2.130   5.785
 6625SOL    HW120774   5.418   2.132   5.690
 6625SOL    HW220775   5.326   2.209   5.801
 6626SOL     OW20776   4.100   4.788   5.156
 6626SOL    HW120777   4.021   4.849   5.156
 6626SOL    HW220778   4.078   4.705   5.206
 6627SOL     OW20779   2.501   0.765   6.050
 6627SOL    HW120780   2.553   0.789   5.968
 6627SOL    HW220781   2.482   0.667   6.051
 6628SOL     OW20782   4.839   4.699   4.306
 6628SOL    HW120783   4.909   4.699   4.235
 6628SOL    HW220784   4.830   4.792   4.343
 6629SOL     OW20785   2.889   5.900   6.703
 6629SOL    HW120786   2.866   5.806   6.731
 6629SOL    HW220787   2.870   5.911   6.606
 6630SOL     OW20788   2.991   1.364   1.574
 6630SOL    HW120789   2.979   1.300   1.498
 6630SOL    HW220790   2.923   1.343   1.645
 6631SOL     OW20791   3.609   0.581   2.286
 6631SOL    HW120792   3.622   0.485   2.262
 6631SOL    HW220793   3.600   0.635   2.202
 6632SOL     OW20794   0.692   0.233   2.278
 6632SOL    HW120795   0.683   0.286   2.362
 6632SOL    HW220796   0.603   0.223   2.235
 6633SOL     OW20797   1.075   4.487   5.402
 6633SOL    HW120798   1.006   4.416   5.389
 6633SOL    HW220799   1.054   4.565   5.342
 6634SOL     OW20800   6.135   3.108   5.032
 6634SOL    HW120801   6.064   3.063   4.978
 6634SOL    HW220802   6.224   3.096   4.989
 6635SOL     OW20803   3.762   5.392   3.631
 6635SOL    HW120804   3.861   5.379   3.637
 6635SOL    HW220805   3.720   5.372   3.719
 6636SOL     OW20806   3.748   1.853   5.913
 6636SOL    HW120807   3.674   1.799   5.872
 6636SOL    HW220808   3.709   1.931   5.962
 6637SOL     OW20809   1.694   0.329   5.881
 6637SOL    HW120810   1.608   0.282   5.898
 6637SOL    HW220811   1.696   0.414   5.934
 6638SOL     OW20812   3.569   4.195   4.671
 6638SOL    HW120813   3.655   4.157   4.704
 6638SOL    HW220814   3.505   4.204   4.748
 6639SOL     OW20815   5.859   5.256   0.090
 6639SOL    HW120816   5.955   5.282   0.102
 6639SOL    HW220817   5.800   5.328   0.125
 6640SOL     OW20818   0.389   1.775   4.968
 6640SOL    HW120819   0.378   1.799   4.871
 6640SOL    HW220820   0.359   1.680   4.983
 6641SOL     OW20821   2.224   2.080   6.991
 6641SOL    HW120822   2.245   2.174   7.018
 6641SOL    HW220823   2.225   2.021   0.049
 6642SOL     OW20824   2.714   5.687   0.323
 6642SOL    HW120825   2.639   5.726   0.270
 6642SOL    HW220826   2.678   5.616   0.384
 6643SOL     OW20827   6.747   5.145   6.848
 6643SOL    HW120828   6.784   5.137   6.940
 6643SOL    HW220829   6.780   5.070   6.792
 6644SOL     OW20830   2.881   4.672   1.646
 6644SOL    HW120831   2.812   4.611   1.607
 6644SOL    HW220832   2.898   4.645   1.741
 6645SOL     OW20833   6.904   5.082   0.022
 6645SOL    HW120834   6.866   4.991   0.034
 6645SOL    HW220835   6.886   5.137   0.104
 6646SOL     OW20836   3.832   6.980   4.462
 6646SOL    HW120837   3.910   0.013   4.437
 6646SOL    HW220838   3.819   6.983   4.561
 6647SOL     OW20839   3.958   0.925   2.285
 6647SOL    HW120840   4.054   0.933   2.260
 6647SOL    HW220841   3.906   0.892   2.207
 6648SOL     OW20842   3.351   5.832   2.342
 6648SOL    HW120843   3.390   5.795   2.427
 6648SOL    HW220844   3.418   5.822   2.268
 6649SOL     OW20845   4.855   1.379   0.059
 6649SOL    HW120846   4.854   1.479   0.068
 6649SOL    HW220847   4.862   1.337   0.149
 6650SOL     OW20848   3.547   1.077   5.252
 6650SOL    HW120849   3.464   1.083   5.196
 6650SOL    HW220850   3.543   1.146   5.325
 6651SOL     OW20851   2.062   1.305   6.790
 6651SOL    HW120852   2.054   1.213   6.827
 6651SOL    HW220853   2.049   1.302   6.691
 6652SOL     OW20854   6.898   5.230   0.242
 6652SOL    HW120855   6.888   5.140   0.285
 6652SOL    HW220856   6.899   5.300   0.312
 6653SOL     OW20857   3.238   3.371   2.199
 6653SOL    HW120858   3.333   3.367   2.169
 6653SOL    HW220859   3.192   3.286   2.175
 6654SOL     OW20860   1.535   3.329   0.968
 6654SOL    HW120861   1.561   3.240   1.005
 6654SOL    HW220862   1.482   3.316   0.884
 6655SOL     OW20863   3.382   6.812   1.470
 6655SOL    HW120864   3.431   6.853   1.392
 6655SOL    HW220865   3.442   6.809   1.549
 6656SOL     OW20866   6.376   1.916   2.116
 6656SOL    HW120867   6.351   1.988   2.182
 6656SOL    HW220868   6.301   1.851   2.108
 6657SOL     OW20869   5.217   5.973   6.500
 6657SOL    HW120870   5.240   5.879   6.526
 6657SOL    HW220871   5.278   6.036   6.549
 6658SOL     OW20872   6.001   1.794   4.862
 6658SOL    HW120873   5.975   1.863   4.929
 6658SOL    HW220874   5.944   1.713   4.873
 6659SOL     OW20875   2.098   2.305   0.578
 6659SOL    HW120876   2.176   2.259   0.619
 6659SOL    HW220877   2.024   2.239   0.563
 6660SOL     OW20878   0.730   6.092   0.931
 6660SOL    HW120879   0.801   6.025   0.951
 6660SOL    HW220880   0.661   6.092   1.003
 6661SOL     OW20881   0.764   5.886   3.333
 6661SOL    HW120882   0.687   5.856   3.276
 6661SOL    HW220883   0.735   5.964   3.388
 6662SOL     OW20884   1.090   0.763   6.798
 6662SOL    HW120885   1.139   0.679   6.823
 6662SOL    HW220886   1.117   0.837   6.860
 6663SOL     OW20887   6.950   5.336   3.110
 6663SOL    HW120888   6.893   5.416   3.090
 6663SOL    HW220889   0.008   5.365   3.160
 6664SOL     OW20890   1.815   7.021   0.471
 6664SOL    HW120891   1.771   0.006   0.382
 6664SOL    HW220892   1.747   0.010   0.544
 6665SOL     OW20893   1.771   6.979   3.471
 6665SOL    HW120894   1.694   0.016   3.453
 6665SOL    HW220895   1.853   0.010   3.489
 6666SOL     OW20896   5.876   0.541   6.189
 6666SOL    HW120897   5.969   0.507   6.171
 6666SOL    HW220898   5.877   0.597   6.272
 6667SOL     OW20899   6.846   5.158   5.756
 6667SOL    HW120900   6.881   5.243   5.718
 6667SOL    HW220901   6.920   5.109   5.803
 6668SOL     OW20902   5.907   5.759   1.978
 6668SOL    HW120903   6.002   5.726   1.982
 6668SOL    HW220904   5.845   5.682   1.963
 6669SOL     OW20905   2.349   2.825   3.774
 6669SOL    HW120906   2.349   2.827   3.874
 6669SOL    HW220907   2.275   2.883   3.740
 6670SOL     OW20908   3.656   2.390   5.736
 6670SOL    HW120909   3.639   2.300   5.696
 6670SOL    HW220910   3.577   2.450   5.720
 6671SOL     OW20911   5.067   5.498   1.115
 6671SOL    HW120912   5.139   5.440   1.151
 6671SOL    HW220913   5.099   5.593   1.112
 6672SOL     OW20914   0.578   2.170   5.623
 6672SOL    HW120915   0.621   2.120   5.548
 6672SOL    HW220916   0.648   2.208   5.683
 6673SOL     OW20917   5.302   5.965   3.093
 6673SOL    HW120918   5.316   5.893   3.161
 6673SOL    HW220919   5.316   6.054   3.136
 6674SOL     OW20920   0.565   4.829   5.945
 6674SOL    HW120921   0.629   4.752   5.939
 6674SOL    HW220922   0.616   4.915   5.938
 6675SOL     OW20923   4.287   3.978   1.704
 6675SOL    HW120924   4.196   3.963   1.743
 6675SOL    HW220925   4.327   4.060   1.743
 6676SOL     OW20926   0.563   4.308   5.430
 6676SOL    HW120927   0.520   4.246   5.364
 6676SOL    HW220928   0.612   4.254   5.499
 6677SOL     OW20929   1.188   1.896   6.733
 6677SOL    HW120930   1.106   1.855   6.693
 6677SOL    HW220931   1.224   1.837   6.804
 6678SOL     OW20932   2.556   2.687   0.485
 6678SOL    HW120933   2.650   2.656   0.468
 6678SOL    HW220934   2.528   2.661   0.577
 6679SOL     OW20935   2.986   1.304   4.045
 6679SOL    HW120936   2.921   1.233   4.016
 6679SOL    HW220937   3.014   1.287   4.139
 6680SOL     OW20938   4.662   6.733   6.617
 6680SOL    HW120939   4.714   6.819   6.614
 6680SOL    HW220940   4.609   6.723   6.533
 6681SOL     OW20941   4.753   5.196   0.179
 6681SOL    HW120942   4.801   5.267   0.128
 6681SOL    HW220943   4.812   5.116   0.189
 6682SOL     OW20944   1.428   4.632   2.421
 6682SOL    HW120945   1.464   4.564   2.485
 6682SOL    HW220946   1.329   4.621   2.413
 6683SOL     OW20947   5.001   2.743   5.634
 6683SOL    HW120948   5.070   2.777   5.696
 6683SOL    HW220949   4.990   2.644   5.646
 6684SOL     OW20950   2.491   6.685   0.748
 6684SOL    HW120951   2.433   6.619   0.701
 6684SOL    HW220952   2.531   6.747   0.681
 6685SOL     OW20953   5.391   3.186   5.599
 6685SOL    HW120954   5.326   3.261   5.586
 6685SOL    HW220955   5.383   3.122   5.523
 6686SOL     OW20956   5.156   5.966   4.125
 6686SOL    HW120957   5.191   5.873   4.121
 6686SOL    HW220958   5.084   5.972   4.194
 6687SOL     OW20959   6.915   2.141   1.311
 6687SOL    HW120960   6.824   2.182   1.326
 6687SOL    HW220961   6.932   2.133   1.213
 6688SOL     OW20962   6.653   4.127   2.089
 6688SOL    HW120963   6.615   4.169   2.171
 6688SOL    HW220964   6.584   4.126   2.016
 6689SOL     OW20965   4.128   3.105   0.258
 6689SOL    HW120966   4.034   3.141   0.250
 6689SOL    HW220967   4.150   3.052   0.176
 6690SOL     OW20968   2.372   0.973   1.768
 6690SOL    HW120969   2.441   1.010   1.706
 6690SOL    HW220970   2.308   1.046   1.794
 6691SOL     OW20971   2.891   6.368   1.658
 6691SOL    HW120972   2.847   6.434   1.718
 6691SOL    HW220973   2.984   6.398   1.638
 6692SOL     OW20974   3.103   4.328   5.600
 6692SOL    HW120975   3.036   4.256   5.618
 6692SOL    HW220976   3.082   4.371   5.512
 6693SOL     OW20977   3.985   3.144   5.973
 6693SOL    HW120978   3.895   3.114   5.941
 6693SOL    HW220979   3.986   3.243   5.982
 6694SOL     OW20980   5.291   6.308   0.369
 6694SOL    HW120981   5.268   6.397   0.330
 6694SOL    HW220982   5.310   6.319   0.467
 6695SOL     OW20983   2.581   2.370   5.773
 6695SOL    HW120984   2.596   2.407   5.681
 6695SOL    HW220985   2.664   2.382   5.828
 6696SOL     OW20986   1.702   2.629   0.366
 6696SOL    HW120987   1.723   2.548   0.422
 6696SOL    HW220988   1.630   2.682   0.410
 6697SOL     OW20989   5.047   2.372   3.361
 6697SOL    HW120990   5.020   2.457   3.316
 6697SOL    HW220991   5.146   2.369   3.371
 6698SOL     OW20992   2.989   2.723   0.558
 6698SOL    HW120993   3.005   2.655   0.629
 6698SOL    HW220994   3.076   2.763   0.530
 6699SOL     OW20995   3.290   5.049   6.431
 6699SOL    HW120996   3.337   5.135   6.448
 6699SOL    HW220997   3.216   5.038   6.497
 6700SOL     OW20998   0.070   6.180   1.290
 6700SOL    HW120999   0.072   6.254   1.357
 6700SOL    HW221000   0.126   6.104   1.324
 6701SOL     OW21001   5.434   3.015   0.825
 6701SOL    HW121002   5.350   2.968   0.796
 6701SOL    HW221003   5.513   2.963   0.794
 6702SOL     OW21004   2.561   2.742   0.162
 6702SOL    HW121005   2.493   2.815   0.154
 6702SOL    HW221006   2.560   2.706   0.256
 6703SOL     OW21007   6.484   1.481   6.812
 6703SOL    HW121008   6.389   1.502   6.833
 6703SOL    HW221009   6.529   1.563   6.776
 6704SOL     OW21010   4.440   2.325   2.390
 6704SOL    HW121011   4.402   2.273   2.314
 6704SOL    HW221012   4.455   2.420   2.362
 6705SOL     OW21013   6.974   2.535   2.176
 6705SOL    HW121014   6.951   2.536   2.274
 6705SOL    HW221015   0.049   2.517   2.166
 6706SOL     OW21016   1.177   3.938   1.209
 6706SOL    HW121017   1.207   4.021   1.163
 6706SOL    HW221018   1.255   3.878   1.226
 6707SOL     OW21019   0.512   5.590   4.564
 6707SOL    HW121020   0.414   5.589   4.582
 6707SOL    HW221021   0.561   5.610   4.649
 6708SOL     OW21022   1.246   4.937   2.550
 6708SOL    HW121023   1.187   5.018   2.551
 6708SOL    HW221024   1.341   4.965   2.541
 6709SOL     OW21025   3.062   5.625   2.054
 6709SOL    HW121026   3.137   5.574   2.012
 6709SOL    HW221027   2.976   5.604   2.007
 6710SOL     OW21028   2.749   1.656   6.020
 6710SOL    HW121029   2.746   1.733   6.084
 6710SOL    HW221030   2.773   1.689   5.929
 6711SOL     OW21031   5.691   4.791   0.016
 6711SOL    HW121032   5.758   4.791   6.965
 6711SOL    HW221033   5.692   4.880   0.061
 6712SOL     OW21034   4.490   5.561   0.061
 6712SOL    HW121035   4.459   5.655   0.072
 6712SOL    HW221036   4.588   5.556   0.083
 6713SOL     OW21037   1.660   2.045   1.609
 6713SOL    HW121038   1.752   2.019   1.580
 6713SOL    HW221039   1.627   2.121   1.553
 6714SOL     OW21040   5.370   0.753   6.150
 6714SOL    HW121041   5.296   0.697   6.187
 6714SOL    HW221042   5.409   0.709   6.069
 6715SOL     OW21043   0.123   0.671   6.902
 6715SOL    HW121044   0.210   0.665   6.854
 6715SOL    HW221045   0.114   0.760   6.946
 6716SOL     OW21046   0.942   5.741   2.300
 6716SOL    HW121047   0.891   5.655   2.297
 6716SOL    HW221048   1.029   5.726   2.347
 6717SOL     OW21049   4.075   3.161   1.029
 6717SOL    HW121050   4.098   3.101   0.953
 6717SOL    HW221051   3.976   3.163   1.041
 6718SOL     OW21052   3.854   6.104   6.291
 6718SOL    HW121053   3.872   6.037   6.363
 6718SOL    HW221054   3.932   6.166   6.282
 6719SOL     OW21055   0.582   0.046   5.686
 6719SOL    HW121056   0.656   7.022   5.638
 6719SOL    HW221057   0.619   0.098   5.762
 6720SOL     OW21058   1.501   6.167   2.237
 6720SOL    HW121059   1.482   6.224   2.316
 6720SOL    HW221060   1.599   6.168   2.218
 6721SOL     OW21061   6.023   6.728   4.593
 6721SOL    HW121062   5.926   6.709   4.607
 6721SOL    HW221063   6.048   6.706   4.498
 6722SOL     OW21064   5.293   3.344   1.337
 6722SOL    HW121065   5.232   3.334   1.259
 6722SOL    HW221066   5.372   3.283   1.327
 6723SOL     OW21067   2.348   6.405   2.801
 6723SOL    HW121068   2.262   6.355   2.809
 6723SOL    HW221069   2.366   6.423   2.704
 6724SOL     OW21070   1.242   3.459   6.271
 6724SOL    HW121071   1.277   3.546   6.234
 6724SOL    HW221072   1.314   3.390   6.268
 6725SOL     OW21073   0.677   4.412   1.672
 6725SOL    HW121074   0.603   4.349   1.650
 6725SOL    HW221075   0.649   4.471   1.748
 6726SOL     OW21076   0.792   2.090   4.405
 6726SOL    HW121077   0.878   2.110   4.451
 6726SOL    HW221078   0.760   2.172   4.356
 6727SOL     OW21079   6.741   3.698   5.820
 6727SOL    HW121080   6.738   3.790   5.780
 6727SOL    HW221081   6.834   3.662   5.811
 6728SOL     OW21082   4.869   1.484   4.692
 6728SOL    HW121083   4.940   1.548   4.664
 6728SOL    HW221084   4.882   1.457   4.787
 6729SOL     OW21085   6.802   1.506   2.416
 6729SOL    HW121086   6.742   1.552   2.351
 6729SOL    HW221087   6.883   1.472   2.369
 6730SOL     OW21088   1.661   6.416   6.223
 6730SOL    HW121089   1.563   6.426   6.236
 6730SOL    HW221090   1.679   6.378   6.133
 6731SOL     OW21091   2.173   4.320   1.118
 6731SOL    HW121092   2.091   4.328   1.061
 6731SOL    HW221093   2.146   4.298   1.212
 6732SOL     OW21094   4.609   5.626   5.888
 6732SOL    HW121095   4.651   5.555   5.944
 6732SOL    HW221096   4.680   5.688   5.853
 6733SOL     OW21097   4.411   5.061   6.718
 6733SOL    HW121098   4.312   5.077   6.715
 6733SOL    HW221099   4.454   5.107   6.641
 6734SOL     OW21100   1.002   3.336   5.364
 6734SOL    HW121101   0.909   3.316   5.395
 6734SOL    HW221102   1.025   3.431   5.385
 6735SOL     OW21103   0.611   5.974   4.909
 6735SOL    HW121104   0.677   5.904   4.937
 6735SOL    HW221105   0.548   5.935   4.842
 6736SOL     OW21106   1.638   3.580   0.603
 6736SOL    HW121107   1.593   3.583   0.514
 6736SOL    HW221108   1.704   3.505   0.605
 6737SOL     OW21109   2.199   2.913   0.911
 6737SOL    HW121110   2.111   2.947   0.877
 6737SOL    HW221111   2.266   2.911   0.837
 6738SOL     OW21112   2.088   3.293   2.196
 6738SOL    HW121113   2.140   3.351   2.133
 6738SOL    HW221114   2.136   3.288   2.284
 6739SOL     OW21115   3.332   5.110   5.736
 6739SOL    HW121116   3.389   5.125   5.816
 6739SOL    HW221117   3.322   5.196   5.685
 6740SOL     OW21118   2.159   1.545   4.501
 6740SOL    HW121119   2.098   1.494   4.441
 6740SOL    HW221120   2.122   1.545   4.594
 6741SOL     OW21121   4.616   1.355   5.480
 6741SOL    HW121122   4.594   1.440   5.528
 6741SOL    HW221123   4.531   1.310   5.451
 6742SOL     OW21124   0.492   5.721   2.802
 6742SOL    HW121125   0.579   5.768   2.785
 6742SOL    HW221126   0.494   5.682   2.894
 6743SOL     OW21127   3.686   4.364   0.019
 6743SOL    HW121128   3.616   4.413   6.989
 6743SOL    HW221129   3.730   4.428   0.081
 6744SOL     OW21130   4.169   5.567   5.605
 6744SOL    HW121131   4.146   5.479   5.648
 6744SOL    HW221132   4.222   5.623   5.669
 6745SOL     OW21133   1.194   5.978   2.357
 6745SOL    HW121134   1.234   5.937   2.276
 6745SOL    HW221135   1.150   6.065   2.333
 6746SOL     OW21136   0.568   1.129   2.857
 6746SOL    HW121137   0.486   1.073   2.858
 6746SOL    HW221138   0.580   1.169   2.765
 6747SOL     OW21139   5.337   6.978   4.374
 6747SOL    HW121140   5.278   6.915   4.323
 6747SOL    HW221141   5.432   6.962   4.348
 6748SOL     OW21142   1.433   0.322   2.910
 6748SOL    HW121143   1.436   0.418   2.938
 6748SOL    HW221144   1.356   0.277   2.955
 6749SOL     OW21145   3.052   6.670   0.123
 6749SOL    HW121146   3.091   6.761   0.136
 6749SOL    HW221147   3.052   6.648   0.025
 6750SOL     OW21148   3.972   1.358   5.054
 6750SOL    HW121149   4.000   1.432   4.993
 6750SOL    HW221150   4.044   1.288   5.056
 6751SOL     OW21151   4.006   1.594   3.544
 6751SOL    HW121152   4.094   1.548   3.552
 6751SOL    HW221153   3.990   1.650   3.626
 6752SOL     OW21154   5.945   3.001   2.565
 6752SOL    HW121155   5.965   3.095   2.590
 6752SOL    HW221156   5.901   2.954   2.642
 6753SOL     OW21157   4.654   1.365   6.215
 6753SOL    HW121158   4.629   1.352   6.311
 6753SOL    HW221159   4.721   1.296   6.188
 6754SOL     OW21160   6.408   2.033   5.638
 6754SOL    HW121161   6.502   2.057   5.660
 6754SOL    HW221162   6.346   2.085   5.698
 6755SOL     OW21163   4.565   1.933   3.937
 6755SOL    HW121164   4.664   1.923   3.924
 6755SOL    HW221165   4.521   1.844   3.932
 6756SOL     OW21166   4.712   4.306   4.442
 6756SOL    HW121167   4.625   4.351   4.461
 6756SOL    HW221168   4.754   4.347   4.361
 6757SOL     OW21169   4.626   6.156   0.748
 6757SOL    HW121170   4.671   6.242   0.773
 6757SOL    HW221171   4.578   6.120   0.828
 6758SOL     OW21172   5.492   3.940   1.872
 6758SOL    HW121173   5.522   4.001   1.799
 6758SOL    HW221174   5.392   3.944   1.880
 6759SOL     OW21175   1.307   3.501   3.896
 6759SOL    HW121176   1.384   3.520   3.957
 6759SOL    HW221177   1.253   3.584   3.883
 6760SOL     OW21178   6.325   5.609   4.399
 6760SOL    HW121179   6.232   5.574   4.407
 6760SOL    HW221180   6.388   5.550   4.450
 6761SOL     OW21181   5.507   2.552   5.741
 6761SOL    HW121182   5.448   2.495   5.684
 6761SOL    HW221183   5.483   2.648   5.728
 6762SOL     OW21184   0.164   5.455   3.250
 6762SOL    HW121185   0.250   5.405   3.239
 6762SOL    HW221186   0.183   5.550   3.274
 6763SOL     OW21187   6.573   6.035   3.840
 6763SOL    HW121188   6.591   6.114   3.898
 6763SOL    HW221189   6.485   5.995   3.863
 6764SOL     OW21190   2.799   4.736   6.671
 6764SOL    HW121191   2.804   4.636   6.671
 6764SOL    HW221192   2.891   4.774   6.687
 6765SOL     OW21193   5.831   5.138   3.769
 6765SOL    HW121194   5.893   5.072   3.726
 6765SOL    HW221195   5.737   5.118   3.742
 6766SOL     OW21196   2.720   0.183   6.563
 6766SOL    HW121197   2.819   0.193   6.574
 6766SOL    HW221198   2.689   0.241   6.488
 6767SOL     OW21199   0.499   2.930   0.946
 6767SOL    HW121200   0.537   2.881   1.024
 6767SOL    HW221201   0.569   2.942   0.876
 6768SOL     OW21202   1.098   0.488   3.863
 6768SOL    HW121203   1.182   0.504   3.813
 6768SOL    HW221204   1.022   0.533   3.817
 6769SOL     OW21205   2.820   1.550   5.239
 6769SOL    HW121206   2.855   1.534   5.332
 6769SOL    HW221207   2.728   1.588   5.245
 6770SOL     OW21208   0.129   2.334   4.272
 6770SOL    HW121209   0.089   2.347   4.181
 6770SOL    HW221210   0.227   2.353   4.269
 6771SOL     OW21211   3.767   1.949   3.340
 6771SOL    HW121212   3.684   1.929   3.288
 6771SOL    HW221213   3.806   1.864   3.376
 6772SOL     OW21214   5.731   1.956   2.217
 6772SOL    HW121215   5.793   1.956   2.295
 6772SOL    HW221216   5.714   1.862   2.187
 6773SOL     OW21217   6.880   6.568   1.803
 6773SOL    HW121218   6.850   6.491   1.747
 6773SOL    HW221219   6.974   6.594   1.777
 6774SOL     OW21220   1.895   1.649   5.648
 6774SOL    HW121221   1.929   1.743   5.634
 6774SOL    HW221222   1.873   1.636   5.745
 6775SOL     OW21223   1.066   1.780   3.648
 6775SOL    HW121224   1.119   1.721   3.709
 6775SOL    HW221225   1.072   1.874   3.680
 6776SOL     OW21226   3.638   3.440   1.861
 6776SOL    HW121227   3.574   3.500   1.812
 6776SOL    HW221228   3.704   3.496   1.911
 6777SOL     OW21229   4.371   5.254   1.291
 6777SOL    HW121230   4.448   5.239   1.229
 6777SOL    HW221231   4.366   5.350   1.317
 6778SOL     OW21232   5.520   3.621   2.365
 6778SOL    HW121233   5.422   3.606   2.375
 6778SOL    HW221234   5.557   3.658   2.451
 6779SOL     OW21235   6.515   4.287   6.235
 6779SOL    HW121236   6.451   4.223   6.194
 6779SOL    HW221237   6.471   4.376   6.247
 6780SOL     OW21238   2.233   3.102   2.846
 6780SOL    HW121239   2.216   3.198   2.869
 6780SOL    HW221240   2.160   3.045   2.884
 6781SOL     OW21241   6.595   0.979   4.108
 6781SOL    HW121242   6.617   0.881   4.115
 6781SOL    HW221243   6.572   1.001   4.014
 6782SOL     OW21244   0.216   1.463   3.578
 6782SOL    HW121245   0.204   1.523   3.499
 6782SOL    HW221246   0.313   1.442   3.589
 6783SOL     OW21247   1.151   4.081   4.920
 6783SOL    HW121248   1.101   4.151   4.869
 6783SOL    HW221249   1.178   4.007   4.859
 6784SOL     OW21250   2.133   3.212   1.869
 6784SOL    HW121251   2.046   3.252   1.897
 6784SOL    HW221252   2.207   3.275   1.891
 6785SOL     OW21253   5.826   4.466   5.284
 6785SOL    HW121254   5.813   4.429   5.376
 6785SOL    HW221255   5.887   4.545   5.288
 6786SOL     OW21256   6.415   3.007   0.275
 6786SOL    HW121257   6.424   3.102   0.305
 6786SOL    HW221258   6.318   2.983   0.268
 6787SOL     OW21259   3.499   2.537   0.787
 6787SOL    HW121260   3.418   2.550   0.730
 6787SOL    HW221261   3.498   2.603   0.862
 6788SOL     OW21262   0.761   3.812   2.155
 6788SOL    HW121263   0.697   3.757   2.208
 6788SOL    HW221264   0.845   3.760   2.139
 6789SOL     OW21265   6.620   4.164   4.099
 6789SOL    HW121266   6.710   4.207   4.104
 6789SOL    HW221267   6.619   4.081   4.154
 6790SOL     OW21268   0.404   4.877   5.696
 6790SOL    HW121269   0.475   4.883   5.766
 6790SOL    HW221270   0.393   4.782   5.666
 6791SOL     OW21271   4.674   1.490   3.124
 6791SOL    HW121272   4.731   1.553   3.071
 6791SOL    HW221273   4.733   1.436   3.186
 6792SOL     OW21274   4.108   6.684   5.101
 6792SOL    HW121275   4.155   6.601   5.129
 6792SOL    HW221276   4.011   6.665   5.088
 6793SOL     OW21277   2.977   2.076   6.910
 6793SOL    HW121278   3.071   2.066   6.945
 6793SOL    HW221279   2.977   2.139   6.832
 6794SOL     OW21280   4.728   1.356   5.921
 6794SOL    HW121281   4.793   1.423   5.885
 6794SOL    HW221282   4.680   1.395   5.999
 6795SOL     OW21283   1.167   1.013   1.303
 6795SOL    HW121284   1.243   1.009   1.367
 6795SOL    HW221285   1.087   0.968   1.343
 6796SOL     OW21286   6.276   0.881   1.912
 6796SOL    HW121287   6.208   0.808   1.908
 6796SOL    HW221288   6.359   0.846   1.956
 6797SOL     OW21289   6.742   2.938   1.968
 6797SOL    HW121290   6.841   2.921   1.966
 6797SOL    HW221291   6.694   2.850   1.962
 6798SOL     OW21292   5.187   0.501   1.542
 6798SOL    HW121293   5.231   0.462   1.461
 6798SOL    HW221294   5.193   0.436   1.618
 6799SOL     OW21295   5.587   6.924   3.224
 6799SOL    HW121296   5.629   6.949   3.137
 6799SOL    HW221297   5.488   6.915   3.213
 6800SOL     OW21298   1.111   1.373   1.101
 6800SOL    HW121299   1.209   1.394   1.096
 6800SOL    HW221300   1.089   1.339   1.192
 6801SOL     OW21301   1.363   6.379   4.705
 6801SOL    HW121302   1.429   6.427   4.647
 6801SOL    HW221303   1.271   6.415   4.688
 6802SOL     OW21304   3.050   6.561   0.877
 6802SOL    HW121305   3.099   6.497   0.817
 6802SOL    HW221306   3.020   6.513   0.959
 6803SOL     OW21307   4.974   4.485   6.968
 6803SOL    HW121308   4.928   4.397   6.961
 6803SOL    HW221309   5.069   4.472   6.997
 6804SOL     OW21310   2.975   5.035   2.619
 6804SOL    HW121311   2.887   5.019   2.665
 6804SOL    HW221312   2.983   5.131   2.595
 6805SOL     OW21313   0.167   4.936   5.307
 6805SOL    HW121314   0.182   4.866   5.377
 6805SOL    HW221315   0.070   4.958   5.302
 6806SOL     OW21316   6.793   0.759   3.935
 6806SOL    HW121317   6.870   0.696   3.943
 6806SOL    HW221318   6.710   0.709   3.911
 6807SOL     OW21319   3.820   3.444   3.598
 6807SOL    HW121320   3.832   3.491   3.686
 6807SOL    HW221321   3.758   3.367   3.610
 6808SOL     OW21322   4.873   0.970   5.216
 6808SOL    HW121323   4.842   0.875   5.211
 6808SOL    HW221324   4.864   1.013   5.126
 6809SOL     OW21325   6.024   4.576   1.694
 6809SOL    HW121326   5.964   4.534   1.626
 6809SOL    HW221327   6.085   4.506   1.732
 6810SOL     OW21328   3.414   0.932   3.207
 6810SOL    HW121329   3.394   0.951   3.303
 6810SOL    HW221330   3.411   0.834   3.191
 6811SOL     OW21331   6.626   2.034   2.811
 6811SOL    HW121332   6.619   1.934   2.802
 6811SOL    HW221333   6.613   2.060   2.906
 6812SOL     OW21334   3.430   3.492   4.828
 6812SOL    HW121335   3.461   3.397   4.824
 6812SOL    HW221336   3.379   3.514   4.745
 6813SOL     OW21337   4.912   3.288   1.389
 6813SOL    HW121338   4.977   3.314   1.317
 6813SOL    HW221339   4.833   3.243   1.347
 6814SOL     OW21340   4.349   1.517   5.916
 6814SOL    HW121341   4.438   1.538   5.955
 6814SOL    HW221342   4.285   1.493   5.989
 6815SOL     OW21343   2.160   5.009   6.666
 6815SOL    HW121344   2.213   5.088   6.638
 6815SOL    HW221345   2.134   4.956   6.586
 6816SOL     OW21346   6.486   1.701   4.811
 6816SOL    HW121347   6.405   1.703   4.752
 6816SOL    HW221348   6.475   1.768   4.884
 6817SOL     OW21349   2.545   2.395   3.265
 6817SOL    HW121350   2.513   2.487   3.288
 6817SOL    HW221351   2.616   2.368   3.330
 6818SOL     OW21352   1.987   6.325   5.787
 6818SOL    HW121353   1.990   6.242   5.844
 6818SOL    HW221354   1.993   6.406   5.846
 6819SOL     OW21355   4.731   5.392   3.159
 6819SOL    HW121356   4.672   5.347   3.092
 6819SOL    HW221357   4.675   5.446   3.221
 6820SOL     OW21358   1.239   6.875   1.220
 6820SOL    HW121359   1.236   6.967   1.182
 6820SOL    HW221360   1.311   6.822   1.175
 6821SOL     OW21361   3.973   2.203   5.473
 6821SOL    HW121362   4.023   2.178   5.556
 6821SOL    HW221363   3.876   2.213   5.494
 6822SOL     OW21364   6.840   2.767   6.325
 6822SOL    HW121365   6.901   2.829   6.276
 6822SOL    HW221366   6.895   2.696   6.370
 6823SOL     OW21367   5.269   3.907   6.735
 6823SOL    HW121368   5.296   3.845   6.661
 6823SOL    HW221369   5.339   3.907   6.806
 6824SOL     OW21370   1.745   1.659   6.826
 6824SOL    HW121371   1.665   1.666   6.886
 6824SOL    HW221372   1.720   1.607   6.744
 6825SOL     OW21373   6.625   6.171   1.336
 6825SOL    HW121374   6.579   6.241   1.282
 6825SOL    HW221375   6.722   6.169   1.312
 6826SOL     OW21376   0.600   3.598   3.033
 6826SOL    HW121377   0.574   3.658   3.109
 6826SOL    HW221378   0.518   3.556   2.994
 6827SOL     OW21379   4.865   5.342   5.650
 6827SOL    HW121380   4.957   5.331   5.688
 6827SOL    HW221381   4.871   5.356   5.551
 6828SOL     OW21382   3.997   1.455   2.937
 6828SOL    HW121383   3.935   1.480   2.862
 6828SOL    HW221384   4.079   1.513   2.932
 6829SOL     OW21385   5.860   0.209   5.461
 6829SOL    HW121386   5.836   0.304   5.479
 6829SOL    HW221387   5.912   0.172   5.538
 6830SOL     OW21388   5.916   1.154   3.002
 6830SOL    HW121389   5.997   1.134   2.946
 6830SOL    HW221390   5.938   1.226   3.068
 6831SOL     OW21391   1.188   1.581   5.513
 6831SOL    HW121392   1.182   1.509   5.445
 6831SOL    HW221393   1.134   1.555   5.594
 6832SOL     OW21394   3.011   2.360   0.372
 6832SOL    HW121395   2.948   2.433   0.397
 6832SOL    HW221396   2.993   2.330   0.278
 6833SOL     OW21397   3.257   5.482   6.252
 6833SOL    HW121398   3.300   5.493   6.342
 6833SOL    HW221399   3.282   5.559   6.194
 6834SOL     OW21400   5.292   0.200   0.660
 6834SOL    HW121401   5.243   0.280   0.695
 6834SOL    HW221402   5.314   0.214   0.563
 6835SOL     OW21403   3.505   1.749   3.877
 6835SOL    HW121404   3.520   1.832   3.932
 6835SOL    HW221405   3.534   1.766   3.783
 6836SOL     OW21406   1.787   4.654   6.362
 6836SOL    HW121407   1.745   4.676   6.451
 6836SOL    HW221408   1.838   4.568   6.370
 6837SOL     OW21409   1.110   0.734   2.306
 6837SOL    HW121410   1.210   0.738   2.305
 6837SOL    HW221411   1.072   0.821   2.274
 6838SOL     OW21412   2.783   4.371   5.344
 6838SOL    HW121413   2.850   4.425   5.293
 6838SOL    HW221414   2.699   4.364   5.291
 6839SOL     OW21415   4.987   1.807   3.941
 6839SOL    HW121416   5.046   1.734   3.975
 6839SOL    HW221417   4.982   1.881   4.009
 6840SOL     OW21418   2.943   0.067   4.768
 6840SOL    HW121419   2.958   0.125   4.688
 6840SOL    HW221420   2.844   0.056   4.784
 6841SOL     OW21421   3.882   5.162   1.528
 6841SOL    HW121422   3.934   5.123   1.451
 6841SOL    HW221423   3.798   5.203   1.494
 6842SOL     OW21424   0.608   3.054   0.172
 6842SOL    HW121425   0.636   2.972   0.221
 6842SOL    HW221426   0.673   3.071   0.097
 6843SOL     OW21427   4.773   1.725   1.853
 6843SOL    HW121428   4.695   1.788   1.853
 6843SOL    HW221429   4.843   1.759   1.916
 6844SOL     OW21430   4.620   5.625   4.490
 6844SOL    HW121431   4.605   5.543   4.435
 6844SOL    HW221432   4.718   5.645   4.494
 6845SOL     OW21433   4.263   4.706   2.872
 6845SOL    HW121434   4.347   4.679   2.824
 6845SOL    HW221435   4.249   4.645   2.950
 6846SOL     OW21436   3.699   3.599   1.453
 6846SOL    HW121437   3.743   3.610   1.542
 6846SOL    HW221438   3.724   3.509   1.415
 6847SOL     OW21439   4.693   3.594   1.784
 6847SOL    HW121440   4.739   3.509   1.809
 6847SOL    HW221441   4.608   3.572   1.735
 6848SOL     OW21442   0.826   5.055   4.528
 6848SOL    HW121443   0.811   4.964   4.490
 6848SOL    HW221444   0.863   5.115   4.457
 6849SOL     OW21445   3.875   5.794   4.331
 6849SOL    HW121446   3.790   5.744   4.346
 6849SOL    HW221447   3.915   5.818   4.419
 6850SOL     OW21448   6.078   2.111   3.966
 6850SOL    HW121449   6.054   2.201   3.929
 6850SOL    HW221450   6.003   2.047   3.950
 6851SOL     OW21451   0.698   4.539   5.438
 6851SOL    HW121452   0.656   4.448   5.441
 6851SOL    HW221453   0.626   4.608   5.434
 6852SOL     OW21454   0.833   4.209   1.727
 6852SOL    HW121455   0.916   4.248   1.767
 6852SOL    HW221456   0.772   4.282   1.698
 6853SOL     OW21457   0.058   5.067   5.874
 6853SOL    HW121458   0.049   4.967   5.882
 6853SOL    HW221459   0.145   5.088   5.828
 6854SOL     OW21460   6.552   1.379   5.899
 6854SOL    HW121461   6.488   1.441   5.943
 6854SOL    HW221462   6.639   1.380   5.948
 6855SOL     OW21463   3.665   6.675   2.562
 6855SOL    HW121464   3.752   6.657   2.608
 6855SOL    HW221465   3.654   6.773   2.550
 6856SOL     OW21466   6.157   4.083   5.067
 6856SOL    HW121467   6.094   4.020   5.021
 6856SOL    HW221468   6.227   4.030   5.115
 6857SOL     OW21469   3.439   1.454   6.468
 6857SOL    HW121470   3.386   1.422   6.389
 6857SOL    HW221471   3.510   1.386   6.490
 6858SOL     OW21472   3.884   3.109   4.088
 6858SOL    HW121473   3.818   3.070   4.153
 6858SOL    HW221474   3.953   3.160   4.139
 6859SOL     OW21475   1.780   6.933   0.857
 6859SOL    HW121476   1.732   6.946   0.770
 6859SOL    HW221477   1.877   6.957   0.845
 6860SOL     OW21478   5.589   4.675   1.875
 6860SOL    HW121479   5.511   4.649   1.818
 6860SOL    HW221480   5.593   4.614   1.954
 6861SOL     OW21481   5.855   4.897   0.675
 6861SOL    HW121482   5.950   4.867   0.662
 6861SOL    HW221483   5.803   4.878   0.592
 6862SOL     OW21484   2.470   4.934   4.979
 6862SOL    HW121485   2.375   4.922   4.950
 6862SOL    HW221486   2.508   4.845   5.006
 6863SOL     OW21487   6.060   1.093   4.606
 6863SOL    HW121488   6.011   1.061   4.687
 6863SOL    HW221489   6.115   1.173   4.629
 6864SOL     OW21490   3.574   5.831   3.863
 6864SOL    HW121491   3.644   5.879   3.811
 6864SOL    HW221492   3.527   5.765   3.804
 6865SOL     OW21493   6.347   4.474   3.943
 6865SOL    HW121494   6.284   4.534   3.992
 6865SOL    HW221495   6.343   4.494   3.846
 6866SOL     OW21496   6.432   3.963   2.376
 6866SOL    HW121497   6.491   4.040   2.399
 6866SOL    HW221498   6.362   3.992   2.310
 6867SOL     OW21499   1.523   4.015   1.470
 6867SOL    HW121500   1.579   4.001   1.388
 6867SOL    HW221501   1.438   4.061   1.445
 6868SOL     OW21502   1.756   6.014   4.664
 6868SOL    HW121503   1.677   6.051   4.615
 6868SOL    HW221504   1.744   5.916   4.678
 6869SOL     OW21505   5.992   3.437   4.565
 6869SOL    HW121506   6.056   3.364   4.589
 6869SOL    HW221507   5.948   3.472   4.648
 6870SOL     OW21508   5.868   3.571   3.220
 6870SOL    HW121509   5.790   3.623   3.188
 6870SOL    HW221510   5.857   3.551   3.318
 6871SOL     OW21511   6.331   5.055   1.556
 6871SOL    HW121512   6.277   4.992   1.500
 6871SOL    HW221513   6.386   5.003   1.621
 6872SOL     OW21514   1.847   3.593   1.076
 6872SOL    HW121515   1.790   3.550   1.006
 6872SOL    HW221516   1.792   3.608   1.158
 6873SOL     OW21517   6.080   3.266   6.292
 6873SOL    HW121518   6.044   3.335   6.229
 6873SOL    HW221519   6.020   3.187   6.295
 6874SOL     OW21520   0.268   4.087   3.205
 6874SOL    HW121521   0.200   4.017   3.228
 6874SOL    HW221522   0.276   4.151   3.282
 6875SOL     OW21523   1.349   2.048   3.618
 6875SOL    HW121524   1.447   2.040   3.639
 6875SOL    HW221525   1.334   2.027   3.522
 6876SOL     OW21526   3.611   5.353   6.682
 6876SOL    HW121527   3.601   5.445   6.718
 6876SOL    HW221528   3.620   5.288   6.758
 6877SOL     OW21529   2.936   4.223   6.916
 6877SOL    HW121530   2.992   4.141   6.916
 6877SOL    HW221531   2.921   4.254   7.010
 6878SOL     OW21532   2.046   1.904   6.033
 6878SOL    HW121533   2.058   1.806   6.051
 6878SOL    HW221534   2.069   1.956   6.115
 6879SOL     OW21535   0.405   2.324   0.666
 6879SOL    HW121536   0.409   2.232   0.627
 6879SOL    HW221537   0.350   2.383   0.607
 6880SOL     OW21538   2.109   3.515   4.986
 6880SOL    HW121539   2.094   3.579   5.062
 6880SOL    HW221540   2.170   3.557   4.919
 6881SOL     OW21541   6.895   4.592   1.919
 6881SOL    HW121542   6.822   4.524   1.929
 6881SOL    HW221543   6.977   4.562   1.967
 6882SOL     OW21544   2.211   0.316   5.698
 6882SOL    HW121545   2.262   0.385   5.749
 6882SOL    HW221546   2.275   0.250   5.659
 6883SOL     OW21547   3.173   0.692   1.034
 6883SOL    HW121548   3.185   0.787   1.004
 6883SOL    HW221549   3.262   0.648   1.044
 6884SOL     OW21550   2.385   4.438   3.918
 6884SOL    HW121551   2.357   4.510   3.981
 6884SOL    HW221552   2.447   4.476   3.849
 6885SOL     OW21553   2.711   5.710   3.520
 6885SOL    HW121554   2.721   5.628   3.463
 6885SOL    HW221555   2.718   5.685   3.616
 6886SOL     OW21556   5.857   1.036   1.776
 6886SOL    HW121557   5.948   1.076   1.774
 6886SOL    HW221558   5.863   0.938   1.791
 6887SOL     OW21559   5.347   0.716   5.285
 6887SOL    HW121560   5.354   0.807   5.245
 6887SOL    HW221561   5.292   0.657   5.226
 6888SOL     OW21562   5.885   0.456   5.913
 6888SOL    HW121563   5.887   0.545   5.957
 6888SOL    HW221564   5.951   0.395   5.957
 6889SOL     OW21565   1.060   3.139   5.768
 6889SOL    HW121566   1.094   3.230   5.745
 6889SOL    HW221567   1.134   3.073   5.758
 6890SOL     OW21568   2.028   0.373   0.840
 6890SOL    HW121569   1.997   0.468   0.830
 6890SOL    HW221570   2.001   0.320   0.760
 6891SOL     OW21571   2.156   3.690   4.683
 6891SOL    HW121572   2.202   3.718   4.768
 6891SOL    HW221573   2.076   3.748   4.669
 6892SOL     OW21574   4.223   7.000   4.247
 6892SOL    HW121575   4.240   6.915   4.198
 6892SOL    HW221576   4.264   0.053   4.198
 6893SOL     OW21577   5.370   6.360   2.081
 6893SOL    HW121578   5.309   6.347   2.159
 6893SOL    HW221579   5.417   6.448   2.088
 6894SOL     OW21580   6.165   5.765   0.798
 6894SOL    HW121581   6.259   5.795   0.781
 6894SOL    HW221582   6.133   5.712   0.719
 6895SOL     OW21583   3.072   4.713   6.816
 6895SOL    HW121584   3.102   4.619   6.803
 6895SOL    HW221585   3.094   4.767   6.735
 6896SOL     OW21586   4.253   0.076   3.632
 6896SOL    HW121587   4.283   0.071   3.537
 6896SOL    HW221588   4.168   0.025   3.643
 6897SOL     OW21589   2.831   3.367   0.201
 6897SOL    HW121590   2.827   3.467   0.211
 6897SOL    HW221591   2.767   3.325   0.264
 6898SOL     OW21592   4.540   1.531   2.162
 6898SOL    HW121593   4.503   1.553   2.072
 6898SOL    HW221594   4.613   1.594   2.184
 6899SOL     OW21595   4.825   6.970   6.706
 6899SOL    HW121596   4.833   6.901   6.779
 6899SOL    HW221597   4.903   0.008   6.710
 6900SOL     OW21598   6.239   0.685   6.379
 6900SOL    HW121599   6.195   0.747   6.314
 6900SOL    HW221600   6.196   0.595   6.372
 6901SOL     OW21601   0.379   0.176   6.442
 6901SOL    HW121602   0.311   0.205   6.375
 6901SOL    HW221603   0.336   0.164   6.531
 6902SOL     OW21604   0.077   6.534   0.339
 6902SOL    HW121605   7.022   6.487   0.381
 6902SOL    HW221606   0.153   6.537   0.404
 6903SOL     OW21607   3.534   3.597   0.108
 6903SOL    HW121608   3.613   3.603   0.168
 6903SOL    HW221609   3.558   3.635   0.018
 6904SOL     OW21610   6.594   1.206   3.430
 6904SOL    HW121611   6.678   1.185   3.480
 6904SOL    HW221612   6.525   1.136   3.448
 6905SOL     OW21613   5.936   6.327   0.203
 6905SOL    HW121614   6.002   6.354   0.133
 6905SOL    HW221615   5.932   6.397   0.274
 6906SOL     OW21616   3.808   1.418   4.262
 6906SOL    HW121617   3.785   1.349   4.331
 6906SOL    HW221618   3.727   1.438   4.207
 6907SOL     OW21619   3.780   2.201   0.668
 6907SOL    HW121620   3.878   2.203   0.686
 6907SOL    HW221621   3.750   2.291   0.637
 6908SOL     OW21622   1.338   0.284   5.264
 6908SOL    HW121623   1.354   0.235   5.349
 6908SOL    HW221624   1.268   0.236   5.211
 6909SOL     OW21625   4.641   4.615   0.932
 6909SOL    HW121626   4.639   4.702   0.883
 6909SOL    HW221627   4.667   4.631   1.027
 6910SOL     OW21628   6.348   1.721   3.027
 6910SOL    HW121629   6.326   1.633   2.985
 6910SOL    HW221630   6.319   1.795   2.966
 6911SOL     OW21631   4.436   0.299   3.635
 6911SOL    HW121632   4.391   0.210   3.639
 6911SOL    HW221633   4.379   0.368   3.679
 6912SOL     OW21634   4.760   4.638   1.713
 6912SOL    HW121635   4.680   4.618   1.657
 6912SOL    HW221636   4.843   4.628   1.657
 6913SOL     OW21637   5.405   4.260   5.627
 6913SOL    HW121638   5.460   4.239   5.546
 6913SOL    HW221639   5.308   4.264   5.601
 6914SOL     OW21640   5.682   5.579   6.852
 6914SOL    HW121641   5.594   5.537   6.873
 6914SOL    HW221642   5.751   5.507   6.844
 6915SOL     OW21643   0.180   4.823   1.964
 6915SOL    HW121644   0.131   4.910   1.957
 6915SOL    HW221645   0.159   4.766   1.885
 6916SOL     OW21646   6.406   4.254   6.836
 6916SOL    HW121647   6.320   4.243   6.886
 6916SOL    HW221648   6.392   4.233   6.740
 6917SOL     OW21649   4.448   4.941   6.952
 6917SOL    HW121650   4.450   5.002   6.873
 6917SOL    HW221651   4.374   4.875   6.942
 6918SOL     OW21652   0.492   4.230   4.158
 6918SOL    HW121653   0.449   4.183   4.081
 6918SOL    HW221654   0.444   4.316   4.176
 6919SOL     OW21655   1.887   5.511   2.454
 6919SOL    HW121656   1.861   5.579   2.523
 6919SOL    HW221657   1.845   5.423   2.477
 6920SOL     OW21658   5.069   5.182   5.808
 6920SOL    HW121659   5.060   5.160   5.905
 6920SOL    HW221660   5.095   5.278   5.798
 6921SOL     OW21661   5.911   5.785   3.356
 6921SOL    HW121662   5.910   5.736   3.444
 6921SOL    HW221663   5.961   5.731   3.289
 6922SOL     OW21664   1.788   5.719   6.993
 6922SOL    HW121665   1.728   5.794   7.021
 6922SOL    HW221666   1.855   5.753   6.927
 6923SOL     OW21667   5.064   6.371   3.936
 6923SOL    HW121668   5.071   6.466   3.904
 6923SOL    HW221669   5.075   6.368   4.035
 6924SOL     OW21670   0.720   3.991   0.337
 6924SOL    HW121671   0.643   3.930   0.351
 6924SOL    HW221672   0.688   4.077   0.298
 6925SOL     OW21673   4.043   6.380   4.159
 6925SOL    HW121674   4.083   6.466   4.129
 6925SOL    HW221675   3.988   6.341   4.086
 6926SOL     OW21676   3.467   3.547   3.014
 6926SOL    HW121677   3.468   3.626   2.952
 6926SOL    HW221678   3.399   3.481   2.982
 6927SOL     OW21679   5.443   3.151   5.882
 6927SOL    HW121680   5.359   3.108   5.916
 6927SOL    HW221681   5.429   3.181   5.787
 6928SOL     OW21682   5.075   6.906   7.011
 6928SOL    HW121683   5.021   6.990   7.005
 6928SOL    HW221684   5.172   6.929   7.004
 6929SOL     OW21685   4.345   6.082   0.105
 6929SOL    HW121686   4.357   5.985   0.085
 6929SOL    HW221687   4.385   6.136   0.031
 6930SOL     OW21688   0.119   6.509   1.685
 6930SOL    HW121689   0.086   6.481   1.595
 6930SOL    HW221690   0.141   6.607   1.684
 6931SOL     OW21691   0.882   0.724   1.643
 6931SOL    HW121692   0.900   0.626   1.659
 6931SOL    HW221693   0.814   0.756   1.709
 6932SOL     OW21694   3.134   1.043   0.404
 6932SOL    HW121695   3.169   0.957   0.441
 6932SOL    HW221696   3.210   1.106   0.388
 6933SOL     OW21697   3.635   6.001   4.441
 6933SOL    HW121698   3.629   5.911   4.484
 6933SOL    HW221699   3.715   6.050   4.476
 6934SOL     OW21700   5.424   3.714   6.288
 6934SOL    HW121701   5.523   3.718   6.299
 6934SOL    HW221702   5.398   3.752   6.200
 6935SOL     OW21703   4.116   6.574   2.880
 6935SOL    HW121704   4.104   6.638   2.804
 6935SOL    HW221705   4.076   6.614   2.963
 6936SOL     OW21706   6.868   2.447   2.679
 6936SOL    HW121707   6.931   2.448   2.757
 6936SOL    HW221708   6.816   2.361   2.680
 6937SOL     OW21709   5.337   6.702   6.849
 6937SOL    HW121710   5.347   6.743   6.758
 6937SOL    HW221711   5.417   6.645   6.868
 6938SOL     OW21712   4.949   3.706   5.416
 6938SOL    HW121713   4.969   3.771   5.490
 6938SOL    HW221714   5.031   3.692   5.361
 6939SOL     OW21715   6.812   5.077   3.080
 6939SOL    HW121716   6.831   4.993   3.131
 6939SOL    HW221717   6.862   5.153   3.122
 6940SOL     OW21718   4.257   0.975   1.062
 6940SOL    HW121719   4.307   0.920   0.995
 6940SOL    HW221720   4.245   0.922   1.146
 6941SOL     OW21721   4.120   3.379   2.238
 6941SOL    HW121722   4.213   3.390   2.202
 6941SOL    HW221723   4.126   3.342   2.331
 6942SOL     OW21724   0.403   3.108   1.316
 6942SOL    HW121725   0.495   3.099   1.278
 6942SOL    HW221726   0.408   3.154   1.405
 6943SOL     OW21727   4.964   6.476   6.851
 6943SOL    HW121728   4.930   6.384   6.868
 6943SOL    HW221729   5.020   6.477   6.768
 6944SOL     OW21730   1.278   5.062   5.368
 6944SOL    HW121731   1.210   5.026   5.431
 6944SOL    HW221732   1.269   5.162   5.363
 6945SOL     OW21733   6.136   2.947   0.024
 6945SOL    HW121734   6.160   3.030   6.998
 6945SOL    HW221735   6.211   2.881   0.018
 6946SOL     OW21736   6.230   5.273   2.309
 6946SOL    HW121737   6.190   5.183   2.323
 6946SOL    HW221738   6.237   5.291   2.211
 6947SOL     OW21739   4.190   0.075   4.595
 6947SOL    HW121740   4.216   0.012   4.522
 6947SOL    HW221741   4.265   0.080   4.662
 6948SOL     OW21742   5.706   0.679   0.506
 6948SOL    HW121743   5.658   0.759   0.471
 6948SOL    HW221744   5.800   0.678   0.470
 6949SOL     OW21745   4.854   6.514   3.440
 6949SOL    HW121746   4.775   6.571   3.459
 6949SOL    HW221747   4.922   6.525   3.513
 6950SOL     OW21748   2.427   0.136   3.128
 6950SOL    HW121749   2.481   0.187   3.194
 6950SOL    HW221750   2.457   0.160   3.035
 6951SOL     OW21751   6.266   6.634   6.179
 6951SOL    HW121752   6.226   6.688   6.105
 6951SOL    HW221753   6.346   6.586   6.145
 6952SOL     OW21754   7.021   5.098   3.434
 6952SOL    HW121755   7.022   5.029   3.506
 6952SOL    HW221756   6.945   5.161   3.448
 6953SOL     OW21757   5.316   0.562   5.924
 6953SOL    HW121758   5.238   0.511   5.887
 6953SOL    HW221759   5.364   0.505   5.991
 6954SOL     OW21760   1.157   3.738   3.807
 6954SOL    HW121761   1.065   3.775   3.798
 6954SOL    HW221762   1.216   3.806   3.851
 6955SOL     OW21763   0.173   0.272   1.674
 6955SOL    HW121764   0.257   0.231   1.639
 6955SOL    HW221765   0.125   0.319   1.600
 6956SOL     OW21766   4.131   6.032   2.586
 6956SOL    HW121767   4.167   6.056   2.495
 6956SOL    HW221768   4.182   6.082   2.656
 6957SOL     OW21769   6.978   4.529   1.098
 6957SOL    HW121770   0.027   4.528   1.029
 6957SOL    HW221771   6.959   4.623   1.125
 6958SOL     OW21772   2.951   3.833   5.688
 6958SOL    HW121773   2.994   3.849   5.777
 6958SOL    HW221774   3.016   3.855   5.616
 6959SOL     OW21775   1.577   1.334   4.657
 6959SOL    HW121776   1.604   1.402   4.725
 6959SOL    HW221777   1.533   1.380   4.580
 6960SOL     OW21778   0.547   5.120   0.509
 6960SOL    HW121779   0.501   5.112   0.597
 6960SOL    HW221780   0.615   5.193   0.512
 6961SOL     OW21781   0.461   2.827   4.364
 6961SOL    HW121782   0.540   2.779   4.402
 6961SOL    HW221783   0.479   2.848   4.267
 6962SOL     OW21784   5.276   5.278   2.768
 6962SOL    HW121785   5.208   5.301   2.698
 6962SOL    HW221786   5.351   5.227   2.727
 6963SOL     OW21787   6.973   5.658   1.249
 6963SOL    HW121788   6.919   5.652   1.165
 6963SOL    HW221789   6.994   5.566   1.282
 6964SOL     OW21790   5.015   5.040   5.096
 6964SOL    HW121791   4.992   5.002   5.185
 6964SOL    HW221792   4.934   5.037   5.036
 6965SOL     OW21793   0.723   3.842   5.997
 6965SOL    HW121794   0.710   3.856   6.095
 6965SOL    HW221795   0.697   3.748   5.973
 6966SOL     OW21796   5.596   2.709   2.864
 6966SOL    HW121797   5.641   2.773   2.927
 6966SOL    HW221798   5.558   2.760   2.787
 6967SOL     OW21799   1.596   1.780   4.860
 6967SOL    HW121800   1.597   1.800   4.958
 6967SOL    HW221801   1.507   1.807   4.822
 6968SOL     OW21802   3.633   6.298   1.577
 6968SOL    HW121803   3.698   6.222   1.570
 6968SOL    HW221804   3.542   6.267   1.552
 6969SOL     OW21805   4.112   1.955   2.046
 6969SOL    HW121806   4.078   2.039   2.088
 6969SOL    HW221807   4.042   1.916   1.987
 6970SOL     OW21808   4.166   3.935   0.677
 6970SOL    HW121809   4.237   4.005   0.667
 6970SOL    HW221810   4.091   3.955   0.614
 6971SOL     OW21811   6.091   3.672   2.493
 6971SOL    HW121812   6.166   3.616   2.460
 6971SOL    HW221813   6.118   3.768   2.492
 6972SOL     OW21814   6.115   4.840   4.426
 6972SOL    HW121815   6.176   4.762   4.412
 6972SOL    HW221816   6.150   4.918   4.374
 6973SOL     OW21817   1.430   4.306   4.829
 6973SOL    HW121818   1.400   4.358   4.750
 6973SOL    HW221819   1.356   4.300   4.896
 6974SOL     OW21820   3.742   2.928   3.352
 6974SOL    HW121821   3.682   2.901   3.276
 6974SOL    HW221822   3.795   3.009   3.326
 6975SOL     OW21823   3.070   6.249   5.749
 6975SOL    HW121824   3.065   6.172   5.685
 6975SOL    HW221825   2.990   6.309   5.736
 6976SOL     OW21826   4.054   3.918   6.017
 6976SOL    HW121827   4.004   3.948   6.098
 6976SOL    HW221828   4.033   3.978   5.940
 6977SOL     OW21829   5.616   2.144   1.444
 6977SOL    HW121830   5.608   2.100   1.534
 6977SOL    HW221831   5.537   2.117   1.388
 6978SOL     OW21832   6.251   1.607   1.568
 6978SOL    HW121833   6.309   1.531   1.540
 6978SOL    HW221834   6.275   1.636   1.660
 6979SOL     OW21835   1.728   4.747   1.659
 6979SOL    HW121836   1.670   4.822   1.626
 6979SOL    HW221837   1.680   4.660   1.648
 6980SOL     OW21838   1.457   0.747   4.277
 6980SOL    HW121839   1.420   0.831   4.237
 6980SOL    HW221840   1.448   0.751   4.377
 6981SOL     OW21841   2.436   3.447   6.756
 6981SOL    HW121842   2.438   3.348   6.766
 6981SOL    HW221843   2.525   3.478   6.721
 6982SOL     OW21844   1.479   1.673   3.780
 6982SOL    HW121845   1.502   1.701   3.687
 6982SOL    HW221846   1.532   1.727   3.846
 6983SOL     OW21847   6.594   2.064   3.445
 6983SOL    HW121848   6.634   2.037   3.357
 6983SOL    HW221849   6.579   1.982   3.501
 6984SOL     OW21850   2.489   1.536   4.913
 6984SOL    HW121851   2.503   1.504   4.819
 6984SOL    HW221852   2.468   1.634   4.912
 6985SOL     OW21853   3.503   5.260   2.654
 6985SOL    HW121854   3.423   5.294   2.606
 6985SOL    HW221855   3.532   5.173   2.613
 6986SOL     OW21856   1.734   6.126   6.088
 6986SOL    HW121857   1.791   6.179   6.026
 6986SOL    HW221858   1.781   6.041   6.111
 6987SOL     OW21859   1.018   2.110   6.484
 6987SOL    HW121860   1.043   2.196   6.528
 6987SOL    HW221861   1.001   2.126   6.387
 6988SOL     OW21862   5.957   0.852   5.037
 6988SOL    HW121863   5.860   0.831   5.046
 6988SOL    HW221864   5.983   0.919   5.106
 6989SOL     OW21865   1.108   2.504   3.506
 6989SOL    HW121866   1.046   2.578   3.478
 6989SOL    HW221867   1.195   2.514   3.457
 6990SOL     OW21868   5.347   1.928   0.217
 6990SOL    HW121869   5.339   1.889   0.309
 6990SOL    HW221870   5.351   1.855   0.150
 6991SOL     OW21871   2.569   4.653   4.999
 6991SOL    HW121872   2.544   4.583   5.066
 6991SOL    HW221873   2.669   4.662   4.995
 6992SOL     OW21874   5.794   5.982   5.317
 6992SOL    HW121875   5.751   6.053   5.260
 6992SOL    HW221876   5.757   5.987   5.410
 6993SOL     OW21877   6.135   6.695   3.163
 6993SOL    HW121878   6.073   6.617   3.156
 6993SOL    HW221879   6.088   6.770   3.210
 6994SOL     OW21880   0.595   3.037   4.790
 6994SOL    HW121881   0.604   3.068   4.884
 6994SOL    HW221882   0.635   3.105   4.728
 6995SOL     OW21883   6.324   5.048   4.713
 6995SOL    HW121884   6.295   5.144   4.712
 6995SOL    HW221885   6.272   4.998   4.781
 6996SOL     OW21886   2.480   1.243   5.253
 6996SOL    HW121887   2.538   1.220   5.331
 6996SOL    HW221888   2.536   1.256   5.172
 6997SOL     OW21889   4.959   6.046   5.567
 6997SOL    HW121890   4.875   6.089   5.533
 6997SOL    HW221891   4.943   6.014   5.661
 6998SOL     OW21892   1.740   2.740   1.407
 6998SOL    HW121893   1.741   2.749   1.507
 6998SOL    HW221894   1.799   2.810   1.367
 6999SOL     OW21895   2.491   1.861   6.824
 6999SOL    HW121896   2.499   1.769   6.862
 6999SOL    HW221897   2.513   1.928   6.894
 7000SOL     OW21898   0.266   6.416   2.916
 7000SOL    HW121899   0.260   6.400   2.818
 7000SOL    HW221900   0.223   6.340   2.965
 7001SOL     OW21901   2.640   2.935   5.631
 7001SOL    HW121902   2.553   2.885   5.629
 7001SOL    HW221903   2.663   2.963   5.538
 7002SOL     OW21904   2.509   4.859   3.108
 7002SOL    HW121905   2.586   4.921   3.096
 7002SOL    HW221906   2.541   4.765   3.102
 7003SOL     OW21907   3.679   6.555   6.974
 7003SOL    HW121908   3.645   6.595   0.036
 7003SOL    HW221909   3.769   6.594   6.953
 7004SOL     OW21910   1.888   5.106   1.690
 7004SOL    HW121911   1.961   5.053   1.734
 7004SOL    HW221912   1.838   5.159   1.758
 7005SOL     OW21913   0.484   6.316   5.373
 7005SOL    HW121914   0.432   6.306   5.289
 7005SOL    HW221915   0.429   6.363   5.442
 7006SOL     OW21916   5.530   5.164   4.760
 7006SOL    HW121917   5.507   5.125   4.849
 7006SOL    HW221918   5.544   5.263   4.770
 7007SOL     OW21919   5.401   6.517   3.016
 7007SOL    HW121920   5.494   6.527   2.981
 7007SOL    HW221921   5.405   6.482   3.110
 7008SOL     OW21922   2.694   5.213   4.100
 7008SOL    HW121923   2.729   5.247   4.187
 7008SOL    HW221924   2.640   5.285   4.056
 7009SOL     OW21925   5.870   5.196   2.272
 7009SOL    HW121926   5.824   5.133   2.210
 7009SOL    HW221927   5.942   5.148   2.322
 7010SOL     OW21928   4.651   4.226   6.019
 7010SOL    HW121929   4.742   4.241   5.980
 7010SOL    HW221930   4.582   4.253   5.952
 7011SOL     OW21931   1.657   0.530   6.111
 7011SOL    HW121932   1.664   0.468   6.189
 7011SOL    HW221933   1.566   0.572   6.109
 7012SOL     OW21934   1.957   0.925   2.371
 7012SOL    HW121935   2.050   0.931   2.405
 7012SOL    HW221936   1.897   0.983   2.425
 7013SOL     OW21937   0.047   6.928   0.549
 7013SOL    HW121938   0.055   6.988   0.628
 7013SOL    HW221939   0.139   6.906   0.514
 7014SOL     OW21940   4.771   3.942   1.177
 7014SOL    HW121941   4.709   3.933   1.255
 7014SOL    HW221942   4.863   3.963   1.209
 7015SOL     OW21943   5.143   4.595   1.938
 7015SOL    HW121944   5.205   4.558   2.008
 7015SOL    HW221945   5.111   4.685   1.966
 7016SOL     OW21946   3.402   4.922   2.097
 7016SOL    HW121947   3.480   4.859   2.091
 7016SOL    HW221948   3.333   4.884   2.159
 7017SOL     OW21949   2.633   0.243   2.394
 7017SOL    HW121950   2.624   0.333   2.437
 7017SOL    HW221951   2.709   0.245   2.329
 7018SOL     OW21952   6.412   4.791   4.194
 7018SOL    HW121953   6.427   4.888   4.212
 7018SOL    HW221954   6.496   4.750   4.159
 7019SOL     OW21955   2.983   4.227   6.494
 7019SOL    HW121956   3.072   4.243   6.537
 7019SOL    HW221957   2.989   4.248   6.397
 7020SOL     OW21958   6.269   6.894   6.704
 7020SOL    HW121959   6.242   6.904   6.608
 7020SOL    HW221960   6.350   6.835   6.710
 7021SOL     OW21961   2.615   0.838   5.804
 7021SOL    HW121962   2.571   0.887   5.728
 7021SOL    HW221963   2.678   0.769   5.768
 7022SOL     OW21964   5.136   4.436   0.340
 7022SOL    HW121965   5.059   4.440   0.276
 7022SOL    HW221966   5.215   4.397   0.294
 7023SOL     OW21967   0.754   2.604   3.530
 7023SOL    HW121968   0.660   2.634   3.544
 7023SOL    HW221969   0.767   2.579   3.434
 7024SOL     OW21970   1.351   5.658   5.938
 7024SOL    HW121971   1.384   5.565   5.953
 7024SOL    HW221972   1.402   5.722   5.994
 7025SOL     OW21973   3.698   1.622   0.500
 7025SOL    HW121974   3.600   1.613   0.519
 7025SOL    HW221975   3.747   1.643   0.584
 7026SOL     OW21976   2.878   1.393   2.174
 7026SOL    HW121977   2.835   1.302   2.179
 7026SOL    HW221978   2.977   1.384   2.181
 7027SOL     OW21979   2.764   5.611   2.426
 7027SOL    HW121980   2.774   5.689   2.364
 7027SOL    HW221981   2.673   5.612   2.468
 7028SOL     OW21982   5.691   6.203   4.764
 7028SOL    HW121983   5.774   6.146   4.756
 7028SOL    HW221984   5.625   6.175   4.695
 7029SOL     OW21985   3.641   6.973   6.967
 7029SOL    HW121986   3.668   0.038   7.006
 7029SOL    HW221987   3.716   6.908   6.977
 7030SOL     OW21988   0.112   2.452   5.654
 7030SOL    HW121989   0.036   2.435   5.590
 7030SOL    HW221990   0.156   2.539   5.632
 7031SOL     OW21991   1.794   5.853   3.438
 7031SOL    HW121992   1.815   5.769   3.488
 7031SOL    HW221993   1.746   5.917   3.499
 7032SOL     OW21994   3.683   6.797   3.984
 7032SOL    HW121995   3.769   6.750   3.964
 7032SOL    HW221996   3.609   6.753   3.932
 7033SOL     OW21997   6.942   1.647   4.008
 7033SOL    HW121998   7.020   1.710   4.003
 7033SOL    HW221999   6.889   1.653   3.923
 7034SOL     OW22000   6.091   0.831   2.886
 7034SOL    HW122001   6.012   0.789   2.841
 7034SOL    HW222002   6.100   0.925   2.855
 7035SOL     OW22003   1.013   6.738   2.075
 7035SOL    HW122004   1.009   6.837   2.088
 7035SOL    HW222005   1.010   6.717   1.977
 7036SOL     OW22006   6.437   6.612   1.690
 7036SOL    HW122007   6.350   6.647   1.654
 7036SOL    HW222008   6.463   6.530   1.638
 7037SOL     OW22009   0.155   6.714   6.097
 7037SOL    HW122010   0.232   6.699   6.035
 7037SOL    HW222011   0.109   6.800   6.074
 7038SOL     OW22012   1.956   3.892   4.605
 7038SOL    HW122013   1.872   3.908   4.656
 7038SOL    HW222014   1.934   3.864   4.511
 7039SOL     OW22015   2.437   6.273   0.514
 7039SOL    HW122016   2.397   6.193   0.469
 7039SOL    HW222017   2.440   6.349   0.449
 7040SOL     OW22018   4.621   2.499   5.382
 7040SOL    HW122019   4.586   2.458   5.298
 7040SOL    HW222020   4.717   2.522   5.371
 7041SOL     OW22021   1.013   2.132   3.358
 7041SOL    HW122022   0.955   2.069   3.409
 7041SOL    HW222023   1.039   2.209   3.416
 7042SOL     OW22024   5.509   5.270   6.746
 7042SOL    HW122025   5.487   5.275   6.648
 7042SOL    HW222026   5.507   5.362   6.785
 7043SOL     OW22027   2.092   2.636   2.896
 7043SOL    HW122028   2.162   2.598   2.956
 7043SOL    HW222029   2.063   2.566   2.830
 7044SOL     OW22030   4.818   4.307   2.930
 7044SOL    HW122031   4.844   4.312   3.026
 7044SOL    HW222032   4.863   4.229   2.887
 7045SOL     OW22033   4.229   6.236   1.812
 7045SOL    HW122034   4.133   6.262   1.823
 7045SOL    HW222035   4.234   6.146   1.770
 7046SOL     OW22036   3.540   1.941   3.213
 7046SOL    HW122037   3.513   1.999   3.136
 7046SOL    HW222038   3.458   1.898   3.253
 7047SOL     OW22039   0.900   2.613   2.795
 7047SOL    HW122040   0.861   2.540   2.739
 7047SOL    HW222041   0.964   2.666   2.741
 7048SOL     OW22042   0.442   6.229   1.285
 7048SOL    HW122043   0.381   6.155   1.313
 7048SOL    HW222044   0.528   6.222   1.336
 7049SOL     OW22045   2.229   0.899   0.474
 7049SOL    HW122046   2.172   0.891   0.556
 7049SOL    HW222047   2.312   0.951   0.496
 7050SOL     OW22048   3.749   4.056   3.818
 7050SOL    HW122049   3.815   3.991   3.855
 7050SOL    HW222050   3.705   4.105   3.894
 7051SOL     OW22051   0.613   0.646   0.991
 7051SOL    HW122052   0.540   0.626   0.925
 7051SOL    HW222053   0.702   0.632   0.947
 7052SOL     OW22054   6.441   2.659   4.426
 7052SOL    HW122055   6.446   2.740   4.485
 7052SOL    HW222056   6.370   2.597   4.460
 7053SOL     OW22057   0.603   2.922   5.196
 7053SOL    HW122058   0.559   2.835   5.218
 7053SOL    HW222059   0.682   2.905   5.137
 7054SOL     OW22060   1.307   6.580   1.249
 7054SOL    HW122061   1.213   6.556   1.273
 7054SOL    HW222062   1.338   6.656   1.306
 7055SOL     OW22063   3.472   6.469   5.344
 7055SOL    HW122064   3.482   6.511   5.434
 7055SOL    HW222065   3.478   6.370   5.353
 7056SOL     OW22066   5.367   4.821   3.606
 7056SOL    HW122067   5.332   4.913   3.622
 7056SOL    HW222068   5.355   4.797   3.510
 7057SOL     OW22069   1.472   4.736   4.533
 7057SOL    HW122070   1.408   4.665   4.504
 7057SOL    HW222071   1.515   4.710   4.619
 7058SOL     OW22072   6.247   5.593   6.110
 7058SOL    HW122073   6.168   5.653   6.125
 7058SOL    HW222074   6.218   5.512   6.058
 7059SOL     OW22075   0.784   6.989   3.086
 7059SOL    HW122076   0.694   6.969   3.124
 7059SOL    HW222077   0.849   6.919   3.114
 7060SOL     OW22078   3.076   0.286   1.765
 7060SOL    HW122079   3.129   0.370   1.757
 7060SOL    HW222080   3.100   0.224   1.689
 7061SOL     OW22081   0.116   2.565   3.680
 7061SOL    HW122082   0.073   2.634   3.622
 7061SOL    HW222083   0.069   2.477   3.669
 7062SOL     OW22084   5.500   1.602   6.318
 7062SOL    HW122085   5.430   1.623   6.251
 7062SOL    HW222086   5.551   1.521   6.289
 7063SOL     OW22087   0.540   0.242   0.881
 7063SOL    HW122088   0.555   0.284   0.791
 7063SOL    HW222089   0.506   0.149   0.868
 7064SOL     OW22090   4.042   2.210   1.817
 7064SOL    HW122091   4.004   2.155   1.892
 7064SOL    HW222092   3.969   2.261   1.773
 7065SOL     OW22093   4.349   3.775   0.859
 7065SOL    HW122094   4.361   3.851   0.795
 7065SOL    HW222095   4.252   3.764   0.881
 7066SOL     OW22096   4.079   0.507   1.039
 7066SOL    HW122097   3.984   0.483   1.021
 7066SOL    HW222098   4.129   0.425   1.068
 7067SOL     OW22099   1.513   1.703   5.240
 7067SOL    HW122100   1.509   1.664   5.332
 7067SOL    HW222101   1.606   1.736   5.222
 7068SOL     OW22102   0.787   3.905   3.344
 7068SOL    HW122103   0.702   3.895   3.293
 7068SOL    HW222104   0.782   3.852   3.428
 7069SOL     OW22105   6.564   2.722   4.201
 7069SOL    HW122106   6.514   2.674   4.128
 7069SOL    HW222107   6.517   2.709   4.288
 7070SOL     OW22108   6.660   6.482   5.169
 7070SOL    HW122109   6.628   6.577   5.162
 7070SOL    HW222110   6.590   6.421   5.134
 7071SOL     OW22111   0.755   6.419   6.032
 7071SOL    HW122112   0.750   6.348   6.102
 7071SOL    HW222113   0.844   6.416   5.987
 7072SOL     OW22114   6.510   6.687   6.020
 7072SOL    HW122115   6.511   6.723   5.926
 7072SOL    HW222116   6.590   6.630   6.035
 7073SOL     OW22117   6.027   0.163   4.560
 7073SOL    HW122118   6.027   0.249   4.509
 7073SOL    HW222119   5.958   0.167   4.633
 7074SOL     OW22120   4.054   3.057   1.381
 7074SOL    HW122121   4.058   2.957   1.369
 7074SOL    HW222122   3.960   3.084   1.400
 7075SOL     OW22123   0.863   6.302   4.973
 7075SOL    HW122124   0.874   6.400   4.991
 7075SOL    HW222125   0.777   6.286   4.926
 7076SOL     OW22126   4.155   2.604   0.037
 7076SOL    HW122127   4.133   2.509   0.061
 7076SOL    HW222128   4.072   2.652   0.011
 7077SOL     OW22129   1.911   5.097   5.729
 7077SOL    HW122130   1.846   5.078   5.802
 7077SOL    HW222131   1.862   5.125   5.646
 7078SOL     OW22132   6.411   0.284   1.690
 7078SOL    HW122133   6.344   0.232   1.741
 7078SOL    HW222134   6.503   0.261   1.722
 7079SOL     OW22135   6.985   6.171   5.182
 7079SOL    HW122136   6.967   6.269   5.195
 7079SOL    HW222137   7.012   6.130   5.269
 7080SOL     OW22138   3.761   2.163   4.002
 7080SOL    HW122139   3.797   2.101   3.933
 7080SOL    HW222140   3.819   2.244   4.007
 7081SOL     OW22141   3.140   0.589   5.913
 7081SOL    HW122142   3.077   0.665   5.899
 7081SOL    HW222143   3.106   0.508   5.865
 7082SOL     OW22144   5.895   5.816   6.596
 7082SOL    HW122145   5.919   5.888   6.530
 7082SOL    HW222146   5.815   5.844   6.649
 7083SOL     OW22147   3.079   1.121   6.974
 7083SOL    HW122148   3.134   1.145   6.894
 7083SOL    HW222149   3.135   1.068   0.015
 7084SOL     OW22150   0.047   6.850   5.784
 7084SOL    HW122151   7.021   6.934   5.762
 7084SOL    HW222152   0.008   6.774   5.732
 7085SOL     OW22153   2.283   0.801   3.167
 7085SOL    HW122154   2.331   0.858   3.234
 7085SOL    HW222155   2.317   0.823   3.075
 7086SOL     OW22156   5.051   1.230   5.924
 7086SOL    HW122157   4.967   1.187   5.956
 7086SOL    HW222158   5.054   1.227   5.824
 7087SOL     OW22159   6.299   4.269   3.612
 7087SOL    HW122160   6.313   4.229   3.703
 7087SOL    HW222161   6.260   4.199   3.552
 7088SOL     OW22162   4.988   2.630   3.613
 7088SOL    HW122163   5.058   2.593   3.553
 7088SOL    HW222164   5.006   2.727   3.629
 7089SOL     OW22165   3.143   2.212   6.010
 7089SOL    HW122166   3.221   2.272   6.025
 7089SOL    HW222167   3.081   2.219   6.088
 7090SOL     OW22168   2.973   1.640   6.593
 7090SOL    HW122169   3.044   1.638   6.522
 7090SOL    HW222170   3.014   1.661   6.681
 7091SOL     OW22171   6.958   2.500   6.936
 7091SOL    HW122172   6.908   2.423   6.976
 7091SOL    HW222173   6.906   2.539   6.860
 7092SOL     OW22174   4.682   2.503   6.107
 7092SOL    HW122175   4.698   2.497   6.206
 7092SOL    HW222176   4.691   2.598   6.077
 7093SOL     OW22177   3.171   4.033   3.750
 7093SOL    HW122178   3.141   4.058   3.658
 7093SOL    HW222179   3.111   3.961   3.786
 7094SOL     OW22180   0.698   5.807   6.071
 7094SOL    HW122181   0.696   5.784   5.974
 7094SOL    HW222182   0.661   5.900   6.084
 7095SOL     OW22183   2.681   2.787   6.939
 7095SOL    HW122184   2.675   2.720   6.865
 7095SOL    HW222185   2.606   2.772   7.004
 7096SOL     OW22186   5.912   0.798   3.973
 7096SOL    HW122187   5.965   0.868   3.925
 7096SOL    HW222188   5.970   0.753   4.040
 7097SOL     OW22189   6.609   0.524   1.869
 7097SOL    HW122190   6.567   0.533   1.779
 7097SOL    HW222191   6.674   0.448   1.868
 7098SOL     OW22192   0.680   6.843   4.337
 7098SOL    HW122193   0.657   6.769   4.275
 7098SOL    HW222194   0.770   6.826   4.378
 7099SOL     OW22195   2.454   0.629   4.555
 7099SOL    HW122196   2.502   0.568   4.492
 7099SOL    HW222197   2.399   0.575   4.619
 7100SOL     OW22198   5.503   2.982   1.095
 7100SOL    HW122199   5.536   2.889   1.112
 7100SOL    HW222200   5.450   2.984   1.010
 7101SOL     OW22201   2.429   0.079   4.998
 7101SOL    HW122202   2.443   0.167   5.044
 7101SOL    HW222203   2.408   0.095   4.902
 7102SOL     OW22204   4.879   0.658   1.131
 7102SOL    HW122205   4.919   0.659   1.039
 7102SOL    HW222206   4.920   0.731   1.186
 7103SOL     OW22207   4.244   5.491   0.688
 7103SOL    HW122208   4.261   5.589   0.681
 7103SOL    HW222209   4.284   5.444   0.608
 7104SOL     OW22210   1.290   3.205   4.527
 7104SOL    HW122211   1.345   3.270   4.474
 7104SOL    HW222212   1.198   3.242   4.541
 7105SOL     OW22213   2.940   2.663   5.370
 7105SOL    HW122214   2.853   2.651   5.321
 7105SOL    HW222215   2.922   2.673   5.468
 7106SOL     OW22216   3.292   2.904   3.035
 7106SOL    HW122217   3.285   2.900   2.935
 7106SOL    HW222218   3.223   2.967   3.070
 7107SOL     OW22219   3.012   0.860   0.898
 7107SOL    HW122220   3.059   0.826   0.817
 7107SOL    HW222221   3.071   0.925   0.946
 7108SOL     OW22222   3.812   6.058   1.581
 7108SOL    HW122223   3.718   6.025   1.585
 7108SOL    HW222224   3.871   5.987   1.542
 7109SOL     OW22225   3.747   6.960   6.409
 7109SOL    HW122226   3.811   6.902   6.358
 7109SOL    HW222227   3.743   6.927   6.504
 7110SOL     OW22228   4.794   5.563   3.945
 7110SOL    HW122229   4.811   5.559   4.043
 7110SOL    HW222230   4.756   5.476   3.914
 7111SOL     OW22231   1.816   2.348   4.797
 7111SOL    HW122232   1.745   2.398   4.847
 7111SOL    HW222233   1.906   2.388   4.819
 7112SOL     OW22234   2.220   5.665   3.521
 7112SOL    HW122235   2.271   5.592   3.476
 7112SOL    HW222236   2.246   5.668   3.618
 7113SOL     OW22237   3.153   4.118   5.183
 7113SOL    HW122238   3.072   4.109   5.240
 7113SOL    HW222239   3.233   4.086   5.234
 7114SOL     OW22240   3.829   7.000   2.160
 7114SOL    HW122241   3.873   7.013   2.249
 7114SOL    HW222242   3.740   0.023   2.159
 7115SOL     OW22243   5.215   2.445   2.043
 7115SOL    HW122244   5.304   2.489   2.050
 7115SOL    HW222245   5.158   2.471   2.120
 7116SOL     OW22246   5.529   3.136   3.478
 7116SOL    HW122247   5.590   3.144   3.399
 7116SOL    HW222248   5.485   3.224   3.494
 7117SOL     OW22249   0.104   0.001   4.561
 7117SOL    HW122250   0.151   0.061   4.625
 7117SOL    HW222251   0.155   6.938   4.554
 7118SOL     OW22252   3.553   3.892   0.647
 7118SOL    HW122253   3.505   3.826   0.705
 7118SOL    HW222254   3.515   3.890   0.554
 7119SOL     OW22255   5.405   1.731   3.323
 7119SOL    HW122256   5.438   1.801   3.260
 7119SOL    HW222257   5.305   1.727   3.320
 7120SOL     OW22258   4.280   1.736   2.921
 7120SOL    HW122259   4.253   1.818   2.971
 7120SOL    HW222260   4.309   1.665   2.985
 7121SOL     OW22261   3.113   6.959   2.257
 7121SOL    HW122262   3.048   6.887   2.233
 7121SOL    HW222263   3.077   7.012   2.333
 7122SOL     OW22264   6.765   1.129   5.860
 7122SOL    HW122265   6.733   1.095   5.949
 7122SOL    HW222266   6.829   1.204   5.874
 7123SOL     OW22267   2.908   4.699   1.198
 7123SOL    HW122268   2.917   4.605   1.165
 7123SOL    HW222269   2.954   4.709   1.286
 7124SOL     OW22270   0.525   3.232   0.452
 7124SOL    HW122271   0.618   3.199   0.440
 7124SOL    HW222272   0.461   3.172   0.404
 7125SOL     OW22273   6.420   6.933   1.268
 7125SOL    HW122274   6.366   6.989   1.331
 7125SOL    HW222275   6.359   6.879   1.210
 7126SOL     OW22276   3.083   4.846   6.576
 7126SOL    HW122277   3.111   4.792   6.497
 7126SOL    HW222278   3.005   4.903   6.551
 7127SOL     OW22279   2.688   5.898   4.293
 7127SOL    HW122280   2.681   5.994   4.318
 7127SOL    HW222281   2.602   5.852   4.316
 7128SOL     OW22282   2.497   5.747   0.171
 7128SOL    HW122283   2.426   5.723   0.238
 7128SOL    HW222284   2.480   5.698   0.086
 7129SOL     OW22285   3.423   0.327   0.517
 7129SOL    HW122286   3.477   0.391   0.572
 7129SOL    HW222287   3.422   0.237   0.562
 7130SOL     OW22288   3.113   4.934   5.051
 7130SOL    HW122289   3.184   4.956   4.985
 7130SOL    HW222290   3.041   4.881   5.006
 7131SOL     OW22291   3.155   1.323   0.695
 7131SOL    HW122292   3.084   1.274   0.745
 7131SOL    HW222293   3.118   1.358   0.609
 7132SOL     OW22294   2.943   4.224   0.694
 7132SOL    HW122295   2.996   4.291   0.642
 7132SOL    HW222296   2.859   4.266   0.727
 7133SOL     OW22297   4.620   5.401   3.816
 7133SOL    HW122298   4.521   5.413   3.822
 7133SOL    HW222299   4.644   5.367   3.726
 7134SOL     OW22300   6.122   5.633   2.095
 7134SOL    HW122301   6.133   5.712   2.155
 7134SOL    HW222302   6.046   5.576   2.129
 7135SOL     OW22303   1.804   1.823   3.117
 7135SOL    HW122304   1.817   1.724   3.111
 7135SOL    HW222305   1.709   1.846   3.092
 7136SOL     OW22306   1.623   3.064   1.059
 7136SOL    HW122307   1.615   2.964   1.064
 7136SOL    HW222308   1.687   3.095   1.129
 7137SOL     OW22309   4.960   0.417   6.266
 7137SOL    HW122310   4.869   0.398   6.228
 7137SOL    HW222311   5.030   0.389   6.201
 7138SOL     OW22312   2.180   2.805   0.435
 7138SOL    HW122313   2.200   2.713   0.470
 7138SOL    HW222314   2.262   2.862   0.440
 7139SOL     OW22315   4.869   3.961   2.589
 7139SOL    HW122316   4.824   4.050   2.581
 7139SOL    HW222317   4.882   3.921   2.499
 7140SOL     OW22318   6.122   3.059   4.413
 7140SOL    HW122319   6.041   3.117   4.427
 7140SOL    HW222320   6.108   3.002   4.332
 7141SOL     OW22321   2.802   5.995   0.888
 7141SOL    HW122322   2.817   6.016   0.985
 7141SOL    HW222323   2.877   6.030   0.833
 7142SOL     OW22324   4.502   6.967   3.125
 7142SOL    HW122325   4.448   0.017   3.083
 7142SOL    HW222326   4.571   6.935   3.059
 7143SOL     OW22327   1.633   2.645   6.001
 7143SOL    HW122328   1.663   2.553   6.029
 7143SOL    HW222329   1.701   2.712   6.031
 7144SOL     OW22330   2.049   1.289   3.757
 7144SOL    HW122331   2.011   1.319   3.845
 7144SOL    HW222332   2.012   1.345   3.684
 7145SOL     OW22333   4.864   6.359   6.124
 7145SOL    HW122334   4.919   6.359   6.207
 7145SOL    HW222335   4.841   6.453   6.099
 7146SOL     OW22336   2.059   0.555   6.894
 7146SOL    HW122337   2.079   0.638   6.946
 7146SOL    HW222338   2.139   0.496   6.892
 7147SOL     OW22339   6.498   6.171   2.823
 7147SOL    HW122340   6.490   6.270   2.824
 7147SOL    HW222341   6.408   6.129   2.829
 7148SOL     OW22342   6.806   6.326   1.631
 7148SOL    HW122343   6.819   6.227   1.637
 7148SOL    HW222344   6.715   6.345   1.593
 7149SOL     OW22345   6.643   6.914   3.591
 7149SOL    HW122346   6.673   7.008   3.575
 7149SOL    HW222347   6.697   6.874   3.664
 7150SOL     OW22348   4.657   2.379   1.645
 7150SOL    HW122349   4.725   2.450   1.631
 7150SOL    HW222350   4.656   2.351   1.741
 7151SOL     OW22351   1.251   5.884   0.536
 7151SOL    HW122352   1.197   5.859   0.616
 7151SOL    HW222353   1.292   5.801   0.497
 7152SOL     OW22354   0.578   2.220   5.111
 7152SOL    HW122355   0.553   2.212   5.208
 7152SOL    HW222356   0.559   2.313   5.079
 7153SOL     OW22357   3.460   6.178   3.305
 7153SOL    HW122358   3.517   6.113   3.254
 7153SOL    HW222359   3.373   6.134   3.329
 7154SOL     OW22360   3.843   6.596   5.131
 7154SOL    HW122361   3.757   6.582   5.180
 7154SOL    HW222362   3.863   6.515   5.076
 7155SOL     OW22363   2.532   5.474   1.836
 7155SOL    HW122364   2.545   5.538   1.911
 7155SOL    HW222365   2.435   5.447   1.832
 7156SOL     OW22366   0.469   4.382   4.578
 7156SOL    HW122367   0.519   4.461   4.612
 7156SOL    HW222368   0.532   4.318   4.535
 7157SOL     OW22369   6.320   4.325   1.189
 7157SOL    HW122370   6.266   4.241   1.197
 7157SOL    HW222371   6.278   4.386   1.122
 7158SOL     OW22372   1.248   0.179   3.032
 7158SOL    HW122373   1.227   0.236   3.111
 7158SOL    HW222374   1.164   0.137   2.997
 7159SOL     OW22375   0.013   4.303   2.858
 7159SOL    HW122376   0.100   4.280   2.813
 7159SOL    HW222377   7.000   4.387   2.818
 7160SOL     OW22378   5.918   0.291   3.110
 7160SOL    HW122379   5.821   0.269   3.124
 7160SOL    HW222380   5.958   0.319   3.198
 7161SOL     OW22381   3.373   4.045   5.324
 7161SOL    HW122382   3.442   3.973   5.331
 7161SOL    HW222383   3.366   4.092   5.411
 7162SOL     OW22384   2.659   6.060   5.887
 7162SOL    HW122385   2.566   6.034   5.914
 7162SOL    HW222386   2.672   6.158   5.904
 7163SOL     OW22387   2.754   6.315   3.608
 7163SOL    HW122388   2.704   6.230   3.628
 7163SOL    HW222389   2.750   6.333   3.510
 7164SOL     OW22390   2.174   1.876   3.386
 7164SOL    HW122391   2.140   1.958   3.340
 7164SOL    HW222392   2.213   1.814   3.318
 7165SOL     OW22393   6.652   1.733   1.274
 7165SOL    HW122394   6.570   1.790   1.290
 7165SOL    HW222395   6.630   1.637   1.293
 7166SOL     OW22396   5.156   3.047   0.158
 7166SOL    HW122397   5.061   3.017   0.170
 7166SOL    HW222398   5.204   3.043   0.245
 7167SOL     OW22399   5.302   3.592   4.985
 7167SOL    HW122400   5.316   3.495   5.006
 7167SOL    HW222401   5.229   3.628   5.044
 7168SOL     OW22402   0.862   2.554   4.248
 7168SOL    HW122403   0.901   2.644   4.228
 7168SOL    HW222404   0.871   2.495   4.167
 7169SOL     OW22405   0.623   3.494   5.351
 7169SOL    HW122406   0.536   3.533   5.320
 7169SOL    HW222407   0.691   3.566   5.360
 7170SOL     OW22408   4.868   6.112   4.031
 7170SOL    HW122409   4.960   6.097   3.996
 7170SOL    HW222410   4.801   6.069   3.970
 7171SOL     OW22411   5.630   4.070   6.561
 7171SOL    HW122412   5.549   4.045   6.613
 7171SOL    HW222413   5.646   4.168   6.568
 7172SOL     OW22414   1.722   0.404   5.527
 7172SOL    HW122415   1.678   0.460   5.596
 7172SOL    HW222416   1.707   0.307   5.548
 7173SOL     OW22417   6.901   4.967   5.287
 7173SOL    HW122418   6.866   5.061   5.293
 7173SOL    HW222419   6.833   4.904   5.324
 7174SOL     OW22420   0.886   5.088   6.317
 7174SOL    HW122421   0.789   5.069   6.302
 7174SOL    HW222422   0.898   5.184   6.343
 7175SOL     OW22423   5.587   3.591   0.296
 7175SOL    HW122424   5.663   3.526   0.302
 7175SOL    HW222425   5.508   3.547   0.254
 7176SOL     OW22426   0.860   5.457   3.187
 7176SOL    HW122427   0.938   5.491   3.239
 7176SOL    HW222428   0.880   5.462   3.089
 7177SOL     OW22429   2.531   0.032   4.331
 7177SOL    HW122430   2.588   6.985   4.375
 7177SOL    HW222431   2.515   0.007   4.236
 7178SOL     OW22432   2.661   3.234   5.682
 7178SOL    HW122433   2.648   3.137   5.663
 7178SOL    HW222434   2.648   3.287   5.598
 7179SOL     OW22435   1.505   3.295   4.723
 7179SOL    HW122436   1.543   3.207   4.751
 7179SOL    HW222437   1.449   3.283   4.641
 7180SOL     OW22438   1.138   4.651   6.551
 7180SOL    HW122439   1.102   4.741   6.530
 7180SOL    HW222440   1.101   4.620   6.639
 7181SOL     OW22441   2.316   5.847   0.836
 7181SOL    HW122442   2.327   5.913   0.910
 7181SOL    HW222443   2.221   5.816   0.832
 7182SOL     OW22444   1.944   3.247   5.356
 7182SOL    HW122445   1.936   3.155   5.318
 7182SOL    HW222446   2.038   3.279   5.344
 7183SOL     OW22447   1.353   5.432   0.608
 7183SOL    HW122448   1.311   5.345   0.581
 7183SOL    HW222449   1.428   5.415   0.671
 7184SOL     OW22450   0.831   0.469   3.282
 7184SOL    HW122451   0.902   0.399   3.290
 7184SOL    HW222452   0.772   0.449   3.204
 7185SOL     OW22453   5.322   1.742   5.675
 7185SOL    HW122454   5.294   1.651   5.706
 7185SOL    HW222455   5.241   1.799   5.663
 7186SOL     OW22456   6.791   0.214   6.505
 7186SOL    HW122457   6.728   0.204   6.428
 7186SOL    HW222458   6.799   0.127   6.553
 7187SOL     OW22459   2.889   4.971   0.420
 7187SOL    HW122460   2.830   4.908   0.472
 7187SOL    HW222461   2.872   5.065   0.451
 7188SOL     OW22462   5.356   6.811   0.538
 7188SOL    HW122463   5.396   6.811   0.447
 7188SOL    HW222464   5.423   6.780   0.605
 7189SOL     OW22465   6.578   1.582   6.164
 7189SOL    HW122466   6.555   1.505   6.223
 7189SOL    HW222467   6.663   1.624   6.195
 7190SOL     OW22468   5.675   3.673   3.069
 7190SOL    HW122469   5.588   3.661   3.020
 7190SOL    HW222470   5.741   3.717   3.008
 7191SOL     OW22471   0.143   4.475   2.642
 7191SOL    HW122472   0.122   4.571   2.623
 7191SOL    HW222473   0.120   4.419   2.563
 7192SOL     OW22474   2.791   5.517   4.984
 7192SOL    HW122475   2.775   5.418   4.989
 7192SOL    HW222476   2.890   5.534   4.977
 7193SOL     OW22477   3.035   1.591   3.198
 7193SOL    HW122478   2.948   1.568   3.154
 7193SOL    HW222479   3.068   1.679   3.164
 7194SOL     OW22480   2.518   2.088   0.825
 7194SOL    HW122481   2.537   2.023   0.899
 7194SOL    HW222482   2.603   2.111   0.778
 7195SOL     OW22483   0.635   5.016   6.267
 7195SOL    HW122484   0.574   5.037   6.190
 7195SOL    HW222485   0.586   4.959   6.333
 7196SOL     OW22486   3.468   4.114   1.720
 7196SOL    HW122487   3.489   4.206   1.687
 7196SOL    HW222488   3.369   4.100   1.720
 7197SOL     OW22489   0.040   2.356   6.238
 7197SOL    HW122490   0.063   2.381   6.144
 7197SOL    HW222491   6.997   2.281   6.238
 7198SOL     OW22492   0.747   1.006   5.791
 7198SOL    HW122493   0.744   1.103   5.817
 7198SOL    HW222494   0.697   0.993   5.705
 7199SOL     OW22495   2.505   0.537   2.215
 7199SOL    HW122496   2.604   0.536   2.219
 7199SOL    HW222497   2.469   0.606   2.278
 7200SOL     OW22498   2.293   1.648   0.471
 7200SOL    HW122499   2.303   1.679   0.376
 7200SOL    HW222500   2.383   1.651   0.516
 7201SOL     OW22501   1.757   5.376   3.737
 7201SOL    HW122502   1.679   5.405   3.793
 7201SOL    HW222503   1.726   5.316   3.664
 7202SOL     OW22504   4.225   0.181   5.846
 7202SOL    HW122505   4.143   0.206   5.896
 7202SOL    HW222506   4.227   0.227   5.758
 7203SOL     OW22507   0.138   1.297   1.054
 7203SOL    HW122508   0.111   1.360   0.981
 7203SOL    HW222509   0.227   1.258   1.032
 7204SOL     OW22510   6.513   6.737   5.173
 7204SOL    HW122511   6.492   6.767   5.080
 7204SOL    HW222512   6.568   6.806   5.219
 7205SOL     OW22513   2.178   5.961   2.978
 7205SOL    HW122514   2.184   5.924   3.070
 7205SOL    HW222515   2.201   5.889   2.912
 7206SOL     OW22516   1.834   0.540   1.608
 7206SOL    HW122517   1.789   0.627   1.590
 7206SOL    HW222518   1.917   0.556   1.661
 7207SOL     OW22519   3.477   6.324   1.242
 7207SOL    HW122520   3.560   6.345   1.190
 7207SOL    HW222521   3.419   6.405   1.244
 7208SOL     OW22522   4.281   6.337   4.317
 7208SOL    HW122523   4.192   6.339   4.271
 7208SOL    HW222524   4.351   6.374   4.256
 7209SOL     OW22525   2.891   3.366   2.501
 7209SOL    HW122526   2.946   3.290   2.466
 7209SOL    HW222527   2.840   3.408   2.426
 7210SOL     OW22528   4.711   6.682   4.349
 7210SOL    HW122529   4.723   6.622   4.428
 7210SOL    HW222530   4.658   6.763   4.377
 7211SOL     OW22531   2.256   5.401   3.837
 7211SOL    HW122532   2.328   5.344   3.797
 7211SOL    HW222533   2.168   5.379   3.795
 7212SOL     OW22534   1.002   6.003   3.195
 7212SOL    HW122535   0.951   6.011   3.109
 7212SOL    HW222536   0.970   5.924   3.246
 7213SOL     OW22537   6.091   0.733   6.748
 7213SOL    HW122538   6.171   0.673   6.747
 7213SOL    HW222539   6.021   0.697   6.686
 7214SOL     OW22540   1.554   5.616   4.374
 7214SOL    HW122541   1.498   5.646   4.451
 7214SOL    HW222542   1.593   5.695   4.327
 7215SOL     OW22543   0.491   3.509   4.326
 7215SOL    HW122544   0.524   3.465   4.410
 7215SOL    HW222545   0.568   3.527   4.265
 7216SOL     OW22546   2.162   5.774   6.629
 7216SOL    HW122547   2.236   5.707   6.627
 7216SOL    HW222548   2.196   5.862   6.663
 7217SOL     OW22549   2.224   4.206   1.834
 7217SOL    HW122550   2.169   4.288   1.846
 7217SOL    HW222551   2.251   4.198   1.738
 7218SOL     OW22552   4.467   2.605   5.574
 7218SOL    HW122553   4.530   2.573   5.503
 7218SOL    HW222554   4.491   2.563   5.661
 7219SOL     OW22555   5.498   5.626   4.132
 7219SOL    HW122556   5.520   5.541   4.086
 7219SOL    HW222557   5.398   5.636   4.138
 7220SOL     OW22558   0.202   5.317   3.802
 7220SOL    HW122559   0.207   5.227   3.845
 7220SOL    HW222560   0.210   5.307   3.702
 7221SOL     OW22561   5.278   5.236   5.485
 7221SOL    HW122562   5.212   5.161   5.498
 7221SOL    HW222563   5.341   5.212   5.411
 7222SOL     OW22564   6.024   0.043   2.114
 7222SOL    HW122565   6.075   6.982   2.133
 7222SOL    HW222566   5.939   0.020   2.066
 7223SOL     OW22567   2.890   2.144   1.468
 7223SOL    HW122568   2.952   2.196   1.527
 7223SOL    HW222569   2.916   2.048   1.469
 7224SOL     OW22570   5.745   2.034   4.421
 7224SOL    HW122571   5.659   2.084   4.422
 7224SOL    HW222572   5.761   1.992   4.510
 7225SOL     OW22573   1.088   6.415   6.331
 7225SOL    HW122574   1.080   6.317   6.311
 7225SOL    HW222575   1.015   6.442   6.394
 7226SOL     OW22576   0.897   0.376   0.352
 7226SOL    HW122577   0.862   0.466   0.327
 7226SOL    HW222578   0.945   0.336   0.274
 7227SOL     OW22579   0.412   2.596   1.272
 7227SOL    HW122580   0.319   2.597   1.235
 7227SOL    HW222581   0.475   2.635   1.205
 7228SOL     OW22582   0.040   1.155   2.303
 7228SOL    HW122583   0.006   1.077   2.251
 7228SOL    HW222584   0.108   1.204   2.250
 7229SOL     OW22585   1.290   0.898   4.010
 7229SOL    HW122586   1.350   0.922   3.934
 7229SOL    HW222587   1.257   0.982   4.055
 7230SOL     OW22588   4.830   5.673   4.884
 7230SOL    HW122589   4.858   5.648   4.977
 7230SOL    HW222590   4.862   5.766   4.864
 7231SOL     OW22591   4.685   0.121   0.026
 7231SOL    HW122592   4.770   0.095   0.072
 7231SOL    HW222593   4.637   0.039   7.018
 7232SOL     OW22594   4.231   5.052   3.312
 7232SOL    HW122595   4.139   5.078   3.285
 7232SOL    HW222596   4.278   5.012   3.233
 7233SOL     OW22597   0.407   2.791   4.650
 7233SOL    HW122598   0.463   2.801   4.568
 7233SOL    HW222599   0.463   2.811   4.731
 7234SOL     OW22600   5.850   2.532   2.870
 7234SOL    HW122601   5.836   2.434   2.886
 7234SOL    HW222602   5.761   2.576   2.857
 7235SOL     OW22603   6.449   4.294   2.990
 7235SOL    HW122604   6.542   4.260   2.974
 7235SOL    HW222605   6.450   4.394   2.992
 7236SOL     OW22606   3.276   1.559   2.574
 7236SOL    HW122607   3.375   1.561   2.560
 7236SOL    HW222608   3.252   1.484   2.635
 7237SOL     OW22609   6.433   6.501   5.410
 7237SOL    HW122610   6.440   6.458   5.320
 7237SOL    HW222611   6.339   6.534   5.424
 7238SOL     OW22612   1.980   2.251   1.206
 7238SOL    HW122613   2.060   2.228   1.152
 7238SOL    HW222614   1.919   2.309   1.152
 7239SOL     OW22615   2.903   1.719   3.844
 7239SOL    HW122616   2.820   1.774   3.840
 7239SOL    HW222617   2.904   1.655   3.767
 7240SOL     OW22618   2.460   4.279   6.793
 7240SOL    HW122619   2.555   4.269   6.763
 7240SOL    HW222620   2.440   4.375   6.809
 7241SOL     OW22621   3.312   0.489   6.971
 7241SOL    HW122622   3.325   0.423   0.022
 7241SOL    HW222623   3.398   0.502   6.922
 7242SOL     OW22624   6.524   4.913   6.866
 7242SOL    HW122625   6.440   4.895   6.815
 7242SOL    HW222626   6.567   4.826   6.888
 7243SOL     OW22627   0.615   4.767   6.881
 7243SOL    HW122628   0.580   4.848   6.928
 7243SOL    HW222629   0.715   4.765   6.888
 7244SOL     OW22630   4.455   0.527   1.511
 7244SOL    HW122631   4.381   0.509   1.447
 7244SOL    HW222632   4.534   0.563   1.461
 7245SOL     OW22633   0.659   2.076   4.876
 7245SOL    HW122634   0.655   2.097   4.974
 7245SOL    HW222635   0.732   2.010   4.859
 7246SOL     OW22636   6.383   6.796   4.937
 7246SOL    HW122637   6.326   6.785   4.855
 7246SOL    HW222638   6.327   6.783   5.018
 7247SOL     OW22639   2.691   6.491   3.164
 7247SOL    HW122640   2.623   6.473   3.092
 7247SOL    HW222641   2.756   6.415   3.168
 7248SOL     OW22642   3.834   0.880   3.266
 7248SOL    HW122643   3.816   0.781   3.269
 7248SOL    HW222644   3.756   0.926   3.223
 7249SOL     OW22645   5.708   4.894   1.878
 7249SOL    HW122646   5.763   4.890   1.795
 7249SOL    HW222647   5.664   4.805   1.893
 7250SOL     OW22648   3.220   5.079   6.068
 7250SOL    HW122649   3.242   5.132   6.150
 7250SOL    HW222650   3.148   5.126   6.017
 7251SOL     OW22651   6.976   6.678   5.579
 7251SOL    HW122652   6.897   6.617   5.568
 7251SOL    HW222653   0.017   6.663   5.504
 7252SOL     OW22654   3.136   3.105   3.944
 7252SOL    HW122655   3.154   3.065   3.854
 7252SOL    HW222656   3.200   3.066   4.010
 7253SOL     OW22657   1.200   7.014   0.141
 7253SOL    HW122658   1.112   0.039   0.142
 7253SOL    HW222659   1.264   0.037   0.201
 7254SOL     OW22660   4.323   5.006   5.042
 7254SOL    HW122661   4.310   4.935   4.972
 7254SOL    HW222662   4.403   4.984   5.097
 7255SOL     OW22663   3.587   3.961   1.914
 7255SOL    HW122664   3.562   3.953   1.817
 7255SOL    HW222665   3.554   4.048   1.950
 7256SOL     OW22666   4.892   4.831   4.695
 7256SOL    HW122667   4.867   4.863   4.604
 7256SOL    HW222668   4.979   4.872   4.722
 7257SOL     OW22669   5.984   3.084   3.400
 7257SOL    HW122670   5.916   3.147   3.364
 7257SOL    HW222671   6.075   3.122   3.385
 7258SOL     OW22672   4.588   0.461   4.319
 7258SOL    HW122673   4.688   0.462   4.308
 7258SOL    HW222674   4.545   0.448   4.230
 7259SOL     OW22675   3.178   3.787   1.195
 7259SOL    HW122676   3.222   3.713   1.144
 7259SOL    HW222677   3.079   3.781   1.182
 7260SOL     OW22678   3.391   2.101   2.833
 7260SOL    HW122679   3.401   2.125   2.737
 7260SOL    HW222680   3.481   2.086   2.874
 7261SOL     OW22681   3.161   2.924   1.638
 7261SOL    HW122682   3.244   2.870   1.632
 7261SOL    HW222683   3.126   2.920   1.732
 7262SOL     OW22684   6.045   2.312   3.721
 7262SOL    HW122685   5.970   2.355   3.771
 7262SOL    HW222686   6.132   2.337   3.763
 7263SOL     OW22687   0.890   5.612   2.008
 7263SOL    HW122688   0.980   5.649   1.982
 7263SOL    HW222689   0.868   5.640   2.102
 7264SOL     OW22690   0.243   1.998   6.670
 7264SOL    HW122691   0.230   1.900   6.663
 7264SOL    HW222692   0.288   2.019   6.757
 7265SOL     OW22693   5.372   5.397   6.104
 7265SOL    HW122694   5.397   5.313   6.055
 7265SOL    HW222695   5.440   5.416   6.174
 7266SOL     OW22696   4.337   0.574   1.003
 7266SOL    HW122697   4.350   0.631   1.084
 7266SOL    HW222698   4.242   0.545   0.997
 7267SOL     OW22699   6.448   4.965   5.372
 7267SOL    HW122700   6.506   5.027   5.426
 7267SOL    HW222701   6.413   5.014   5.292
 7268SOL     OW22702   4.007   4.786   2.908
 7268SOL    HW122703   4.100   4.750   2.900
 7268SOL    HW222704   3.988   4.806   3.004
 7269SOL     OW22705   0.303   5.964   1.658
 7269SOL    HW122706   0.225   5.994   1.713
 7269SOL    HW222707   0.300   5.864   1.648
 7270SOL     OW22708   2.126   2.070   3.207
 7270SOL    HW122709   2.076   2.058   3.121
 7270SOL    HW222710   2.221   2.092   3.186
 7271SOL     OW22711   0.552   4.801   3.275
 7271SOL    HW122712   0.557   4.855   3.359
 7271SOL    HW222713   0.607   4.719   3.285
 7272SOL     OW22714   5.730   3.239   2.684
 7272SOL    HW122715   5.688   3.157   2.647
 7272SOL    HW222716   5.825   3.244   2.654
 7273SOL     OW22717   5.663   4.387   1.634
 7273SOL    HW122718   5.739   4.383   1.569
 7273SOL    HW222719   5.700   4.391   1.727
 7274SOL     OW22720   0.047   5.749   6.230
 7274SOL    HW122721   0.082   5.658   6.209
 7274SOL    HW222722   0.122   5.808   6.260
 7275SOL     OW22723   6.140   0.851   0.449
 7275SOL    HW122724   6.080   0.899   0.514
 7275SOL    HW222725   6.138   0.898   0.361
 7276SOL     OW22726   3.278   1.298   3.862
 7276SOL    HW122727   3.364   1.346   3.881
 7276SOL    HW222728   3.203   1.365   3.859
 7277SOL     OW22729   5.360   1.033   5.297
 7277SOL    HW122730   5.384   1.101   5.228
 7277SOL    HW222731   5.266   1.049   5.328
 7278SOL     OW22732   3.656   2.048   2.960
 7278SOL    HW122733   3.714   2.036   3.042
 7278SOL    HW222734   3.714   2.059   2.880
 7279SOL     OW22735   4.538   3.875   0.495
 7279SOL    HW122736   4.534   3.910   0.401
 7279SOL    HW222737   4.465   3.808   0.509
 7280SOL     OW22738   5.549   2.231   5.263
 7280SOL    HW122739   5.516   2.326   5.267
 7280SOL    HW222740   5.648   2.230   5.274
 7281SOL     OW22741   3.439   0.175   0.981
 7281SOL    HW122742   3.454   0.158   1.078
 7281SOL    HW222743   3.400   0.093   0.939
 7282SOL     OW22744   6.598   5.931   1.667
 7282SOL    HW122745   6.612   5.895   1.759
 7282SOL    HW222746   6.510   5.980   1.663
 7283SOL     OW22747   3.109   6.522   1.898
 7283SOL    HW122748   3.019   6.507   1.937
 7283SOL    HW222749   3.146   6.436   1.863
 7284SOL     OW22750   6.364   2.798   3.830
 7284SOL    HW122751   6.333   2.704   3.840
 7284SOL    HW222752   6.459   2.805   3.862
 7285SOL     OW22753   5.160   2.889   1.326
 7285SOL    HW122754   5.113   2.968   1.285
 7285SOL    HW222755   5.245   2.920   1.370
 7286SOL     OW22756   0.905   1.422   0.564
 7286SOL    HW122757   0.863   1.428   0.474
 7286SOL    HW222758   0.875   1.339   0.610
 7287SOL     OW22759   6.859   2.733   3.775
 7287SOL    HW122760   6.898   2.783   3.698
 7287SOL    HW222761   6.912   2.753   3.858
 7288SOL     OW22762   2.003   2.485   2.475
 7288SOL    HW122763   2.080   2.548   2.483
 7288SOL    HW222764   1.969   2.485   2.381
 7289SOL     OW22765   5.767   2.613   2.033
 7289SOL    HW122766   5.819   2.588   2.115
 7289SOL    HW222767   5.671   2.589   2.046
 7290SOL     OW22768   3.930   1.035   5.274
 7290SOL    HW122769   3.934   1.124   5.318
 7290SOL    HW222770   3.892   0.968   5.337
 7291SOL     OW22771   3.156   7.012   0.257
 7291SOL    HW122772   3.175   0.034   0.344
 7291SOL    HW222773   3.242   6.984   0.214
 7292SOL     OW22774   1.823   6.534   3.765
 7292SOL    HW122775   1.824   6.612   3.703
 7292SOL    HW222776   1.869   6.456   3.721
 7293SOL     OW22777   1.125   1.526   5.891
 7293SOL    HW122778   1.150   1.432   5.867
 7293SOL    HW222779   1.208   1.578   5.910
 7294SOL     OW22780   3.203   4.473   1.678
 7294SOL    HW122781   3.130   4.440   1.738
 7294SOL    HW222782   3.182   4.448   1.584
 7295SOL     OW22783   6.287   4.767   1.252
 7295SOL    HW122784   6.226   4.840   1.220
 7295SOL    HW222785   6.379   4.784   1.218
 7296SOL     OW22786   3.678   5.245   2.955
 7296SOL    HW122787   3.759   5.190   2.935
 7296SOL    HW222788   3.599   5.185   2.970
 7297SOL     OW22789   3.232   6.294   1.795
 7297SOL    HW122790   3.231   6.334   1.703
 7297SOL    HW222791   3.282   6.207   1.791
 7298SOL     OW22792   4.662   6.405   0.114
 7298SOL    HW122793   4.742   6.346   0.100
 7298SOL    HW222794   4.625   6.432   0.025
 7299SOL     OW22795   1.196   2.176   0.584
 7299SOL    HW122796   1.258   2.254   0.574
 7299SOL    HW222797   1.130   2.194   0.656
 7300SOL     OW22798   0.643   4.962   1.990
 7300SOL    HW122799   0.704   4.910   2.050
 7300SOL    HW222800   0.548   4.937   2.008
 7301SOL     OW22801   0.209   0.498   5.816
 7301SOL    HW122802   0.127   0.456   5.777
 7301SOL    HW222803   0.290   0.449   5.784
 7302SOL     OW22804   5.774   2.651   5.657
 7302SOL    HW122805   5.858   2.703   5.675
 7302SOL    HW222806   5.784   2.558   5.693
 7303SOL     OW22807   3.254   1.615   0.462
 7303SOL    HW122808   3.204   1.692   0.422
 7303SOL    HW222809   3.192   1.538   0.473
 7304SOL     OW22810   2.544   5.240   1.481
 7304SOL    HW122811   2.538   5.286   1.570
 7304SOL    HW222812   2.640   5.229   1.456
 7305SOL     OW22813   5.578   2.680   0.499
 7305SOL    HW122814   5.507   2.621   0.462
 7305SOL    HW222815   5.622   2.731   0.425
 7306SOL     OW22816   3.306   1.526   1.385
 7306SOL    HW122817   3.247   1.560   1.459
 7306SOL    HW222818   3.401   1.545   1.407
 7307SOL     OW22819   3.865   6.511   2.052
 7307SOL    HW122820   3.868   6.611   2.041
 7307SOL    HW222821   3.904   6.486   2.140
 7308SOL     OW22822   6.533   1.036   2.351
 7308SOL    HW122823   6.576   1.115   2.395
 7308SOL    HW222824   6.571   1.024   2.260
 7309SOL     OW22825   2.646   6.040   2.771
 7309SOL    HW122826   2.546   6.029   2.777
 7309SOL    HW222827   2.668   6.136   2.755
 7310SOL     OW22828   1.217   2.804   0.138
 7310SOL    HW122829   1.234   2.807   0.237
 7310SOL    HW222830   1.158   2.726   0.117
 7311SOL     OW22831   1.032   0.276   0.124
 7311SOL    HW122832   0.990   0.279   0.033
 7311SOL    HW222833   1.125   0.311   0.119
 7312SOL     OW22834   0.344   1.263   4.914
 7312SOL    HW122835   0.337   1.331   4.987
 7312SOL    HW222836   0.255   1.219   4.900
 7313SOL     OW22837   2.745   0.892   0.805
 7313SOL    HW122838   2.708   0.810   0.763
 7313SOL    HW222839   2.828   0.869   0.855
 7314SOL     OW22840   0.189   4.068   6.982
 7314SOL    HW122841   0.226   4.090   6.892
 7314SOL    HW222842   0.251   4.005   0.006
 7315SOL     OW22843   6.489   5.284   2.377
 7315SOL    HW122844   6.538   5.331   2.303
 7315SOL    HW222845   6.393   5.276   2.353
 7316SOL     OW22846   3.287   2.100   6.400
 7316SOL    HW122847   3.351   2.165   6.440
 7316SOL    HW222848   3.217   2.077   6.467
 7317SOL     OW22849   3.340   1.723   1.983
 7317SOL    HW122850   3.315   1.687   2.073
 7317SOL    HW222851   3.436   1.749   1.983
 7318SOL     OW22852   3.981   0.022   2.393
 7318SOL    HW122853   3.939   0.016   2.483
 7318SOL    HW222854   4.001   0.118   2.372
 7319SOL     OW22855   0.209   3.400   6.741
 7319SOL    HW122856   0.180   3.372   6.650
 7319SOL    HW222857   0.254   3.324   6.787
 7320SOL     OW22858   6.773   3.990   0.951
 7320SOL    HW122859   6.804   3.994   0.856
 7320SOL    HW222860   6.807   4.070   1.001
 7321SOL     OW22861   1.526   6.285   5.978
 7321SOL    HW122862   1.481   6.306   6.065
 7321SOL    HW222863   1.589   6.208   5.991
 7322SOL     OW22864   0.822   2.070   3.001
 7322SOL    HW122865   0.789   2.003   3.067
 7322SOL    HW222866   0.910   2.040   2.964
 7323SOL     OW22867   2.449   1.447   1.852
 7323SOL    HW122868   2.534   1.401   1.827
 7323SOL    HW222869   2.470   1.538   1.887
 7324SOL     OW22870   5.835   4.415   2.263
 7324SOL    HW122871   5.903   4.486   2.249
 7324SOL    HW222872   5.759   4.452   2.318
 7325SOL     OW22873   3.420   0.563   5.846
 7325SOL    HW122874   3.428   0.527   5.753
 7325SOL    HW222875   3.333   0.611   5.856
 7326SOL     OW22876   3.603   0.819   6.549
 7326SOL    HW122877   3.526   0.766   6.512
 7326SOL    HW222878   3.688   0.769   6.534
 7327SOL     OW22879   5.998   3.829   3.250
 7327SOL    HW122880   6.088   3.852   3.213
 7327SOL    HW222881   5.987   3.730   3.251
 7328SOL     OW22882   4.116   5.310   5.661
 7328SOL    HW122883   4.166   5.251   5.723
 7328SOL    HW222884   4.055   5.255   5.604
 7329SOL     OW22885   0.640   2.424   0.108
 7329SOL    HW122886   0.580   2.384   0.178
 7329SOL    HW222887   0.731   2.439   0.146
 7330SOL     OW22888   2.706   2.887   1.328
 7330SOL    HW122889   2.770   2.950   1.282
 7330SOL    HW222890   2.749   2.798   1.338
 7331SOL     OW22891   4.760   0.091   1.939
 7331SOL    HW122892   4.838   0.120   1.994
 7331SOL    HW222893   4.703   0.028   1.992
 7332SOL     OW22894   4.043   4.469   0.271
 7332SOL    HW122895   4.011   4.433   0.183
 7332SOL    HW222896   3.965   4.498   0.326
 7333SOL     OW22897   5.825   3.281   3.321
 7333SOL    HW122898   5.853   3.371   3.290
 7333SOL    HW222899   5.759   3.242   3.257
 7334SOL     OW22900   2.882   6.354   6.450
 7334SOL    HW122901   2.948   6.286   6.483
 7334SOL    HW222902   2.845   6.324   6.362
 7335SOL     OW22903   6.967   3.525   2.890
 7335SOL    HW122904   6.925   3.436   2.871
 7335SOL    HW222905   0.030   3.512   2.939
 7336SOL     OW22906   1.362   6.188   0.833
 7336SOL    HW122907   1.268   6.161   0.813
 7336SOL    HW222908   1.384   6.165   0.928
 7337SOL     OW22909   3.370   2.775   1.633
 7337SOL    HW122910   3.418   2.786   1.546
 7337SOL    HW222911   3.398   2.689   1.676
 7338SOL     OW22912   5.550   2.558   1.463
 7338SOL    HW122913   5.607   2.611   1.526
 7338SOL    HW222914   5.608   2.493   1.413
 7339SOL     OW22915   0.089   6.032   4.951
 7339SOL    HW122916   0.162   5.980   4.997
 7339SOL    HW222917   0.030   6.074   5.019
 7340SOL     OW22918   3.522   1.305   6.974
 7340SOL    HW122919   3.478   1.219   6.949
 7340SOL    HW222920   3.459   1.361   0.004
 7341SOL     OW22921   1.199   5.171   4.201
 7341SOL    HW122922   1.293   5.164   4.236
 7341SOL    HW222923   1.169   5.266   4.204
 7342SOL     OW22924   6.737   0.199   0.637
 7342SOL    HW122925   6.756   0.107   0.671
 7342SOL    HW222926   6.720   0.196   0.539
 7343SOL     OW22927   5.732   3.475   1.535
 7343SOL    HW122928   5.658   3.440   1.593
 7343SOL    HW222929   5.820   3.442   1.569
 7344SOL     OW22930   1.236   6.758   6.807
 7344SOL    HW122931   1.231   6.696   6.885
 7344SOL    HW222932   1.313   6.731   6.749
 7345SOL     OW22933   4.835   4.775   6.076
 7345SOL    HW122934   4.754   4.787   6.133
 7345SOL    HW222935   4.824   4.827   5.991
 7346SOL     OW22936   3.572   3.803   1.299
 7346SOL    HW122937   3.611   3.722   1.344
 7346SOL    HW222938   3.624   3.884   1.325
 7347SOL     OW22939   6.555   2.691   2.478
 7347SOL    HW122940   6.582   2.603   2.438
 7347SOL    HW222941   6.485   2.734   2.421
 7348SOL     OW22942   1.539   3.311   4.048
 7348SOL    HW122943   1.518   3.403   4.079
 7348SOL    HW222944   1.635   3.304   4.024
 7349SOL     OW22945   3.879   1.486   1.429
 7349SOL    HW122946   3.924   1.492   1.519
 7349SOL    HW222947   3.793   1.436   1.438
 7350SOL     OW22948   0.222   3.041   3.750
 7350SOL    HW122949   0.255   3.127   3.710
 7350SOL    HW222950   0.122   3.038   3.744
 7351SOL     OW22951   4.011   4.428   6.272
 7351SOL    HW122952   4.042   4.341   6.311
 7351SOL    HW222953   4.072   4.501   6.301
 7352SOL     OW22954   1.156   1.668   3.362
 7352SOL    HW122955   1.137   1.599   3.432
 7352SOL    HW222956   1.160   1.759   3.404
 7353SOL     OW22957   0.163   1.784   5.254
 7353SOL    HW122958   0.155   1.737   5.166
 7353SOL    HW222959   0.213   1.870   5.241
 7354SOL     OW22960   7.010   0.823   6.083
 7354SOL    HW122961   7.001   0.728   6.113
 7354SOL    HW222962   0.032   0.877   6.154
 7355SOL     OW22963   1.756   5.502   1.077
 7355SOL    HW122964   1.833   5.473   1.134
 7355SOL    HW222965   1.671   5.495   1.129
 7356SOL     OW22966   5.314   2.458   6.764
 7356SOL    HW122967   5.261   2.448   6.680
 7356SOL    HW222968   5.330   2.554   6.783
 7357SOL     OW22969   4.931   1.003   1.557
 7357SOL    HW122970   4.847   1.030   1.509
 7357SOL    HW222971   4.957   0.911   1.528
 7358SOL     OW22972   2.892   1.867   2.658
 7358SOL    HW122973   2.971   1.894   2.604
 7358SOL    HW222974   2.885   1.767   2.660
 7359SOL     OW22975   3.367   2.486   1.244
 7359SOL    HW122976   3.349   2.387   1.250
 7359SOL    HW222977   3.376   2.512   1.148
 7360SOL     OW22978   1.585   2.397   5.307
 7360SOL    HW122979   1.516   2.368   5.374
 7360SOL    HW222980   1.571   2.493   5.284
 7361SOL     OW22981   4.916   0.007   1.322
 7361SOL    HW122982   4.955   0.053   1.242
 7361SOL    HW222983   4.904   0.073   1.396
 7362SOL     OW22984   0.762   0.062   5.213
 7362SOL    HW122985   0.793   0.040   5.121
 7362SOL    HW222986   0.711   0.148   5.211
 7363SOL     OW22987   5.074   2.057   0.307
 7363SOL    HW122988   5.150   1.993   0.305
 7363SOL    HW222989   5.030   2.054   0.397
 7364SOL     OW22990   3.787   6.501   1.478
 7364SOL    HW122991   3.731   6.557   1.418
 7364SOL    HW222992   3.731   6.428   1.518
 7365SOL     OW22993   2.838   6.478   2.226
 7365SOL    HW122994   2.782   6.398   2.249
 7365SOL    HW222995   2.868   6.523   2.310
 7366SOL     OW22996   1.115   5.501   0.354
 7366SOL    HW122997   1.068   5.561   0.419
 7366SOL    HW222998   1.145   5.554   0.275
 7367SOL     OW22999   4.270   3.784   1.262
 7367SOL    HW123000   4.236   3.871   1.227
 7367SOL    HW223001   4.350   3.755   1.208
 7368SOL     OW23002   2.960   3.310   3.839
 7368SOL    HW123003   2.935   3.331   3.933
 7368SOL    HW223004   3.017   3.228   3.836
 7369SOL     OW23005   4.836   3.254   0.885
 7369SOL    HW123006   4.873   3.161   0.883
 7369SOL    HW223007   4.746   3.253   0.929
 7370SOL     OW23008   1.802   0.720   6.376
 7370SOL    HW123009   1.800   0.665   6.292
 7370SOL    HW223010   1.861   0.799   6.362
 7371SOL     OW23011   2.986   5.598   4.100
 7371SOL    HW123012   3.086   5.600   4.098
 7371SOL    HW223013   2.954   5.572   4.191
 7372SOL     OW23014   3.406   0.190   5.764
 7372SOL    HW123015   3.320   0.146   5.738
 7372SOL    HW223016   3.386   0.279   5.807
 7373SOL     OW23017   4.950   1.074   3.670
 7373SOL    HW123018   4.993   1.154   3.711
 7373SOL    HW223019   4.860   1.099   3.634
 7374SOL     OW23020   2.178   2.593   5.448
 7374SOL    HW123021   2.079   2.600   5.442
 7374SOL    HW223022   2.218   2.684   5.455
 7375SOL     OW23023   1.722   1.792   3.888
 7375SOL    HW123024   1.689   1.826   3.976
 7375SOL    HW223025   1.807   1.742   3.901
 7376SOL     OW23026   3.192   2.623   6.832
 7376SOL    HW123027   3.276   2.657   6.874
 7376SOL    HW223028   3.153   2.695   6.773
 7377SOL     OW23029   4.593   5.592   2.221
 7377SOL    HW123030   4.613   5.507   2.171
 7377SOL    HW223031   4.631   5.669   2.171
 7378SOL     OW23032   6.543   1.911   4.285
 7378SOL    HW123033   6.567   1.993   4.232
 7378SOL    HW223034   6.476   1.935   4.355
 7379SOL     OW23035   4.408   1.114   2.690
 7379SOL    HW123036   4.446   1.156   2.773
 7379SOL    HW223037   4.399   1.183   2.619
 7380SOL     OW23038   0.391   3.465   5.944
 7380SOL    HW123039   0.420   3.376   5.909
 7380SOL    HW223040   0.347   3.452   6.033
 7381SOL     OW23041   4.894   2.739   2.650
 7381SOL    HW123042   4.939   2.664   2.600
 7381SOL    HW223043   4.796   2.721   2.655
 7382SOL     OW23044   0.215   5.037   4.754
 7382SOL    HW123045   0.160   5.047   4.672
 7382SOL    HW223046   0.167   4.980   4.821
 7383SOL     OW23047   6.772   6.439   2.667
 7383SOL    HW123048   6.846   6.489   2.621
 7383SOL    HW223049   6.709   6.504   2.709
 7384SOL     OW23050   5.279   1.099   1.633
 7384SOL    HW123051   5.333   1.177   1.667
 7384SOL    HW223052   5.320   1.066   1.548
 7385SOL     OW23053   4.148   5.513   2.314
 7385SOL    HW123054   4.156   5.442   2.384
 7385SOL    HW223055   4.172   5.475   2.225
 7386SOL     OW23056   0.918   2.742   5.381
 7386SOL    HW123057   0.891   2.759   5.286
 7386SOL    HW223058   0.995   2.679   5.382
 7387SOL     OW23059   4.393   6.326   4.726
 7387SOL    HW123060   4.381   6.403   4.664
 7387SOL    HW223061   4.416   6.244   4.673
 7388SOL     OW23062   6.850   5.672   4.074
 7388SOL    HW123063   6.846   5.638   3.980
 7388SOL    HW223064   6.757   5.695   4.105
 7389SOL     OW23065   1.068   4.563   0.018
 7389SOL    HW123066   1.094   4.618   0.098
 7389SOL    HW223067   1.142   4.499   7.020
 7390SOL     OW23068   1.699   1.729   6.292
 7390SOL    HW123069   1.624   1.748   6.230
 7390SOL    HW223070   1.748   1.814   6.313
 7391SOL     OW23071   4.657   4.083   5.231
 7391SOL    HW123072   4.596   4.022   5.280
 7391SOL    HW223073   4.723   4.029   5.178
 7392SOL     OW23074   2.252   5.883   5.902
 7392SOL    HW123075   2.290   5.909   5.990
 7392SOL    HW223076   2.326   5.865   5.837
 7393SOL     OW23077   5.850   5.479   1.707
 7393SOL    HW123078   5.941   5.511   1.681
 7393SOL    HW223079   5.803   5.550   1.760
 7394SOL     OW23080   3.306   2.795   6.293
 7394SOL    HW123081   3.364   2.773   6.214
 7394SOL    HW223082   3.355   2.858   6.353
 7395SOL     OW23083   0.634   0.915   6.990
 7395SOL    HW123084   0.616   1.007   6.954
 7395SOL    HW223085   0.647   0.851   6.914
 7396SOL     OW23086   1.396   0.952   6.786
 7396SOL    HW123087   1.340   1.034   6.775
 7396SOL    HW223088   1.423   0.943   6.882
 7397SOL     OW23089   6.414   5.203   4.240
 7397SOL    HW123090   6.491   5.266   4.247
 7397SOL    HW223091   6.417   5.138   4.316
 7398SOL     OW23092   3.737   5.279   4.302
 7398SOL    HW123093   3.671   5.234   4.242
 7398SOL    HW223094   3.800   5.334   4.248
 7399SOL     OW23095   0.481   4.116   5.253
 7399SOL    HW123096   0.540   4.039   5.278
 7399SOL    HW223097   0.429   4.092   5.171
 7400SOL     OW23098   3.194   4.110   6.932
 7400SOL    HW123099   3.237   4.037   6.984
 7400SOL    HW223100   3.256   4.188   6.925
 7401SOL     OW23101   0.391   1.436   3.120
 7401SOL    HW123102   0.322   1.474   3.058
 7401SOL    HW223103   0.432   1.510   3.173
 7402SOL     OW23104   1.973   6.960   4.148
 7402SOL    HW123105   2.030   6.905   4.209
 7402SOL    HW223106   1.918   7.023   4.203
 7403SOL     OW23107   2.207   2.977   3.334
 7403SOL    HW123108   2.151   3.037   3.276
 7403SOL    HW223109   2.272   2.928   3.277
 7404SOL     OW23110   2.410   0.355   1.208
 7404SOL    HW123111   2.394   0.273   1.153
 7404SOL    HW223112   2.383   0.436   1.157
 7405SOL     OW23113   0.978   4.891   4.237
 7405SOL    HW123114   1.019   4.950   4.307
 7405SOL    HW223115   0.928   4.947   4.171
 7406SOL     OW23116   1.450   3.254   2.769
 7406SOL    HW123117   1.438   3.249   2.868
 7406SOL    HW223118   1.528   3.313   2.747
 7407SOL     OW23119   0.289   6.073   4.529
 7407SOL    HW123120   0.255   6.167   4.530
 7407SOL    HW223121   0.306   6.045   4.435
 7408SOL     OW23122   1.536   4.137   5.132
 7408SOL    HW123123   1.593   4.162   5.054
 7408SOL    HW223124   1.506   4.042   5.121
 7409SOL     OW23125   0.627   1.085   4.513
 7409SOL    HW123126   0.625   1.144   4.594
 7409SOL    HW223127   0.534   1.058   4.490
 7410SOL     OW23128   6.900   4.979   0.863
 7410SOL    HW123129   6.939   4.996   0.772
 7410SOL    HW223130   6.968   5.002   0.932
 7411SOL     OW23131   2.477   0.084   4.649
 7411SOL    HW123132   2.505   0.108   4.556
 7411SOL    HW223133   2.546   0.024   4.690
 7412SOL     OW23134   3.075   1.258   1.180
 7412SOL    HW123135   3.105   1.193   1.250
 7412SOL    HW223136   3.126   1.343   1.190
 7413SOL     OW23137   0.403   4.627   3.912
 7413SOL    HW123138   0.451   4.542   3.887
 7413SOL    HW223139   0.465   4.705   3.897
 7414SOL     OW23140   6.884   0.106   2.336
 7414SOL    HW123141   6.873   0.055   2.251
 7414SOL    HW223142   6.843   0.053   2.411
 7415SOL     OW23143   0.462   3.718   3.246
 7415SOL    HW123144   0.367   3.706   3.276
 7415SOL    HW223145   0.493   3.810   3.270
 7416SOL     OW23146   3.647   1.026   3.709
 7416SOL    HW123147   3.668   1.055   3.803
 7416SOL    HW223148   3.702   1.079   3.645
 7417SOL     OW23149   1.162   0.051   5.935
 7417SOL    HW123150   1.202   0.112   5.867
 7417SOL    HW223151   1.081   0.006   5.896
 7418SOL     OW23152   3.417   4.399   0.940
 7418SOL    HW123153   3.390   4.494   0.924
 7418SOL    HW223154   3.389   4.372   1.032
 7419SOL     OW23155   6.168   2.311   5.025
 7419SOL    HW123156   6.094   2.245   5.037
 7419SOL    HW223157   6.172   2.339   4.928
 7420SOL     OW23158   6.313   6.400   2.752
 7420SOL    HW123159   6.362   6.404   2.840
 7420SOL    HW223160   6.256   6.482   2.742
 7421SOL     OW23161   2.783   2.763   0.931
 7421SOL    HW123162   2.808   2.677   0.976
 7421SOL    HW223163   2.744   2.826   0.998
 7422SOL     OW23164   0.270   3.135   2.278
 7422SOL    HW123165   0.240   3.040   2.289
 7422SOL    HW223166   0.339   3.157   2.347
 7423SOL     OW23167   0.340   4.235   6.305
 7423SOL    HW123168   0.429   4.191   6.295
 7423SOL    HW223169   0.268   4.167   6.292
 7424SOL     OW23170   6.045   1.101   4.168
 7424SOL    HW123171   5.981   1.177   4.178
 7424SOL    HW223172   6.026   1.032   4.238
 7425SOL     OW23173   4.359   4.833   6.574
 7425SOL    HW123174   4.410   4.888   6.640
 7425SOL    HW223175   4.418   4.760   6.538
 7426SOL     OW23176   0.630   1.878   6.464
 7426SOL    HW123177   0.548   1.882   6.407
 7426SOL    HW223178   0.634   1.959   6.522
 7427SOL     OW23179   3.286   5.916   5.005
 7427SOL    HW123180   3.204   5.860   5.005
 7427SOL    HW223181   3.296   5.960   5.095
 7428SOL     OW23182   3.762   1.720   5.572
 7428SOL    HW123183   3.720   1.726   5.482
 7428SOL    HW223184   3.694   1.742   5.642
 7429SOL     OW23185   6.055   0.238   2.886
 7429SOL    HW123186   6.087   0.322   2.844
 7429SOL    HW223187   6.064   0.245   2.986
 7430SOL     OW23188   0.032   4.803   5.860
 7430SOL    HW123189   6.979   4.747   5.824
 7430SOL    HW223190   0.094   4.744   5.912
 7431SOL     OW23191   0.467   4.071   2.369
 7431SOL    HW123192   0.561   4.085   2.338
 7431SOL    HW223193   0.407   4.140   2.329
 7432SOL     OW23194   0.337   6.433   3.937
 7432SOL    HW123195   0.349   6.526   3.903
 7432SOL    HW223196   0.390   6.422   4.021
 7433SOL     OW23197   6.737   5.564   0.409
 7433SOL    HW123198   6.662   5.559   0.343
 7433SOL    HW223199   6.824   5.560   0.360
 7434SOL     OW23200   3.697   0.927   6.788
 7434SOL    HW123201   3.708   0.864   6.864
 7434SOL    HW223202   3.658   0.878   6.709
 7435SOL     OW23203   3.445   6.484   6.585
 7435SOL    HW123204   3.406   6.432   6.661
 7435SOL    HW223205   3.371   6.511   6.522
 7436SOL     OW23206   6.922   3.429   6.447
 7436SOL    HW123207   7.005   3.381   6.475
 7436SOL    HW223208   6.888   3.391   6.361
 7437SOL     OW23209   6.982   5.645   0.282
 7437SOL    HW123210   6.944   5.737   0.279
 7437SOL    HW223211   6.978   5.604   0.191
 7438SOL     OW23212   1.265   4.136   1.051
 7438SOL    HW123213   1.330   4.163   0.980
 7438SOL    HW223214   1.173   4.165   1.025
 7439SOL     OW23215   2.623   6.604   4.100
 7439SOL    HW123216   2.646   6.594   4.197
 7439SOL    HW223217   2.623   6.514   4.057
 7440SOL     OW23218   1.019   3.005   4.549
 7440SOL    HW123219   0.991   2.988   4.644
 7440SOL    HW223220   1.059   2.922   4.511
 7441SOL     OW23221   5.653   6.409   4.385
 7441SOL    HW123222   5.632   6.431   4.290
 7441SOL    HW223223   5.752   6.416   4.400
 7442SOL     OW23224   1.034   0.919   6.312
 7442SOL    HW123225   1.025   0.865   6.396
 7442SOL    HW223226   1.101   0.877   6.252
 7443SOL     OW23227   0.335   1.497   1.195
 7443SOL    HW123228   0.333   1.420   1.132
 7443SOL    HW223229   0.243   1.534   1.206
 7444SOL     OW23230   0.628   3.596   5.922
 7444SOL    HW123231   0.654   3.503   5.896
 7444SOL    HW223232   0.535   3.596   5.958
 7445SOL     OW23233   3.975   1.241   1.662
 7445SOL    HW123234   4.049   1.288   1.709
 7445SOL    HW223235   3.895   1.236   1.722
 7446SOL     OW23236   5.933   4.966   0.350
 7446SOL    HW123237   5.833   4.963   0.344
 7446SOL    HW223238   5.960   5.030   0.423
 7447SOL     OW23239   2.359   3.767   6.733
 7447SOL    HW123240   2.282   3.726   6.684
 7447SOL    HW223241   2.349   3.751   6.831
 7448SOL     OW23242   5.668   6.527   6.160
 7448SOL    HW123243   5.582   6.577   6.153
 7448SOL    HW223244   5.745   6.590   6.149
 7449SOL     OW23245   4.835   2.713   2.240
 7449SOL    HW123246   4.912   2.724   2.178
 7449SOL    HW223247   4.756   2.679   2.190
 7450SOL     OW23248   5.366   2.818   4.700
 7450SOL    HW123249   5.274   2.836   4.734
 7450SOL    HW223250   5.401   2.734   4.741
 7451SOL     OW23251   1.460   0.369   3.868
 7451SOL    HW123252   1.458   0.284   3.920
 7451SOL    HW223253   1.479   0.445   3.930
 7452SOL     OW23254   1.389   0.234   4.636
 7452SOL    HW123255   1.382   0.281   4.724
 7452SOL    HW223256   1.314   0.264   4.577
 7453SOL     OW23257   5.334   5.851   5.282
 7453SOL    HW123258   5.399   5.780   5.308
 7453SOL    HW223259   5.354   5.935   5.332
 7454SOL     OW23260   1.046   2.944   2.097
 7454SOL    HW123261   1.121   2.979   2.041
 7454SOL    HW223262   1.075   2.938   2.192
 7455SOL     OW23263   6.965   1.290   1.616
 7455SOL    HW123264   6.986   1.258   1.709
 7455SOL    HW223265   6.873   1.331   1.615
 7456SOL     OW23266   1.383   2.010   4.715
 7456SOL    HW123267   1.303   2.018   4.774
 7456SOL    HW223268   1.377   1.924   4.663
 7457SOL     OW23269   4.396   0.698   6.501
 7457SOL    HW123270   4.453   0.617   6.486
 7457SOL    HW223271   4.307   0.685   6.457
 7458SOL     OW23272   1.527   6.998   6.818
 7458SOL    HW123273   1.542   6.943   6.900
 7458SOL    HW223274   1.429   7.018   6.809
 7459SOL     OW23275   4.248   0.048   0.034
 7459SOL    HW123276   4.282   0.137   0.005
 7459SOL    HW223277   4.321   7.021   0.080
 7460SOL     OW23278   2.075   4.727   0.096
 7460SOL    HW123279   2.130   4.774   0.027
 7460SOL    HW223280   2.128   4.714   0.179
 7461SOL     OW23281   4.859   1.566   5.464
 7461SOL    HW123282   4.787   1.608   5.520
 7461SOL    HW223283   4.893   1.484   5.509
 7462SOL     OW23284   1.715   2.735   2.359
 7462SOL    HW123285   1.766   2.819   2.343
 7462SOL    HW223286   1.742   2.696   2.447
 7463SOL     OW23287   3.712   3.984   1.454
 7463SOL    HW123288   3.769   3.919   1.504
 7463SOL    HW223289   3.688   4.060   1.515
 7464SOL     OW23290   3.684   6.174   6.554
 7464SOL    HW123291   3.662   6.103   6.487
 7464SOL    HW223292   3.607   6.188   6.615
 7465SOL     OW23293   1.566   0.301   0.909
 7465SOL    HW123294   1.658   0.302   0.948
 7465SOL    HW223295   1.508   0.239   0.962
 7466SOL     OW23296   0.375   0.775   6.786
 7466SOL    HW123297   0.436   0.794   6.710
 7466SOL    HW223298   0.317   0.855   6.804
 7467SOL     OW23299   6.378   2.299   1.208
 7467SOL    HW123300   6.413   2.240   1.135
 7467SOL    HW223301   6.379   2.250   1.295
 7468SOL     OW23302   5.241   2.127   2.243
 7468SOL    HW123303   5.329   2.099   2.282
 7468SOL    HW223304   5.220   2.221   2.271
 7469SOL     OW23305   0.641   6.907   0.009
 7469SOL    HW123306   0.629   7.003   7.005
 7469SOL    HW223307   0.709   6.864   6.972
 7470SOL     OW23308   0.152   3.268   3.941
 7470SOL    HW123309   0.063   3.222   3.929
 7470SOL    HW223310   0.153   3.351   3.885
 7471SOL     OW23311   6.017   6.770   4.297
 7471SOL    HW123312   5.998   6.720   4.213
 7471SOL    HW223313   6.114   6.795   4.301
 7472SOL     OW23314   5.463   6.477   3.730
 7472SOL    HW123315   5.543   6.422   3.708
 7472SOL    HW223316   5.463   6.560   3.674
 7473SOL     OW23317   0.010   4.545   3.244
 7473SOL    HW123318   0.059   4.548   3.157
 7473SOL    HW223319   0.006   4.638   3.283
 7474SOL     OW23320   3.058   0.884   4.834
 7474SOL    HW123321   3.043   0.892   4.735
 7474SOL    HW223322   3.153   0.856   4.851
 7475SOL     OW23323   4.402   1.403   2.597
 7475SOL    HW123324   4.414   1.482   2.658
 7475SOL    HW223325   4.304   1.384   2.586
 7476SOL     OW23326   3.839   6.479   4.304
 7476SOL    HW123327   3.846   6.579   4.295
 7476SOL    HW223328   3.920   6.437   4.264
 7477SOL     OW23329   4.978   1.153   4.113
 7477SOL    HW123330   4.966   1.171   4.016
 7477SOL    HW223331   5.075   1.134   4.132
 7478SOL     OW23332   3.794   3.795   6.267
 7478SOL    HW123333   3.863   3.867   6.273
 7478SOL    HW223334   3.707   3.836   6.239
 7479SOL     OW23335   4.083   2.353   0.873
 7479SOL    HW123336   4.064   2.266   0.829
 7479SOL    HW223337   4.144   2.407   0.815
 7480SOL     OW23338   6.107   5.539   1.339
 7480SOL    HW123339   6.087   5.522   1.436
 7480SOL    HW223340   6.075   5.631   1.315
 7481SOL     OW23341   5.399   5.546   1.345
 7481SOL    HW123342   5.417   5.497   1.430
 7481SOL    HW223343   5.469   5.615   1.330
 7482SOL     OW23344   4.631   1.422   2.454
 7482SOL    HW123345   4.590   1.426   2.363
 7482SOL    HW223346   4.559   1.420   2.523
 7483SOL     OW23347   4.061   1.918   4.669
 7483SOL    HW123348   4.143   1.899   4.722
 7483SOL    HW223349   4.016   2.000   4.705
 7484SOL     OW23350   6.823   0.342   1.899
 7484SOL    HW123351   6.789   0.304   1.985
 7484SOL    HW223352   6.896   0.284   1.863
 7485SOL     OW23353   2.981   6.316   5.164
 7485SOL    HW123354   3.031   6.320   5.251
 7485SOL    HW223355   2.914   6.242   5.167
 7486SOL     OW23356   2.194   6.919   5.931
 7486SOL    HW123357   2.172   6.842   5.871
 7486SOL    HW223358   2.116   6.980   5.937
 7487SOL     OW23359   2.127   6.441   2.568
 7487SOL    HW123360   2.219   6.480   2.575
 7487SOL    HW223361   2.113   6.405   2.476
 7488SOL     OW23362   1.876   6.585   5.223
 7488SOL    HW123363   1.924   6.516   5.277
 7488SOL    HW223364   1.779   6.561   5.216
 7489SOL     OW23365   5.108   2.683   5.143
 7489SOL    HW123366   5.047   2.742   5.196
 7489SOL    HW223367   5.060   2.650   5.062
 7490SOL     OW23368   0.920   1.569   1.106
 7490SOL    HW123369   0.989   1.496   1.104
 7490SOL    HW223370   0.856   1.551   1.182
 7491SOL     OW23371   0.164   5.079   6.415
 7491SOL    HW123372   0.228   5.097   6.490
 7491SOL    HW223373   0.213   5.086   6.328
 7492SOL     OW23374   2.585   1.492   4.648
 7492SOL    HW123375   2.538   1.558   4.589
 7492SOL    HW223376   2.665   1.535   4.690
 7493SOL     OW23377   6.088   4.625   6.481
 7493SOL    HW123378   6.011   4.662   6.534
 7493SOL    HW223379   6.136   4.701   6.435
 7494SOL     OW23380   6.059   1.268   2.498
 7494SOL    HW123381   5.980   1.223   2.539
 7494SOL    HW223382   6.064   1.363   2.528
 7495SOL     OW23383   2.359   1.401   1.069
 7495SOL    HW123384   2.368   1.449   1.157
 7495SOL    HW223385   2.435   1.337   1.058
 7496SOL     OW23386   0.728   3.775   6.280
 7496SOL    HW123387   0.825   3.751   6.281
 7496SOL    HW223388   0.674   3.697   6.309
 7497SOL     OW23389   3.262   4.668   1.296
 7497SOL    HW123390   3.355   4.703   1.299
 7497SOL    HW223391   3.198   4.743   1.309
 7498SOL     OW23392   2.370   0.911   3.758
 7498SOL    HW123393   2.461   0.897   3.719
 7498SOL    HW223394   2.379   0.960   3.846
 7499SOL     OW23395   6.162   1.107   3.333
 7499SOL    HW123396   6.175   1.204   3.309
 7499SOL    HW223397   6.089   1.068   3.277
 7500SOL     OW23398   4.323   6.407   2.856
 7500SOL    HW123399   4.246   6.471   2.868
 7500SOL    HW223400   4.409   6.459   2.855
 7501SOL     OW23401   6.577   4.314   4.440
 7501SOL    HW123402   6.632   4.386   4.396
 7501SOL    HW223403   6.484   4.319   4.405
 7502SOL     OW23404   1.307   1.059   5.183
 7502SOL    HW123405   1.339   0.966   5.201
 7502SOL    HW223406   1.383   1.114   5.149
 7503SOL     OW23407   2.527   1.154   6.951
 7503SOL    HW123408   2.527   1.205   6.865
 7503SOL    HW223409   2.604   1.091   6.952
 7504SOL     OW23410   3.696   0.018   3.535
 7504SOL    HW123411   3.759   0.085   3.494
 7504SOL    HW223412   3.739   6.951   3.535
 7505SOL     OW23413   2.724   0.520   5.252
 7505SOL    HW123414   2.815   0.552   5.226
 7505SOL    HW223415   2.728   0.425   5.281
 7506SOL     OW23416   3.942   0.016   2.707
 7506SOL    HW123417   3.875   0.076   2.752
 7506SOL    HW223418   4.024   0.069   2.686
 7507SOL     OW23419   6.999   6.972   1.045
 7507SOL    HW123420   7.013   6.899   1.111
 7507SOL    HW223421   6.990   0.036   1.093
 7508SOL     OW23422   5.527   6.940   2.432
 7508SOL    HW123423   5.564   0.009   2.423
 7508SOL    HW223424   5.478   6.932   2.519
 7509SOL     OW23425   5.578   4.543   0.923
 7509SOL    HW123426   5.644   4.565   0.996
 7509SOL    HW223427   5.563   4.444   0.922
 7510SOL     OW23428   2.688   4.253   5.616
 7510SOL    HW123429   2.769   4.196   5.632
 7510SOL    HW223430   2.671   4.259   5.517
 7511SOL     OW23431   1.637   0.864   2.854
 7511SOL    HW123432   1.657   0.888   2.949
 7511SOL    HW223433   1.713   0.893   2.795
 7512SOL     OW23434   3.032   4.460   1.411
 7512SOL    HW123435   3.061   4.381   1.357
 7512SOL    HW223436   3.019   4.538   1.350
 7513SOL     OW23437   1.814   2.205   0.806
 7513SOL    HW123438   1.871   2.133   0.768
 7513SOL    HW223439   1.871   2.282   0.835
 7514SOL     OW23440   3.311   6.058   2.483
 7514SOL    HW123441   3.309   5.958   2.481
 7514SOL    HW223442   3.365   6.092   2.406
 7515SOL     OW23443   1.695   6.568   2.448
 7515SOL    HW123444   1.599   6.540   2.448
 7515SOL    HW223445   1.702   6.664   2.477
 7516SOL     OW23446   6.896   5.693   4.601
 7516SOL    HW123447   6.950   5.674   4.684
 7516SOL    HW223448   6.913   5.787   4.572
 7517SOL     OW23449   6.933   3.486   1.475
 7517SOL    HW123450   6.922   3.495   1.376
 7517SOL    HW223451   6.890   3.401   1.506
 7518SOL     OW23452   3.874   5.861   3.834
 7518SOL    HW123453   3.824   5.779   3.864
 7518SOL    HW223454   3.905   5.848   3.740
 7519SOL     OW23455   0.170   6.544   3.691
 7519SOL    HW123456   0.126   6.625   3.653
 7519SOL    HW223457   0.270   6.555   3.687
 7520SOL     OW23458   3.062   0.184   2.012
 7520SOL    HW123459   3.076   0.085   2.014
 7520SOL    HW223460   3.083   0.219   1.920
 7521SOL     OW23461   4.576   4.408   5.395
 7521SOL    HW123462   4.517   4.329   5.376
 7521SOL    HW223463   4.557   4.443   5.486
 7522SOL     OW23464   2.781   0.819   6.471
 7522SOL    HW123465   2.758   0.781   6.381
 7522SOL    HW223466   2.836   0.901   6.459
 7523SOL     OW23467   5.327   1.164   5.967
 7523SOL    HW123468   5.234   1.200   5.961
 7523SOL    HW223469   5.380   1.196   5.888
 7524SOL     OW23470   0.311   2.378   6.103
 7524SOL    HW123471   0.397   2.428   6.094
 7524SOL    HW223472   0.251   2.399   6.026
 7525SOL     OW23473   2.853   6.628   6.494
 7525SOL    HW123474   2.797   6.662   6.570
 7525SOL    HW223475   2.845   6.529   6.488
 7526SOL     OW23476   3.575   3.094   2.368
 7526SOL    HW123477   3.581   3.077   2.466
 7526SOL    HW223478   3.543   3.011   2.322
 7527SOL     OW23479   4.590   5.557   3.339
 7527SOL    HW123480   4.662   5.617   3.375
 7527SOL    HW223481   4.522   5.540   3.411
 7528SOL     OW23482   4.375   2.544   6.892
 7528SOL    HW123483   4.381   2.454   6.937
 7528SOL    HW223484   4.289   2.588   6.918
 7529SOL     OW23485   5.518   1.283   4.489
 7529SOL    HW123486   5.561   1.252   4.573
 7529SOL    HW223487   5.425   1.314   4.509
 7530SOL     OW23488   5.925   3.459   2.392
 7530SOL    HW123489   5.975   3.396   2.332
 7530SOL    HW223490   5.980   3.542   2.406
 7531SOL     OW23491   4.236   2.192   3.768
 7531SOL    HW123492   4.267   2.283   3.740
 7531SOL    HW223493   4.281   2.167   3.854
 7532SOL     OW23494   5.121   5.508   1.410
 7532SOL    HW123495   5.204   5.551   1.373
 7532SOL    HW223496   5.130   5.499   1.509
 7533SOL     OW23497   2.558   0.918   3.206
 7533SOL    HW123498   2.653   0.889   3.202
 7533SOL    HW223499   2.541   0.987   3.136
 7534SOL     OW23500   3.437   6.911   4.920
 7534SOL    HW123501   3.379   6.990   4.941
 7534SOL    HW223502   3.473   6.920   4.827
 7535SOL     OW23503   2.775   1.015   6.008
 7535SOL    HW123504   2.703   1.042   6.072
 7535SOL    HW223505   2.734   0.980   5.924
 7536SOL     OW23506   5.305   4.705   4.634
 7536SOL    HW123507   5.391   4.756   4.643
 7536SOL    HW223508   5.305   4.628   4.698
 7537SOL     OW23509   2.284   4.684   5.003
 7537SOL    HW123510   2.378   4.682   5.035
 7537SOL    HW223511   2.270   4.610   4.936
 7538SOL     OW23512   2.996   3.296   1.969
 7538SOL    HW123513   3.076   3.329   1.920
 7538SOL    HW223514   2.920   3.359   1.954
 7539SOL     OW23515   2.918   2.253   4.429
 7539SOL    HW123516   2.976   2.197   4.369
 7539SOL    HW223517   2.937   2.229   4.524
 7540SOL     OW23518   3.290   1.144   5.823
 7540SOL    HW123519   3.353   1.179   5.892
 7540SOL    HW223520   3.201   1.128   5.865
 7541SOL     OW23521   6.890   3.557   5.079
 7541SOL    HW123522   6.807   3.532   5.028
 7541SOL    HW223523   6.892   3.506   5.165
 7542SOL     OW23524   0.261   6.749   6.632
 7542SOL    HW123525   0.341   6.785   6.681
 7542SOL    HW223526   0.266   6.649   6.630
 7543SOL     OW23527   3.984   1.776   0.917
 7543SOL    HW123528   4.036   1.692   0.935
 7543SOL    HW223529   4.045   1.847   0.884
 7544SOL     OW23530   0.517   2.630   3.798
 7544SOL    HW123531   0.493   2.720   3.761
 7544SOL    HW223532   0.588   2.640   3.866
 7545SOL     OW23533   5.256   6.683   2.855
 7545SOL    HW123534   5.190   6.740   2.904
 7545SOL    HW223535   5.300   6.621   2.919
 7546SOL     OW23536   4.614   0.780   1.351
 7546SOL    HW123537   4.680   0.792   1.424
 7546SOL    HW223538   4.525   0.817   1.379
 7547SOL     OW23539   3.745   6.297   0.529
 7547SOL    HW123540   3.713   6.350   0.450
 7547SOL    HW223541   3.810   6.352   0.581
 7548SOL     OW23542   2.904   1.996   0.641
 7548SOL    HW123543   2.904   2.042   0.552
 7548SOL    HW223544   2.998   1.989   0.675
 7549SOL     OW23545   6.214   2.094   1.536
 7549SOL    HW123546   6.197   2.032   1.613
 7549SOL    HW223547   6.128   2.136   1.507
 7550SOL     OW23548   2.480   4.934   1.990
 7550SOL    HW123549   2.505   4.839   1.974
 7550SOL    HW223550   2.562   4.987   2.011
 7551SOL     OW23551   4.511   4.218   6.920
 7551SOL    HW123552   4.459   4.132   6.923
 7551SOL    HW223553   4.586   4.210   6.854
 7552SOL     OW23554   1.901   5.669   4.061
 7552SOL    HW123555   1.910   5.650   4.158
 7552SOL    HW223556   1.990   5.661   4.016
 7553SOL     OW23557   3.887   4.921   5.361
 7553SOL    HW123558   3.982   4.949   5.372
 7553SOL    HW223559   3.875   4.829   5.397
 7554SOL     OW23560   5.084   1.006   0.548
 7554SOL    HW123561   5.157   0.949   0.584
 7554SOL    HW223562   4.996   0.973   0.583
 7555SOL     OW23563   1.261   4.933   4.546
 7555SOL    HW123564   1.334   4.874   4.512
 7555SOL    HW223565   1.230   4.900   4.635
 7556SOL     OW23566   0.810   2.255   5.744
 7556SOL    HW123567   0.875   2.243   5.819
 7556SOL    HW223568   0.859   2.251   5.656
 7557SOL     OW23569   5.661   3.315   6.295
 7557SOL    HW123570   5.670   3.403   6.341
 7557SOL    HW223571   5.618   3.328   6.206
 7558SOL     OW23572   2.527   2.589   3.708
 7558SOL    HW123573   2.480   2.510   3.669
 7558SOL    HW223574   2.467   2.669   3.703
 7559SOL     OW23575   6.561   5.874   1.178
 7559SOL    HW123576   6.614   5.948   1.219
 7559SOL    HW223577   6.577   5.790   1.230
 7560SOL     OW23578   5.408   6.431   0.114
 7560SOL    HW123579   5.314   6.455   0.086
 7560SOL    HW223580   5.409   6.339   0.152
 7561SOL     OW23581   0.770   3.070   0.477
 7561SOL    HW123582   0.769   3.092   0.575
 7561SOL    HW223583   0.843   3.003   0.459
 7562SOL     OW23584   4.584   6.273   4.938
 7562SOL    HW123585   4.538   6.207   4.998
 7562SOL    HW223586   4.517   6.313   4.875
 7563SOL     OW23587   2.510   6.993   0.344
 7563SOL    HW123588   2.558   0.054   0.368
 7563SOL    HW223589   2.478   6.999   0.249
 7564SOL     OW23590   4.827   1.456   2.831
 7564SOL    HW123591   4.728   1.449   2.845
 7564SOL    HW223592   4.854   1.397   2.755
 7565SOL     OW23593   4.752   4.363   6.802
 7565SOL    HW123594   4.745   4.447   6.855
 7565SOL    HW223595   4.800   4.381   6.716
 7566SOL     OW23596   0.906   4.902   3.309
 7566SOL    HW123597   0.977   4.972   3.315
 7566SOL    HW223598   0.943   4.814   3.338
 7567SOL     OW23599   1.805   2.191   5.260
 7567SOL    HW123600   1.754   2.276   5.272
 7567SOL    HW223601   1.864   2.176   5.340
 7568SOL     OW23602   5.533   5.895   3.749
 7568SOL    HW123603   5.549   5.958   3.825
 7568SOL    HW223604   5.620   5.859   3.716
 7569SOL     OW23605   4.224   4.714   5.971
 7569SOL    HW123606   4.187   4.625   5.944
 7569SOL    HW223607   4.151   4.783   5.969
 7570SOL     OW23608   5.453   4.919   5.416
 7570SOL    HW123609   5.546   4.885   5.428
 7570SOL    HW223610   5.407   4.919   5.505
 7571SOL     OW23611   5.386   4.727   2.286
 7571SOL    HW123612   5.394   4.634   2.250
 7571SOL    HW223613   5.367   4.790   2.211
 7572SOL     OW23614   4.963   0.668   3.210
 7572SOL    HW123615   4.874   0.623   3.220
 7572SOL    HW223616   5.019   0.616   3.146
 7573SOL     OW23617   5.987   5.759   4.508
 7573SOL    HW123618   5.977   5.795   4.415
 7573SOL    HW223619   6.015   5.663   4.504
 7574SOL     OW23620   6.675   0.981   4.778
 7574SOL    HW123621   6.671   0.963   4.877
 7574SOL    HW223622   6.605   1.048   4.754
 7575SOL     OW23623   4.545   0.192   5.555
 7575SOL    HW123624   4.595   0.142   5.484
 7575SOL    HW223625   4.592   0.279   5.573
 7576SOL     OW23626   6.230   5.926   0.458
 7576SOL    HW123627   6.303   5.994   0.447
 7576SOL    HW223628   6.156   5.946   0.393
 7577SOL     OW23629   6.914   6.928   5.460
 7577SOL    HW123630   6.997   6.923   5.405
 7577SOL    HW223631   6.907   6.846   5.517
 7578SOL     OW23632   2.035   6.108   3.690
 7578SOL    HW123633   2.071   6.188   3.643
 7578SOL    HW223634   2.092   6.028   3.670
 7579SOL     OW23635   4.702   1.729   2.208
 7579SOL    HW123636   4.649   1.811   2.226
 7579SOL    HW223637   4.771   1.748   2.137
 7580SOL     OW23638   1.592   4.261   4.010
 7580SOL    HW123639   1.516   4.266   3.945
 7580SOL    HW223640   1.668   4.316   3.977
 7581SOL     OW23641   4.942   0.905   1.209
 7581SOL    HW123642   4.950   0.927   1.112
 7581SOL    HW223643   4.867   0.958   1.249
 7582SOL     OW23644   3.097   0.680   6.899
 7582SOL    HW123645   3.175   0.647   6.952
 7582SOL    HW223646   3.060   0.763   6.941
 7583SOL     OW23647   5.821   3.749   1.474
 7583SOL    HW123648   5.755   3.822   1.491
 7583SOL    HW223649   5.791   3.665   1.519
 7584SOL     OW23650   3.423   6.638   1.031
 7584SOL    HW123651   3.352   6.594   1.087
 7584SOL    HW223652   3.446   6.579   0.954
 7585SOL     OW23653   1.896   2.881   5.720
 7585SOL    HW123654   1.816   2.823   5.714
 7585SOL    HW223655   1.879   2.967   5.671
 7586SOL     OW23656   3.497   0.566   3.432
 7586SOL    HW123657   3.537   0.481   3.464
 7586SOL    HW223658   3.521   0.640   3.495
 7587SOL     OW23659   3.653   1.629   6.594
 7587SOL    HW123660   3.576   1.583   6.550
 7587SOL    HW223661   3.636   1.635   6.692
 7588SOL     OW23662   0.637   3.358   2.061
 7588SOL    HW123663   0.542   3.336   2.085
 7588SOL    HW223664   0.692   3.274   2.064
 7589SOL     OW23665   5.957   0.191   0.652
 7589SOL    HW123666   5.895   0.226   0.582
 7589SOL    HW223667   6.014   0.118   0.613
 7590SOL     OW23668   2.740   2.163   6.511
 7590SOL    HW123669   2.702   2.075   6.539
 7590SOL    HW223670   2.699   2.192   6.425
 7591SOL     OW23671   0.075   4.968   0.620
 7591SOL    HW123672   0.142   5.022   0.569
 7591SOL    HW223673   0.118   4.927   0.700
 7592SOL     OW23674   0.087   4.847   6.661
 7592SOL    HW123675   0.099   4.835   6.563
 7592SOL    HW223676   7.013   4.863   6.682
 7593SOL     OW23677   5.361   2.551   0.767
 7593SOL    HW123678   5.457   2.549   0.794
 7593SOL    HW223679   5.352   2.521   0.672
 7594SOL     OW23680   6.838   4.260   2.365
 7594SOL    HW123681   6.849   4.360   2.367
 7594SOL    HW223682   6.854   4.228   2.272
 7595SOL     OW23683   0.243   2.276   5.789
 7595SOL    HW123684   0.254   2.188   5.743
 7595SOL    HW223685   0.190   2.338   5.731
 7596SOL     OW23686   4.407   4.964   3.063
 7596SOL    HW123687   4.420   4.868   3.038
 7596SOL    HW223688   4.478   4.991   3.128
 7597SOL     OW23689   2.880   5.450   1.622
 7597SOL    HW123690   2.857   5.359   1.657
 7597SOL    HW223691   2.978   5.456   1.605
 7598SOL     OW23692   0.035   1.058   3.019
 7598SOL    HW123693   0.039   0.984   2.952
 7598SOL    HW223694   6.965   1.070   3.051
 7599SOL     OW23695   5.729   1.596   3.509
 7599SOL    HW123696   5.762   1.537   3.582
 7599SOL    HW223697   5.630   1.585   3.499
 7600SOL     OW23698   1.792   0.616   3.072
 7600SOL    HW123699   1.890   0.611   3.052
 7600SOL    HW223700   1.745   0.663   2.996
 7601SOL     OW23701   2.082   5.615   2.725
 7601SOL    HW123702   2.000   5.640   2.674
 7601SOL    HW223703   2.135   5.549   2.672
 7602SOL     OW23704   2.287   3.937   5.791
 7602SOL    HW123705   2.243   3.895   5.711
 7602SOL    HW223706   2.255   3.891   5.874
 7603SOL     OW23707   1.117   5.826   5.993
 7603SOL    HW123708   1.074   5.764   6.059
 7603SOL    HW223709   1.193   5.779   5.949
 7604SOL     OW23710   2.219   4.951   4.219
 7604SOL    HW123711   2.296   4.976   4.279
 7604SOL    HW223712   2.212   5.018   4.145
 7605SOL     OW23713   1.503   6.058   0.625
 7605SOL    HW123714   1.442   6.099   0.693
 7605SOL    HW223715   1.452   5.993   0.568
 7606SOL     OW23716   0.157   2.862   2.826
 7606SOL    HW123717   0.187   2.792   2.890
 7606SOL    HW223718   0.071   2.834   2.784
 7607SOL     OW23719   4.196   6.218   0.276
 7607SOL    HW123720   4.102   6.204   0.245
 7607SOL    HW223721   4.258   6.163   0.220
 7608SOL     OW23722   3.368   3.950   3.020
 7608SOL    HW123723   3.412   3.996   3.097
 7608SOL    HW223724   3.288   3.900   3.052
 7609SOL     OW23725   6.985   4.240   3.640
 7609SOL    HW123726   6.981   4.270   3.544
 7609SOL    HW223727   6.900   4.265   3.686
 7610SOL     OW23728   6.264   0.339   6.642
 7610SOL    HW123729   6.296   0.245   6.631
 7610SOL    HW223730   6.174   0.348   6.599
 7611SOL     OW23731   1.070   1.964   0.080
 7611SOL    HW123732   0.994   1.954   0.017
 7611SOL    HW223733   1.036   1.959   0.174
 7612SOL     OW23734   4.549   2.568   4.764
 7612SOL    HW123735   4.603   2.553   4.681
 7612SOL    HW223736   4.592   2.639   4.819
 7613SOL     OW23737   5.398   2.097   1.891
 7613SOL    HW123738   5.425   2.133   1.802
 7613SOL    HW223739   5.298   2.098   1.898
 7614SOL     OW23740   4.939   2.738   1.443
 7614SOL    HW123741   5.014   2.804   1.441
 7614SOL    HW223742   4.970   2.653   1.400
 7615SOL     OW23743   5.102   4.284   5.825
 7615SOL    HW123744   5.136   4.344   5.753
 7615SOL    HW223745   5.022   4.325   5.869
 7616SOL     OW23746   6.876   4.719   4.423
 7616SOL    HW123747   6.926   4.645   4.467
 7616SOL    HW223748   6.873   4.798   4.485
 7617SOL     OW23749   3.004   5.558   2.528
 7617SOL    HW123750   2.928   5.587   2.470
 7617SOL    HW223751   3.012   5.621   2.606
 7618SOL     OW23752   0.606   2.484   6.879
 7618SOL    HW123753   0.688   2.529   6.843
 7618SOL    HW223754   0.621   2.460   6.975
 7619SOL     OW23755   6.194   3.703   4.883
 7619SOL    HW123756   6.147   3.625   4.843
 7619SOL    HW223757   6.256   3.744   4.816
 7620SOL     OW23758   4.043   5.119   6.965
 7620SOL    HW123759   3.981   5.044   6.988
 7620SOL    HW223760   4.040   5.188   0.013
 7621SOL     OW23761   0.580   1.547   0.615
 7621SOL    HW123762   0.627   1.597   0.543
 7621SOL    HW223763   0.638   1.543   0.697
 7622SOL     OW23764   4.781   5.114   1.811
 7622SOL    HW123765   4.840   5.063   1.749
 7622SOL    HW223766   4.685   5.094   1.790
 7623SOL     OW23767   4.895   4.401   6.563
 7623SOL    HW123768   4.918   4.492   6.529
 7623SOL    HW223769   4.807   4.373   6.524
 7624SOL     OW23770   7.019   2.734   4.615
 7624SOL    HW123771   0.029   2.647   4.579
 7624SOL    HW223772   0.037   2.809   4.563
 7625SOL     OW23773   4.318   0.407   1.787
 7625SOL    HW123774   4.372   0.416   1.871
 7625SOL    HW223775   4.342   0.482   1.724
 7626SOL     OW23776   6.837   6.407   4.711
 7626SOL    HW123777   6.900   6.484   4.724
 7626SOL    HW223778   6.778   6.399   4.791
 7627SOL     OW23779   5.470   3.278   0.230
 7627SOL    HW123780   5.444   3.321   0.143
 7627SOL    HW223781   5.536   3.205   0.213
 7628SOL     OW23782   3.338   0.768   1.676
 7628SOL    HW123783   3.283   0.831   1.620
 7628SOL    HW223784   3.287   0.684   1.692
 7629SOL     OW23785   6.611   6.729   3.024
 7629SOL    HW123786   6.522   6.766   3.053
 7629SOL    HW223787   6.673   6.728   3.102
 7630SOL     OW23788   5.523   6.869   1.832
 7630SOL    HW123789   5.542   6.870   1.930
 7630SOL    HW223790   5.431   6.906   1.815
 7631SOL     OW23791   0.603   0.915   5.157
 7631SOL    HW123792   0.633   0.826   5.122
 7631SOL    HW223793   0.592   0.978   5.080
 7632SOL     OW23794   3.523   2.536   1.685
 7632SOL    HW123795   3.588   2.532   1.609
 7632SOL    HW223796   3.557   2.480   1.761
 7633SOL     OW23797   4.366   2.599   0.232
 7633SOL    HW123798   4.293   2.597   0.163
 7633SOL    HW223799   4.435   2.531   0.210
 7634SOL     OW23800   1.424   1.311   2.205
 7634SOL    HW123801   1.392   1.275   2.117
 7634SOL    HW223802   1.520   1.337   2.198
 7635SOL     OW23803   2.841   5.831   5.021
 7635SOL    HW123804   2.875   5.924   5.013
 7635SOL    HW223805   2.761   5.820   4.962
 7636SOL     OW23806   1.568   1.248   3.172
 7636SOL    HW123807   1.617   1.231   3.257
 7636SOL    HW223808   1.502   1.322   3.185
 7637SOL     OW23809   2.914   6.643   2.473
 7637SOL    HW123810   2.834   6.696   2.501
 7637SOL    HW223811   2.979   6.638   2.549
 7638SOL     OW23812   4.488   5.826   2.073
 7638SOL    HW123813   4.390   5.823   2.090
 7638SOL    HW223814   4.533   5.879   2.145
 7639SOL     OW23815   1.463   2.471   0.943
 7639SOL    HW123816   1.450   2.395   1.007
 7639SOL    HW223817   1.560   2.478   0.919
 7640SOL     OW23818   3.294   2.044   0.269
 7640SOL    HW123819   3.320   2.039   0.172
 7640SOL    HW223820   3.278   2.139   0.295
 7641SOL     OW23821   0.902   4.599   1.678
 7641SOL    HW123822   0.864   4.668   1.739
 7641SOL    HW223823   0.830   4.536   1.650
 7642SOL     OW23824   2.944   1.559   2.826
 7642SOL    HW123825   2.848   1.585   2.826
 7642SOL    HW223826   2.952   1.462   2.803
 7643SOL     OW23827   4.997   2.665   4.112
 7643SOL    HW123828   4.944   2.733   4.061
 7643SOL    HW223829   5.076   2.709   4.154
 7644SOL     OW23830   6.030   2.345   2.534
 7644SOL    HW123831   6.098   2.416   2.551
 7644SOL    HW223832   5.949   2.385   2.491
 7645SOL     OW23833   4.394   3.988   5.409
 7645SOL    HW123834   4.314   3.939   5.442
 7645SOL    HW223835   4.366   4.078   5.374
 7646SOL     OW23836   2.139   2.223   2.288
 7646SOL    HW123837   2.091   2.155   2.344
 7646SOL    HW223838   2.236   2.221   2.311
 7647SOL     OW23839   0.156   3.441   1.881
 7647SOL    HW123840   0.212   3.403   1.807
 7647SOL    HW223841   0.181   3.399   1.967
 7648SOL     OW23842   3.595   1.789   3.607
 7648SOL    HW123843   3.603   1.880   3.567
 7648SOL    HW223844   3.527   1.736   3.557
 7649SOL     OW23845   1.179   1.411   2.978
 7649SOL    HW123846   1.093   1.462   2.975
 7649SOL    HW223847   1.255   1.475   2.988
 7650SOL     OW23848   5.340   2.646   1.696
 7650SOL    HW123849   5.307   2.555   1.671
 7650SOL    HW223850   5.261   2.707   1.708
 7651SOL     OW23851   3.019   6.549   4.812
 7651SOL    HW123852   3.057   6.638   4.785
 7651SOL    HW223853   2.963   6.561   4.894
 7652SOL     OW23854   0.325   4.116   3.951
 7652SOL    HW123855   0.293   4.022   3.942
 7652SOL    HW223856   0.248   4.176   3.973
 7653SOL     OW23857   2.483   1.729   0.667
 7653SOL    HW123858   2.402   1.734   0.726
 7653SOL    HW223859   2.536   1.812   0.676
 7654SOL     OW23860   4.863   3.368   4.189
 7654SOL    HW123861   4.799   3.355   4.114
 7654SOL    HW223862   4.939   3.303   4.179
 7655SOL     OW23863   3.413   0.038   3.448
 7655SOL    HW123864   3.385   0.132   3.466
 7655SOL    HW223865   3.511   0.029   3.464
 7656SOL     OW23866   1.584   4.944   6.485
 7656SOL    HW123867   1.533   4.874   6.535
 7656SOL    HW223868   1.574   4.928   6.386
 7657SOL     OW23869   2.463   2.662   3.397
 7657SOL    HW123870   2.373   2.670   3.440
 7657SOL    HW223871   2.534   2.677   3.466
 7658SOL     OW23872   4.084   6.222   5.832
 7658SOL    HW123873   3.990   6.256   5.835
 7658SOL    HW223874   4.107   6.195   5.738
 7659SOL     OW23875   5.445   5.487   6.938
 7659SOL    HW123876   5.426   5.450   0.006
 7659SOL    HW223877   5.387   5.567   6.923
 7660SOL     OW23878   6.413   6.207   4.271
 7660SOL    HW123879   6.480   6.136   4.292
 7660SOL    HW223880   6.443   6.294   4.312
 7661SOL     OW23881   6.054   2.468   4.555
 7661SOL    HW123882   6.009   2.381   4.534
 7661SOL    HW223883   6.151   2.462   4.531
 7662SOL     OW23884   0.936   2.455   2.326
 7662SOL    HW123885   0.946   2.358   2.302
 7662SOL    HW223886   0.998   2.477   2.401
 7663SOL     OW23887   6.735   6.844   6.340
 7663SOL    HW123888   6.758   6.926   6.287
 7663SOL    HW223889   6.767   6.855   6.434
 7664SOL     OW23890   3.767   0.894   2.095
 7664SOL    HW123891   3.671   0.895   2.125
 7664SOL    HW223892   3.793   0.987   2.067
 7665SOL     OW23893   4.510   6.958   4.308
 7665SOL    HW123894   4.533   7.010   4.391
 7665SOL    HW223895   4.453   6.880   4.333
 7666SOL     OW23896   0.655   6.946   1.340
 7666SOL    HW123897   0.573   6.989   1.302
 7666SOL    HW223898   0.735   7.003   1.320
 7667SOL     OW23899   4.346   5.947   1.309
 7667SOL    HW123900   4.349   5.880   1.234
 7667SOL    HW223901   4.398   5.912   1.387
 7668SOL     OW23902   2.989   4.226   1.180
 7668SOL    HW123903   2.937   4.311   1.168
 7668SOL    HW223904   2.977   4.168   1.099
 7669SOL     OW23905   5.738   2.152   6.039
 7669SOL    HW123906   5.685   2.105   5.969
 7669SOL    HW223907   5.825   2.105   6.054
 7670SOL     OW23908   1.561   4.931   6.226
 7670SOL    HW123909   1.608   4.987   6.158
 7670SOL    HW223910   1.571   4.834   6.203
 7671SOL     OW23911   4.338   0.570   4.937
 7671SOL    HW123912   4.316   0.520   4.853
 7671SOL    HW223913   4.437   0.583   4.943
 7672SOL     OW23914   5.608   6.251   3.736
 7672SOL    HW123915   5.704   6.278   3.746
 7672SOL    HW223916   5.582   6.191   3.812
 7673SOL     OW23917   2.086   5.467   0.150
 7673SOL    HW123918   1.999   5.452   0.197
 7673SOL    HW223919   2.138   5.538   0.197
 7674SOL     OW23920   6.092   2.619   3.904
 7674SOL    HW123921   6.146   2.536   3.914
 7674SOL    HW223922   6.105   2.677   3.985
 7675SOL     OW23923   4.815   0.811   2.918
 7675SOL    HW123924   4.820   0.852   2.827
 7675SOL    HW223925   4.870   0.865   2.982
 7676SOL     OW23926   1.575   2.329   0.657
 7676SOL    HW123927   1.650   2.341   0.723
 7676SOL    HW223928   1.517   2.410   0.658
 7677SOL     OW23929   0.031   3.928   2.572
 7677SOL    HW123930   7.011   3.908   2.660
 7677SOL    HW223931   0.096   4.003   2.583
 7678SOL     OW23932   1.733   1.071   5.915
 7678SOL    HW123933   1.832   1.070   5.900
 7678SOL    HW223934   1.713   1.129   5.994
 7679SOL     OW23935   1.781   5.952   5.257
 7679SOL    HW123936   1.871   5.940   5.215
 7679SOL    HW223937   1.718   5.882   5.224
 7680SOL     OW23938   1.834   2.649   0.136
 7680SOL    HW123939   1.917   2.705   0.128
 7680SOL    HW223940   1.796   2.658   0.228
 7681SOL     OW23941   2.918   0.063   0.135
 7681SOL    HW123942   2.905   0.161   0.125
 7681SOL    HW223943   2.997   0.046   0.194
 7682SOL     OW23944   3.505   0.270   1.949
 7682SOL    HW123945   3.585   0.272   1.890
 7682SOL    HW223946   3.438   0.205   1.912
 7683SOL     OW23947   7.019   1.931   3.895
 7683SOL    HW123948   6.950   1.949   3.965
 7683SOL    HW223949   6.977   1.935   3.804
 7684SOL     OW23950   4.392   2.037   0.683
 7684SOL    HW123951   4.421   2.100   0.755
 7684SOL    HW223952   4.459   1.963   0.676
 7685SOL     OW23953   3.181   3.380   0.091
 7685SOL    HW123954   3.157   3.405   7.021
 7685SOL    HW223955   3.124   3.303   0.121
 7686SOL     OW23956   5.196   0.234   3.216
 7686SOL    HW123957   5.179   0.146   3.260
 7686SOL    HW223958   5.119   0.295   3.232
 7687SOL     OW23959   5.927   5.042   5.474
 7687SOL    HW123960   5.873   4.958   5.466
 7687SOL    HW223961   5.987   5.036   5.553
 7688SOL     OW23962   0.642   0.317   5.256
 7688SOL    HW123963   0.564   0.378   5.240
 7688SOL    HW223964   0.630   0.270   5.343
 7689SOL     OW23965   5.100   5.524   2.924
 7689SOL    HW123966   5.118   5.615   2.960
 7689SOL    HW223967   5.184   5.470   2.926
 7690SOL     OW23968   6.646   5.068   0.910
 7690SOL    HW123969   6.735   5.025   0.895
 7690SOL    HW223970   6.600   5.025   0.988
 7691SOL     OW23971   5.550   3.019   4.158
 7691SOL    HW123972   5.553   2.972   4.246
 7691SOL    HW223973   5.499   3.104   4.167
 7692SOL     OW23974   1.075   6.685   1.806
 7692SOL    HW123975   1.008   6.751   1.773
 7692SOL    HW223976   1.162   6.731   1.824
 7693SOL     OW23977   4.004   6.909   1.177
 7693SOL    HW123978   4.069   6.980   1.204
 7693SOL    HW223979   4.008   6.833   1.242
 7694SOL     OW23980   6.907   4.215   4.151
 7694SOL    HW123981   6.947   4.130   4.117
 7694SOL    HW223982   6.913   4.217   4.251
 7695SOL     OW23983   3.654   6.439   0.255
 7695SOL    HW123984   3.610   6.526   0.233
 7695SOL    HW223985   3.618   6.367   0.196
 7696SOL     OW23986   6.442   1.412   4.767
 7696SOL    HW123987   6.400   1.443   4.852
 7696SOL    HW223988   6.507   1.480   4.735
 7697SOL     OW23989   2.925   0.729   2.430
 7697SOL    HW123990   2.894   0.727   2.525
 7697SOL    HW223991   3.014   0.685   2.423
 7698SOL     OW23992   0.174   2.628   4.820
 7698SOL    HW123993   0.126   2.663   4.739
 7698SOL    HW223994   0.234   2.552   4.793
 7699SOL     OW23995   4.104   5.507   6.781
 7699SOL    HW123996   4.102   5.449   6.700
 7699SOL    HW223997   4.186   5.486   6.834
 7700SOL     OW23998   4.643   6.137   5.264
 7700SOL    HW123999   4.572   6.123   5.195
 7700SOL    HW224000   4.729   6.160   5.219
 7701SOL     OW24001   6.820   1.773   6.200
 7701SOL    HW124002   6.893   1.757   6.267
 7701SOL    HW224003   6.860   1.785   6.109
 7702SOL     OW24004   3.061   6.153   5.995
 7702SOL    HW124005   2.982   6.093   6.012
 7702SOL    HW224006   3.067   6.172   5.897
 7703SOL     OW24007   6.821   0.685   4.423
 7703SOL    HW124008   6.890   0.750   4.391
 7703SOL    HW224009   6.836   0.665   4.520
 7704SOL     OW24010   5.270   4.765   5.261
 7704SOL    HW124011   5.261   4.673   5.298
 7704SOL    HW224012   5.315   4.824   5.328
 7705SOL     OW24013   4.069   5.243   6.053
 7705SOL    HW124014   4.072   5.338   6.023
 7705SOL    HW224015   4.006   5.191   5.995
 7706SOL     OW24016   4.588   1.644   5.551
 7706SOL    HW124017   4.566   1.660   5.454
 7706SOL    HW224018   4.517   1.685   5.608
 7707SOL     OW24019   1.078   6.102   6.683
 7707SOL    HW124020   1.121   6.031   6.739
 7707SOL    HW224021   1.063   6.184   6.739
 7708SOL     OW24022   5.165   6.243   5.289
 7708SOL    HW124023   5.205   6.334   5.277
 7708SOL    HW224024   5.089   6.232   5.224
 7709SOL     OW24025   5.501   3.859   1.357
 7709SOL    HW124026   5.560   3.806   1.296
 7709SOL    HW224027   5.525   3.838   1.452
 7710SOL     OW24028   3.219   0.978   1.000
 7710SOL    HW124029   3.213   1.060   1.057
 7710SOL    HW224030   3.313   0.968   0.966
 7711SOL     OW24031   5.997   6.027   5.129
 7711SOL    HW124032   6.022   5.949   5.071
 7711SOL    HW224033   5.914   6.004   5.181
 7712SOL     OW24034   5.704   4.253   1.305
 7712SOL    HW124035   5.776   4.307   1.348
 7712SOL    HW224036   5.615   4.291   1.328
 7713SOL     OW24037   1.475   4.796   0.467
 7713SOL    HW124038   1.460   4.853   0.386
 7713SOL    HW224039   1.573   4.782   0.480
 7714SOL     OW24040   6.447   5.327   5.301
 7714SOL    HW124041   6.411   5.273   5.225
 7714SOL    HW224042   6.371   5.367   5.353
 7715SOL     OW24043   4.652   1.790   0.713
 7715SOL    HW124044   4.737   1.743   0.738
 7715SOL    HW224045   4.611   1.830   0.794
 7716SOL     OW24046   6.226   3.849   3.590
 7716SOL    HW124047   6.152   3.783   3.604
 7716SOL    HW224048   6.275   3.862   3.676
 7717SOL     OW24049   2.294   0.908   5.025
 7717SOL    HW124050   2.271   0.991   5.076
 7717SOL    HW224051   2.278   0.925   4.927
 7718SOL     OW24052   2.090   1.720   2.980
 7718SOL    HW124053   2.012   1.659   2.968
 7718SOL    HW224054   2.129   1.707   3.071
 7719SOL     OW24055   0.221   3.879   4.481
 7719SOL    HW124056   0.158   3.817   4.436
 7719SOL    HW224057   0.221   3.967   4.433
 7720SOL     OW24058   6.946   0.004   0.778
 7720SOL    HW124059   6.970   7.018   0.875
 7720SOL    HW224060   6.904   6.942   0.746
 7721SOL     OW24061   1.153   4.739   2.365
 7721SOL    HW124062   1.188   4.792   2.442
 7721SOL    HW224063   1.149   4.796   2.284
 7722SOL     OW24064   0.291   5.686   2.610
 7722SOL    HW124065   0.365   5.686   2.677
 7722SOL    HW224066   0.304   5.610   2.546
 7723SOL     OW24067   6.664   3.698   0.138
 7723SOL    HW124068   6.705   3.741   0.058
 7723SOL    HW224069   6.727   3.629   0.175
 7724SOL     OW24070   2.496   4.264   1.826
 7724SOL    HW124071   2.417   4.210   1.855
 7724SOL    HW224072   2.510   4.251   1.728
 7725SOL     OW24073   4.984   2.912   3.960
 7725SOL    HW124074   4.904   2.972   3.958
 7725SOL    HW224075   5.024   2.912   4.051
 7726SOL     OW24076   0.617   5.947   4.454
 7726SOL    HW124077   0.679   5.868   4.449
 7726SOL    HW224078   0.560   5.938   4.535
 7727SOL     OW24079   6.912   1.014   3.439
 7727SOL    HW124080   6.853   1.041   3.515
 7727SOL    HW224081   6.965   0.934   3.465
 7728SOL     OW24082   1.064   4.672   3.341
 7728SOL    HW124083   1.087   4.575   3.355
 7728SOL    HW224084   1.145   4.721   3.311
 7729SOL     OW24085   5.771   3.222   1.053
 7729SOL    HW124086   5.692   3.187   1.002
 7729SOL    HW224087   5.738   3.282   1.127
 7730SOL     OW24088   5.733   5.528   1.961
 7730SOL    HW124089   5.651   5.535   2.018
 7730SOL    HW224090   5.738   5.436   1.921
 7731SOL     OW24091   6.800   1.246   0.786
 7731SOL    HW124092   6.810   1.207   0.877
 7731SOL    HW224093   6.871   1.211   0.725
 7732SOL     OW24094   4.354   6.293   0.715
 7732SOL    HW124095   4.454   6.303   0.716
 7732SOL    HW224096   4.330   6.200   0.744
 7733SOL     OW24097   3.990   6.744   2.385
 7733SOL    HW124098   3.998   6.841   2.362
 7733SOL    HW224099   4.024   6.689   2.308
 7734SOL     OW24100   2.697   4.708   3.535
 7734SOL    HW124101   2.772   4.761   3.495
 7734SOL    HW224102   2.612   4.759   3.527
 7735SOL     OW24103   4.562   6.233   6.597
 7735SOL    HW124104   4.577   6.314   6.654
 7735SOL    HW224105   4.482   6.247   6.539
 7736SOL     OW24106   4.534   3.942   6.676
 7736SOL    HW124107   4.479   4.021   6.650
 7736SOL    HW224108   4.478   3.878   6.729
 7737SOL     OW24109   4.265   0.851   1.750
 7737SOL    HW124110   4.173   0.869   1.785
 7737SOL    HW224111   4.262   0.774   1.686
 7738SOL     OW24112   1.368   5.463   6.552
 7738SOL    HW124113   1.276   5.464   6.513
 7738SOL    HW224114   1.418   5.544   6.522
 7739SOL     OW24115   0.467   1.562   1.842
 7739SOL    HW124116   0.525   1.515   1.909
 7739SOL    HW224117   0.442   1.498   1.769
 7740SOL     OW24118   1.517   0.627   3.006
 7740SOL    HW124119   1.449   0.667   2.945
 7740SOL    HW224120   1.576   0.699   3.043
 7741SOL     OW24121   1.350   5.977   3.983
 7741SOL    HW124122   1.275   6.043   3.980
 7741SOL    HW224123   1.318   5.892   4.025
 7742SOL     OW24124   6.166   2.004   3.165
 7742SOL    HW124125   6.092   2.061   3.202
 7742SOL    HW224126   6.253   2.050   3.180
 7743SOL     OW24127   4.386   2.423   6.409
 7743SOL    HW124128   4.398   2.418   6.309
 7743SOL    HW224129   4.433   2.504   6.444
 7744SOL     OW24130   0.444   5.965   3.675
 7744SOL    HW124131   0.361   6.019   3.689
 7744SOL    HW224132   0.480   5.934   3.763
 7745SOL     OW24133   3.368   1.480   5.517
 7745SOL    HW124134   3.456   1.509   5.555
 7745SOL    HW224135   3.357   1.519   5.425
 7746SOL     OW24136   2.154   6.485   6.729
 7746SOL    HW124137   2.201   6.534   6.802
 7746SOL    HW224138   2.187   6.516   6.640
 7747SOL     OW24139   4.056   5.970   1.314
 7747SOL    HW124140   4.153   5.981   1.293
 7747SOL    HW224141   4.006   5.952   1.229
 7748SOL     OW24142   3.381   3.822   6.046
 7748SOL    HW124143   3.288   3.791   6.030
 7748SOL    HW224144   3.395   3.911   6.002
 7749SOL     OW24145   3.090   3.107   5.668
 7749SOL    HW124146   3.027   3.112   5.591
 7749SOL    HW224147   3.137   3.019   5.667
 7750SOL     OW24148   0.059   6.036   1.746
 7750SOL    HW124149   0.047   6.111   1.811
 7750SOL    HW224150   7.003   6.032   1.684
 7751SOL     OW24151   1.690   1.108   2.281
 7751SOL    HW124152   1.652   1.184   2.333
 7751SOL    HW224153   1.782   1.131   2.249
 7752SOL     OW24154   5.076   0.119   5.661
 7752SOL    HW124155   5.170   0.103   5.630
 7752SOL    HW224156   5.012   0.093   5.589
 7753SOL     OW24157   2.071   1.853   4.562
 7753SOL    HW124158   2.099   1.770   4.514
 7753SOL    HW224159   2.110   1.852   4.654
 7754SOL     OW24160   3.454   5.691   1.814
 7754SOL    HW124161   3.461   5.730   1.722
 7754SOL    HW224162   3.543   5.698   1.861
 7755SOL     OW24163   1.082   3.095   6.371
 7755SOL    HW124164   1.057   3.009   6.416
 7755SOL    HW224165   1.143   3.147   6.431
 7756SOL     OW24166   3.154   6.159   1.372
 7756SOL    HW124167   3.171   6.188   1.278
 7756SOL    HW224168   3.092   6.080   1.371
 7757SOL     OW24169   6.920   4.641   1.413
 7757SOL    HW124170   6.851   4.577   1.379
 7757SOL    HW224171   6.938   4.710   1.344
 7758SOL     OW24172   1.586   6.551   5.947
 7758SOL    HW124173   1.582   6.458   5.909
 7758SOL    HW224174   1.495   6.578   5.977
 7759SOL     OW24175   2.404   1.679   5.700
 7759SOL    HW124176   2.349   1.619   5.641
 7759SOL    HW224177   2.402   1.772   5.664
 7760SOL     OW24178   5.118   2.170   1.976
 7760SOL    HW124179   5.136   2.268   1.963
 7760SOL    HW224180   5.127   2.148   2.073
 7761SOL     OW24181   6.318   5.989   4.683
 7761SOL    HW124182   6.293   5.969   4.588
 7761SOL    HW224183   6.347   6.084   4.690
 7762SOL     OW24184   1.891   0.313   3.599
 7762SOL    HW124185   1.902   0.402   3.645
 7762SOL    HW224186   1.855   0.328   3.507
 7763SOL     OW24187   2.312   6.972   6.255
 7763SOL    HW124188   2.329   0.018   6.184
 7763SOL    HW224189   2.279   6.888   6.212
 7764SOL     OW24190   2.847   4.468   6.567
 7764SOL    HW124191   2.883   4.377   6.547
 7764SOL    HW224192   2.903   4.537   6.520
 7765SOL     OW24193   6.602   3.189   4.615
 7765SOL    HW124194   6.667   3.181   4.691
 7765SOL    HW224195   6.649   3.227   4.535
 7766SOL     OW24196   0.125   4.393   0.369
 7766SOL    HW124197   0.055   4.346   0.422
 7766SOL    HW224198   0.129   4.355   0.277
 7767SOL     OW24199   4.479   6.777   2.644
 7767SOL    HW124200   4.455   6.703   2.581
 7767SOL    HW224201   4.531   6.739   2.721
 7768SOL     OW24202   4.612   4.708   3.691
 7768SOL    HW124203   4.676   4.677   3.760
 7768SOL    HW224204   4.563   4.789   3.725
 7769SOL     OW24205   3.874   1.821   4.932
 7769SOL    HW124206   3.855   1.868   4.846
 7769SOL    HW224207   3.788   1.794   4.976
 7770SOL     OW24208   0.055   3.597   4.643
 7770SOL    HW124209   0.043   3.627   4.738
 7770SOL    HW224210   0.064   3.498   4.640
 7771SOL     OW24211   2.708   1.820   6.236
 7771SOL    HW124212   2.765   1.823   6.318
 7771SOL    HW224213   2.655   1.735   6.236
 7772SOL     OW24214   5.040   0.755   0.922
 7772SOL    HW124215   5.077   0.662   0.925
 7772SOL    HW224216   5.096   0.812   0.862
 7773SOL     OW24217   2.612   5.786   6.093
 7773SOL    HW124218   2.701   5.772   6.135
 7773SOL    HW224219   2.578   5.700   6.055
 7774SOL     OW24220   4.781   2.252   4.730
 7774SOL    HW124221   4.693   2.253   4.683
 7774SOL    HW224222   4.854   2.271   4.664
 7775SOL     OW24223   3.801   6.837   0.298
 7775SOL    HW124224   3.836   6.797   0.214
 7775SOL    HW224225   3.841   6.790   0.377
 7776SOL     OW24226   0.533   6.610   6.093
 7776SOL    HW124227   0.563   6.541   6.027
 7776SOL    HW224228   0.503   6.692   6.045
 7777SOL     OW24229   6.482   5.744   4.906
 7777SOL    HW124230   6.464   5.652   4.942
 7777SOL    HW224231   6.401   5.801   4.918
 7778SOL     OW24232   5.550   4.368   2.442
 7778SOL    HW124233   5.466   4.421   2.436
 7778SOL    HW224234   5.561   4.332   2.535
 7779SOL     OW24235   2.971   0.280   2.877
 7779SOL    HW124236   3.042   0.350   2.877
 7779SOL    HW224237   2.902   0.302   2.946
 7780SOL     OW24238   7.011   6.350   5.559
 7780SOL    HW124239   6.928   6.347   5.614
 7780SOL    HW224240   0.039   6.265   5.571
 7781SOL     OW24241   1.456   4.267   0.162
 7781SOL    HW124242   1.406   4.265   0.249
 7781SOL    HW224243   1.551   4.292   0.179
 7782SOL     OW24244   5.641   4.951   3.480
 7782SOL    HW124245   5.545   4.960   3.455
 7782SOL    HW224246   5.648   4.948   3.580
 7783SOL     OW24247   0.507   6.859   5.955
 7783SOL    HW124248   0.601   6.881   5.930
 7783SOL    HW224249   0.466   6.935   6.005
 7784SOL     OW24250   2.764   2.504   1.627
 7784SOL    HW124251   2.861   2.516   1.606
 7784SOL    HW224252   2.753   2.483   1.724
 7785SOL     OW24253   1.339   6.878   3.842
 7785SOL    HW124254   1.414   6.835   3.894
 7785SOL    HW224255   1.253   6.831   3.863
 7786SOL     OW24256   4.373   0.695   0.230
 7786SOL    HW124257   4.392   0.599   0.208
 7786SOL    HW224258   4.417   0.754   0.162
 7787SOL     OW24259   2.440   2.907   0.409
 7787SOL    HW124260   2.462   2.930   0.314
 7787SOL    HW224261   2.484   2.822   0.434
 7788SOL     OW24262   1.355   6.330   2.058
 7788SOL    HW124263   1.404   6.383   1.990
 7788SOL    HW224264   1.417   6.267   2.104
 7789SOL     OW24265   3.236   0.382   6.251
 7789SOL    HW124266   3.254   0.333   6.336
 7789SOL    HW224267   3.284   0.337   6.176
 7790SOL     OW24268   6.398   4.777   2.359
 7790SOL    HW124269   6.378   4.806   2.266
 7790SOL    HW224270   6.374   4.851   2.423
 7791SOL     OW24271   2.609   5.648   2.038
 7791SOL    HW124272   2.646   5.664   2.130
 7791SOL    HW224273   2.518   5.689   2.031
 7792SOL     OW24274   0.932   0.656   3.048
 7792SOL    HW124275   0.973   0.743   3.074
 7792SOL    HW224276   0.863   0.630   3.116
 7793SOL     OW24277   4.900   0.485   6.529
 7793SOL    HW124278   4.827   0.553   6.519
 7793SOL    HW224279   4.932   0.457   6.439
 7794SOL     OW24280   0.657   5.464   1.948
 7794SOL    HW124281   0.616   5.507   1.868
 7794SOL    HW224282   0.742   5.512   1.971
 7795SOL     OW24283   3.168   5.569   5.716
 7795SOL    HW124284   3.226   5.629   5.661
 7795SOL    HW224285   3.225   5.520   5.781
 7796SOL     OW24286   3.466   2.659   5.727
 7796SOL    HW124287   3.551   2.709   5.745
 7796SOL    HW224288   3.440   2.671   5.631
 7797SOL     OW24289   1.128   5.151   1.563
 7797SOL    HW124290   1.190   5.228   1.548
 7797SOL    HW224291   1.085   5.125   1.477
 7798SOL     OW24292   1.524   1.286   2.496
 7798SOL    HW124293   1.513   1.242   2.585
 7798SOL    HW224294   1.434   1.305   2.456
 7799SOL     OW24295   2.731   5.767   2.964
 7799SOL    HW124296   2.670   5.821   3.022
 7799SOL    HW224297   2.743   5.812   2.876
 7800SOL     OW24298   0.679   5.791   2.290
 7800SOL    HW124299   0.621   5.710   2.292
 7800SOL    HW224300   0.772   5.767   2.319
 7801SOL     OW24301   1.868   1.569   2.911
 7801SOL    HW124302   1.882   1.474   2.882
 7801SOL    HW224303   1.788   1.607   2.864
 7802SOL     OW24304   6.849   4.253   6.817
 7802SOL    HW124305   6.905   4.335   6.824
 7802SOL    HW224306   6.880   4.197   6.740
 7803SOL     OW24307   4.760   1.994   0.028
 7803SOL    HW124308   4.824   1.918   0.017
 7803SOL    HW224309   4.720   2.017   6.962
 7804SOL     OW24310   3.501   1.851   4.406
 7804SOL    HW124311   3.531   1.940   4.441
 7804SOL    HW224312   3.567   1.818   4.339
 7805SOL     OW24313   4.850   3.209   2.411
 7805SOL    HW124314   4.823   3.163   2.327
 7805SOL    HW224315   4.885   3.142   2.476
 7806SOL     OW24316   6.530   2.294   6.232
 7806SOL    HW124317   6.434   2.280   6.210
 7806SOL    HW224318   6.554   2.390   6.216
 7807SOL     OW24319   1.519   4.293   5.362
 7807SOL    HW124320   1.472   4.251   5.439
 7807SOL    HW224321   1.529   4.225   5.289
 7808SOL     OW24322   4.834   4.123   2.244
 7808SOL    HW124323   4.879   4.078   2.166
 7808SOL    HW224324   4.779   4.199   2.211
 7809SOL     OW24325   5.139   4.927   4.730
 7809SOL    HW124326   5.181   4.855   4.675
 7809SOL    HW224327   5.175   4.924   4.823
 7810SOL     OW24328   3.653   6.796   5.054
 7810SOL    HW124329   3.742   6.841   5.055
 7810SOL    HW224330   3.590   6.850   4.998
 7811SOL     OW24331   1.677   5.820   3.183
 7811SOL    HW124332   1.689   5.832   3.281
 7811SOL    HW224333   1.648   5.726   3.164
 7812SOL     OW24334   2.378   3.123   5.386
 7812SOL    HW124335   2.357   3.070   5.468
 7812SOL    HW224336   2.414   3.062   5.315
 7813SOL     OW24337   4.606   2.836   1.225
 7813SOL    HW124338   4.651   2.908   1.277
 7813SOL    HW224339   4.551   2.779   1.286
 7814SOL     OW24340   6.547   3.296   2.780
 7814SOL    HW124341   6.517   3.330   2.868
 7814SOL    HW224342   6.508   3.352   2.706
 7815SOL     OW24343   5.574   1.792   5.183
 7815SOL    HW124344   5.540   1.854   5.113
 7815SOL    HW224345   5.519   1.803   5.266
 7816SOL     OW24346   0.626   2.036   5.920
 7816SOL    HW124347   0.586   2.034   5.829
 7816SOL    HW224348   0.714   1.988   5.920
 7817SOL     OW24349   4.681   3.732   5.493
 7817SOL    HW124350   4.764   3.677   5.487
 7817SOL    HW224351   4.679   3.798   5.417
 7818SOL     OW24352   4.928   1.226   2.412
 7818SOL    HW124353   4.886   1.258   2.497
 7818SOL    HW224354   4.885   1.140   2.385
 7819SOL     OW24355   6.758   3.528   4.015
 7819SOL    HW124356   6.742   3.522   4.114
 7819SOL    HW224357   6.673   3.507   3.967
 7820SOL     OW24358   1.976   1.138   5.427
 7820SOL    HW124359   1.965   1.237   5.436
 7820SOL    HW224360   1.915   1.091   5.491
 7821SOL     OW24361   5.855   5.584   0.515
 7821SOL    HW124362   5.870   5.669   0.464
 7821SOL    HW224363   5.845   5.605   0.612
 7822SOL     OW24364   1.234   1.655   6.164
 7822SOL    HW124365   1.182   1.716   6.104
 7822SOL    HW224366   1.321   1.697   6.187
 7823SOL     OW24367   1.347   4.078   6.463
 7823SOL    HW124368   1.302   3.998   6.502
 7823SOL    HW224369   1.385   4.054   6.374
 7824SOL     OW24370   6.197   0.503   4.250
 7824SOL    HW124371   6.172   0.596   4.223
 7824SOL    HW224372   6.292   0.502   4.281
 7825SOL     OW24373   2.067   2.635   1.493
 7825SOL    HW124374   2.041   2.541   1.517
 7825SOL    HW224375   2.138   2.633   1.423
 7826SOL     OW24376   5.245   2.139   6.716
 7826SOL    HW124377   5.344   2.151   6.729
 7826SOL    HW224378   5.214   2.059   6.768
 7827SOL     OW24379   3.554   4.738   1.284
 7827SOL    HW124380   3.579   4.641   1.274
 7827SOL    HW224381   3.621   4.783   1.343
 7828SOL     OW24382   0.508   5.424   0.669
 7828SOL    HW124383   0.410   5.429   0.653
 7828SOL    HW224384   0.524   5.391   0.762
 7829SOL     OW24385   2.092   3.206   1.583
 7829SOL    HW124386   2.098   3.219   1.682
 7829SOL    HW224387   2.183   3.207   1.543
 7830SOL     OW24388   5.496   4.141   6.301
 7830SOL    HW124389   5.558   4.078   6.347
 7830SOL    HW224390   5.517   4.142   6.203
 7831SOL     OW24391   0.862   4.859   0.034
 7831SOL    HW124392   0.873   4.913   0.118
 7831SOL    HW224393   0.910   4.904   6.982
 7832SOL     OW24394   3.616   0.928   4.797
 7832SOL    HW124395   3.697   0.877   4.828
 7832SOL    HW224396   3.601   1.007   4.857
 7833SOL     OW24397   0.870   0.838   0.492
 7833SOL    HW124398   0.943   0.838   0.560
 7833SOL    HW224399   0.854   0.744   0.461
 7834SOL     OW24400   0.101   1.608   2.062
 7834SOL    HW124401   0.066   1.675   1.996
 7834SOL    HW224402   0.025   1.561   2.106
 7835SOL     OW24403   2.519   2.565   4.610
 7835SOL    HW124404   2.449   2.494   4.618
 7835SOL    HW224405   2.572   2.568   4.695
 7836SOL     OW24406   3.332   1.085   6.626
 7836SOL    HW124407   3.301   0.992   6.647
 7836SOL    HW224408   3.356   1.090   6.529
 7837SOL     OW24409   5.976   6.201   1.666
 7837SOL    HW124410   5.916   6.245   1.733
 7837SOL    HW224411   5.978   6.102   1.682
 7838SOL     OW24412   4.697   6.636   6.238
 7838SOL    HW124413   4.671   6.729   6.265
 7838SOL    HW224414   4.636   6.570   6.283
 7839SOL     OW24415   6.665   4.201   4.680
 7839SOL    HW124416   6.675   4.103   4.693
 7839SOL    HW224417   6.607   4.219   4.600
 7840SOL     OW24418   5.152   3.175   3.896
 7840SOL    HW124419   5.251   3.182   3.905
 7840SOL    HW224420   5.129   3.115   3.820
 7841SOL     OW24421   5.592   1.860   6.315
 7841SOL    HW124422   5.553   1.775   6.350
 7841SOL    HW224423   5.686   1.843   6.283
 7842SOL     OW24424   1.417   0.928   3.604
 7842SOL    HW124425   1.425   0.854   3.670
 7842SOL    HW224426   1.345   0.991   3.633
 7843SOL     OW24427   5.636   4.610   1.392
 7843SOL    HW124428   5.564   4.565   1.338
 7843SOL    HW224429   5.714   4.629   1.333
 7844SOL     OW24430   4.637   0.750   4.126
 7844SOL    HW124431   4.563   0.682   4.118
 7844SOL    HW224432   4.724   0.706   4.106
 7845SOL     OW24433   0.525   0.938   3.977
 7845SOL    HW124434   0.613   0.984   3.973
 7845SOL    HW224435   0.532   0.849   3.931
 7846SOL     OW24436   2.429   0.733   1.864
 7846SOL    HW124437   2.395   0.816   1.821
 7846SOL    HW224438   2.527   0.724   1.846
 7847SOL     OW24439   0.582   1.565   1.088
 7847SOL    HW124440   0.490   1.529   1.107
 7847SOL    HW224441   0.639   1.555   1.170
 7848SOL     OW24442   3.255   4.284   1.161
 7848SOL    HW124443   3.295   4.192   1.167
 7848SOL    HW224444   3.156   4.277   1.146
 7849SOL     OW24445   5.470   4.061   4.330
 7849SOL    HW124446   5.370   4.069   4.333
 7849SOL    HW224447   5.511   4.150   4.350
 7850SOL     OW24448   0.174   0.830   3.945
 7850SOL    HW124449   0.217   0.852   4.032
 7850SOL    HW224450   0.201   0.737   3.917
 7851SOL     OW24451   6.248   6.664   0.858
 7851SOL    HW124452   6.340   6.654   0.818
 7851SOL    HW224453   6.235   6.758   0.888
 7852SOL     OW24454   3.107   6.767   6.435
 7852SOL    HW124455   3.128   6.834   6.506
 7852SOL    HW224456   3.010   6.743   6.440
 7853SOL     OW24457   3.769   1.116   0.948
 7853SOL    HW124458   3.825   1.182   0.999
 7853SOL    HW224459   3.782   1.131   0.850
 7854SOL     OW24460   3.655   4.232   0.940
 7854SOL    HW124461   3.590   4.306   0.925
 7854SOL    HW224462   3.680   4.229   1.037
 7855SOL     OW24463   4.616   5.543   6.316
 7855SOL    HW124464   4.568   5.629   6.301
 7855SOL    HW224465   4.684   5.554   6.389
 7856SOL     OW24466   6.180   4.669   4.012
 7856SOL    HW124467   6.247   4.679   4.086
 7856SOL    HW224468   6.206   4.728   3.936
 7857SOL     OW24469   0.018   2.708   5.870
 7857SOL    HW124470   0.019   2.776   5.796
 7857SOL    HW224471   0.033   2.755   5.958
 7858SOL     OW24472   5.321   4.758   3.359
 7858SOL    HW124473   5.373   4.708   3.289
 7858SOL    HW224474   5.292   4.846   3.323
 7859SOL     OW24475   0.282   4.065   5.884
 7859SOL    HW124476   0.251   3.975   5.916
 7859SOL    HW224477   0.205   4.115   5.845
 7860SOL     OW24478   4.110   6.329   2.482
 7860SOL    HW124479   4.153   6.377   2.558
 7860SOL    HW224480   4.167   6.338   2.400
 7861SOL     OW24481   4.083   5.832   1.826
 7861SOL    HW124482   4.113   5.884   1.746
 7861SOL    HW224483   4.052   5.741   1.798
 7862SOL     OW24484   2.837   4.351   1.613
 7862SOL    HW124485   2.883   4.362   1.701
 7862SOL    HW224486   2.882   4.408   1.545
 7863SOL     OW24487   0.109   5.981   3.212
 7863SOL    HW124488   0.157   6.038   3.279
 7863SOL    HW224489   0.011   5.984   3.230
 7864SOL     OW24490   0.011   5.848   5.798
 7864SOL    HW124491   6.965   5.914   5.767
 7864SOL    HW224492   6.989   5.765   5.830
 7865SOL     OW24493   4.327   6.527   3.939
 7865SOL    HW124494   4.315   6.434   3.904
 7865SOL    HW224495   4.376   6.582   3.871
 7866SOL     OW24496   2.686   1.549   1.619
 7866SOL    HW124497   2.775   1.594   1.627
 7866SOL    HW224498   2.696   1.452   1.642
 7867SOL     OW24499   5.832   4.974   2.573
 7867SOL    HW124500   5.856   4.923   2.490
 7867SOL    HW224501   5.778   5.054   2.548
 7868SOL     OW24502   5.173   0.002   2.457
 7868SOL    HW124503   5.078   6.995   2.455
 7868SOL    HW224504   5.233   6.946   2.445
 7869SOL     OW24505   6.236   3.576   0.774
 7869SOL    HW124506   6.282   3.576   0.685
 7869SOL    HW224507   6.140   3.599   0.762
 7870SOL     OW24508   5.755   5.477   3.701
 7870SOL    HW124509   5.719   5.407   3.639
 7870SOL    HW224510   5.737   5.567   3.661
 7871SOL     OW24511   5.620   3.949   3.060
 7871SOL    HW124512   5.627   3.850   3.047
 7871SOL    HW224513   5.699   3.981   3.112
 7872SOL     OW24514   0.853   4.433   2.180
 7872SOL    HW124515   0.882   4.356   2.123
 7872SOL    HW224516   0.829   4.510   2.122
 7873SOL     OW24517   6.392   0.781   5.574
 7873SOL    HW124518   6.471   0.754   5.630
 7873SOL    HW224519   6.359   0.870   5.605
 7874SOL     OW24520   6.500   1.589   6.482
 7874SOL    HW124521   6.557   1.520   6.438
 7874SOL    HW224522   6.530   1.680   6.452
 7875SOL     OW24523   4.425   3.531   6.363
 7875SOL    HW124524   4.466   3.617   6.392
 7875SOL    HW224525   4.413   3.532   6.264
 7876SOL     OW24526   0.172   7.005   5.085
 7876SOL    HW124527   0.079   7.014   5.051
 7876SOL    HW224528   0.174   6.937   5.158
 7877SOL     OW24529   0.392   2.786   2.638
 7877SOL    HW124530   0.394   2.754   2.733
 7877SOL    HW224531   0.477   2.832   2.616
 7878SOL     OW24532   5.050   5.112   3.245
 7878SOL    HW124533   4.978   5.044   3.234
 7878SOL    HW224534   5.026   5.196   3.196
 7879SOL     OW24535   4.718   5.852   3.207
 7879SOL    HW124536   4.708   5.822   3.301
 7879SOL    HW224537   4.636   5.901   3.178
 7880SOL     OW24538   0.421   6.320   0.938
 7880SOL    HW124539   0.419   6.396   1.003
 7880SOL    HW224540   0.344   6.259   0.957
 7881SOL     OW24541   7.015   3.983   4.958
 7881SOL    HW124542   0.052   3.955   4.884
 7881SOL    HW224543   0.018   3.936   5.042
 7882SOL     OW24544   2.007   2.350   2.851
 7882SOL    HW124545   2.091   2.353   2.797
 7882SOL    HW224546   1.935   2.307   2.798
 7883SOL     OW24547   1.935   0.939   1.323
 7883SOL    HW124548   1.852   0.994   1.310
 7883SOL    HW224549   1.946   0.878   1.244
 7884SOL     OW24550   1.290   3.788   3.103
 7884SOL    HW124551   1.258   3.867   3.050
 7884SOL    HW224552   1.332   3.721   3.042
 7885SOL     OW24553   5.759   5.488   2.926
 7885SOL    HW124554   5.805   5.560   2.875
 7885SOL    HW224555   5.696   5.528   2.992
 7886SOL     OW24556   5.866   3.874   1.249
 7886SOL    HW124557   5.846   3.803   1.317
 7886SOL    HW224558   5.825   3.960   1.277
 7887SOL     OW24559   3.332   3.015   5.147
 7887SOL    HW124560   3.361   2.972   5.232
 7887SOL    HW224561   3.250   3.070   5.163
 7888SOL     OW24562   0.347   0.493   4.751
 7888SOL    HW124563   0.307   0.409   4.715
 7888SOL    HW224564   0.447   0.486   4.751
 7889SOL     OW24565   0.475   5.432   6.574
 7889SOL    HW124566   0.442   5.501   6.637
 7889SOL    HW224567   0.574   5.423   6.583
 7890SOL     OW24568   1.431   2.771   4.139
 7890SOL    HW124569   1.446   2.862   4.178
 7890SOL    HW224570   1.454   2.701   4.207
 7891SOL     OW24571   0.985   3.271   4.470
 7891SOL    HW124572   0.993   3.172   4.479
 7891SOL    HW224573   0.971   3.295   4.374
 7892SOL     OW24574   0.989   2.130   4.158
 7892SOL    HW124575   0.898   2.103   4.189
 7892SOL    HW224576   1.053   2.128   4.236
 7893SOL     OW24577   6.055   6.577   2.113
 7893SOL    HW124578   6.093   6.564   2.022
 7893SOL    HW224579   6.079   6.499   2.171
 7894SOL     OW24580   2.951   1.173   0.784
 7894SOL    HW124581   2.929   1.094   0.728
 7894SOL    HW224582   2.931   1.153   0.880
 7895SOL     OW24583   3.367   6.383   4.407
 7895SOL    HW124584   3.395   6.288   4.399
 7895SOL    HW224585   3.422   6.440   4.345
 7896SOL     OW24586   5.103   2.812   1.691
 7896SOL    HW124587   5.078   2.721   1.725
 7896SOL    HW224588   5.047   2.881   1.736
 7897SOL     OW24589   3.133   3.601   6.639
 7897SOL    HW124590   3.153   3.598   6.541
 7897SOL    HW224591   3.195   3.665   6.684
 7898SOL     OW24592   4.697   0.306   3.895
 7898SOL    HW124593   4.702   0.348   3.804
 7898SOL    HW224594   4.768   0.236   3.904
 7899SOL     OW24595   5.132   6.580   2.331
 7899SOL    HW124596   5.228   6.604   2.348
 7899SOL    HW224597   5.073   6.640   2.385
 7900SOL     OW24598   1.026   3.633   0.432
 7900SOL    HW124599   0.978   3.549   0.412
 7900SOL    HW224600   0.961   3.709   0.435
 7901SOL     OW24601   5.098   1.493   6.015
 7901SOL    HW124602   5.092   1.394   6.007
 7901SOL    HW224603   5.012   1.530   6.050
 7902SOL     OW24604   6.932   6.174   3.382
 7902SOL    HW124605   6.949   6.086   3.426
 7902SOL    HW224606   6.972   6.247   3.439
 7903SOL     OW24607   4.031   1.973   3.121
 7903SOL    HW124608   4.006   1.906   3.191
 7903SOL    HW224609   3.976   2.056   3.133
 7904SOL     OW24610   6.132   0.081   3.404
 7904SOL    HW124611   6.175   0.140   3.472
 7904SOL    HW224612   6.077   0.012   3.450
 7905SOL     OW24613   5.519   1.133   0.346
 7905SOL    HW124614   5.582   1.060   0.318
 7905SOL    HW224615   5.479   1.111   0.434
 7906SOL     OW24616   0.966   5.652   0.507
 7906SOL    HW124617   0.928   5.624   0.595
 7906SOL    HW224618   0.926   5.739   0.478
 7907SOL     OW24619   6.279   1.006   2.608
 7907SOL    HW124620   6.369   1.050   2.602
 7907SOL    HW224621   6.247   0.983   2.516
 7908SOL     OW24622   1.378   1.974   6.465
 7908SOL    HW124623   1.413   1.886   6.434
 7908SOL    HW224624   1.287   1.962   6.506
 7909SOL     OW24625   4.902   4.375   3.532
 7909SOL    HW124626   4.806   4.348   3.520
 7909SOL    HW224627   4.910   4.474   3.520
 7910SOL     OW24628   1.413   3.081   1.468
 7910SOL    HW124629   1.470   3.107   1.545
 7910SOL    HW224630   1.444   3.130   1.386
 7911SOL     OW24631   0.903   3.963   1.204
 7911SOL    HW124632   0.909   4.047   1.150
 7911SOL    HW224633   0.993   3.919   1.207
 7912SOL     OW24634   5.154   4.609   0.817
 7912SOL    HW124635   5.058   4.587   0.835
 7912SOL    HW224636   5.207   4.595   0.901
 7913SOL     OW24637   1.596   4.493   1.083
 7913SOL    HW124638   1.515   4.552   1.078
 7913SOL    HW224639   1.615   4.471   1.179
 7914SOL     OW24640   0.116   4.289   0.099
 7914SOL    HW124641   0.065   4.337   0.028
 7914SOL    HW224642   0.149   4.202   0.063
 7915SOL     OW24643   4.736   1.692   2.555
 7915SOL    HW124644   4.662   1.670   2.618
 7915SOL    HW224645   4.699   1.712   2.464
 7916SOL     OW24646   1.034   0.386   4.800
 7916SOL    HW124647   1.020   0.475   4.757
 7916SOL    HW224648   0.962   0.370   4.868
 7917SOL     OW24649   3.861   2.766   5.575
 7917SOL    HW124650   3.950   2.811   5.579
 7917SOL    HW224651   3.843   2.735   5.482
 7918SOL     OW24652   0.760   1.593   5.331
 7918SOL    HW124653   0.808   1.506   5.318
 7918SOL    HW224654   0.696   1.608   5.255
 7919SOL     OW24655   1.212   5.090   2.234
 7919SOL    HW124656   1.123   5.107   2.193
 7919SOL    HW224657   1.260   5.018   2.184
 7920SOL     OW24658   5.179   1.152   1.933
 7920SOL    HW124659   5.199   1.069   1.880
 7920SOL    HW224660   5.180   1.231   1.871
 7921SOL     OW24661   5.874   0.686   1.389
 7921SOL    HW124662   5.962   0.708   1.348
 7921SOL    HW224663   5.878   0.596   1.431
 7922SOL     OW24664   0.264   5.980   0.046
 7922SOL    HW124665   0.311   5.987   0.134
 7922SOL    HW224666   0.196   6.053   0.039
 7923SOL     OW24667   3.360   1.848   6.740
 7923SOL    HW124668   3.426   1.837   6.814
 7923SOL    HW224669   3.400   1.815   6.655
 7924SOL     OW24670   4.805   0.324   1.416
 7924SOL    HW124671   4.881   0.265   1.443
 7924SOL    HW224672   4.815   0.349   1.319
 7925SOL     OW24673   1.502   6.604   0.861
 7925SOL    HW124674   1.444   6.531   0.825
 7925SOL    HW224675   1.595   6.569   0.876
 7926SOL     OW24676   5.389   1.514   6.765
 7926SOL    HW124677   5.374   1.429   6.713
 7926SOL    HW224678   5.479   1.511   6.808
 7927SOL     OW24679   5.232   7.000   1.550
 7927SOL    HW124680   5.151   7.006   1.609
 7927SOL    HW224681   5.206   6.966   1.460
 7928SOL     OW24682   0.171   1.194   3.655
 7928SOL    HW124683   0.179   1.288   3.621
 7928SOL    HW224684   0.092   1.188   3.717
 7929SOL     OW24685   4.241   3.723   6.175
 7929SOL    HW124686   4.290   3.752   6.257
 7929SOL    HW224687   4.197   3.802   6.133
 7930SOL     OW24688   3.811   5.288   6.488
 7930SOL    HW124689   3.811   5.196   6.448
 7930SOL    HW224690   3.734   5.296   6.551
 7931SOL     OW24691   4.229   2.659   0.689
 7931SOL    HW124692   4.171   2.694   0.615
 7931SOL    HW224693   4.307   2.611   0.649
 7932SOL     OW24694   0.665   5.034   1.429
 7932SOL    HW124695   0.601   5.105   1.399
 7932SOL    HW224696   0.718   5.067   1.507
 7933SOL     OW24697   0.102   0.765   5.793
 7933SOL    HW124698   0.084   0.806   5.882
 7933SOL    HW224699   0.156   0.681   5.805
 7934SOL     OW24700   1.435   4.966   0.270
 7934SOL    HW124701   1.493   5.019   0.208
 7934SOL    HW224702   1.339   4.979   0.245
 7935SOL     OW24703   5.150   5.407   2.495
 7935SOL    HW124704   5.246   5.411   2.465
 7935SOL    HW224705   5.091   5.393   2.416
 7936SOL     OW24706   3.174   5.517   3.410
 7936SOL    HW124707   3.164   5.597   3.469
 7936SOL    HW224708   3.269   5.509   3.381
 7937SOL     OW24709   2.363   5.707   3.837
 7937SOL    HW124710   2.409   5.770   3.899
 7937SOL    HW224711   2.292   5.658   3.886
 7938SOL     OW24712   5.362   6.360   5.587
 7938SOL    HW124713   5.339   6.441   5.640
 7938SOL    HW224714   5.347   6.378   5.490
 7939SOL     OW24715   0.511   1.832   5.613
 7939SOL    HW124716   0.432   1.894   5.618
 7939SOL    HW224717   0.572   1.862   5.539
 7940SOL     OW24718   3.591   1.834   2.652
 7940SOL    HW124719   3.683   1.819   2.616
 7940SOL    HW224720   3.536   1.752   2.640
 7941SOL     OW24721   4.966   6.794   3.231
 7941SOL    HW124722   5.066   6.783   3.238
 7941SOL    HW224723   4.924   6.705   3.216
 7942SOL     OW24724   0.912   2.848   3.161
 7942SOL    HW124725   0.824   2.801   3.167
 7942SOL    HW224726   0.911   2.928   3.222
 7943SOL     OW24727   0.869   4.192   5.157
 7943SOL    HW124728   0.816   4.272   5.129
 7943SOL    HW224729   0.963   4.202   5.126
 7944SOL     OW24730   0.345   2.420   1.545
 7944SOL    HW124731   0.306   2.454   1.630
 7944SOL    HW224732   0.438   2.387   1.561
 7945SOL     OW24733   5.998   5.424   2.618
 7945SOL    HW124734   6.083   5.432   2.566
 7945SOL    HW224735   6.020   5.416   2.716
 7946SOL     OW24736   3.712   6.697   6.025
 7946SOL    HW124737   3.622   6.692   6.068
 7946SOL    HW224738   3.750   6.788   6.037
 7947SOL     OW24739   2.043   2.039   5.101
 7947SOL    HW124740   1.963   2.061   5.045
 7947SOL    HW224741   2.017   1.974   5.172
 7948SOL     OW24742   1.139   4.889   1.212
 7948SOL    HW124743   1.076   4.919   1.283
 7948SOL    HW224744   1.128   4.791   1.195
 7949SOL     OW24745   4.468   3.931   5.969
 7949SOL    HW124746   4.477   3.886   5.880
 7949SOL    HW224747   4.531   3.889   6.034
 7950SOL     OW24748   4.913   6.165   5.135
 7950SOL    HW124749   4.963   6.079   5.145
 7950SOL    HW224750   4.940   6.210   5.050
 7951SOL     OW24751   2.232   5.095   2.431
 7951SOL    HW124752   2.199   5.150   2.355
 7951SOL    HW224753   2.234   5.150   2.515
 7952SOL     OW24754   6.520   3.368   0.036
 7952SOL    HW124755   6.528   3.365   6.959
 7952SOL    HW224756   6.565   3.289   0.075
 7953SOL     OW24757   4.517   1.883   1.743
 7953SOL    HW124758   4.418   1.894   1.743
 7953SOL    HW224759   4.557   1.940   1.815
 7954SOL     OW24760   3.899   3.930   6.603
 7954SOL    HW124761   3.805   3.920   6.569
 7954SOL    HW224762   3.908   3.882   6.690
 7955SOL     OW24763   2.569   1.570   6.608
 7955SOL    HW124764   2.475   1.552   6.637
 7955SOL    HW224765   2.607   1.645   6.663
 7956SOL     OW24766   6.080   1.187   1.725
 7956SOL    HW124767   6.108   1.213   1.632
 7956SOL    HW224768   6.035   1.264   1.769
 7957SOL     OW24769   2.320   1.070   6.497
 7957SOL    HW124770   2.230   1.040   6.529
 7957SOL    HW224771   2.360   0.999   6.440
 7958SOL     OW24772   5.574   4.118   5.987
 7958SOL    HW124773   5.631   4.109   5.906
 7958SOL    HW224774   5.478   4.105   5.962
 7959SOL     OW24775   5.360   0.520   6.749
 7959SOL    HW124776   5.305   0.464   6.811
 7959SOL    HW224777   5.306   0.543   6.668
 7960SOL     OW24778   1.030   1.436   6.137
 7960SOL    HW124779   1.055   1.339   6.142
 7960SOL    HW224780   1.086   1.481   6.067
 7961SOL     OW24781   6.160   0.154   0.871
 7961SOL    HW124782   6.086   0.154   0.803
 7961SOL    HW224783   6.202   0.244   0.875
 7962SOL     OW24784   0.100   1.773   5.551
 7962SOL    HW124785   0.198   1.774   5.570
 7962SOL    HW224786   0.085   1.740   5.458
 7963SOL     OW24787   6.441   5.367   3.878
 7963SOL    HW124788   6.462   5.440   3.943
 7963SOL    HW224789   6.499   5.375   3.798
 7964SOL     OW24790   5.978   2.864   2.314
 7964SOL    HW124791   5.966   2.923   2.394
 7964SOL    HW224792   6.075   2.851   2.296
 7965SOL     OW24793   3.984   2.352   6.353
 7965SOL    HW124794   4.067   2.398   6.386
 7965SOL    HW224795   3.935   2.312   6.431
 7966SOL     OW24796   3.516   3.159   5.767
 7966SOL    HW124797   3.530   3.104   5.685
 7966SOL    HW224798   3.420   3.153   5.796
 7967SOL     OW24799   2.067   5.017   1.885
 7967SOL    HW124800   2.051   4.924   1.852
 7967SOL    HW224801   2.091   5.014   1.982
 7968SOL     OW24802   6.178   2.164   5.387
 7968SOL    HW124803   6.091   2.128   5.353
 7968SOL    HW224804   6.253   2.108   5.353
 7969SOL     OW24805   5.243   6.021   0.479
 7969SOL    HW124806   5.322   6.007   0.539
 7969SOL    HW224807   5.188   6.098   0.514
 7970SOL     OW24808   5.490   3.402   2.642
 7970SOL    HW124809   5.536   3.449   2.717
 7970SOL    HW224810   5.554   3.338   2.598
 7971SOL     OW24811   3.166   0.562   1.719
 7971SOL    HW124812   3.106   0.566   1.639
 7971SOL    HW224813   3.125   0.614   1.794
 7972SOL     OW24814   3.437   3.596   1.771
 7972SOL    HW124815   3.454   3.670   1.706
 7972SOL    HW224816   3.389   3.633   1.851
 7973SOL     OW24817   5.706   4.311   4.860
 7973SOL    HW124818   5.716   4.246   4.785
 7973SOL    HW224819   5.659   4.266   4.937
 7974SOL     OW24820   6.327   0.930   5.811
 7974SOL    HW124821   6.265   0.926   5.732
 7974SOL    HW224822   6.349   1.025   5.831
 7975SOL     OW24823   4.858   0.536   0.760
 7975SOL    HW124824   4.786   0.475   0.791
 7975SOL    HW224825   4.841   0.629   0.794
 7976SOL     OW24826   0.924   7.020   5.745
 7976SOL    HW124827   0.999   6.972   5.698
 7976SOL    HW224828   0.887   0.067   5.684
 7977SOL     OW24829   4.564   6.147   2.166
 7977SOL    HW124830   4.477   6.177   2.128
 7977SOL    HW224831   4.632   6.140   2.093
 7978SOL     OW24832   0.293   2.803   6.389
 7978SOL    HW124833   0.347   2.854   6.456
 7978SOL    HW224834   0.310   2.705   6.400
 7979SOL     OW24835   1.782   4.223   5.663
 7979SOL    HW124836   1.727   4.236   5.746
 7979SOL    HW224837   1.869   4.270   5.674
 7980SOL     OW24838   3.032   5.553   6.772
 7980SOL    HW124839   2.948   5.581   6.725
 7980SOL    HW224840   3.028   5.582   6.868
 7981SOL     OW24841   0.607   5.206   1.840
 7981SOL    HW124842   0.640   5.275   1.904
 7981SOL    HW224843   0.610   5.116   1.883
 7982SOL     OW24844   1.398   1.654   5.902
 7982SOL    HW124845   1.441   1.566   5.881
 7982SOL    HW224846   1.439   1.725   5.844
 7983SOL     OW24847   6.391   1.761   1.385
 7983SOL    HW124848   6.344   1.710   1.457
 7983SOL    HW224849   6.330   1.832   1.350
 7984SOL     OW24850   0.234   1.402   0.525
 7984SOL    HW124851   0.155   1.439   0.478
 7984SOL    HW224852   0.315   1.411   0.468
 7985SOL     OW24853   2.655   2.149   4.735
 7985SOL    HW124854   2.619   2.099   4.814
 7985SOL    HW224855   2.729   2.209   4.765
 7986SOL     OW24856   3.427   0.864   5.705
 7986SOL    HW124857   3.381   0.909   5.781
 7986SOL    HW224858   3.364   0.800   5.661
 7987SOL     OW24859   2.114   3.370   0.920
 7987SOL    HW124860   2.074   3.325   1.000
 7987SOL    HW224861   2.071   3.460   0.908
 7988SOL     OW24862   1.278   1.087   2.405
 7988SOL    HW124863   1.364   1.069   2.356
 7988SOL    HW224864   1.265   1.186   2.415
 7989SOL     OW24865   2.509   3.953   0.351
 7989SOL    HW124866   2.416   3.937   0.384
 7989SOL    HW224867   2.560   4.007   0.418
 7990SOL     OW24868   2.652   5.176   4.534
 7990SOL    HW124869   2.606   5.187   4.622
 7990SOL    HW224870   2.730   5.114   4.544
 7991SOL     OW24871   5.905   1.343   4.210
 7991SOL    HW124872   5.868   1.419   4.263
 7991SOL    HW224873   5.848   1.327   4.129
 7992SOL     OW24874   1.596   0.168   0.244
 7992SOL    HW124875   1.651   0.228   0.302
 7992SOL    HW224876   1.655   0.098   0.204
 7993SOL     OW24877   0.179   6.976   1.594
 7993SOL    HW124878   0.251   0.023   1.588
 7993SOL    HW224879   0.092   7.016   1.564
 7994SOL     OW24880   5.251   0.797   3.233
 7994SOL    HW124881   5.316   0.824   3.304
 7994SOL    HW224882   5.162   0.778   3.275
 7995SOL     OW24883   5.725   5.303   3.250
 7995SOL    HW124884   5.770   5.221   3.217
 7995SOL    HW224885   5.709   5.366   3.173
 7996SOL     OW24886   3.867   6.098   4.513
 7996SOL    HW124887   3.874   6.065   4.419
 7996SOL    HW224888   3.946   6.155   4.535
 7997SOL     OW24889   0.157   2.160   0.322
 7997SOL    HW124890   0.129   2.216   0.244
 7997SOL    HW224891   0.077   2.117   0.363
 7998SOL     OW24892   3.156   6.922   6.650
 7998SOL    HW124893   3.256   6.916   6.649
 7998SOL    HW224894   3.125   6.942   6.744
 7999SOL     OW24895   1.086   1.238   5.663
 7999SOL    HW124896   1.003   1.290   5.643
 7999SOL    HW224897   1.123   1.200   5.578
 8000SOL     OW24898   5.647   6.972   6.127
 8000SOL    HW124899   5.657   6.880   6.089
 8000SOL    HW224900   5.550   6.990   6.146
 8001SOL     OW24901   4.321   6.218   1.300
 8001SOL    HW124902   4.347   6.122   1.298
 8001SOL    HW224903   4.237   6.229   1.353
 8002SOL     OW24904   0.976   0.966   5.284
 8002SOL    HW124905   0.990   0.908   5.363
 8002SOL    HW224906   0.957   0.910   5.204
 8003SOL     OW24907   1.989   5.625   1.409
 8003SOL    HW124908   2.035   5.712   1.428
 8003SOL    HW224909   1.992   5.567   1.491
 8004SOL     OW24910   2.093   3.404   3.561
 8004SOL    HW124911   1.998   3.408   3.591
 8004SOL    HW224912   2.116   3.310   3.537
 8005SOL     OW24913   2.465   0.586   3.607
 8005SOL    HW124914   2.522   0.627   3.536
 8005SOL    HW224915   2.405   0.517   3.566
 8006SOL     OW24916   2.310   5.694   5.467
 8006SOL    HW124917   2.368   5.617   5.439
 8006SOL    HW224918   2.288   5.685   5.565
 8007SOL     OW24919   5.853   2.103   6.425
 8007SOL    HW124920   5.775   2.104   6.363
 8007SOL    HW224921   5.866   2.194   6.465
 8008SOL     OW24922   3.304   5.508   6.545
 8008SOL    HW124923   3.354   5.477   6.626
 8008SOL    HW224924   3.294   5.607   6.548
 8009SOL     OW24925   4.471   1.222   0.197
 8009SOL    HW124926   4.555   1.220   0.142
 8009SOL    HW224927   4.408   1.290   0.161
 8010SOL     OW24928   2.869   2.247   4.853
 8010SOL    HW124929   2.882   2.149   4.838
 8010SOL    HW224930   2.935   2.280   4.920
 8011SOL     OW24931   3.460   2.228   1.381
 8011SOL    HW124932   3.406   2.305   1.415
 8011SOL    HW224933   3.556   2.240   1.406
 8012SOL     OW24934   1.240   2.787   6.343
 8012SOL    HW124935   1.322   2.844   6.345
 8012SOL    HW224936   1.222   2.751   6.435
 8013SOL     OW24937   1.771   3.677   3.575
 8013SOL    HW124938   1.744   3.767   3.608
 8013SOL    HW224939   1.754   3.671   3.477
 8014SOL     OW24940   2.020   0.303   4.551
 8014SOL    HW124941   2.023   0.399   4.578
 8014SOL    HW224942   1.932   0.263   4.578
 8015SOL     OW24943   1.971   0.287   5.863
 8015SOL    HW124944   1.875   0.294   5.836
 8015SOL    HW224945   2.029   0.301   5.783
 8016SOL     OW24946   4.479   1.308   5.018
 8016SOL    HW124947   4.546   1.300   5.092
 8016SOL    HW224948   4.500   1.389   4.964
 8017SOL     OW24949   6.406   0.123   6.731
 8017SOL    HW124950   6.347   0.048   6.761
 8017SOL    HW224951   6.400   0.198   6.796
 8018SOL     OW24952   3.384   2.538   0.134
 8018SOL    HW124953   3.389   2.540   0.034
 8018SOL    HW224954   3.428   2.620   0.171
 8019SOL     OW24955   1.859   4.105   1.624
 8019SOL    HW124956   1.785   4.041   1.603
 8019SOL    HW224957   1.874   4.106   1.723
 8020SOL     OW24958   6.601   0.586   6.497
 8020SOL    HW124959   6.513   0.571   6.452
 8020SOL    HW224960   6.633   0.679   6.477
 8021SOL     OW24961   1.846   3.057   1.672
 8021SOL    HW124962   1.800   3.143   1.648
 8021SOL    HW224963   1.920   3.039   1.608
 8022SOL     OW24964   6.212   0.509   1.806
 8022SOL    HW124965   6.200   0.569   1.727
 8022SOL    HW224966   6.249   0.421   1.775
 8023SOL     OW24967   5.808   4.516   2.577
 8023SOL    HW124968   5.817   4.416   2.577
 8023SOL    HW224969   5.893   4.558   2.607
 8024SOL     OW24970   1.112   5.344   6.085
 8024SOL    HW124971   1.133   5.248   6.069
 8024SOL    HW224972   1.195   5.393   6.111
 8025SOL     OW24973   1.633   5.143   1.012
 8025SOL    HW124974   1.540   5.175   0.994
 8025SOL    HW224975   1.676   5.200   1.081
 8026SOL     OW24976   6.657   4.263   0.882
 8026SOL    HW124977   6.740   4.235   0.834
 8026SOL    HW224978   6.644   4.362   0.869
 8027SOL     OW24979   3.301   6.383   5.782
 8027SOL    HW124980   3.363   6.341   5.847
 8027SOL    HW224981   3.224   6.322   5.764
 8028SOL     OW24982   3.358   5.048   4.931
 8028SOL    HW124983   3.455   5.026   4.926
 8028SOL    HW224984   3.340   5.102   5.013
 8029SOL     OW24985   4.874   2.445   2.040
 8029SOL    HW124986   4.828   2.359   2.060
 8029SOL    HW224987   4.930   2.472   2.119
 8030SOL     OW24988   5.805   5.691   0.786
 8030SOL    HW124989   5.772   5.768   0.732
 8030SOL    HW224990   5.882   5.720   0.843
 8031SOL     OW24991   6.873   6.347   2.923
 8031SOL    HW124992   6.896   6.433   2.969
 8031SOL    HW224993   6.848   6.366   2.828
 8032SOL     OW24994   5.032   3.719   1.659
 8032SOL    HW124995   5.000   3.692   1.568
 8032SOL    HW224996   5.044   3.638   1.716
 8033SOL     OW24997   4.801   3.380   0.293
 8033SOL    HW124998   4.733   3.421   0.232
 8033SOL    HW224999   4.886   3.365   0.243
 8034SOL     OW25000   5.229   6.955   5.882
 8034SOL    HW125001   5.280   6.880   5.839
 8034SOL    HW225002   5.183   7.009   5.811
 8035SOL     OW25003   5.175   1.627   2.002
 8035SOL    HW125004   5.223   1.707   2.038
 8035SOL    HW225005   5.187   1.550   2.064
 8036SOL     OW25006   0.300   3.775   3.642
 8036SOL    HW125007   0.331   3.809   3.730
 8036SOL    HW225008   0.266   3.852   3.587
 8037SOL     OW25009   1.870   3.332   0.108
 8037SOL    HW125010   1.879   3.283   0.022
 8037SOL    HW225011   1.803   3.406   0.097
 8038SOL     OW25012   4.784   6.354   2.580
 8038SOL    HW125013   4.734   6.422   2.528
 8038SOL    HW225014   4.725   6.275   2.598
 8039SOL     OW25015   6.870   1.898   4.774
 8039SOL    HW125016   6.966   1.882   4.799
 8039SOL    HW225017   6.842   1.829   4.707
 8040SOL     OW25018   1.661   6.403   6.745
 8040SOL    HW125019   1.637   6.315   6.702
 8040SOL    HW225020   1.733   6.389   6.812
 8041SOL     OW25021   3.295   0.977   2.937
 8041SOL    HW125022   3.292   0.879   2.955
 8041SOL    HW225023   3.390   1.007   2.930
 8042SOL     OW25024   4.451   4.198   5.617
 8042SOL    HW125025   4.385   4.182   5.691
 8042SOL    HW225026   4.471   4.112   5.572
 8043SOL     OW25027   3.594   4.219   0.383
 8043SOL    HW125028   3.659   4.179   0.319
 8043SOL    HW225029   3.549   4.297   0.340
 8044SOL     OW25030   3.830   3.808   0.487
 8044SOL    HW125031   3.733   3.833   0.487
 8044SOL    HW225032   3.862   3.796   0.581
 8045SOL     OW25033   6.477   2.527   2.679
 8045SOL    HW125034   6.513   2.573   2.598
 8045SOL    HW225035   6.501   2.430   2.675
 8046SOL     OW25036   0.312   4.271   2.240
 8046SOL    HW125037   0.269   4.279   2.151
 8046SOL    HW225038   0.387   4.337   2.247
 8047SOL     OW25039   3.637   6.420   6.396
 8047SOL    HW125040   3.662   6.331   6.435
 8047SOL    HW225041   3.584   6.472   6.463
 8048SOL     OW25042   3.014   2.450   6.943
 8048SOL    HW125043   2.940   2.412   6.888
 8048SOL    HW225044   3.071   2.509   6.885
 8049SOL     OW25045   0.235   6.393   0.175
 8049SOL    HW125046   0.329   6.395   0.208
 8049SOL    HW225047   0.177   6.448   0.235
 8050SOL     OW25048   2.077   3.449   4.581
 8050SOL    HW125049   2.035   3.469   4.493
 8050SOL    HW225050   2.089   3.534   4.632
 8051SOL     OW25051   4.766   6.152   4.770
 8051SOL    HW125052   4.726   6.203   4.846
 8051SOL    HW225053   4.724   6.061   4.766
 8052SOL     OW25054   2.606   2.163   1.560
 8052SOL    HW125055   2.705   2.166   1.542
 8052SOL    HW225056   2.569   2.256   1.559
 8053SOL     OW25057   3.088   3.159   5.175
 8053SOL    HW125058   3.052   3.239   5.224
 8053SOL    HW225059   3.071   3.170   5.077
 8054SOL     OW25060   6.862   4.226   4.427
 8054SOL    HW125061   6.917   4.209   4.509
 8054SOL    HW225062   6.767   4.239   4.453
 8055SOL     OW25063   0.002   0.511   5.597
 8055SOL    HW125064   7.021   0.468   5.507
 8055SOL    HW225065   6.984   0.602   5.593
 8056SOL     OW25066   3.064   0.526   4.742
 8056SOL    HW125067   3.090   0.516   4.839
 8056SOL    HW225068   3.142   0.561   4.690
 8057SOL     OW25069   2.385   2.561   2.649
 8057SOL    HW125070   2.427   2.554   2.559
 8057SOL    HW225071   2.363   2.656   2.669
 8058SOL     OW25072   3.246   6.311   3.067
 8058SOL    HW125073   3.318   6.370   3.033
 8058SOL    HW225074   3.182   6.289   2.993
 8059SOL     OW25075   3.017   0.534   5.521
 8059SOL    HW125076   3.039   0.553   5.617
 8059SOL    HW225077   2.927   0.570   5.499
 8060SOL     OW25078   0.505   2.169   6.140
 8060SOL    HW125079   0.428   2.225   6.109
 8060SOL    HW225080   0.537   2.112   6.064
 8061SOL     OW25081   0.684   1.008   2.437
 8061SOL    HW125082   0.745   0.932   2.462
 8061SOL    HW225083   0.718   1.093   2.477
 8062SOL     OW25084   3.962   5.134   4.408
 8062SOL    HW125085   3.882   5.183   4.374
 8062SOL    HW225086   3.981   5.161   4.502
 8063SOL     OW25087   2.883   1.005   3.109
 8063SOL    HW125088   2.971   1.050   3.125
 8063SOL    HW225089   2.811   1.054   3.158
 8064SOL     OW25090   5.968   2.263   0.245
 8064SOL    HW125091   5.902   2.330   0.280
 8064SOL    HW225092   5.971   2.269   0.145
 8065SOL     OW25093   2.917   6.505   4.414
 8065SOL    HW125094   2.965   6.465   4.492
 8065SOL    HW225095   2.976   6.502   4.334
 8066SOL     OW25096   6.417   0.251   4.581
 8066SOL    HW125097   6.352   0.315   4.622
 8066SOL    HW225098   6.504   0.298   4.564
 8067SOL     OW25099   5.046   2.490   2.953
 8067SOL    HW125100   5.020   2.546   3.032
 8067SOL    HW225101   5.094   2.546   2.887
 8068SOL     OW25102   0.462   4.684   1.164
 8068SOL    HW125103   0.521   4.663   1.087
 8068SOL    HW225104   0.376   4.635   1.155
 8069SOL     OW25105   2.117   4.560   1.720
 8069SOL    HW125106   2.077   4.508   1.645
 8069SOL    HW225107   2.204   4.599   1.691
 8070SOL     OW25108   3.963   2.792   7.013
 8070SOL    HW125109   3.995   2.867   0.047
 8070SOL    HW225110   3.887   2.823   6.956
 8071SOL     OW25111   3.119   6.556   5.455
 8071SOL    HW125112   3.156   6.470   5.422
 8071SOL    HW225113   3.133   6.563   5.554
 8072SOL     OW25114   3.335   1.747   1.011
 8072SOL    HW125115   3.363   1.719   0.920
 8072SOL    HW225116   3.250   1.799   1.005
 8073SOL     OW25117   3.057   5.754   5.212
 8073SOL    HW125118   3.084   5.838   5.259
 8073SOL    HW225119   2.974   5.771   5.158
 8074SOL     OW25120   2.611   1.352   0.983
 8074SOL    HW125121   2.678   1.303   1.039
 8074SOL    HW225122   2.642   1.355   0.889
 8075SOL     OW25123   0.103   0.758   0.260
 8075SOL    HW125124   0.084   0.714   0.347
 8075SOL    HW225125   0.121   0.855   0.274
 8076SOL     OW25126   6.123   0.068   5.362
 8076SOL    HW125127   6.158   7.014   5.310
 8076SOL    HW225128   6.040   0.103   5.317
 8077SOL     OW25129   3.398   6.099   2.747
 8077SOL    HW125130   3.365   6.070   2.657
 8077SOL    HW225131   3.414   6.198   2.747
 8078SOL     OW25132   0.804   1.879   1.592
 8078SOL    HW125133   0.876   1.890   1.523
 8078SOL    HW225134   0.748   1.800   1.568
 8079SOL     OW25135   6.656   1.459   3.580
 8079SOL    HW125136   6.648   1.549   3.537
 8079SOL    HW225137   6.576   1.404   3.557
 8080SOL     OW25138   1.150   2.502   2.510
 8080SOL    HW125139   1.141   2.572   2.580
 8080SOL    HW225140   1.215   2.433   2.540
 8081SOL     OW25141   6.227   5.657   5.746
 8081SOL    HW125142   6.311   5.604   5.736
 8081SOL    HW225143   6.167   5.612   5.812
 8082SOL     OW25144   3.589   0.491   2.619
 8082SOL    HW125145   3.573   0.586   2.593
 8082SOL    HW225146   3.581   0.433   2.538
 8083SOL     OW25147   5.235   2.646   3.795
 8083SOL    HW125148   5.217   2.727   3.739
 8083SOL    HW225149   5.202   2.662   3.888
 8084SOL     OW25150   2.592   0.601   6.965
 8084SOL    HW125151   2.529   0.623   6.891
 8084SOL    HW225152   2.658   0.533   6.934
 8085SOL     OW25153   6.110   5.723   2.609
 8085SOL    HW125154   6.143   5.641   2.562
 8085SOL    HW225155   6.175   5.798   2.596
 8086SOL     OW25156   0.302   0.600   1.530
 8086SOL    HW125157   0.274   0.594   1.434
 8086SOL    HW225158   0.222   0.614   1.588
 8087SOL     OW25159   1.524   0.561   7.008
 8087SOL    HW125160   1.566   0.477   6.973
 8087SOL    HW225161   1.583   0.600   0.057
 8088SOL     OW25162   5.455   0.762   0.153
 8088SOL    HW125163   5.455   0.774   0.054
 8088SOL    HW225164   5.361   0.746   0.184
 8089SOL     OW25165   5.588   2.914   6.702
 8089SOL    HW125166   5.628   3.001   6.673
 8089SOL    HW225167   5.656   2.842   6.695
 8090SOL     OW25168   3.573   1.247   6.545
 8090SOL    HW125169   3.660   1.202   6.564
 8090SOL    HW225170   3.507   1.223   6.617
 8091SOL     OW25171   1.347   3.744   5.146
 8091SOL    HW125172   1.274   3.812   5.144
 8091SOL    HW225173   1.366   3.718   5.241
 8092SOL     OW25174   4.924   1.989   5.129
 8092SOL    HW125175   4.843   1.956   5.177
 8092SOL    HW225176   4.999   1.924   5.141
 8093SOL     OW25177   2.697   5.453   3.375
 8093SOL    HW125178   2.785   5.477   3.334
 8093SOL    HW225179   2.626   5.511   3.337
 8094SOL     OW25180   0.441   2.688   4.932
 8094SOL    HW125181   0.434   2.681   5.032
 8094SOL    HW225182   0.350   2.703   4.894
 8095SOL     OW25183   0.778   4.136   4.852
 8095SOL    HW125184   0.681   4.161   4.841
 8095SOL    HW225185   0.809   4.165   4.943
 8096SOL     OW25186   2.367   0.711   2.385
 8096SOL    HW125187   2.309   0.630   2.385
 8096SOL    HW225188   2.315   0.789   2.350
 8097SOL     OW25189   4.565   6.725   4.645
 8097SOL    HW125190   4.643   6.664   4.635
 8097SOL    HW225191   4.536   6.728   4.740
 8098SOL     OW25192   2.268   6.289   3.932
 8098SOL    HW125193   2.203   6.336   3.991
 8098SOL    HW225194   2.304   6.353   3.864
 8099SOL     OW25195   4.738   6.269   4.507
 8099SOL    HW125196   4.737   6.224   4.596
 8099SOL    HW225197   4.782   6.209   4.440
 8100SOL     OW25198   6.949   1.677   6.611
 8100SOL    HW125199   6.925   1.771   6.588
 8100SOL    HW225200   6.917   1.656   6.703
 8101SOL     OW25201   1.539   5.669   0.963
 8101SOL    HW125202   1.507   5.763   0.976
 8101SOL    HW225203   1.634   5.662   0.995
 8102SOL     OW25204   0.829   3.467   2.980
 8102SOL    HW125205   0.864   3.446   2.889
 8102SOL    HW225206   0.770   3.548   2.975
 8103SOL     OW25207   3.761   0.329   1.783
 8103SOL    HW125208   3.836   0.367   1.838
 8103SOL    HW225209   3.778   0.348   1.686
 8104SOL     OW25210   1.517   0.747   6.336
 8104SOL    HW125211   1.615   0.730   6.340
 8104SOL    HW225212   1.485   0.778   6.425
 8105SOL     OW25213   6.925   3.030   2.351
 8105SOL    HW125214   6.877   2.954   2.395
 8105SOL    HW225215   6.975   2.995   2.271
 8106SOL     OW25216   2.758   5.986   3.252
 8106SOL    HW125217   2.849   5.961   3.286
 8106SOL    HW225218   2.708   5.904   3.228
 8107SOL     OW25219   0.998   5.490   3.837
 8107SOL    HW125220   1.007   5.573   3.782
 8107SOL    HW225221   1.082   5.435   3.828
 8108SOL     OW25222   6.659   2.824   6.616
 8108SOL    HW125223   6.668   2.916   6.578
 8108SOL    HW225224   6.630   2.761   6.545
 8109SOL     OW25225   0.319   3.415   6.230
 8109SOL    HW125226   0.308   3.316   6.241
 8109SOL    HW225227   0.240   3.462   6.270
 8110SOL     OW25228   4.226   5.778   2.079
 8110SOL    HW125229   4.172   5.768   2.163
 8110SOL    HW225230   4.166   5.811   2.006
 8111SOL     OW25231   4.599   1.571   4.669
 8111SOL    HW125232   4.619   1.623   4.585
 8111SOL    HW225233   4.681   1.523   4.699
 8112SOL     OW25234   2.689   2.362   4.084
 8112SOL    HW125235   2.605   2.404   4.050
 8112SOL    HW225236   2.692   2.371   4.184
 8113SOL     OW25237   0.321   3.658   0.537
 8113SOL    HW125238   0.369   3.601   0.604
 8113SOL    HW225239   0.222   3.647   0.549
 8114SOL     OW25240   1.757   3.628   2.592
 8114SOL    HW125241   1.795   3.663   2.678
 8114SOL    HW225242   1.741   3.705   2.529
 8115SOL     OW25243   3.395   6.794   6.294
 8115SOL    HW125244   3.300   6.770   6.310
 8115SOL    HW225245   3.412   6.888   6.325
 8116SOL     OW25246   3.775   4.497   0.367
 8116SOL    HW125247   3.699   4.560   0.388
 8116SOL    HW225248   3.777   4.424   0.435
 8117SOL     OW25249   1.941   0.229   3.160
 8117SOL    HW125250   1.927   0.131   3.142
 8117SOL    HW225251   1.860   0.280   3.131
 8118SOL     OW25252   5.539   3.977   5.727
 8118SOL    HW125253   5.489   4.058   5.697
 8118SOL    HW225254   5.478   3.899   5.728
 8119SOL     OW25255   5.309   6.717   6.569
 8119SOL    HW125256   5.335   6.807   6.532
 8119SOL    HW225257   5.217   6.694   6.538
 8120SOL     OW25258   3.033   4.499   0.851
 8120SOL    HW125259   3.100   4.568   0.876
 8120SOL    HW225260   3.078   4.410   0.844
 8121SOL     OW25261   1.082   4.916   1.716
 8121SOL    HW125262   1.137   4.834   1.699
 8121SOL    HW225263   1.138   4.997   1.706
 8122SOL     OW25264   0.053   4.805   2.880
 8122SOL    HW125265   0.013   4.895   2.866
 8122SOL    HW225266   7.004   4.736   2.884
 8123SOL     OW25267   6.788   2.114   6.884
 8123SOL    HW125268   6.810   2.184   6.952
 8123SOL    HW225269   6.754   2.158   6.801
 8124SOL     OW25270   4.877   6.265   2.220
 8124SOL    HW125271   4.959   6.271   2.276
 8124SOL    HW225272   4.798   6.246   2.279
 8125SOL     OW25273   1.304   1.341   3.428
 8125SOL    HW125274   1.261   1.254   3.404
 8125SOL    HW225275   1.238   1.398   3.477
 8126SOL     OW25276   5.402   5.129   3.419
 8126SOL    HW125277   5.317   5.086   3.450
 8126SOL    HW225278   5.394   5.150   3.321
 8127SOL     OW25279   2.584   3.686   6.216
 8127SOL    HW125280   2.682   3.686   6.196
 8127SOL    HW225281   2.553   3.592   6.231
 8128SOL     OW25282   2.947   2.206   2.387
 8128SOL    HW125283   2.994   2.173   2.305
 8128SOL    HW225284   2.882   2.137   2.418
 8129SOL     OW25285   3.498   1.517   6.037
 8129SOL    HW125286   3.483   1.616   6.041
 8129SOL    HW225287   3.594   1.498   6.055
 8130SOL     OW25288   0.602   5.090   6.711
 8130SOL    HW125289   0.697   5.108   6.688
 8130SOL    HW225290   0.595   5.059   6.805
 8131SOL     OW25291   2.478   1.658   1.452
 8131SOL    HW125292   2.498   1.753   1.426
 8131SOL    HW225293   2.555   1.622   1.506
 8132SOL     OW25294   5.591   6.792   5.064
 8132SOL    HW125295   5.565   6.865   5.000
 8132SOL    HW225296   5.564   6.704   5.027
 8133SOL     OW25297   2.796   5.288   2.299
 8133SOL    HW125298   2.735   5.360   2.263
 8133SOL    HW225299   2.888   5.303   2.265
 8134SOL     OW25300   0.343   1.873   6.422
 8134SOL    HW125301   0.335   1.968   6.451
 8134SOL    HW225302   0.271   1.818   6.465
 8135SOL     OW25303   2.587   0.455   1.975
 8135SOL    HW125304   2.653   0.380   1.985
 8135SOL    HW225305   2.534   0.464   2.060
 8136SOL     OW25306   4.449   5.322   2.520
 8136SOL    HW125307   4.352   5.344   2.516
 8136SOL    HW225308   4.469   5.249   2.454
 8137SOL     OW25309   2.993   1.159   4.939
 8137SOL    HW125310   3.066   1.214   4.979
 8137SOL    HW225311   3.021   1.063   4.936
 8138SOL     OW25312   5.383   1.333   1.382
 8138SOL    HW125313   5.311   1.377   1.329
 8138SOL    HW225314   5.390   1.236   1.356
 8139SOL     OW25315   0.279   0.704   1.994
 8139SOL    HW125316   0.213   0.778   2.002
 8139SOL    HW225317   0.325   0.710   1.905
 8140SOL     OW25318   6.118   0.523   6.119
 8140SOL    HW125319   6.149   0.435   6.083
 8140SOL    HW225320   6.179   0.595   6.087
 8141SOL     OW25321   4.063   5.418   5.049
 8141SOL    HW125322   4.105   5.423   5.139
 8141SOL    HW225323   3.964   5.429   5.057
 8142SOL     OW25324   7.006   5.367   0.518
 8142SOL    HW125325   6.926   5.342   0.573
 8142SOL    HW225326   0.053   5.296   0.526
 8143SOL     OW25327   6.092   4.394   0.610
 8143SOL    HW125328   5.993   4.377   0.600
 8143SOL    HW225329   6.125   4.441   0.528
 8144SOL     OW25330   5.706   6.212   0.062
 8144SOL    HW125331   5.773   6.228   0.135
 8144SOL    HW225332   5.744   6.243   6.998
 8145SOL     OW25333   4.933   5.904   1.597
 8145SOL    HW125334   4.959   5.988   1.645
 8145SOL    HW225335   5.013   5.866   1.550
 8146SOL     OW25336   4.148   0.866   4.807
 8146SOL    HW125337   4.099   0.779   4.806
 8146SOL    HW225338   4.154   0.902   4.714
 8147SOL     OW25339   5.995   2.711   2.740
 8147SOL    HW125340   5.969   2.716   2.643
 8147SOL    HW225341   5.945   2.636   2.784
 8148SOL     OW25342   5.145   4.149   1.654
 8148SOL    HW125343   5.229   4.095   1.656
 8148SOL    HW225344   5.155   4.229   1.712
 8149SOL     OW25345   2.256   6.238   2.006
 8149SOL    HW125346   2.181   6.172   2.009
 8149SOL    HW225347   2.341   6.190   1.984
 8150SOL     OW25348   0.283   5.173   6.870
 8150SOL    HW125349   0.335   5.171   6.785
 8150SOL    HW225350   0.186   5.167   6.851
 8151SOL     OW25351   6.650   2.289   1.647
 8151SOL    HW125352   6.667   2.231   1.726
 8151SOL    HW225353   6.729   2.349   1.632
 8152SOL     OW25354   0.615   2.433   2.452
 8152SOL    HW125355   0.657   2.359   2.400
 8152SOL    HW225356   0.662   2.444   2.539
 8153SOL     OW25357   3.688   0.317   3.187
 8153SOL    HW125358   3.744   0.327   3.269
 8153SOL    HW225359   3.709   0.230   3.142
 8154SOL     OW25360   2.973   5.938   3.847
 8154SOL    HW125361   2.963   6.015   3.784
 8154SOL    HW225362   3.068   5.906   3.847
 8155SOL     OW25363   2.591   3.425   1.725
 8155SOL    HW125364   2.491   3.423   1.727
 8155SOL    HW225365   2.625   3.334   1.702
 8156SOL     OW25366   4.935   0.085   6.143
 8156SOL    HW125367   4.956   7.013   6.125
 8156SOL    HW225368   4.848   0.091   6.193
 8157SOL     OW25369   6.036   5.740   6.185
 8157SOL    HW125370   6.031   5.795   6.268
 8157SOL    HW225371   5.964   5.769   6.121
 8158SOL     OW25372   0.326   5.574   1.086
 8158SOL    HW125373   0.354   5.568   1.182
 8158SOL    HW225374   0.361   5.659   1.047
 8159SOL     OW25375   2.703   6.304   2.669
 8159SOL    HW125376   2.795   6.291   2.634
 8159SOL    HW225377   2.668   6.393   2.640
 8160SOL     OW25378   4.451   1.642   1.915
 8160SOL    HW125379   4.462   1.701   1.835
 8160SOL    HW225380   4.422   1.551   1.886
 8161SOL     OW25381   5.203   1.524   0.287
 8161SOL    HW125382   5.273   1.575   0.237
 8161SOL    HW225383   5.122   1.582   0.299
 8162SOL     OW25384   6.447   6.856   6.260
 8162SOL    HW125385   6.405   6.783   6.206
 8162SOL    HW225386   6.542   6.832   6.281
 8163SOL     OW25387   2.710   3.885   5.573
 8163SOL    HW125388   2.796   3.865   5.621
 8163SOL    HW225389   2.654   3.946   5.628
 8164SOL     OW25390   5.969   3.691   0.844
 8164SOL    HW125391   5.966   3.607   0.899
 8164SOL    HW225392   5.876   3.727   0.834
 8165SOL     OW25393   1.002   4.878   6.772
 8165SOL    HW125394   1.095   4.890   6.807
 8165SOL    HW225395   0.988   4.782   6.747
 8166SOL     OW25396   2.559   0.856   2.520
 8166SOL    HW125397   2.513   0.793   2.456
 8166SOL    HW225398   2.505   0.940   2.528
 8167SOL     OW25399   5.654   1.610   3.810
 8167SOL    HW125400   5.626   1.680   3.745
 8167SOL    HW225401   5.664   1.523   3.762
 8168SOL     OW25402   3.592   0.974   2.655
 8168SOL    HW125403   3.545   0.986   2.567
 8168SOL    HW225404   3.609   1.064   2.696
 8169SOL     OW25405   5.304   3.369   1.626
 8169SOL    HW125406   5.337   3.280   1.657
 8169SOL    HW225407   5.311   3.375   1.527
 8170SOL     OW25408   1.686   6.314   3.048
 8170SOL    HW125409   1.646   6.388   2.995
 8170SOL    HW225410   1.709   6.238   2.988
 8171SOL     OW25411   1.387   1.689   6.450
 8171SOL    HW125412   1.347   1.607   6.408
 8171SOL    HW225413   1.391   1.677   6.549
 8172SOL     OW25414   0.747   0.723   1.384
 8172SOL    HW125415   0.769   0.710   1.481
 8172SOL    HW225416   0.767   0.639   1.334
 8173SOL     OW25417   3.773   2.014   0.471
 8173SOL    HW125418   3.865   2.004   0.432
 8173SOL    HW225419   3.774   2.087   0.539
 8174SOL     OW25420   4.797   1.587   1.092
 8174SOL    HW125421   4.702   1.566   1.067
 8174SOL    HW225422   4.826   1.526   1.165
 8175SOL     OW25423   0.232   2.907   6.149
 8175SOL    HW125424   0.278   2.883   6.234
 8175SOL    HW225425   0.261   2.844   6.076
 8176SOL     OW25426   2.770   5.871   1.957
 8176SOL    HW125427   2.822   5.864   1.872
 8176SOL    HW225428   2.699   5.800   1.958
 8177SOL     OW25429   2.026   6.105   4.306
 8177SOL    HW125430   1.977   6.019   4.291
 8177SOL    HW225431   1.991   6.150   4.388
 8178SOL     OW25432   1.389   7.016   6.561
 8178SOL    HW125433   1.437   6.996   6.647
 8178SOL    HW225434   1.375   6.931   6.510
 8179SOL     OW25435   3.442   3.344   0.115
 8179SOL    HW125436   3.483   3.427   0.075
 8179SOL    HW225437   3.343   3.355   0.120
 8180SOL     OW25438   6.461   0.062   3.962
 8180SOL    HW125439   6.426   6.995   3.935
 8180SOL    HW225440   6.549   0.078   3.917
 8181SOL     OW25441   2.205   0.933   2.521
 8181SOL    HW125442   2.286   0.989   2.507
 8181SOL    HW225443   2.225   0.862   2.589
 8182SOL     OW25444   3.872   1.790   6.822
 8182SOL    HW125445   3.870   1.691   6.835
 8182SOL    HW225446   3.887   1.811   6.725
 8183SOL     OW25447   0.661   2.589   4.794
 8183SOL    HW125448   0.568   2.616   4.820
 8183SOL    HW225449   0.660   2.494   4.762
 8184SOL     OW25450   5.606   1.711   5.684
 8184SOL    HW125451   5.628   1.742   5.776
 8184SOL    HW225452   5.507   1.716   5.670
 8185SOL     OW25453   2.861   0.543   0.395
 8185SOL    HW125454   2.790   0.483   0.358
 8185SOL    HW225455   2.950   0.515   0.362
 8186SOL     OW25456   2.750   6.460   6.159
 8186SOL    HW125457   2.832   6.488   6.209
 8186SOL    HW225458   2.764   6.369   6.121
 8187SOL     OW25459   1.485   2.100   4.967
 8187SOL    HW125460   1.441   2.063   4.885
 8187SOL    HW225461   1.544   2.029   5.007
 8188SOL     OW25462   5.520   1.787   2.521
 8188SOL    HW125463   5.501   1.747   2.431
 8188SOL    HW225464   5.456   1.862   2.538
 8189SOL     OW25465   4.890   4.496   2.189
 8189SOL    HW125466   4.822   4.426   2.211
 8189SOL    HW225467   4.854   4.556   2.118
 8190SOL     OW25468   5.118   5.335   4.273
 8190SOL    HW125469   5.111   5.269   4.348
 8190SOL    HW225470   5.198   5.313   4.217
 8191SOL     OW25471   2.296   5.510   3.282
 8191SOL    HW125472   2.383   5.482   3.242
 8191SOL    HW225473   2.263   5.439   3.345
 8192SOL     OW25474   2.651   6.062   0.322
 8192SOL    HW125475   2.673   6.095   0.414
 8192SOL    HW225476   2.600   6.133   0.273
 8193SOL     OW25477   5.905   6.937   4.741
 8193SOL    HW125478   5.926   6.948   4.839
 8193SOL    HW225479   5.974   6.879   4.698
 8194SOL     OW25480   6.120   2.687   6.673
 8194SOL    HW125481   6.048   2.704   6.740
 8194SOL    HW225482   6.209   2.711   6.713
 8195SOL     OW25483   0.737   0.953   0.714
 8195SOL    HW125484   0.750   0.944   0.615
 8195SOL    HW225485   0.754   1.047   0.742
 8196SOL     OW25486   3.959   6.935   5.643
 8196SOL    HW125487   3.867   6.963   5.618
 8196SOL    HW225488   4.025   6.974   5.579
 8197SOL     OW25489   5.286   1.644   6.151
 8197SOL    HW125490   5.317   1.709   6.081
 8197SOL    HW225491   5.208   1.592   6.115
 8198SOL     OW25492   3.441   6.184   2.284
 8198SOL    HW125493   3.538   6.210   2.283
 8198SOL    HW225494   3.391   6.241   2.220
 8199SOL     OW25495   6.732   4.050   0.432
 8199SOL    HW125496   6.728   3.973   0.496
 8199SOL    HW225497   6.705   4.019   0.341
 8200SOL     OW25498   4.637   4.293   1.075
 8200SOL    HW125499   4.713   4.325   1.131
 8200SOL    HW225500   4.584   4.225   1.126
 8201SOL     OW25501   5.267   0.720   4.813
 8201SOL    HW125502   5.312   0.668   4.740
 8201SOL    HW225503   5.169   0.701   4.812
 8202SOL     OW25504   1.328   5.460   4.240
 8202SOL    HW125505   1.277   5.431   4.321
 8202SOL    HW225506   1.397   5.527   4.266
 8203SOL     OW25507   4.829   3.482   0.758
 8203SOL    HW125508   4.894   3.490   0.683
 8203SOL    HW225509   4.836   3.392   0.799
 8204SOL     OW25510   3.567   6.056   0.953
 8204SOL    HW125511   3.473   6.073   0.923
 8204SOL    HW225512   3.631   6.102   0.891
 8205SOL     OW25513   5.712   4.863   1.581
 8205SOL    HW125514   5.721   4.764   1.572
 8205SOL    HW225515   5.636   4.895   1.524
 8206SOL     OW25516   2.965   2.362   5.705
 8206SOL    HW125517   3.010   2.451   5.705
 8206SOL    HW225518   2.886   2.364   5.766
 8207SOL     OW25519   3.412   4.575   5.392
 8207SOL    HW125520   3.471   4.656   5.396
 8207SOL    HW225521   3.324   4.600   5.351
 8208SOL     OW25522   2.026   6.417   1.315
 8208SOL    HW125523   2.048   6.330   1.271
 8208SOL    HW225524   2.103   6.479   1.307
 8209SOL     OW25525   1.084   1.133   4.995
 8209SOL    HW125526   1.051   1.039   4.990
 8209SOL    HW225527   1.175   1.135   5.036
 8210SOL     OW25528   3.376   0.837   0.571
 8210SOL    HW125529   3.306   0.810   0.636
 8210SOL    HW225530   3.465   0.840   0.616
 8211SOL     OW25531   3.657   4.168   4.295
 8211SOL    HW125532   3.729   4.147   4.361
 8211SOL    HW225533   3.568   4.162   4.340
 8212SOL     OW25534   2.614   0.427   0.601
 8212SOL    HW125535   2.674   0.357   0.638
 8212SOL    HW225536   2.520   0.410   0.631
 8213SOL     OW25537   4.734   5.407   3.550
 8213SOL    HW125538   4.724   5.392   3.452
 8213SOL    HW225539   4.829   5.426   3.572
 8214SOL     OW25540   2.321   5.565   4.228
 8214SOL    HW125541   2.414   5.578   4.262
 8214SOL    HW225542   2.258   5.556   4.305
 8215SOL     OW25543   4.449   5.842   7.017
 8215SOL    HW125544   4.492   5.855   6.928
 8215SOL    HW225545   4.512   5.871   0.066
 8216SOL     OW25546   5.051   6.820   2.974
 8216SOL    HW125547   5.020   6.807   3.068
 8216SOL    HW225548   5.045   6.916   2.949
 8217SOL     OW25549   2.230   4.170   2.510
 8217SOL    HW125550   2.177   4.085   2.511
 8217SOL    HW225551   2.252   4.194   2.415
 8218SOL     OW25552   2.226   6.866   5.535
 8218SOL    HW125553   2.159   6.865   5.461
 8218SOL    HW225554   2.184   6.830   5.618
 8219SOL     OW25555   2.892   3.994   1.726
 8219SOL    HW125556   2.889   3.976   1.627
 8219SOL    HW225557   2.968   4.056   1.746
 8220SOL     OW25558   3.625   4.407   5.374
 8220SOL    HW125559   3.542   4.460   5.358
 8220SOL    HW225560   3.626   4.327   5.314
 8221SOL     OW25561   5.779   3.983   3.275
 8221SOL    HW125562   5.854   3.918   3.292
 8221SOL    HW225563   5.775   4.049   3.349
 8222SOL     OW25564   6.039   2.974   0.626
 8222SOL    HW125565   5.991   2.910   0.686
 8222SOL    HW225566   6.045   3.063   0.671
 8223SOL     OW25567   6.820   5.205   5.350
 8223SOL    HW125568   6.807   5.236   5.256
 8223SOL    HW225569   6.848   5.283   5.407
 8224SOL     OW25570   4.524   1.424   0.795
 8224SOL    HW125571   4.469   1.341   0.781
 8224SOL    HW225572   4.606   1.420   0.738
 8225SOL     OW25573   3.849   0.002   0.603
 8225SOL    HW125574   3.851   6.928   0.581
 8225SOL    HW225575   3.757   0.038   0.587
 8226SOL     OW25576   3.412   0.598   0.309
 8226SOL    HW125577   3.363   0.683   0.326
 8226SOL    HW225578   3.476   0.580   0.384
 8227SOL     OW25579   5.777   1.315   2.256
 8227SOL    HW125580   5.824   1.307   2.344
 8227SOL    HW225581   5.707   1.386   2.261
 8228SOL     OW25582   0.825   1.336   5.299
 8228SOL    HW125583   0.799   1.251   5.346
 8228SOL    HW225584   0.805   1.327   5.201
 8229SOL     OW25585   4.154   4.759   0.686
 8229SOL    HW125586   4.183   4.745   0.781
 8229SOL    HW225587   4.233   4.782   0.630
 8230SOL     OW25588   4.191   6.766   5.392
 8230SOL    HW125589   4.157   6.679   5.354
 8230SOL    HW225590   4.235   6.749   5.480
 8231SOL     OW25591   3.429   1.399   2.246
 8231SOL    HW125592   3.476   1.316   2.275
 8231SOL    HW225593   3.330   1.384   2.250
 8232SOL     OW25594   5.081   1.360   2.128
 8232SOL    HW125595   5.078   1.274   2.078
 8232SOL    HW225596   4.988   1.386   2.156
 8233SOL     OW25597   0.874   0.358   5.789
 8233SOL    HW125598   0.921   0.419   5.725
 8233SOL    HW225599   0.896   0.384   5.882
 8234SOL     OW25600   2.955   2.968   0.279
 8234SOL    HW125601   2.937   2.934   0.186
 8234SOL    HW225602   2.991   3.061   0.274
 8235SOL     OW25603   0.021   5.221   6.859
 8235SOL    HW125604   6.992   5.215   6.775
 8235SOL    HW225605   6.992   5.182   6.934
 8236SOL     OW25606   0.121   6.125   5.922
 8236SOL    HW125607   0.090   6.035   5.892
 8236SOL    HW225608   0.141   6.123   6.021
 8237SOL     OW25609   4.342   5.460   6.419
 8237SOL    HW125610   4.366   5.481   6.324
 8237SOL    HW225611   4.256   5.409   6.422
 8238SOL     OW25612   1.610   5.527   6.948
 8238SOL    HW125613   1.556   5.527   0.009
 8238SOL    HW225614   1.692   5.584   6.962
 8239SOL     OW25615   0.077   1.194   4.872
 8239SOL    HW125616   0.095   1.122   4.804
 8239SOL    HW225617   0.042   1.152   4.956
 8240SOL     OW25618   3.069   3.083   3.017
 8240SOL    HW125619   3.070   3.142   2.936
 8240SOL    HW225620   3.004   3.119   3.084
 8241SOL     OW25621   1.596   3.251   0.285
 8241SOL    HW125622   1.578   3.238   0.188
 8241SOL    HW225623   1.678   3.200   0.311
 8242SOL     OW25624   0.968   3.865   4.439
 8242SOL    HW125625   0.913   3.910   4.509
 8242SOL    HW225626   1.065   3.886   4.454
 8243SOL     OW25627   0.329   4.594   5.883
 8243SOL    HW125628   0.422   4.602   5.919
 8243SOL    HW225629   0.274   4.537   5.943
 8244SOL     OW25630   0.980   0.673   3.628
 8244SOL    HW125631   1.037   0.722   3.562
 8244SOL    HW225632   1.002   0.703   3.721
 8245SOL     OW25633   4.539   1.736   3.631
 8245SOL    HW125634   4.601   1.670   3.672
 8245SOL    HW225635   4.546   1.730   3.531
 8246SOL     OW25636   1.176   4.020   6.777
 8246SOL    HW125637   1.212   3.935   6.737
 8246SOL    HW225638   1.109   3.997   6.848
 8247SOL     OW25639   2.896   4.759   3.814
 8247SOL    HW125640   2.882   4.722   3.723
 8247SOL    HW225641   2.988   4.798   3.820
 8248SOL     OW25642   1.010   5.758   3.709
 8248SOL    HW125643   0.914   5.767   3.683
 8248SOL    HW225644   1.063   5.833   3.669
 8249SOL     OW25645   2.292   2.145   5.194
 8249SOL    HW125646   2.203   2.103   5.175
 8249SOL    HW225647   2.279   2.229   5.246
 8250SOL     OW25648   3.108   1.703   0.720
 8250SOL    HW125649   3.056   1.670   0.641
 8250SOL    HW225650   3.136   1.625   0.776
 8251SOL     OW25651   6.697   2.024   4.919
 8251SOL    HW125652   6.760   1.972   4.861
 8251SOL    HW225653   6.687   2.116   4.883
 8252SOL     OW25654   2.156   2.137   6.486
 8252SOL    HW125655   2.202   2.080   6.554
 8252SOL    HW225656   2.103   2.208   6.532
 8253SOL     OW25657   4.077   5.873   6.099
 8253SOL    HW125658   3.989   5.890   6.054
 8253SOL    HW225659   4.071   5.788   6.151
 8254SOL     OW25660   6.232   4.907   6.445
 8254SOL    HW125661   6.249   4.875   6.352
 8254SOL    HW225662   6.215   5.006   6.444
 8255SOL     OW25663   0.578   0.010   6.716
 8255SOL    HW125664   0.588   6.958   6.651
 8255SOL    HW225665   0.484   0.013   6.750
 8256SOL     OW25666   0.936   6.498   2.971
 8256SOL    HW125667   0.846   6.469   2.937
 8256SOL    HW225668   0.928   6.587   3.015
 8257SOL     OW25669   5.795   4.226   4.164
 8257SOL    HW125670   5.892   4.219   4.137
 8257SOL    HW225671   5.750   4.294   4.106
 8258SOL     OW25672   5.586   2.738   1.167
 8258SOL    HW125673   5.517   2.701   1.230
 8258SOL    HW225674   5.675   2.697   1.188
 8259SOL     OW25675   4.351   2.114   4.289
 8259SOL    HW125676   4.387   2.083   4.376
 8259SOL    HW225677   4.337   2.036   4.228
 8260SOL     OW25678   2.349   6.604   6.991
 8260SOL    HW125679   2.307   6.564   0.049
 8260SOL    HW225680   2.436   6.559   6.973
 8261SOL     OW25681   5.618   6.020   3.090
 8261SOL    HW125682   5.547   5.962   3.130
 8261SOL    HW225683   5.593   6.044   2.996
 8262SOL     OW25684   0.566   4.818   0.703
 8262SOL    HW125685   0.500   4.893   0.697
 8262SOL    HW225686   0.575   4.775   0.613
 8263SOL     OW25687   6.618   3.076   6.479
 8263SOL    HW125688   6.583   3.013   6.410
 8263SOL    HW225689   6.673   3.147   6.435
 8264SOL     OW25690   1.800   0.076   1.495
 8264SOL    HW125691   1.876   0.025   1.454
 8264SOL    HW225692   1.765   0.025   1.574
 8265SOL     OW25693   4.020   0.596   1.734
 8265SOL    HW125694   3.965   0.674   1.765
 8265SOL    HW225695   4.029   0.529   1.809
 8266SOL     OW25696   3.001   0.148   4.505
 8266SOL    HW125697   2.912   0.188   4.486
 8266SOL    HW225698   3.073   0.207   4.470
 8267SOL     OW25699   1.527   4.925   2.452
 8267SOL    HW125700   1.627   4.919   2.448
 8267SOL    HW225701   1.489   4.833   2.466
 8268SOL     OW25702   2.699   4.039   7.000
 8268SOL    HW125703   2.690   4.135   6.971
 8268SOL    HW225704   2.633   3.983   6.951
 8269SOL     OW25705   4.647   2.733   3.027
 8269SOL    HW125706   4.652   2.747   3.126
 8269SOL    HW225707   4.560   2.691   3.003
 8270SOL     OW25708   2.911   0.030   5.615
 8270SOL    HW125709   2.858   0.065   5.538
 8270SOL    HW225710   2.872   0.065   5.701
 8271SOL     OW25711   5.335   6.203   4.752
 8271SOL    HW125712   5.419   6.206   4.697
 8271SOL    HW225713   5.256   6.225   4.695
 8272SOL     OW25714   0.653   0.360   2.515
 8272SOL    HW125715   0.583   0.353   2.586
 8272SOL    HW225716   0.739   0.388   2.556
 8273SOL     OW25717   2.992   6.949   6.912
 8273SOL    HW125718   2.966   7.001   6.993
 8273SOL    HW225719   2.910   6.929   6.858
 8274SOL     OW25720   4.260   4.779   6.888
 8274SOL    HW125721   4.230   4.728   6.969
 8274SOL    HW225722   4.316   4.719   6.831
 8275SOL     OW25723   6.967   6.879   4.733
 8275SOL    HW125724   6.950   6.923   4.821
 8275SOL    HW225725   6.977   6.948   4.662
 8276SOL     OW25726   6.876   2.689   5.552
 8276SOL    HW125727   6.958   2.715   5.500
 8276SOL    HW225728   6.831   2.772   5.586
 8277SOL     OW25729   1.537   6.102   5.631
 8277SOL    HW125730   1.622   6.153   5.642
 8277SOL    HW225731   1.505   6.111   5.537
 8278SOL     OW25732   3.295   1.427   6.244
 8278SOL    HW125733   3.214   1.387   6.203
 8278SOL    HW225734   3.356   1.460   6.172
 8279SOL     OW25735   5.013   5.946   6.983
 8279SOL    HW125736   4.986   5.889   6.906
 8279SOL    HW225737   5.073   6.019   6.951
 8280SOL     OW25738   4.720   2.703   0.222
 8280SOL    HW125739   4.662   2.627   0.253
 8280SOL    HW225740   4.754   2.753   0.301
 8281SOL     OW25741   1.862   4.848   0.219
 8281SOL    HW125742   1.869   4.945   0.197
 8281SOL    HW225743   1.943   4.800   0.185
 8282SOL     OW25744   2.536   2.306   0.996
 8282SOL    HW125745   2.610   2.315   0.929
 8282SOL    HW225746   2.506   2.211   1.000
 8283SOL     OW25747   0.634   5.191   3.838
 8283SOL    HW125748   0.686   5.118   3.793
 8283SOL    HW225749   0.575   5.236   3.772
 8284SOL     OW25750   1.892   2.459   3.107
 8284SOL    HW125751   1.832   2.520   3.055
 8284SOL    HW225752   1.961   2.421   3.046
 8285SOL     OW25753   3.405   4.063   5.936
 8285SOL    HW125754   3.484   4.125   5.930
 8285SOL    HW225755   3.321   4.115   5.916
 8286SOL     OW25756   5.655   0.948   4.744
 8286SOL    HW125757   5.626   0.985   4.833
 8286SOL    HW225758   5.576   0.909   4.698
 8287SOL     OW25759   1.268   6.699   4.258
 8287SOL    HW125760   1.221   6.772   4.208
 8287SOL    HW225761   1.292   6.732   4.350
 8288SOL     OW25762   1.958   1.983   2.375
 8288SOL    HW125763   1.865   2.020   2.376
 8288SOL    HW225764   1.973   1.932   2.291
 8289SOL     OW25765   6.088   1.170   5.438
 8289SOL    HW125766   6.050   1.261   5.422
 8289SOL    HW225767   6.079   1.147   5.535
 8290SOL     OW25768   3.522   3.143   1.424
 8290SOL    HW125769   3.459   3.065   1.426
 8290SOL    HW225770   3.484   3.218   1.478
 8291SOL     OW25771   5.686   6.881   6.633
 8291SOL    HW125772   5.677   6.797   6.581
 8291SOL    HW225773   5.692   6.959   6.570
 8292SOL     OW25774   1.264   5.003   5.871
 8292SOL    HW125775   1.325   5.061   5.818
 8292SOL    HW225776   1.200   5.059   5.923
 8293SOL     OW25777   1.859   4.816   2.101
 8293SOL    HW125778   1.895   4.832   2.009
 8293SOL    HW225779   1.934   4.793   2.163
 8294SOL     OW25780   6.861   4.017   5.585
 8294SOL    HW125781   6.819   3.988   5.671
 8294SOL    HW225782   6.794   4.011   5.511
 8295SOL     OW25783   4.937   3.872   3.445
 8295SOL    HW125784   4.907   3.952   3.496
 8295SOL    HW225785   4.898   3.875   3.353
 8296SOL     OW25786   3.310   5.796   6.564
 8296SOL    HW125787   3.225   5.848   6.561
 8296SOL    HW225788   3.373   5.839   6.629
 8297SOL     OW25789   6.194   4.304   2.539
 8297SOL    HW125790   6.122   4.265   2.481
 8297SOL    HW225791   6.241   4.231   2.587
 8298SOL     OW25792   0.803   0.709   6.806
 8298SOL    HW125793   0.898   0.740   6.803
 8298SOL    HW225794   0.790   0.650   6.885
 8299SOL     OW25795   0.056   3.914   2.103
 8299SOL    HW125796   0.150   3.897   2.132
 8299SOL    HW225797   7.017   3.891   2.177
 8300SOL     OW25798   5.654   5.500   4.482
 8300SOL    HW125799   5.704   5.516   4.397
 8300SOL    HW225800   5.558   5.482   4.461
 8301SOL     OW25801   4.151   6.931   6.859
 8301SOL    HW125802   4.231   6.920   6.800
 8301SOL    HW225803   4.180   6.970   6.947
 8302SOL     OW25804   3.027   6.380   4.611
 8302SOL    HW125805   3.022   6.427   4.699
 8302SOL    HW225806   3.122   6.364   4.587
 8303SOL     OW25807   6.690   0.184   2.051
 8303SOL    HW125808   6.606   0.130   2.054
 8303SOL    HW225809   6.768   0.124   2.063
 8304SOL     OW25810   5.653   4.046   3.718
 8304SOL    HW125811   5.639   3.952   3.749
 8304SOL    HW225812   5.750   4.060   3.699
 8305SOL     OW25813   4.446   5.631   4.202
 8305SOL    HW125814   4.405   5.698   4.264
 8305SOL    HW225815   4.487   5.557   4.254
 8306SOL     OW25816   6.491   0.825   2.503
 8306SOL    HW125817   6.490   0.902   2.440
 8306SOL    HW225818   6.547   0.848   2.583
 8307SOL     OW25819   1.354   4.962   1.381
 8307SOL    HW125820   1.329   4.922   1.470
 8307SOL    HW225821   1.289   4.932   1.312
 8308SOL     OW25822   1.473   4.336   0.566
 8308SOL    HW125823   1.524   4.384   0.495
 8308SOL    HW225824   1.397   4.287   0.525
 8309SOL     OW25825   6.516   5.027   4.935
 8309SOL    HW125826   6.578   4.953   4.912
 8309SOL    HW225827   6.463   5.053   4.854
 8310SOL     OW25828   0.474   6.544   0.715
 8310SOL    HW125829   0.520   6.462   0.750
 8310SOL    HW225830   0.542   6.612   0.689
 8311SOL     OW25831   5.446   6.365   3.987
 8311SOL    HW125832   5.434   6.397   3.893
 8311SOL    HW225833   5.357   6.365   4.034
 8312SOL     OW25834   4.853   6.882   0.637
 8312SOL    HW125835   4.895   6.972   0.628
 8312SOL    HW225836   4.885   6.823   0.562
 8313SOL     OW25837   3.716   6.543   5.813
 8313SOL    HW125838   3.708   6.586   5.904
 8313SOL    HW225839   3.786   6.591   5.760
 8314SOL     OW25840   5.127   6.318   6.656
 8314SOL    HW125841   5.119   6.380   6.578
 8314SOL    HW225842   5.091   6.228   6.631
 8315SOL     OW25843   3.622   3.562   3.907
 8315SOL    HW125844   3.717   3.565   3.878
 8315SOL    HW225845   3.594   3.468   3.923
 8316SOL     OW25846   1.102   3.287   0.045
 8316SOL    HW125847   1.186   3.338   0.065
 8316SOL    HW225848   1.022   3.345   0.067
 8317SOL     OW25849   1.864   2.088   4.898
 8317SOL    HW125850   1.766   2.074   4.908
 8317SOL    HW225851   1.883   2.182   4.869
 8318SOL     OW25852   4.134   0.617   6.443
 8318SOL    HW125853   4.121   0.521   6.417
 8318SOL    HW225854   4.075   0.639   6.521
 8319SOL     OW25855   1.130   0.245   6.117
 8319SOL    HW125856   1.205   0.245   6.184
 8319SOL    HW225857   1.137   0.163   6.060
 8320SOL     OW25858   3.031   3.975   4.298
 8320SOL    HW125859   3.002   3.919   4.375
 8320SOL    HW225860   3.131   3.970   4.288
 8321SOL     OW25861   7.011   0.662   6.628
 8321SOL    HW125862   0.050   0.649   6.706
 8321SOL    HW225863   6.916   0.661   6.661
 8322SOL     OW25864   7.023   1.530   0.445
 8322SOL    HW125865   6.951   1.509   0.510
 8322SOL    HW225866   6.994   1.503   0.353
 8323SOL     OW25867   4.965   4.408   1.378
 8323SOL    HW125868   5.007   4.404   1.288
 8323SOL    HW225869   4.894   4.338   1.386
 8324SOL     OW25870   6.417   1.084   6.640
 8324SOL    HW125871   6.417   0.992   6.600
 8324SOL    HW225872   6.336   1.134   6.608
 8325SOL     OW25873   1.450   5.651   4.825
 8325SOL    HW125874   1.411   5.734   4.864
 8325SOL    HW225875   1.377   5.591   4.793
 8326SOL     OW25876   2.928   4.170   0.228
 8326SOL    HW125877   3.013   4.187   0.277
 8326SOL    HW225878   2.935   4.085   0.177
 8327SOL     OW25879   0.965   0.848   5.532
 8327SOL    HW125880   0.888   0.794   5.566
 8327SOL    HW225881   1.008   0.897   5.608
 8328SOL     OW25882   0.601   6.217   5.616
 8328SOL    HW125883   0.577   6.261   5.530
 8328SOL    HW225884   0.692   6.245   5.645
 8329SOL     OW25885   0.704   2.497   5.069
 8329SOL    HW125886   0.792   2.466   5.106
 8329SOL    HW225887   0.707   2.493   4.969
 8330SOL     OW25888   4.050   1.136   6.444
 8330SOL    HW125889   4.134   1.141   6.499
 8330SOL    HW225890   3.972   1.123   6.505
 8331SOL     OW25891   1.909   2.125   0.502
 8331SOL    HW125892   1.854   2.054   0.545
 8331SOL    HW225893   1.946   2.091   0.416
 8332SOL     OW25894   5.055   4.869   1.920
 8332SOL    HW125895   4.967   4.878   1.874
 8332SOL    HW225896   5.123   4.925   1.873
 8333SOL     OW25897   1.755   4.716   1.140
 8333SOL    HW125898   1.707   4.784   1.084
 8333SOL    HW225899   1.716   4.626   1.123
 8334SOL     OW25900   3.455   1.800   6.420
 8334SOL    HW125901   3.389   1.782   6.347
 8334SOL    HW225902   3.475   1.898   6.423
 8335SOL     OW25903   4.636   2.982   6.826
 8335SOL    HW125904   4.561   2.922   6.852
 8335SOL    HW225905   4.653   3.049   6.899
 8336SOL     OW25906   1.350   3.362   2.523
 8336SOL    HW125907   1.325   3.459   2.519
 8336SOL    HW225908   1.371   3.337   2.618
 8337SOL     OW25909   1.349   0.730   5.240
 8337SOL    HW125910   1.433   0.722   5.186
 8337SOL    HW225911   1.370   0.721   5.337
 8338SOL     OW25912   3.852   4.879   2.012
 8338SOL    HW125913   3.819   4.936   1.937
 8338SOL    HW225914   3.776   4.826   2.050
 8339SOL     OW25915   0.161   1.113   0.822
 8339SOL    HW125916   0.252   1.119   0.780
 8339SOL    HW225917   0.156   1.033   0.881
 8340SOL     OW25918   5.358   2.343   1.247
 8340SOL    HW125919   5.271   2.309   1.283
 8340SOL    HW225920   5.365   2.441   1.265
 8341SOL     OW25921   3.394   0.141   6.146
 8341SOL    HW125922   3.482   0.149   6.099
 8341SOL    HW225923   3.409   0.118   6.242
 8342SOL     OW25924   3.267   6.133   0.573
 8342SOL    HW125925   3.332   6.144   0.498
 8342SOL    HW225926   3.224   6.043   0.567
 8343SOL     OW25927   6.378   5.109   3.989
 8343SOL    HW125928   6.393   5.138   4.083
 8343SOL    HW225929   6.402   5.183   3.926
 8344SOL     OW25930   0.454   4.503   4.280
 8344SOL    HW125931   0.506   4.524   4.198
 8344SOL    HW225932   0.517   4.487   4.356
 8345SOL     OW25933   5.354   1.263   3.173
 8345SOL    HW125934   5.409   1.346   3.174
 8345SOL    HW225935   5.257   1.287   3.177
 8346SOL     OW25936   4.446   3.252   6.439
 8346SOL    HW125937   4.452   3.351   6.453
 8346SOL    HW225938   4.374   3.215   6.497
 8347SOL     OW25939   1.885   6.714   6.542
 8347SOL    HW125940   1.876   6.623   6.500
 8347SOL    HW225941   1.796   6.745   6.575
 8348SOL     OW25942   3.454   0.088   1.261
 8348SOL    HW125943   3.516   0.119   1.333
 8348SOL    HW225944   3.359   0.100   1.291
 8349SOL     OW25945   0.606   0.031   1.974
 8349SOL    HW125946   0.567   6.983   1.915
 8349SOL    HW225947   0.596   0.005   2.069
 8350SOL     OW25948   3.016   0.205   6.057
 8350SOL    HW125949   2.923   0.169   6.066
 8350SOL    HW225950   3.029   0.281   6.120
 8351SOL     OW25951   5.991   5.656   4.075
 8351SOL    HW125952   6.057   5.729   4.058
 8351SOL    HW225953   6.038   5.575   4.109
 8352SOL     OW25954   2.927   6.225   2.573
 8352SOL    HW125955   2.893   6.151   2.516
 8352SOL    HW225956   3.003   6.271   2.526
 8353SOL     OW25957   1.051   3.927   1.637
 8353SOL    HW125958   0.955   3.946   1.615
 8353SOL    HW225959   1.107   4.006   1.614
 8354SOL     OW25960   3.458   6.647   3.859
 8354SOL    HW125961   3.387   6.612   3.920
 8354SOL    HW225962   3.416   6.698   3.784
 8355SOL     OW25963   1.476   0.132   6.369
 8355SOL    HW125964   1.467   0.232   6.370
 8355SOL    HW225965   1.439   0.095   6.455
 8356SOL     OW25966   1.219   5.711   2.004
 8356SOL    HW125967   1.297   5.693   2.063
 8356SOL    HW225968   1.226   5.803   1.965
 8357SOL     OW25969   3.969   5.409   6.271
 8357SOL    HW125970   3.902   5.385   6.341
 8357SOL    HW225971   4.041   5.340   6.268
 8358SOL     OW25972   1.461   2.987   5.838
 8358SOL    HW125973   1.362   2.995   5.828
 8358SOL    HW225974   1.493   2.905   5.791
 8359SOL     OW25975   2.419   0.834   4.340
 8359SOL    HW125976   2.384   0.743   4.363
 8359SOL    HW225977   2.372   0.902   4.395
 8360SOL     OW25978   4.524   6.742   0.787
 8360SOL    HW125979   4.593   6.675   0.762
 8360SOL    HW225980   4.473   6.710   0.866
 8361SOL     OW25981   2.249   0.143   6.703
 8361SOL    HW125982   2.199   0.179   6.625
 8361SOL    HW225983   2.271   0.047   6.687
 8362SOL     OW25984   6.122   2.429   0.473
 8362SOL    HW125985   6.107   2.528   0.471
 8362SOL    HW225986   6.083   2.387   0.391
 8363SOL     OW25987   4.145   2.221   0.397
 8363SOL    HW125988   4.221   2.171   0.355
 8363SOL    HW225989   4.181   2.291   0.459
 8364SOL     OW25990   0.655   3.111   4.022
 8364SOL    HW125991   0.648   3.054   3.941
 8364SOL    HW225992   0.695   3.199   3.998
 8365SOL     OW25993   1.934   2.459   2.199
 8365SOL    HW125994   1.989   2.376   2.208
 8365SOL    HW225995   1.838   2.433   2.186
 8366SOL     OW25996   4.146   5.457   1.150
 8366SOL    HW125997   4.175   5.534   1.206
 8366SOL    HW225998   4.226   5.407   1.117
 8367SOL     OW25999   2.886   5.266   4.653
 8367SOL    HW126000   2.843   5.348   4.693
 8367SOL    HW226001   2.932   5.291   4.568
 8368SOL     OW26002   0.529   6.326   0.091
 8368SOL    HW126003   0.552   6.326   7.017
 8368SOL    HW226004   0.510   6.232   0.120
 8369SOL     OW26005   0.904   2.161   1.311
 8369SOL    HW126006   0.831   2.105   1.269
 8369SOL    HW226007   0.874   2.193   1.400
 8370SOL     OW26008   2.779   1.919   0.027
 8370SOL    HW126009   2.694   1.957   7.013
 8370SOL    HW226010   2.857   1.961   7.004
 8371SOL     OW26011   1.795   3.132   5.578
 8371SOL    HW126012   1.843   3.198   5.520
 8371SOL    HW226013   1.775   3.174   5.667
 8372SOL     OW26014   2.574   6.535   1.594
 8372SOL    HW126015   2.510   6.605   1.563
 8372SOL    HW226016   2.536   6.445   1.576
 8373SOL     OW26017   0.377   1.517   4.535
 8373SOL    HW126018   0.307   1.445   4.535
 8373SOL    HW226019   0.439   1.503   4.458
 8374SOL     OW26020   1.078   0.347   4.079
 8374SOL    HW126021   1.160   0.356   4.135
 8374SOL    HW226022   1.079   0.415   4.006
 8375SOL     OW26023   3.919   0.915   5.551
 8375SOL    HW126024   3.923   0.824   5.590
 8375SOL    HW226025   3.954   0.982   5.617
 8376SOL     OW26026   1.407   1.328   3.710
 8376SOL    HW126027   1.503   1.345   3.690
 8376SOL    HW226028   1.361   1.297   3.627
 8377SOL     OW26029   5.169   5.571   0.168
 8377SOL    HW126030   5.156   5.570   0.069
 8377SOL    HW226031   5.255   5.617   0.191
 8378SOL     OW26032   5.309   5.346   3.022
 8378SOL    HW126033   5.293   5.313   2.929
 8378SOL    HW226034   5.301   5.270   3.086
 8379SOL     OW26035   4.894   2.113   1.538
 8379SOL    HW126036   4.922   2.017   1.533
 8379SOL    HW226037   4.887   2.140   1.634
 8380SOL     OW26038   6.379   6.913   0.215
 8380SOL    HW126039   6.464   6.961   0.194
 8380SOL    HW226040   6.396   6.844   0.286
 8381SOL     OW26041   0.532   2.491   2.974
 8381SOL    HW126042   0.539   2.586   2.946
 8381SOL    HW226043   0.618   2.444   2.955
 8382SOL     OW26044   2.350   0.353   0.649
 8382SOL    HW126045   2.317   0.260   0.633
 8382SOL    HW226046   2.296   0.418   0.595
 8383SOL     OW26047   2.825   0.190   5.196
 8383SOL    HW126048   2.871   0.119   5.143
 8383SOL    HW226049   2.784   0.256   5.134
 8384SOL     OW26050   6.847   1.926   1.440
 8384SOL    HW126051   6.800   1.867   1.375
 8384SOL    HW226052   6.877   2.010   1.395
 8385SOL     OW26053   4.824   2.871   1.054
 8385SOL    HW126054   4.740   2.861   1.108
 8385SOL    HW226055   4.894   2.917   1.108
 8386SOL     OW26056   1.897   5.931   0.960
 8386SOL    HW126057   1.951   5.865   0.908
 8386SOL    HW226058   1.837   5.882   1.023
 8387SOL     OW26059   2.239   2.019   1.461
 8387SOL    HW126060   2.302   2.033   1.537
 8387SOL    HW226061   2.170   1.952   1.486
 8388SOL     OW26062   1.642   6.871   0.288
 8388SOL    HW126063   1.553   6.842   0.324
 8388SOL    HW226064   1.711   6.802   0.310
 8389SOL     OW26065   1.832   3.264   4.008
 8389SOL    HW126066   1.809   3.184   3.953
 8389SOL    HW226067   1.920   3.300   3.980
 8390SOL     OW26068   3.511   0.326   6.425
 8390SOL    HW126069   3.477   0.397   6.486
 8390SOL    HW226070   3.492   0.352   6.330
 8391SOL     OW26071   5.239   5.395   0.884
 8391SOL    HW126072   5.299   5.387   0.964
 8391SOL    HW226073   5.146   5.371   0.910
 8392SOL     OW26074   6.419   5.512   5.042
 8392SOL    HW126075   6.326   5.492   5.074
 8392SOL    HW226076   6.484   5.494   5.115
 8393SOL     OW26077   0.409   0.192   3.794
 8393SOL    HW126078   0.441   0.264   3.733
 8393SOL    HW226079   0.313   0.208   3.817
 8394SOL     OW26080   1.004   1.672   2.684
 8394SOL    HW126081   0.964   1.664   2.592
 8394SOL    HW226082   1.000   1.583   2.729
 8395SOL     OW26083   0.435   6.422   4.190
 8395SOL    HW126084   0.350   6.449   4.236
 8395SOL    HW226085   0.484   6.357   4.247
 8396SOL     OW26086   4.525   4.384   2.747
 8396SOL    HW126087   4.439   4.360   2.702
 8396SOL    HW226088   4.516   4.369   2.845
 8397SOL     OW26089   2.471   6.908   2.851
 8397SOL    HW126090   2.429   6.916   2.942
 8397SOL    HW226091   2.566   6.940   2.855
 8398SOL     OW26092   3.604   1.658   0.129
 8398SOL    HW126093   3.657   1.583   0.171
 8398SOL    HW226094   3.630   1.745   0.171
 8399SOL     OW26095   5.930   6.502   0.420
 8399SOL    HW126096   5.839   6.480   0.453
 8399SOL    HW226097   5.981   6.551   0.491
 8400SOL     OW26098   0.678   0.335   3.086
 8400SOL    HW126099   0.684   0.280   3.170
 8400SOL    HW226100   0.745   0.302   3.020
 8401SOL     OW26101   4.193   3.050   5.759
 8401SOL    HW126102   4.266   3.026   5.824
 8401SOL    HW226103   4.117   3.091   5.808
 8402SOL     OW26104   3.215   1.289   5.600
 8402SOL    HW126105   3.264   1.210   5.637
 8402SOL    HW226106   3.281   1.356   5.565
 8403SOL     OW26107   0.569   1.587   3.291
 8403SOL    HW126108   0.547   1.569   3.387
 8403SOL    HW226109   0.626   1.513   3.256
 8404SOL     OW26110   5.521   6.498   6.579
 8404SOL    HW126111   5.444   6.554   6.548
 8404SOL    HW226112   5.606   6.550   6.571
 8405SOL     OW26113   1.884   1.579   0.215
 8405SOL    HW126114   1.826   1.514   0.166
 8405SOL    HW226115   1.938   1.631   0.149
 8406SOL     OW26116   4.378   1.673   0.829
 8406SOL    HW126117   4.316   1.655   0.905
 8406SOL    HW226118   4.423   1.588   0.801
 8407SOL     OW26119   5.363   5.348   4.124
 8407SOL    HW126120   5.304   5.340   4.043
 8407SOL    HW226121   5.455   5.313   4.102
 8408SOL     OW26122   5.303   1.355   3.804
 8408SOL    HW126123   5.334   1.358   3.899
 8408SOL    HW226124   5.204   1.343   3.801
 8409SOL     OW26125   6.756   2.223   3.860
 8409SOL    HW126126   6.782   2.195   3.767
 8409SOL    HW226127   6.755   2.323   3.864
 8410SOL     OW26128   4.422   0.949   1.485
 8410SOL    HW126129   4.368   1.017   1.435
 8410SOL    HW226130   4.426   0.974   1.581
 8411SOL     OW26131   2.018   5.319   3.682
 8411SOL    HW126132   2.027   5.224   3.711
 8411SOL    HW226133   1.922   5.346   3.686
 8412SOL     OW26134   4.210   1.772   1.245
 8412SOL    HW126135   4.157   1.735   1.322
 8412SOL    HW226136   4.307   1.750   1.259
 8413SOL     OW26137   4.685   4.666   0.300
 8413SOL    HW126138   4.657   4.586   0.247
 8413SOL    HW226139   4.650   4.657   0.393
 8414SOL     OW26140   3.807   0.311   2.477
 8414SOL    HW126141   3.815   0.324   2.576
 8414SOL    HW226142   3.879   0.363   2.431
 8415SOL     OW26143   0.529   4.883   3.842
 8415SOL    HW126144   0.623   4.909   3.820
 8415SOL    HW226145   0.488   4.952   3.901
 8416SOL     OW26146   4.840   4.567   2.826
 8416SOL    HW126147   4.842   4.470   2.852
 8416SOL    HW226148   4.761   4.611   2.868
 8417SOL     OW26149   1.620   6.428   5.170
 8417SOL    HW126150   1.655   6.336   5.188
 8417SOL    HW226151   1.548   6.424   5.101
 8418SOL     OW26152   5.686   5.206   1.774
 8418SOL    HW126153   5.667   5.111   1.747
 8418SOL    HW226154   5.632   5.229   1.855
 8419SOL     OW26155   4.649   0.559   1.997
 8419SOL    HW126156   4.591   0.620   1.942
 8419SOL    HW226157   4.642   0.466   1.962
 8420SOL     OW26158   3.465   6.479   0.817
 8420SOL    HW126159   3.508   6.397   0.778
 8420SOL    HW226160   3.400   6.517   0.751
 8421SOL     OW26161   2.960   6.797   1.299
 8421SOL    HW126162   3.007   6.733   1.360
 8421SOL    HW226163   2.863   6.777   1.297
 8422SOL     OW26164   5.203   6.264   1.276
 8422SOL    HW126165   5.263   6.234   1.202
 8422SOL    HW226166   5.252   6.263   1.362
 8423SOL     OW26167   4.228   4.587   6.359
 8423SOL    HW126168   4.288   4.573   6.438
 8423SOL    HW226169   4.283   4.596   6.277
 8424SOL     OW26170   2.775   2.266   2.774
 8424SOL    HW126171   2.748   2.299   2.864
 8424SOL    HW226172   2.825   2.180   2.783
 8425SOL     OW26173   6.689   5.446   1.084
 8425SOL    HW126174   6.728   5.538   1.072
 8425SOL    HW226175   6.642   5.420   1.000
 8426SOL     OW26176   3.603   2.994   3.971
 8426SOL    HW126177   3.651   2.973   4.056
 8426SOL    HW226178   3.661   2.969   3.893
 8427SOL     OW26179   1.601   3.983   5.988
 8427SOL    HW126180   1.673   3.919   5.964
 8427SOL    HW226181   1.632   4.076   5.968
 8428SOL     OW26182   6.483   4.478   2.156
 8428SOL    HW126183   6.470   4.469   2.255
 8428SOL    HW226184   6.581   4.478   2.135
 8429SOL     OW26185   1.745   4.479   4.639
 8429SOL    HW126186   1.830   4.528   4.659
 8429SOL    HW226187   1.754   4.384   4.670
 8430SOL     OW26188   3.907   5.113   2.906
 8430SOL    HW126189   3.987   5.119   2.847
 8430SOL    HW226190   3.866   5.022   2.898
 8431SOL     OW26191   2.303   4.766   1.042
 8431SOL    HW126192   2.388   4.814   1.022
 8431SOL    HW226193   2.323   4.675   1.077
 8432SOL     OW26194   4.474   5.221   5.854
 8432SOL    HW126195   4.572   5.202   5.854
 8432SOL    HW226196   4.458   5.315   5.823
 8433SOL     OW26197   0.371   2.542   6.383
 8433SOL    HW126198   0.342   2.460   6.433
 8433SOL    HW226199   0.413   2.515   6.296
 8434SOL     OW26200   3.183   0.214   5.119
 8434SOL    HW126201   3.190   0.307   5.156
 8434SOL    HW226202   3.212   0.214   5.023
 8435SOL     OW26203   5.023   1.675   1.385
 8435SOL    HW126204   5.065   1.585   1.377
 8435SOL    HW226205   5.068   1.739   1.323
 8436SOL     OW26206   4.174   6.401   3.384
 8436SOL    HW126207   4.086   6.444   3.365
 8436SOL    HW226208   4.237   6.419   3.309
 8437SOL     OW26209   1.682   6.848   2.077
 8437SOL    HW126210   1.608   6.833   2.143
 8437SOL    HW226211   1.693   6.767   2.020
 8438SOL     OW26212   3.031   4.784   2.023
 8438SOL    HW126213   3.102   4.741   2.078
 8438SOL    HW226214   2.964   4.715   1.995
 8439SOL     OW26215   6.506   6.062   2.158
 8439SOL    HW126216   6.454   6.140   2.194
 8439SOL    HW226217   6.589   6.096   2.114
 8440SOL     OW26218   0.242   0.698   2.519
 8440SOL    HW126219   0.219   0.794   2.530
 8440SOL    HW226220   0.339   0.688   2.498
 8441SOL     OW26221   6.128   5.980   0.183
 8441SOL    HW126222   6.059   5.977   0.112
 8441SOL    HW226223   6.119   6.066   0.235
 8442SOL     OW26224   4.215   3.238   6.581
 8442SOL    HW126225   4.215   3.338   6.573
 8442SOL    HW226226   4.147   3.199   6.519
 8443SOL     OW26227   1.653   6.816   3.228
 8443SOL    HW126228   1.557   6.792   3.211
 8443SOL    HW226229   1.666   6.836   3.325
 8444SOL     OW26230   3.284   6.198   3.834
 8444SOL    HW126231   3.310   6.177   3.928
 8444SOL    HW226232   3.185   6.197   3.826
 8445SOL     OW26233   3.199   4.997   1.933
 8445SOL    HW126234   3.124   4.932   1.939
 8445SOL    HW226235   3.261   4.983   2.010
 8446SOL     OW26236   4.726   5.333   1.361
 8446SOL    HW126237   4.823   5.308   1.353
 8446SOL    HW226238   4.685   5.338   1.270
 8447SOL     OW26239   6.190   2.350   2.206
 8447SOL    HW126240   6.230   2.365   2.116
 8447SOL    HW226241   6.244   2.397   2.276
 8448SOL     OW26242   0.200   3.568   5.457
 8448SOL    HW126243   0.116   3.622   5.463
 8448SOL    HW226244   0.278   3.623   5.487
 8449SOL     OW26245   0.306   3.041   4.385
 8449SOL    HW126246   0.372   2.968   4.404
 8449SOL    HW226247   0.239   3.009   4.318
 8450SOL     OW26248   2.191   6.433   2.241
 8450SOL    HW126249   2.287   6.446   2.269
 8450SOL    HW226250   2.188   6.407   2.145
 8451SOL     OW26251   4.174   2.732   0.938
 8451SOL    HW126252   4.177   2.713   0.840
 8451SOL    HW226253   4.083   2.713   0.973
 8452SOL     OW26254   0.178   0.243   1.051
 8452SOL    HW126255   0.228   0.157   1.044
 8452SOL    HW226256   0.085   0.226   1.084
 8453SOL     OW26257   6.539   4.939   6.258
 8453SOL    HW126258   6.551   4.874   6.334
 8453SOL    HW226259   6.498   5.023   6.293
 8454SOL     OW26260   1.711   5.490   1.955
 8454SOL    HW126261   1.697   5.470   2.052
 8454SOL    HW226262   1.740   5.586   1.945
 8455SOL     OW26263   4.907   1.625   0.855
 8455SOL    HW126264   5.004   1.632   0.835
 8455SOL    HW226265   4.894   1.614   0.954
 8456SOL     OW26266   5.561   4.927   3.117
 8456SOL    HW126267   5.528   4.909   3.024
 8456SOL    HW226268   5.645   4.980   3.113
 8457SOL     OW26269   6.725   6.471   5.798
 8457SOL    HW126270   6.781   6.388   5.803
 8457SOL    HW226271   6.649   6.455   5.735
 8458SOL     OW26272   1.711   1.018   6.960
 8458SOL    HW126273   1.790   1.003   7.019
 8458SOL    HW226274   1.717   0.957   6.881
 8459SOL     OW26275   3.694   6.991   1.395
 8459SOL    HW126276   3.620   6.944   1.347
 8459SOL    HW226277   3.771   6.928   1.407
 8460SOL     OW26278   4.286   2.771   6.125
 8460SOL    HW126279   4.201   2.823   6.128
 8460SOL    HW226280   4.294   2.726   6.036
 8461SOL     OW26281   0.959   3.320   1.885
 8461SOL    HW126282   1.052   3.303   1.917
 8461SOL    HW226283   0.895   3.311   1.962
 8462SOL     OW26284   3.277   2.316   0.276
 8462SOL    HW126285   3.185   2.332   0.311
 8462SOL    HW226286   3.312   2.400   0.235
 8463SOL     OW26287   0.083   2.369   0.101
 8463SOL    HW126288   0.092   2.368   0.001
 8463SOL    HW226289   0.076   2.464   0.133
 8464SOL     OW26290   6.993   4.244   5.335
 8464SOL    HW126291   6.935   4.292   5.401
 8464SOL    HW226292   6.950   4.247   5.245
 8465SOL     OW26293   3.157   1.986   0.736
 8465SOL    HW126294   3.254   2.008   0.728
 8465SOL    HW226295   3.145   1.887   0.732
 8466SOL     OW26296   6.287   0.041   5.013
 8466SOL    HW126297   6.330   6.998   4.951
 8466SOL    HW226298   6.349   0.062   5.088
 8467SOL     OW26299   4.141   1.063   1.364
 8467SOL    HW126300   4.145   1.155   1.403
 8467SOL    HW226301   4.058   1.054   1.309
 8468SOL     OW26302   6.032   3.036   6.700
 8468SOL    HW126303   5.982   2.977   6.636
 8468SOL    HW226304   5.971   3.067   6.772
 8469SOL     OW26305   2.446   1.965   5.663
 8469SOL    HW126306   2.439   1.968   5.564
 8469SOL    HW226307   2.523   1.907   5.689
 8470SOL     OW26308   1.252   4.681   0.232
 8470SOL    HW126309   1.247   4.777   0.205
 8470SOL    HW226310   1.344   4.646   0.214
 8471SOL     OW26311   3.878   0.522   5.477
 8471SOL    HW126312   3.878   0.532   5.377
 8471SOL    HW226313   3.823   0.443   5.503
 8472SOL     OW26314   5.345   1.425   5.445
 8472SOL    HW126315   5.413   1.353   5.428
 8472SOL    HW226316   5.359   1.462   5.537
 8473SOL     OW26317   5.608   5.396   0.484
 8473SOL    HW126318   5.525   5.387   0.538
 8473SOL    HW226319   5.684   5.427   0.542
 8474SOL     OW26320   3.270   4.091   2.337
 8474SOL    HW126321   3.258   4.130   2.246
 8474SOL    HW226322   3.198   4.023   2.353
 8475SOL     OW26323   6.504   3.175   2.413
 8475SOL    HW126324   6.557   3.258   2.397
 8475SOL    HW226325   6.542   3.100   2.358
 8476SOL     OW26326   6.742   1.432   1.663
 8476SOL    HW126327   6.669   1.368   1.687
 8476SOL    HW226328   6.779   1.473   1.746
 8477SOL     OW26329   4.380   6.574   2.459
 8477SOL    HW126330   4.417   6.481   2.463
 8477SOL    HW226331   4.326   6.584   2.375
 8478SOL     OW26332   0.890   1.456   5.629
 8478SOL    HW126333   0.797   1.440   5.596
 8478SOL    HW226334   0.888   1.521   5.705
 8479SOL     OW26335   0.997   2.940   1.680
 8479SOL    HW126336   0.968   2.845   1.675
 8479SOL    HW226337   1.031   2.969   1.590
 8480SOL     OW26338   5.386   3.370   7.008
 8480SOL    HW126339   5.369   3.460   6.968
 8480SOL    HW226340   5.318   3.305   6.972
 8481SOL     OW26341   4.783   2.403   4.978
 8481SOL    HW126342   4.767   2.351   4.894
 8481SOL    HW226343   4.696   2.436   5.014
 8482SOL     OW26344   4.560   0.323   1.895
 8482SOL    HW126345   4.623   0.252   1.927
 8482SOL    HW226346   4.554   0.320   1.795
 8483SOL     OW26347   2.565   5.591   3.201
 8483SOL    HW126348   2.559   5.537   3.117
 8483SOL    HW226349   2.559   5.688   3.179
 8484SOL     OW26350   6.645   6.067   4.893
 8484SOL    HW126351   6.693   6.079   4.807
 8484SOL    HW226352   6.696   6.002   4.950
 8485SOL     OW26353   3.971   2.485   0.359
 8485SOL    HW126354   3.925   2.447   0.279
 8485SOL    HW226355   3.903   2.511   0.427
 8486SOL     OW26356   1.923   0.624   2.716
 8486SOL    HW126357   1.970   0.536   2.711
 8486SOL    HW226358   1.825   0.610   2.701
 8487SOL     OW26359   5.507   2.353   6.092
 8487SOL    HW126360   5.494   2.409   6.173
 8487SOL    HW226361   5.576   2.283   6.109
 8488SOL     OW26362   5.449   5.713   2.867
 8488SOL    HW126363   5.496   5.797   2.838
 8488SOL    HW226364   5.352   5.732   2.881
 8489SOL     OW26365   0.222   0.560   1.236
 8489SOL    HW126366   0.150   0.589   1.174
 8489SOL    HW226367   0.211   0.462   1.256
 8490SOL     OW26368   3.277   6.656   5.746
 8490SOL    HW126369   3.271   6.723   5.820
 8490SOL    HW226370   3.292   6.565   5.784
 8491SOL     OW26371   1.861   6.078   2.436
 8491SOL    HW126372   1.842   6.096   2.533
 8491SOL    HW226373   1.811   5.995   2.408
 8492SOL     OW26374   5.759   5.051   4.044
 8492SOL    HW126375   5.775   4.954   4.063
 8492SOL    HW226376   5.812   5.078   3.964
 8493SOL     OW26377   2.282   1.639   0.179
 8493SOL    HW126378   2.192   1.656   0.139
 8493SOL    HW226379   2.329   1.567   0.128
 8494SOL     OW26380   4.341   5.098   2.157
 8494SOL    HW126381   4.344   5.047   2.243
 8494SOL    HW226382   4.258   5.154   2.155
 8495SOL     OW26383   0.122   5.703   0.885
 8495SOL    HW126384   0.173   5.631   0.932
 8495SOL    HW226385   0.083   5.667   0.800
 8496SOL     OW26386   6.253   1.326   2.216
 8496SOL    HW126387   6.243   1.419   2.251
 8496SOL    HW226388   6.314   1.326   2.137
 8497SOL     OW26389   0.752   0.587   3.495
 8497SOL    HW126390   0.792   0.531   3.422
 8497SOL    HW226391   0.824   0.643   3.537
 8498SOL     OW26392   6.657   6.738   3.361
 8498SOL    HW126393   6.656   6.791   3.446
 8498SOL    HW226394   6.567   6.695   3.348
 8499SOL     OW26395   0.707   4.489   0.365
 8499SOL    HW126396   0.776   4.436   0.412
 8499SOL    HW226397   0.747   4.535   0.286
 8500SOL     OW26398   1.632   6.585   5.535
 8500SOL    HW126399   1.594   6.634   5.457
 8500SOL    HW226400   1.727   6.613   5.549
 8501SOL     OW26401   0.560   2.629   6.558
 8501SOL    HW126402   0.509   2.589   6.482
 8501SOL    HW226403   0.546   2.573   6.641
 8502SOL     OW26404   0.286   3.264   1.700
 8502SOL    HW126405   0.384   3.256   1.684
 8502SOL    HW226406   0.239   3.185   1.661
 8503SOL     OW26407   0.117   5.773   5.364
 8503SOL    HW126408   0.185   5.719   5.413
 8503SOL    HW226409   0.142   5.870   5.366
 8504SOL     OW26410   1.644   5.375   2.219
 8504SOL    HW126411   1.596   5.301   2.267
 8504SOL    HW226412   1.644   5.457   2.275
 8505SOL     OW26413   5.700   3.518   2.788
 8505SOL    HW126414   5.766   3.448   2.762
 8505SOL    HW226415   5.712   3.541   2.885
 8506SOL     OW26416   1.623   0.283   6.691
 8506SOL    HW126417   1.685   0.225   6.639
 8506SOL    HW226418   1.634   0.266   6.788
 8507SOL     OW26419   3.847   7.007   5.025
 8507SOL    HW126420   3.947   7.002   5.029
 8507SOL    HW226421   3.816   0.067   5.071
 8508SOL     OW26422   4.269   1.488   5.378
 8508SOL    HW126423   4.256   1.520   5.472
 8508SOL    HW226424   4.187   1.507   5.324
 8509SOL     OW26425   5.832   6.624   3.568
 8509SOL    HW126426   5.801   6.549   3.511
 8509SOL    HW226427   5.924   6.652   3.539
 8510SOL     OW26428   4.882   3.698   3.003
 8510SOL    HW126429   4.883   3.604   2.968
 8510SOL    HW226430   4.897   3.761   2.927
 8511SOL     OW26431   6.301   3.083   2.558
 8511SOL    HW126432   6.375   3.130   2.509
 8511SOL    HW226433   6.220   3.078   2.499
 8512SOL     OW26434   2.732   6.672   2.852
 8512SOL    HW126435   2.757   6.729   2.930
 8512SOL    HW226436   2.711   6.580   2.884
 8513SOL     OW26437   0.163   5.828   1.204
 8513SOL    HW126438   0.098   5.755   1.222
 8513SOL    HW226439   0.123   5.894   1.141
 8514SOL     OW26440   2.859   0.470   3.649
 8514SOL    HW126441   2.846   0.385   3.698
 8514SOL    HW226442   2.941   0.517   3.683
 8515SOL     OW26443   4.832   2.307   0.928
 8515SOL    HW126444   4.839   2.370   0.851
 8515SOL    HW226445   4.742   2.264   0.928
 8516SOL     OW26446   0.037   1.867   2.409
 8516SOL    HW126447   0.013   1.826   2.321
 8516SOL    HW226448   6.979   1.869   2.468
 8517SOL     OW26449   0.640   2.594   5.744
 8517SOL    HW126450   0.684   2.596   5.655
 8517SOL    HW226451   0.705   2.625   5.814
 8518SOL     OW26452   4.208   4.316   0.409
 8518SOL    HW126453   4.154   4.385   0.363
 8518SOL    HW226454   4.181   4.225   0.377
 8519SOL     OW26455   1.758   5.767   1.919
 8519SOL    HW126456   1.793   5.771   1.825
 8519SOL    HW226457   1.705   5.850   1.938
 8520SOL     OW26458   3.840   1.127   0.647
 8520SOL    HW126459   3.800   1.067   0.578
 8520SOL    HW226460   3.854   1.218   0.608
 8521SOL     OW26461   1.954   5.584   5.310
 8521SOL    HW126462   1.903   5.510   5.265
 8521SOL    HW226463   1.893   5.635   5.370
 8522SOL     OW26464   1.406   5.367   2.035
 8522SOL    HW126465   1.493   5.327   2.063
 8522SOL    HW226466   1.371   5.318   1.955
 8523SOL     OW26467   2.773   0.143   6.168
 8523SOL    HW126468   2.835   0.093   6.228
 8523SOL    HW226469   2.695   0.175   6.220
 8524SOL     OW26470   1.176   2.797   4.481
 8524SOL    HW126471   1.241   2.855   4.432
 8524SOL    HW226472   1.221   2.757   4.561
 8525SOL     OW26473   6.245   3.838   3.083
 8525SOL    HW126474   6.278   3.767   3.145
 8525SOL    HW226475   6.266   3.811   2.989
 8526SOL     OW26476   2.645   3.676   1.576
 8526SOL    HW126477   2.648   3.756   1.636
 8526SOL    HW226478   2.656   3.593   1.630
 8527SOL     OW26479   4.008   0.344   4.939
 8527SOL    HW126480   3.976   0.272   4.877
 8527SOL    HW226481   4.094   0.317   4.981
 8528SOL     OW26482   5.022   3.575   5.789
 8528SOL    HW126483   4.981   3.574   5.880
 8528SOL    HW226484   5.032   3.669   5.757
 8529SOL     OW26485   1.217   6.734   0.101
 8529SOL    HW126486   1.128   6.706   0.065
 8529SOL    HW226487   1.223   6.834   0.101
 8530SOL     OW26488   0.843   4.867   5.419
 8530SOL    HW126489   0.937   4.854   5.388
 8530SOL    HW226490   0.803   4.778   5.442
 8531SOL     OW26491   5.500   4.053   3.422
 8531SOL    HW126492   5.465   4.146   3.414
 8531SOL    HW226493   5.570   4.037   3.352
 8532SOL     OW26494   4.252   4.773   4.920
 8532SOL    HW126495   4.189   4.789   4.995
 8532SOL    HW226496   4.293   4.682   4.930
 8533SOL     OW26497   2.141   0.781   5.559
 8533SOL    HW126498   2.069   0.773   5.629
 8533SOL    HW226499   2.102   0.822   5.476
 8534SOL     OW26500   0.083   5.049   2.561
 8534SOL    HW126501   0.068   5.136   2.514
 8534SOL    HW226502   0.008   5.032   2.625
 8535SOL     OW26503   0.919   1.960   4.717
 8535SOL    HW126504   0.957   1.894   4.653
 8535SOL    HW226505   0.973   2.045   4.713
 8536SOL     OW26506   6.068   2.839   4.887
 8536SOL    HW126507   6.087   2.769   4.956
 8536SOL    HW226508   6.135   2.832   4.813
 8537SOL     OW26509   5.922   1.343   0.906
 8537SOL    HW126510   5.993   1.280   0.874
 8537SOL    HW226511   5.923   1.346   1.006
 8538SOL     OW26512   0.634   0.653   5.067
 8538SOL    HW126513   0.651   0.667   4.969
 8538SOL    HW226514   0.538   0.629   5.081
 8539SOL     OW26515   6.248   2.537   2.505
 8539SOL    HW126516   6.224   2.617   2.450
 8539SOL    HW226517   6.312   2.564   2.577
 8540SOL     OW26518   3.785   1.681   0.758
 8540SOL    HW126519   3.851   1.713   0.825
 8540SOL    HW226520   3.697   1.725   0.774
 8541SOL     OW26521   2.759   1.263   5.428
 8541SOL    HW126522   2.815   1.320   5.368
 8541SOL    HW226523   2.810   1.243   5.512
 8542SOL     OW26524   3.511   4.313   6.485
 8542SOL    HW126525   3.542   4.407   6.500
 8542SOL    HW226526   3.590   4.252   6.481
 8543SOL     OW26527   2.572   1.679   5.223
 8543SOL    HW126528   2.494   1.711   5.278
 8543SOL    HW226529   2.555   1.701   5.127
 8544SOL     OW26530   5.297   3.338   5.240
 8544SOL    HW126531   5.237   3.389   5.302
 8544SOL    HW226532   5.252   3.325   5.152
 8545SOL     OW26533   3.255   0.086   4.859
 8545SOL    HW126534   3.315   0.166   4.863
 8545SOL    HW226535   3.186   0.099   4.788
 8546SOL     OW26536   5.267   0.662   1.200
 8546SOL    HW126537   5.205   0.633   1.127
 8546SOL    HW226538   5.241   0.754   1.230
 8547SOL     OW26539   6.743   0.364   5.430
 8547SOL    HW126540   6.808   0.331   5.362
 8547SOL    HW226541   6.765   0.324   5.519
 8548SOL     OW26542   0.540   3.002   5.467
 8548SOL    HW126543   0.524   3.099   5.449
 8548SOL    HW226544   0.550   2.953   5.380
 8549SOL     OW26545   0.851   2.016   3.924
 8549SOL    HW126546   0.926   2.028   3.858
 8549SOL    HW226547   0.807   2.104   3.941
 8550SOL     OW26548   0.560   3.982   6.332
 8550SOL    HW126549   0.630   3.911   6.328
 8550SOL    HW226550   0.492   3.956   6.401
 8551SOL     OW26551   2.020   2.235   6.903
 8551SOL    HW126552   2.064   2.163   6.957
 8551SOL    HW226553   1.956   2.286   6.960
 8552SOL     OW26554   3.324   0.478   2.285
 8552SOL    HW126555   3.351   0.499   2.191
 8552SOL    HW226556   3.393   0.419   2.327
 8553SOL     OW26557   3.702   4.136   0.163
 8553SOL    HW126558   3.715   4.208   0.094
 8553SOL    HW226559   3.751   4.054   0.134
 8554SOL     OW26560   0.719   6.701   1.238
 8554SOL    HW126561   0.804   6.734   1.199
 8554SOL    HW226562   0.671   6.778   1.282
 8555SOL     OW26563   4.285   2.041   3.013
 8555SOL    HW126564   4.196   2.044   3.058
 8555SOL    HW226565   4.354   2.008   3.077
 8556SOL     OW26566   1.325   6.144   5.823
 8556SOL    HW126567   1.358   6.222   5.876
 8556SOL    HW226568   1.390   6.123   5.750
 8557SOL     OW26569   6.710   0.754   0.941
 8557SOL    HW126570   6.668   0.828   0.889
 8557SOL    HW226571   6.786   0.790   0.995
 8558SOL     OW26572   2.075   4.641   3.290
 8558SOL    HW126573   2.099   4.620   3.196
 8558SOL    HW226574   2.041   4.735   3.295
 8559SOL     OW26575   0.925   6.744   3.071
 8559SOL    HW126576   0.994   6.775   3.136
 8559SOL    HW226577   0.847   6.706   3.121
 8560SOL     OW26578   1.139   5.469   1.540
 8560SOL    HW126579   1.152   5.518   1.626
 8560SOL    HW226580   1.041   5.462   1.520
 8561SOL     OW26581   4.056   0.085   3.169
 8561SOL    HW126582   3.974   0.074   3.114
 8561SOL    HW226583   4.136   0.090   3.109
 8562SOL     OW26584   4.035   0.664   6.844
 8562SOL    HW126585   4.052   0.633   6.937
 8562SOL    HW226586   4.047   0.763   6.838
 8563SOL     OW26587   1.345   5.956   2.136
 8563SOL    HW126588   1.383   6.047   2.155
 8563SOL    HW226589   1.415   5.887   2.151
 8564SOL     OW26590   3.714   5.782   6.437
 8564SOL    HW126591   3.679   5.714   6.372
 8564SOL    HW226592   3.810   5.762   6.457
 8565SOL     OW26593   3.654   5.278   1.268
 8565SOL    HW126594   3.664   5.218   1.189
 8565SOL    HW226595   3.741   5.322   1.288
 8566SOL     OW26596   2.597   0.687   2.729
 8566SOL    HW126597   2.571   0.758   2.664
 8566SOL    HW226598   2.522   0.672   2.794
 8567SOL     OW26599   1.615   2.188   1.958
 8567SOL    HW126600   1.644   2.129   1.882
 8567SOL    HW226601   1.582   2.275   1.922
 8568SOL     OW26602   6.887   1.418   0.235
 8568SOL    HW126603   6.874   1.359   0.156
 8568SOL    HW226604   6.819   1.492   0.233
 8569SOL     OW26605   4.773   1.983   6.004
 8569SOL    HW126606   4.713   1.960   5.927
 8569SOL    HW226607   4.771   2.082   6.019
 8570SOL     OW26608   1.730   1.539   4.446
 8570SOL    HW126609   1.740   1.638   4.434
 8570SOL    HW226610   1.633   1.514   4.443
 8571SOL     OW26611   1.141   1.087   4.568
 8571SOL    HW126612   1.127   1.173   4.618
 8571SOL    HW226613   1.199   1.026   4.622
 8572SOL     OW26614   2.204   4.215   5.803
 8572SOL    HW126615   2.246   4.124   5.799
 8572SOL    HW226616   2.152   4.231   5.720
 8573SOL     OW26617   2.788   6.274   7.004
 8573SOL    HW126618   2.805   6.341   6.931
 8573SOL    HW226619   2.832   6.187   6.980
 8574SOL     OW26620   6.181   6.811   5.983
 8574SOL    HW126621   6.249   6.883   5.995
 8574SOL    HW226622   6.212   6.749   5.911
 8575SOL     OW26623   3.500   0.885   2.278
 8575SOL    HW126624   3.466   0.792   2.268
 8575SOL    HW226625   3.463   0.925   2.362
 8576SOL     OW26626   1.406   4.458   4.311
 8576SOL    HW126627   1.389   4.363   4.283
 8576SOL    HW226628   1.504   4.470   4.331
 8577SOL     OW26629   1.603   0.836   5.832
 8577SOL    HW126630   1.628   0.932   5.848
 8577SOL    HW226631   1.670   0.776   5.873
 8578SOL     OW26632   6.107   5.872   5.893
 8578SOL    HW126633   6.140   5.909   5.980
 8578SOL    HW226634   6.164   5.795   5.866
 8579SOL     OW26635   1.925   6.260   2.229
 8579SOL    HW126636   2.015   6.265   2.186
 8579SOL    HW226637   1.925   6.188   2.298
 8580SOL     OW26638   1.183   6.699   0.697
 8580SOL    HW126639   1.247   6.655   0.633
 8580SOL    HW226640   1.205   6.796   0.706
 8581SOL     OW26641   3.902   4.968   1.278
 8581SOL    HW126642   3.838   5.007   1.212
 8581SOL    HW226643   3.921   4.873   1.253
 8582SOL     OW26644   4.784   4.574   5.526
 8582SOL    HW126645   4.754   4.493   5.475
 8582SOL    HW226646   4.735   4.654   5.493
 8583SOL     OW26647   3.914   6.872   3.369
 8583SOL    HW126648   3.980   6.799   3.385
 8583SOL    HW226649   3.952   6.939   3.305
 8584SOL     OW26650   0.069   0.273   4.963
 8584SOL    HW126651   0.041   0.369   4.961
 8584SOL    HW226652   0.010   0.220   4.903
 8585SOL     OW26653   5.652   1.403   0.826
 8585SOL    HW126654   5.640   1.326   0.763
 8585SOL    HW226655   5.737   1.392   0.876
 8586SOL     OW26656   4.725   6.562   1.305
 8586SOL    HW126657   4.773   6.599   1.384
 8586SOL    HW226658   4.660   6.492   1.336
 8587SOL     OW26659   1.092   1.281   4.758
 8587SOL    HW126660   1.026   1.350   4.727
 8587SOL    HW226661   1.050   1.223   4.827
 8588SOL     OW26662   4.229   1.125   6.901
 8588SOL    HW126663   4.311   1.120   6.957
 8588SOL    HW226664   4.209   1.221   6.879
 8589SOL     OW26665   6.801   2.867   5.055
 8589SOL    HW126666   6.890   2.839   5.021
 8589SOL    HW226667   6.729   2.818   5.006
 8590SOL     OW26668   0.062   0.401   2.727
 8590SOL    HW126669   0.103   0.388   2.818
 8590SOL    HW226670   0.115   0.350   2.659
 8591SOL     OW26671   6.818   4.525   0.256
 8591SOL    HW126672   6.901   4.472   0.274
 8591SOL    HW226673   6.747   4.464   0.221
 8592SOL     OW26674   0.006   2.917   0.021
 8592SOL    HW126675   0.009   3.004   0.070
 8592SOL    HW226676   0.057   2.925   6.959
 8593SOL     OW26677   3.461   1.037   6.870
 8593SOL    HW126678   3.557   1.024   6.847
 8593SOL    HW226679   3.406   1.036   6.787
 8594SOL     OW26680   6.424   2.851   5.814
 8594SOL    HW126681   6.520   2.828   5.831
 8594SOL    HW226682   6.413   2.950   5.809
 8595SOL     OW26683   5.907   0.650   3.744
 8595SOL    HW126684   5.924   0.709   3.665
 8595SOL    HW226685   5.900   0.706   3.826
 8596SOL     OW26686   1.241   4.071   3.262
 8596SOL    HW126687   1.247   4.013   3.181
 8596SOL    HW226688   1.176   4.031   3.327
 8597SOL     OW26689   5.738   2.132   0.826
 8597SOL    HW126690   5.720   2.069   0.901
 8597SOL    HW226691   5.822   2.104   0.779
 8598SOL     OW26692   5.380   0.387   5.646
 8598SOL    HW126693   5.293   0.421   5.682
 8598SOL    HW226694   5.453   0.407   5.711
 8599SOL     OW26695   1.042   2.780   4.188
 8599SOL    HW126696   1.051   2.861   4.128
 8599SOL    HW226697   1.132   2.738   4.200
 8600SOL     OW26698   5.100   3.831   0.548
 8600SOL    HW126699   5.009   3.842   0.510
 8600SOL    HW226700   5.164   3.807   0.476
 8601SOL     OW26701   6.966   1.173   3.829
 8601SOL    HW126702   6.958   1.125   3.917
 8601SOL    HW226703   6.991   1.268   3.845
 8602SOL     OW26704   2.368   6.348   3.075
 8602SOL    HW126705   2.289   6.387   3.123
 8602SOL    HW226706   2.355   6.359   2.976
 8603SOL     OW26707   5.613   0.991   6.503
 8603SOL    HW126708   5.612   1.049   6.585
 8603SOL    HW226709   5.686   1.022   6.442
 8604SOL     OW26710   0.568   2.487   6.205
 8604SOL    HW126711   0.654   2.441   6.182
 8604SOL    HW226712   0.577   2.585   6.184
 8605SOL     OW26713   1.152   4.278   4.094
 8605SOL    HW126714   1.190   4.358   4.049
 8605SOL    HW226715   1.053   4.291   4.107
 8606SOL     OW26716   2.955   1.738   0.133
 8606SOL    HW126717   2.873   1.781   0.095
 8606SOL    HW226718   3.011   1.703   0.058
 8607SOL     OW26719   2.429   5.005   0.003
 8607SOL    HW126720   2.348   4.966   6.983
 8607SOL    HW226721   2.511   4.965   6.986
 8608SOL     OW26722   2.228   4.940   2.100
 8608SOL    HW126723   2.305   4.887   2.066
 8608SOL    HW226724   2.259   5.033   2.122
 8609SOL     OW26725   5.033   0.697   4.052
 8609SOL    HW126726   4.956   0.634   4.052
 8609SOL    HW226727   5.023   0.760   3.975
 8610SOL     OW26728   0.056   6.805   3.357
 8610SOL    HW126729   0.096   6.718   3.329
 8610SOL    HW226730   0.115   6.880   3.330
 8611SOL     OW26731   2.685   1.463   4.041
 8611SOL    HW126732   2.751   1.527   4.080
 8611SOL    HW226733   2.609   1.513   4.000
 8612SOL     OW26734   2.955   3.463   1.645
 8612SOL    HW126735   2.896   3.464   1.726
 8612SOL    HW226736   2.979   3.368   1.624
 8613SOL     OW26737   2.643   2.441   1.886
 8613SOL    HW126738   2.734   2.436   1.926
 8613SOL    HW226739   2.584   2.373   1.929
 8614SOL     OW26740   1.446   2.164   3.242
 8614SOL    HW126741   1.387   2.106   3.185
 8614SOL    HW226742   1.500   2.106   3.304
 8615SOL     OW26743   4.803   1.649   5.110
 8615SOL    HW126744   4.817   1.721   5.178
 8615SOL    HW226745   4.734   1.677   5.044
 8616SOL     OW26746   2.363   4.691   1.682
 8616SOL    HW126747   2.393   4.784   1.661
 8616SOL    HW226748   2.432   4.644   1.736
 8617SOL     OW26749   5.645   0.806   3.941
 8617SOL    HW126750   5.742   0.796   3.964
 8617SOL    HW226751   5.636   0.850   3.852
 8618SOL     OW26752   6.533   4.112   0.647
 8618SOL    HW126753   6.608   4.047   0.664
 8618SOL    HW226754   6.475   4.116   0.727
 8619SOL     OW26755   4.602   5.115   3.227
 8619SOL    HW126756   4.676   5.180   3.208
 8619SOL    HW226757   4.577   5.120   3.323
 8620SOL     OW26758   1.816   0.263   4.746
 8620SOL    HW126759   1.871   0.189   4.783
 8620SOL    HW226760   1.823   0.343   4.806
 8621SOL     OW26761   4.829   2.982   2.209
 8621SOL    HW126762   4.827   2.886   2.240
 8621SOL    HW226763   4.787   2.988   2.118
 8622SOL     OW26764   5.918   5.188   1.533
 8622SOL    HW126765   5.926   5.096   1.495
 8622SOL    HW226766   6.009   5.222   1.555
 8623SOL     OW26767   0.766   3.773   4.950
 8623SOL    HW126768   0.831   3.704   4.984
 8623SOL    HW226769   0.752   3.843   5.021
 8624SOL     OW26770   3.524   3.627   6.190
 8624SOL    HW126771   3.563   3.570   6.118
 8624SOL    HW226772   3.464   3.696   6.148
 8625SOL     OW26773   4.412   0.973   6.419
 8625SOL    HW126774   4.335   1.015   6.468
 8625SOL    HW226775   4.413   0.874   6.437
 8626SOL     OW26776   3.658   3.170   6.847
 8626SOL    HW126777   3.701   3.251   6.886
 8626SOL    HW226778   3.564   3.163   6.882
 8627SOL     OW26779   2.450   1.572   2.607
 8627SOL    HW126780   2.438   1.662   2.565
 8627SOL    HW226781   2.440   1.501   2.537
 8628SOL     OW26782   6.274   0.328   0.193
 8628SOL    HW126783   6.282   0.294   0.286
 8628SOL    HW226784   6.360   0.311   0.144
 8629SOL     OW26785   1.003   6.348   5.310
 8629SOL    HW126786   0.906   6.333   5.330
 8629SOL    HW226787   1.014   6.428   5.251
 8630SOL     OW26788   4.862   3.771   3.816
 8630SOL    HW126789   4.854   3.715   3.734
 8630SOL    HW226790   4.947   3.748   3.864
 8631SOL     OW26791   1.107   6.169   6.182
 8631SOL    HW126792   1.037   6.112   6.224
 8631SOL    HW226793   1.073   6.206   6.096
 8632SOL     OW26794   4.007   4.145   5.236
 8632SOL    HW126795   3.945   4.103   5.302
 8632SOL    HW226796   3.967   4.230   5.202
 8633SOL     OW26797   5.954   3.550   5.761
 8633SOL    HW126798   5.877   3.544   5.698
 8633SOL    HW226799   5.919   3.551   5.855
 8634SOL     OW26800   5.240   4.888   0.097
 8634SOL    HW126801   5.186   4.958   0.143
 8634SOL    HW226802   5.233   4.802   0.147
 8635SOL     OW26803   6.082   2.309   6.598
 8635SOL    HW126804   6.056   2.358   6.515
 8635SOL    HW226805   6.002   2.298   6.656
 8636SOL     OW26806   4.342   5.859   0.558
 8636SOL    HW126807   4.287   5.790   0.605
 8636SOL    HW226808   4.426   5.818   0.524
 8637SOL     OW26809   2.127   1.288   6.074
 8637SOL    HW126810   2.031   1.309   6.051
 8637SOL    HW226811   2.187   1.334   6.009
 8638SOL     OW26812   3.929   2.508   5.431
 8638SOL    HW126813   3.975   2.541   5.349
 8638SOL    HW226814   3.858   2.443   5.406
 8639SOL     OW26815   4.351   3.973   7.003
 8639SOL    HW126816   4.352   3.917   0.063
 8639SOL    HW226817   4.281   3.938   6.941
 8640SOL     OW26818   4.138   3.423   0.926
 8640SOL    HW126819   4.117   3.501   0.986
 8640SOL    HW226820   4.115   3.338   0.973
 8641SOL     OW26821   4.215   4.803   4.200
 8641SOL    HW126822   4.155   4.880   4.177
 8641SOL    HW226823   4.278   4.786   4.124
 8642SOL     OW26824   0.588   6.920   3.232
 8642SOL    HW126825   0.518   6.957   3.293
 8642SOL    HW226826   0.622   6.833   3.269
 8643SOL     OW26827   2.031   0.364   0.408
 8643SOL    HW126828   2.095   0.430   0.446
 8643SOL    HW226829   2.082   0.282   0.378
 8644SOL     OW26830   6.538   2.607   6.477
 8644SOL    HW126831   6.448   2.565   6.485
 8644SOL    HW226832   6.604   2.540   6.445
 8645SOL     OW26833   4.796   5.484   1.695
 8645SOL    HW126834   4.872   5.439   1.742
 8645SOL    HW226835   4.817   5.494   1.598
 8646SOL     OW26836   0.611   2.013   7.021
 8646SOL    HW126837   0.561   2.073   6.959
 8646SOL    HW226838   0.621   2.058   0.087
 8647SOL     OW26839   2.625   5.438   0.420
 8647SOL    HW126840   2.678   5.354   0.431
 8647SOL    HW226841   2.598   5.449   0.325
 8648SOL     OW26842   6.210   6.111   1.088
 8648SOL    HW126843   6.162   6.117   1.175
 8648SOL    HW226844   6.302   6.151   1.097
 8649SOL     OW26845   5.503   6.640   0.305
 8649SOL    HW126846   5.584   6.649   0.247
 8649SOL    HW226847   5.448   6.562   0.274
 8650SOL     OW26848   1.713   6.717   4.500
 8650SOL    HW126849   1.745   6.693   4.409
 8650SOL    HW226850   1.778   6.781   4.542
 8651SOL     OW26851   2.936   1.559   0.996
 8651SOL    HW126852   2.903   1.647   0.961
 8651SOL    HW226853   3.029   1.569   1.030
 8652SOL     OW26854   1.160   4.659   3.648
 8652SOL    HW126855   1.230   4.588   3.642
 8652SOL    HW226856   1.130   4.684   3.556
 8653SOL     OW26857   6.758   1.653   5.356
 8653SOL    HW126858   6.706   1.661   5.442
 8653SOL    HW226859   6.696   1.631   5.281
 8654SOL     OW26860   0.913   4.756   1.012
 8654SOL    HW126861   0.829   4.800   1.044
 8654SOL    HW226862   0.919   4.766   0.912
 8655SOL     OW26863   5.923   0.882   5.403
 8655SOL    HW126864   5.897   0.789   5.379
 8655SOL    HW226865   5.970   0.925   5.326
 8656SOL     OW26866   5.573   0.719   2.064
 8656SOL    HW126867   5.506   0.771   2.009
 8656SOL    HW226868   5.660   0.768   2.065
 8657SOL     OW26869   5.590   5.839   0.155
 8657SOL    HW126870   5.596   5.936   0.178
 8657SOL    HW226871   5.563   5.787   0.236
 8658SOL     OW26872   6.213   5.609   1.030
 8658SOL    HW126873   6.227   5.674   1.105
 8658SOL    HW226874   6.196   5.660   0.946
 8659SOL     OW26875   4.509   2.397   2.711
 8659SOL    HW126876   4.451   2.330   2.664
 8659SOL    HW226877   4.504   2.381   2.810
 8660SOL     OW26878   6.975   2.549   2.460
 8660SOL    HW126879   0.048   2.567   2.482
 8660SOL    HW226880   6.927   2.521   2.543
 8661SOL     OW26881   5.657   4.015   2.097
 8661SOL    HW126882   5.593   3.991   2.024
 8661SOL    HW226883   5.697   3.931   2.135
 8662SOL     OW26884   3.757   6.231   2.318
 8662SOL    HW126885   3.784   6.327   2.312
 8662SOL    HW226886   3.801   6.188   2.396
 8663SOL     OW26887   2.598   5.049   2.469
 8663SOL    HW126888   2.649   5.058   2.555
 8663SOL    HW226889   2.560   5.138   2.443
 8664SOL     OW26890   2.499   5.341   2.728
 8664SOL    HW126891   2.489   5.244   2.748
 8664SOL    HW226892   2.586   5.357   2.682
 8665SOL     OW26893   6.268   5.919   4.429
 8665SOL    HW126894   6.213   5.951   4.351
 8665SOL    HW226895   6.265   5.819   4.433
 8666SOL     OW26896   5.774   0.754   4.465
 8666SOL    HW126897   5.700   0.814   4.498
 8666SOL    HW226898   5.737   0.689   4.399
 8667SOL     OW26899   5.321   1.469   4.623
 8667SOL    HW126900   5.284   1.394   4.678
 8667SOL    HW226901   5.416   1.487   4.650
 8668SOL     OW26902   5.181   3.005   5.066
 8668SOL    HW126903   5.274   2.968   5.063
 8668SOL    HW226904   5.154   3.019   5.161
 8669SOL     OW26905   6.847   6.413   6.142
 8669SOL    HW126906   6.763   6.455   6.175
 8669SOL    HW226907   6.834   6.314   6.134
 8670SOL     OW26908   4.754   5.135   5.868
 8670SOL    HW126909   4.821   5.192   5.819
 8670SOL    HW226910   4.777   5.039   5.855
 8671SOL     OW26911   0.885   1.656   2.439
 8671SOL    HW126912   0.910   1.706   2.356
 8671SOL    HW226913   0.789   1.674   2.461
 8672SOL     OW26914   0.853   0.420   3.709
 8672SOL    HW126915   0.850   0.488   3.782
 8672SOL    HW226916   0.772   0.429   3.651
 8673SOL     OW26917   6.846   1.651   6.861
 8673SOL    HW126918   6.749   1.660   6.840
 8673SOL    HW226919   6.879   1.734   6.904
 8674SOL     OW26920   6.643   4.523   2.999
 8674SOL    HW126921   6.711   4.452   3.015
 8674SOL    HW226922   6.688   4.602   2.956
 8675SOL     OW26923   4.198   1.116   5.473
 8675SOL    HW126924   4.099   1.121   5.456
 8675SOL    HW226925   4.223   1.021   5.492
 8676SOL     OW26926   5.224   0.901   1.326
 8676SOL    HW126927   5.191   0.953   1.246
 8676SOL    HW226928   5.164   0.918   1.404
 8677SOL     OW26929   1.803   5.805   5.877
 8677SOL    HW126930   1.896   5.839   5.860
 8677SOL    HW226931   1.738   5.863   5.829
 8678SOL     OW26932   0.278   6.819   0.459
 8678SOL    HW126933   0.269   6.721   0.477
 8678SOL    HW226934   0.359   6.854   0.505
 8679SOL     OW26935   1.960   0.912   4.056
 8679SOL    HW126936   1.865   0.885   4.066
 8679SOL    HW226937   1.986   0.909   3.959
 8680SOL     OW26938   6.057   2.641   6.426
 8680SOL    HW126939   6.005   2.556   6.422
 8680SOL    HW226940   6.079   2.662   6.521
 8681SOL     OW26941   4.601   5.266   1.137
 8681SOL    HW126942   4.581   5.346   1.082
 8681SOL    HW226943   4.672   5.211   1.092
 8682SOL     OW26944   6.968   0.193   1.156
 8682SOL    HW126945   6.910   0.247   1.096
 8682SOL    HW226946   6.937   0.204   1.251
 8683SOL     OW26947   1.681   2.713   4.967
 8683SOL    HW126948   1.676   2.719   4.867
 8683SOL    HW226949   1.760   2.765   4.999
 8684SOL     OW26950   0.039   3.681   4.909
 8684SOL    HW126951   7.002   3.631   4.970
 8684SOL    HW226952   0.134   3.666   4.935
 8685SOL     OW26953   5.413   3.215   6.663
 8685SOL    HW126954   5.349   3.148   6.700
 8685SOL    HW226955   5.507   3.181   6.673
 8686SOL     OW26956   5.953   6.844   2.340
 8686SOL    HW126957   6.011   6.811   2.265
 8686SOL    HW226958   6.011   6.874   2.416
 8687SOL     OW26959   6.145   4.879   3.084
 8687SOL    HW126960   6.055   4.896   3.045
 8687SOL    HW226961   6.135   4.835   3.173
 8688SOL     OW26962   1.526   3.968   0.035
 8688SOL    HW126963   1.538   4.052   0.087
 8688SOL    HW226964   1.549   3.983   6.963
 8689SOL     OW26965   4.983   3.246   0.521
 8689SOL    HW126966   5.027   3.336   0.523
 8689SOL    HW226967   4.964   3.220   0.426
 8690SOL     OW26968   0.583   3.032   2.965
 8690SOL    HW126969   0.661   2.982   2.928
 8690SOL    HW226970   0.584   3.026   3.065
 8691SOL     OW26971   3.041   1.565   5.074
 8691SOL    HW126972   2.974   1.522   5.134
 8691SOL    HW226973   3.016   1.661   5.060
 8692SOL     OW26974   3.708   0.881   5.366
 8692SOL    HW126975   3.721   0.879   5.466
 8692SOL    HW226976   3.675   0.971   5.339
 8693SOL     OW26977   0.010   1.729   6.331
 8693SOL    HW126978   0.014   1.640   6.286
 8693SOL    HW226979   0.023   1.718   6.429
 8694SOL     OW26980   5.893   2.269   5.018
 8694SOL    HW126981   5.943   2.351   4.989
 8694SOL    HW226982   5.803   2.267   4.975
 8695SOL     OW26983   4.031   2.921   6.138
 8695SOL    HW126984   4.006   2.841   6.082
 8695SOL    HW226985   3.997   3.004   6.094
 8696SOL     OW26986   2.583   5.883   5.185
 8696SOL    HW126987   2.642   5.803   5.196
 8696SOL    HW226988   2.521   5.891   5.263
 8697SOL     OW26989   0.542   4.564   6.056
 8697SOL    HW126990   0.536   4.580   6.155
 8697SOL    HW226991   0.629   4.601   6.021
 8698SOL     OW26992   5.230   6.018   5.753
 8698SOL    HW126993   5.257   6.110   5.783
 8698SOL    HW226994   5.245   6.011   5.654
 8699SOL     OW26995   2.014   3.062   5.918
 8699SOL    HW126996   2.093   3.030   5.971
 8699SOL    HW226997   1.989   2.993   5.850
 8700SOL     OW26998   1.468   1.110   5.552
 8700SOL    HW126999   1.497   1.020   5.522
 8700SOL    HW227000   1.368   1.115   5.553
 8701SOL     OW27001   2.071   1.029   6.834
 8701SOL    HW127002   2.010   1.009   6.911
 8701SOL    HW227003   2.157   0.980   6.846
 8702SOL     OW27004   4.999   5.338   1.833
 8702SOL    HW127005   5.074   5.324   1.898
 8702SOL    HW227006   4.915   5.299   1.870
 8703SOL     OW27007   3.364   5.013   6.825
 8703SOL    HW127008   3.275   5.053   6.801
 8703SOL    HW227009   3.381   5.026   6.923
 8704SOL     OW27010   6.856   3.132   3.811
 8704SOL    HW127011   6.778   3.090   3.764
 8704SOL    HW227012   6.897   3.201   3.753
 8705SOL     OW27013   4.429   1.987   6.523
 8705SOL    HW127014   4.486   2.070   6.529
 8705SOL    HW227015   4.488   1.906   6.528
 8706SOL     OW27016   5.610   2.330   0.166
 8706SOL    HW127017   5.527   2.386   0.167
 8706SOL    HW227018   5.607   2.267   0.088
 8707SOL     OW27019   0.865   2.791   3.865
 8707SOL    HW127020   0.932   2.717   3.859
 8707SOL    HW227021   0.808   2.777   3.946
 8708SOL     OW27022   4.053   1.523   4.145
 8708SOL    HW127023   4.067   1.484   4.054
 8708SOL    HW227024   3.985   1.470   4.195
 8709SOL     OW27025   6.777   0.088   6.982
 8709SOL    HW127026   6.748   0.178   6.950
 8709SOL    HW227027   6.875   0.087   6.998
 8710SOL     OW27028   1.903   2.355   3.710
 8710SOL    HW127029   1.932   2.261   3.695
 8710SOL    HW227030   1.855   2.389   3.629
 8711SOL     OW27031   1.246   0.036   1.959
 8711SOL    HW127032   1.308   0.109   1.930
 8711SOL    HW227033   1.277   6.972   1.922
 8712SOL     OW27034   3.070   1.801   4.430
 8712SOL    HW127035   3.097   1.733   4.363
 8712SOL    HW227036   3.129   1.882   4.422
 8713SOL     OW27037   0.112   4.160   1.185
 8713SOL    HW127038   0.192   4.100   1.194
 8713SOL    HW227039   0.142   4.251   1.160
 8714SOL     OW27040   0.778   6.511   0.130
 8714SOL    HW127041   0.712   6.463   0.072
 8714SOL    HW227042   0.750   6.506   0.226
 8715SOL     OW27043   3.353   1.732   0.016
 8715SOL    HW127044   3.428   1.752   0.079
 8715SOL    HW227045   3.314   1.818   7.006
 8716SOL     OW27046   6.498   6.571   0.765
 8716SOL    HW127047   6.593   6.589   0.790
 8716SOL    HW227048   6.495   6.531   0.674
 8717SOL     OW27049   2.290   3.576   6.033
 8717SOL    HW127050   2.229   3.655   6.034
 8717SOL    HW227051   2.349   3.580   5.953
 8718SOL     OW27052   1.591   2.394   6.403
 8718SOL    HW127053   1.676   2.343   6.409
 8718SOL    HW227054   1.603   2.486   6.440
 8719SOL     OW27055   4.125   1.115   0.265
 8719SOL    HW127056   4.042   1.067   0.238
 8719SOL    HW227057   4.104   1.176   0.342
 8720SOL     OW27058   0.081   5.409   5.816
 8720SOL    HW127059   0.118   5.361   5.895
 8720SOL    HW227060   0.023   5.485   5.847
 8721SOL     OW27061   6.264   0.167   0.433
 8721SOL    HW127062   6.238   0.077   0.467
 8721SOL    HW227063   6.204   0.236   0.473
 8722SOL     OW27064   3.449   0.924   0.321
 8722SOL    HW127065   3.415   0.895   0.410
 8722SOL    HW227066   3.540   0.965   0.332
 8723SOL     OW27067   5.731   6.728   2.438
 8723SOL    HW127068   5.822   6.763   2.415
 8723SOL    HW227069   5.665   6.803   2.434
 8724SOL     OW27070   5.672   0.575   4.316
 8724SOL    HW127071   5.622   0.508   4.371
 8724SOL    HW227072   5.620   0.595   4.233
 8725SOL     OW27073   0.536   6.320   4.586
 8725SOL    HW127074   0.581   6.253   4.528
 8725SOL    HW227075   0.438   6.322   4.565
 8726SOL     OW27076   7.003   1.168   0.601
 8726SOL    HW127077   0.052   1.159   0.669
 8726SOL    HW227078   7.008   1.259   0.559
 8727SOL     OW27079   5.648   0.039   0.136
 8727SOL    HW127080   5.667   7.001   0.059
 8727SOL    HW227081   5.731   0.089   0.160
 8728SOL     OW27082   5.500   1.427   2.241
 8728SOL    HW127083   5.491   1.408   2.143
 8728SOL    HW227084   5.412   1.416   2.286
 8729SOL     OW27085   2.934   4.948   5.544
 8729SOL    HW127086   2.961   4.980   5.634
 8729SOL    HW227087   2.985   4.865   5.521
 8730SOL     OW27088   5.043   4.464   3.162
 8730SOL    HW127089   4.968   4.529   3.174
 8730SOL    HW227090   5.127   4.514   3.139
 8731SOL     OW27091   0.586   3.072   3.244
 8731SOL    HW127092   0.585   3.076   3.344
 8731SOL    HW227093   0.602   3.164   3.207
 8732SOL     OW27094   5.343   4.420   1.634
 8732SOL    HW127095   5.294   4.376   1.709
 8732SOL    HW227096   5.390   4.350   1.579
 8733SOL     OW27097   0.925   5.872   0.999
 8733SOL    HW127098   1.021   5.898   0.999
 8733SOL    HW227099   0.902   5.828   1.086
 8734SOL     OW27100   6.850   3.345   2.544
 8734SOL    HW127101   6.797   3.430   2.538
 8734SOL    HW227102   6.864   3.309   2.452
 8735SOL     OW27103   1.239   3.330   5.223
 8735SOL    HW127104   1.253   3.233   5.203
 8735SOL    HW227105   1.176   3.339   5.301
 8736SOL     OW27106   0.372   5.137   2.149
 8736SOL    HW127107   0.364   5.157   2.247
 8736SOL    HW227108   0.389   5.039   2.136
 8737SOL     OW27109   2.489   6.595   6.395
 8737SOL    HW127110   2.501   6.596   6.296
 8737SOL    HW227111   2.515   6.685   6.432
 8738SOL     OW27112   2.124   4.336   3.316
 8738SOL    HW127113   2.130   4.436   3.322
 8738SOL    HW227114   2.215   4.297   3.325
 8739SOL     OW27115   5.233   4.497   5.349
 8739SOL    HW127116   5.212   4.417   5.406
 8739SOL    HW227117   5.277   4.467   5.264
 8740SOL     OW27118   3.546   2.091   2.600
 8740SOL    HW127119   3.564   1.996   2.625
 8740SOL    HW227120   3.616   2.122   2.535
 8741SOL     OW27121   2.550   0.208   2.641
 8741SOL    HW127122   2.645   0.227   2.665
 8741SOL    HW227123   2.547   0.168   2.549
 8742SOL     OW27124   4.095   0.275   2.330
 8742SOL    HW127125   4.125   0.331   2.407
 8742SOL    HW227126   4.078   0.333   2.250
 8743SOL     OW27127   1.933   1.303   1.949
 8743SOL    HW127128   1.887   1.342   1.869
 8743SOL    HW227129   2.003   1.367   1.981
 8744SOL     OW27130   4.605   2.830   0.768
 8744SOL    HW127131   4.514   2.829   0.808
 8744SOL    HW227132   4.673   2.843   0.840
 8745SOL     OW27133   6.992   2.572   6.426
 8745SOL    HW127134   0.004   2.536   6.340
 8745SOL    HW227135   6.945   2.499   6.476
 8746SOL     OW27136   4.895   5.547   4.558
 8746SOL    HW127137   4.988   5.528   4.528
 8746SOL    HW227138   4.869   5.482   4.630
 8747SOL     OW27139   6.917   1.468   2.146
 8747SOL    HW127140   6.982   1.428   2.211
 8747SOL    HW227141   6.823   1.448   2.176
 8748SOL     OW27142   0.873   1.642   4.157
 8748SOL    HW127143   0.779   1.665   4.133
 8748SOL    HW227144   0.934   1.713   4.122
 8749SOL     OW27145   1.870   1.096   5.175
 8749SOL    HW127146   1.922   1.031   5.119
 8749SOL    HW227147   1.910   1.099   5.267
 8750SOL     OW27148   4.210   3.003   5.348
 8750SOL    HW127149   4.257   3.063   5.412
 8750SOL    HW227150   4.258   2.915   5.344
 8751SOL     OW27151   6.599   0.320   0.802
 8751SOL    HW127152   6.670   0.346   0.867
 8751SOL    HW227153   6.641   0.285   0.718
 8752SOL     OW27154   5.024   2.818   6.862
 8752SOL    HW127155   5.008   2.864   6.949
 8752SOL    HW227156   4.938   2.807   6.813
 8753SOL     OW27157   2.440   4.120   0.131
 8753SOL    HW127158   2.420   4.076   0.043
 8753SOL    HW227159   2.488   4.055   0.190
 8754SOL     OW27160   3.053   4.591   6.320
 8754SOL    HW127161   3.085   4.581   6.225
 8754SOL    HW227162   2.999   4.674   6.328
 8755SOL     OW27163   1.796   0.863   1.075
 8755SOL    HW127164   1.720   0.857   1.010
 8755SOL    HW227165   1.824   0.770   1.101
 8756SOL     OW27166   1.769   2.724   3.663
 8756SOL    HW127167   1.858   2.726   3.617
 8756SOL    HW227168   1.780   2.689   3.756
 8757SOL     OW27169   5.007   5.731   6.314
 8757SOL    HW127170   4.947   5.706   6.390
 8757SOL    HW227171   4.951   5.760   6.236
 8758SOL     OW27172   4.441   6.672   3.754
 8758SOL    HW127173   4.419   6.642   3.661
 8758SOL    HW227174   4.489   6.759   3.750
 8759SOL     OW27175   6.063   2.000   6.932
 8759SOL    HW127176   6.063   1.995   6.832
 8759SOL    HW227177   6.005   1.927   6.969
 8760SOL     OW27178   2.488   1.900   4.350
 8760SOL    HW127179   2.401   1.946   4.332
 8760SOL    HW227180   2.546   1.959   4.405
 8761SOL     OW27181   6.377   2.316   1.673
 8761SOL    HW127182   6.322   2.255   1.615
 8761SOL    HW227183   6.473   2.310   1.646
 8762SOL     OW27184   1.475   5.885   3.655
 8762SOL    HW127185   1.535   5.806   3.659
 8762SOL    HW227186   1.430   5.896   3.744
 8763SOL     OW27187   6.195   0.290   4.840
 8763SOL    HW127188   6.237   0.273   4.929
 8763SOL    HW227189   6.178   0.203   4.793
 8764SOL     OW27190   4.967   6.114   6.125
 8764SOL    HW127191   4.974   6.085   6.221
 8764SOL    HW227192   4.899   6.187   6.117
 8765SOL     OW27193   5.286   1.232   5.122
 8765SOL    HW127194   5.233   1.295   5.179
 8765SOL    HW227195   5.343   1.284   5.059
 8766SOL     OW27196   4.285   4.199   5.299
 8766SOL    HW127197   4.308   4.281   5.246
 8766SOL    HW227198   4.187   4.181   5.291
 8767SOL     OW27199   3.467   0.179   4.030
 8767SOL    HW127200   3.473   0.123   3.948
 8767SOL    HW227201   3.559   0.202   4.062
 8768SOL     OW27202   0.798   2.139   0.916
 8768SOL    HW127203   0.813   2.050   0.960
 8768SOL    HW227204   0.722   2.185   0.961
 8769SOL     OW27205   0.205   1.297   2.107
 8769SOL    HW127206   0.228   1.394   2.107
 8769SOL    HW227207   0.288   1.243   2.094
 8770SOL     OW27208   4.930   4.881   2.211
 8770SOL    HW127209   4.952   4.805   2.273
 8770SOL    HW227210   4.978   4.867   2.124
 8771SOL     OW27211   0.591   3.070   6.149
 8771SOL    HW127212   0.672   3.115   6.186
 8771SOL    HW227213   0.509   3.109   6.190
 8772SOL     OW27214   5.013   0.562   5.496
 8772SOL    HW127215   5.103   0.602   5.515
 8772SOL    HW227216   4.942   0.629   5.517
 8773SOL     OW27217   5.771   2.391   3.368
 8773SOL    HW127218   5.867   2.373   3.390
 8773SOL    HW227219   5.728   2.439   3.445
 8774SOL     OW27220   0.552   6.737   6.547
 8774SOL    HW127221   0.573   6.659   6.488
 8774SOL    HW227222   0.496   6.803   6.497
 8775SOL     OW27223   5.283   1.508   5.800
 8775SOL    HW127224   5.352   1.436   5.802
 8775SOL    HW227225   5.223   1.500   5.880
 8776SOL     OW27226   4.776   3.016   1.405
 8776SOL    HW127227   4.826   2.930   1.401
 8776SOL    HW227228   4.753   3.038   1.500
 8777SOL     OW27229   0.663   3.459   3.410
 8777SOL    HW127230   0.610   3.475   3.327
 8777SOL    HW227231   0.760   3.450   3.386
 8778SOL     OW27232   4.908   3.625   6.023
 8778SOL    HW127233   4.846   3.583   6.089
 8778SOL    HW227234   4.860   3.698   5.974
 8779SOL     OW27235   2.531   5.811   2.342
 8779SOL    HW127236   2.623   5.850   2.337
 8779SOL    HW227237   2.480   5.856   2.415
 8780SOL     OW27238   0.807   5.971   3.015
 8780SOL    HW127239   0.795   5.896   2.950
 8780SOL    HW227240   0.728   5.974   3.077
 8781SOL     OW27241   4.345   7.006   2.582
 8781SOL    HW127242   4.384   6.916   2.601
 8781SOL    HW227243   4.346   7.022   2.483
 8782SOL     OW27244   6.330   1.160   1.849
 8782SOL    HW127245   6.349   1.074   1.895
 8782SOL    HW227246   6.234   1.162   1.821
 8783SOL     OW27247   6.285   3.732   4.125
 8783SOL    HW127248   6.261   3.649   4.076
 8783SOL    HW227249   6.225   3.743   4.204
 8784SOL     OW27250   6.401   6.343   0.924
 8784SOL    HW127251   6.430   6.433   0.891
 8784SOL    HW227252   6.424   6.273   0.857
 8785SOL     OW27253   0.351   5.273   5.936
 8785SOL    HW127254   0.391   5.356   5.895
 8785SOL    HW227255   0.329   5.208   5.864
 8786SOL     OW27256   3.819   1.762   2.453
 8786SOL    HW127257   3.873   1.839   2.419
 8786SOL    HW227258   3.751   1.735   2.385
 8787SOL     OW27259   3.520   0.545   1.992
 8787SOL    HW127260   3.525   0.446   1.999
 8787SOL    HW227261   3.540   0.573   1.898
 8788SOL     OW27262   6.639   0.910   5.046
 8788SOL    HW127263   6.555   0.856   5.039
 8788SOL    HW227264   6.622   0.991   5.102
 8789SOL     OW27265   6.617   3.986   5.417
 8789SOL    HW127266   6.637   4.059   5.351
 8789SOL    HW227267   6.521   3.989   5.442
 8790SOL     OW27268   6.353   1.727   0.025
 8790SOL    HW127269   6.448   1.741   7.021
 8790SOL    HW227270   6.305   1.674   6.979
 8791SOL     OW27271   4.788   6.600   4.880
 8791SOL    HW127272   4.757   6.551   4.961
 8791SOL    HW227273   4.885   6.622   4.890
 8792SOL     OW27274   3.261   4.986   2.676
 8792SOL    HW127275   3.164   5.006   2.665
 8792SOL    HW227276   3.272   4.904   2.732
 8793SOL     OW27277   0.964   5.047   3.985
 8793SOL    HW127278   1.026   5.024   3.911
 8793SOL    HW227279   1.009   5.112   4.047
 8794SOL     OW27280   6.360   1.089   3.519
 8794SOL    HW127281   6.297   1.075   3.442
 8794SOL    HW227282   6.314   1.066   3.604
 8795SOL     OW27283   0.927   5.153   5.189
 8795SOL    HW127284   0.994   5.081   5.172
 8795SOL    HW227285   0.891   5.144   5.282
 8796SOL     OW27286   5.802   3.612   3.533
 8796SOL    HW127287   5.729   3.679   3.519
 8796SOL    HW227288   5.762   3.523   3.553
 8797SOL     OW27289   6.951   0.063   4.305
 8797SOL    HW127290   7.019   0.025   4.368
 8797SOL    HW227291   6.972   0.160   4.289
 8798SOL     OW27292   4.640   6.657   5.693
 8798SOL    HW127293   4.638   6.665   5.793
 8798SOL    HW227294   4.621   6.562   5.666
 8799SOL     OW27295   2.665   4.623   2.442
 8799SOL    HW127296   2.719   4.703   2.417
 8799SOL    HW227297   2.624   4.584   2.360
 8800SOL     OW27298   5.923   5.958   5.652
 8800SOL    HW127299   5.971   5.946   5.739
 8800SOL    HW227300   5.913   5.870   5.607
 8801SOL     OW27301   5.961   1.973   5.049
 8801SOL    HW127302   5.913   1.938   5.130
 8801SOL    HW227303   5.944   2.071   5.040
 8802SOL     OW27304   1.558   5.799   5.641
 8802SOL    HW127305   1.543   5.898   5.642
 8802SOL    HW227306   1.470   5.752   5.636
 8803SOL     OW27307   0.127   1.268   0.176
 8803SOL    HW127308   0.133   1.189   0.237
 8803SOL    HW227309   0.044   1.321   0.197
 8804SOL     OW27310   1.716   6.321   1.149
 8804SOL    HW127311   1.751   6.414   1.145
 8804SOL    HW227312   1.759   6.266   1.077
 8805SOL     OW27313   4.087   5.463   3.746
 8805SOL    HW127314   4.154   5.522   3.791
 8805SOL    HW227315   4.068   5.499   3.655
 8806SOL     OW27316   2.400   5.430   0.848
 8806SOL    HW127317   2.485   5.476   0.874
 8806SOL    HW227318   2.411   5.331   0.857
 8807SOL     OW27319   4.289   2.135   0.122
 8807SOL    HW127320   4.261   2.078   0.044
 8807SOL    HW227321   4.348   2.082   0.183
 8808SOL     OW27322   0.529   2.345   6.674
 8808SOL    HW127323   0.552   2.397   6.756
 8808SOL    HW227324   0.613   2.324   6.623
 8809SOL     OW27325   2.354   4.226   3.108
 8809SOL    HW127326   2.401   4.310   3.080
 8809SOL    HW227327   2.365   4.213   3.206
 8810SOL     OW27328   5.685   1.353   5.360
 8810SOL    HW127329   5.660   1.260   5.332
 8810SOL    HW227330   5.784   1.356   5.378
 8811SOL     OW27331   4.180   0.408   2.545
 8811SOL    HW127332   4.111   0.479   2.561
 8811SOL    HW227333   4.269   0.441   2.577
 8812SOL     OW27334   3.147   0.314   6.508
 8812SOL    HW127335   3.218   0.307   6.577
 8812SOL    HW227336   3.122   0.410   6.495
 8813SOL     OW27337   2.166   4.495   2.583
 8813SOL    HW127338   2.225   4.570   2.553
 8813SOL    HW227339   2.214   4.408   2.568
 8814SOL     OW27340   5.131   6.885   0.393
 8814SOL    HW127341   5.169   6.927   0.311
 8814SOL    HW227342   5.202   6.878   0.463
 8815SOL     OW27343   5.440   0.142   1.517
 8815SOL    HW127344   5.364   0.090   1.558
 8815SOL    HW227345   5.502   0.172   1.588
 8816SOL     OW27346   0.120   6.822   6.868
 8816SOL    HW127347   0.148   6.744   6.923
 8816SOL    HW227348   0.165   6.819   6.779
 8817SOL     OW27349   0.734   3.431   4.205
 8817SOL    HW127350   0.787   3.489   4.267
 8817SOL    HW227351   0.727   3.475   4.116
 8818SOL     OW27352   1.498   6.694   2.858
 8818SOL    HW127353   1.400   6.717   2.865
 8818SOL    HW227354   1.514   6.605   2.899
 8819SOL     OW27355   6.218   4.507   4.966
 8819SOL    HW127356   6.152   4.483   4.895
 8819SOL    HW227357   6.278   4.580   4.932
 8820SOL     OW27358   3.084   1.414   4.595
 8820SOL    HW127359   3.033   1.469   4.660
 8820SOL    HW227360   3.172   1.457   4.576
 8821SOL     OW27361   0.876   5.424   6.837
 8821SOL    HW127362   0.830   5.494   6.892
 8821SOL    HW227363   0.974   5.445   6.833
 8822SOL     OW27364   0.132   0.393   3.000
 8822SOL    HW127365   0.138   0.485   3.038
 8822SOL    HW227366   0.169   0.327   3.065
 8823SOL     OW27367   2.163   0.495   2.391
 8823SOL    HW127368   2.181   0.406   2.350
 8823SOL    HW227369   2.101   0.547   2.332
 8824SOL     OW27370   1.387   0.489   1.256
 8824SOL    HW127371   1.477   0.531   1.255
 8824SOL    HW227372   1.335   0.522   1.335
 8825SOL     OW27373   0.431   0.634   1.792
 8825SOL    HW127374   0.408   0.644   1.696
 8825SOL    HW227375   0.437   0.536   1.815
 8826SOL     OW27376   0.923   3.480   1.257
 8826SOL    HW127377   0.868   3.525   1.327
 8826SOL    HW227378   0.964   3.397   1.294
 8827SOL     OW27379   3.785   0.181   2.816
 8827SOL    HW127380   3.827   0.270   2.835
 8827SOL    HW227381   3.694   0.195   2.776
 8828SOL     OW27382   3.881   4.666   6.282
 8828SOL    HW127383   3.882   4.567   6.295
 8828SOL    HW227384   3.806   4.707   6.334
 8829SOL     OW27385   6.219   1.531   1.973
 8829SOL    HW127386   6.288   1.532   1.901
 8829SOL    HW227387   6.136   1.487   1.939
 8830SOL     OW27388   1.790   1.359   2.501
 8830SOL    HW127389   1.694   1.331   2.489
 8830SOL    HW227390   1.803   1.449   2.460
 8831SOL     OW27391   6.182   3.349   2.422
 8831SOL    HW127392   6.163   3.275   2.357
 8831SOL    HW227393   6.243   3.415   2.379
 8832SOL     OW27394   6.951   6.303   4.207
 8832SOL    HW127395   6.870   6.348   4.168
 8832SOL    HW227396   0.008   6.325   4.151
 8833SOL     OW27397   3.850   3.918   0.131
 8833SOL    HW127398   3.901   3.834   0.112
 8833SOL    HW227399   3.910   3.985   0.173
 8834SOL     OW27400   6.198   3.367   4.778
 8834SOL    HW127401   6.124   3.309   4.812
 8834SOL    HW227402   6.270   3.310   4.738
 8835SOL     OW27403   5.959   1.446   6.113
 8835SOL    HW127404   5.998   1.409   6.197
 8835SOL    HW227405   5.911   1.531   6.133
 8836SOL     OW27406   5.626   2.393   0.721
 8836SOL    HW127407   5.696   2.354   0.780
 8836SOL    HW227408   5.667   2.457   0.656
 8837SOL     OW27409   6.991   0.633   1.875
 8837SOL    HW127410   6.988   0.666   1.970
 8837SOL    HW227411   6.911   0.574   1.859
 8838SOL     OW27412   0.504   4.622   2.259
 8838SOL    HW127413   0.452   4.635   2.344
 8838SOL    HW227414   0.579   4.558   2.275
 8839SOL     OW27415   4.580   5.877   2.324
 8839SOL    HW127416   4.648   5.862   2.252
 8839SOL    HW227417   4.587   5.971   2.357
 8840SOL     OW27418   5.987   0.298   2.016
 8840SOL    HW127419   5.963   0.213   2.064
 8840SOL    HW227420   6.086   0.308   2.014
 8841SOL     OW27421   5.029   1.305   2.985
 8841SOL    HW127422   4.976   1.368   2.928
 8841SOL    HW227423   5.008   1.323   3.081
 8842SOL     OW27424   3.323   4.172   3.909
 8842SOL    HW127425   3.261   4.129   3.843
 8842SOL    HW227426   3.287   4.262   3.933
 8843SOL     OW27427   1.800   3.174   4.689
 8843SOL    HW127428   1.816   3.136   4.780
 8843SOL    HW227429   1.733   3.118   4.641
 8844SOL     OW27430   6.745   1.679   4.967
 8844SOL    HW127431   6.829   1.631   4.993
 8844SOL    HW227432   6.769   1.762   4.917
 8845SOL     OW27433   2.548   5.029   0.399
 8845SOL    HW127434   2.552   5.083   0.483
 8845SOL    HW227435   2.487   5.074   0.334
 8846SOL     OW27436   5.631   4.969   4.432
 8846SOL    HW127437   5.582   5.054   4.448
 8846SOL    HW227438   5.578   4.912   4.368
 8847SOL     OW27439   1.671   0.576   2.645
 8847SOL    HW127440   1.625   0.639   2.707
 8847SOL    HW227441   1.672   0.614   2.553
 8848SOL     OW27442   3.057   2.135   2.153
 8848SOL    HW127443   3.088   2.067   2.086
 8848SOL    HW227444   2.999   2.202   2.107
 8849SOL     OW27445   3.141   4.874   3.823
 8849SOL    HW127446   3.167   4.909   3.913
 8849SOL    HW227447   3.209   4.904   3.756
 8850SOL     OW27448   2.858   1.157   1.047
 8850SOL    HW127449   2.845   1.068   1.091
 8850SOL    HW227450   2.931   1.206   1.093
 8851SOL     OW27451   1.030   4.490   2.462
 8851SOL    HW127452   0.975   4.455   2.387
 8851SOL    HW227453   1.064   4.581   2.439
 8852SOL     OW27454   4.901   3.255   6.325
 8852SOL    HW127455   5.000   3.264   6.335
 8852SOL    HW227456   4.875   3.267   6.230
 8853SOL     OW27457   3.705   0.210   4.159
 8853SOL    HW127458   3.762   0.230   4.079
 8853SOL    HW227459   3.685   0.295   4.207
 8854SOL     OW27460   2.232   0.668   6.394
 8854SOL    HW127461   2.298   0.736   6.361
 8854SOL    HW227462   2.198   0.695   6.484
 8855SOL     OW27463   6.563   6.123   0.197
 8855SOL    HW127464   6.554   6.105   0.295
 8855SOL    HW227465   6.659   6.135   0.174
 8856SOL     OW27466   6.438   6.792   5.461
 8856SOL    HW127467   6.343   6.812   5.487
 8856SOL    HW227468   6.441   6.709   5.407
 8857SOL     OW27469   6.349   1.555   3.720
 8857SOL    HW127470   6.314   1.646   3.699
 8857SOL    HW227471   6.348   1.499   3.637
 8858SOL     OW27472   2.243   3.240   5.846
 8858SOL    HW127473   2.155   3.202   5.873
 8858SOL    HW227474   2.231   3.300   5.767
 8859SOL     OW27475   0.349   0.029   5.480
 8859SOL    HW127476   0.413   0.026   5.404
 8859SOL    HW227477   0.390   7.007   5.560
 8860SOL     OW27478   1.660   3.821   2.852
 8860SOL    HW127479   1.693   3.749   2.913
 8860SOL    HW227480   1.652   3.907   2.903
 8861SOL     OW27481   2.554   2.466   6.430
 8861SOL    HW127482   2.527   2.411   6.509
 8861SOL    HW227483   2.500   2.439   6.350
 8862SOL     OW27484   5.967   1.223   3.490
 8862SOL    HW127485   5.987   1.321   3.494
 8862SOL    HW227486   6.049   1.173   3.463
 8863SOL     OW27487   1.541   5.367   4.673
 8863SOL    HW127488   1.500   5.446   4.719
 8863SOL    HW227489   1.605   5.398   4.603
 8864SOL     OW27490   2.428   3.425   6.341
 8864SOL    HW127491   2.341   3.434   6.389
 8864SOL    HW227492   2.410   3.393   6.248
 8865SOL     OW27493   3.228   1.352   5.029
 8865SOL    HW127494   3.307   1.374   4.972
 8865SOL    HW227495   3.174   1.435   5.045
 8866SOL     OW27496   4.854   6.861   3.931
 8866SOL    HW127497   4.896   6.804   3.861
 8866SOL    HW227498   4.782   6.810   3.977
 8867SOL     OW27499   4.970   2.586   3.251
 8867SOL    HW127500   4.926   2.540   3.175
 8867SOL    HW227501   4.936   2.680   3.258
 8868SOL     OW27502   5.582   3.777   0.496
 8868SOL    HW127503   5.679   3.794   0.482
 8868SOL    HW227504   5.539   3.757   0.408
 8869SOL     OW27505   4.388   5.546   3.571
 8869SOL    HW127506   4.318   5.478   3.593
 8869SOL    HW227507   4.357   5.602   3.494
 8870SOL     OW27508   3.180   0.223   0.423
 8870SOL    HW127509   3.141   0.224   0.515
 8870SOL    HW227510   3.265   0.275   0.422
 8871SOL     OW27511   3.470   1.481   3.808
 8871SOL    HW127512   3.563   1.456   3.783
 8871SOL    HW227513   3.459   1.581   3.801
 8872SOL     OW27514   1.643   4.097   4.444
 8872SOL    HW127515   1.597   4.165   4.387
 8872SOL    HW227516   1.589   4.081   4.527
 8873SOL     OW27517   6.164   6.025   2.008
 8873SOL    HW127518   6.134   6.084   2.083
 8873SOL    HW227519   6.104   5.946   2.000
 8874SOL     OW27520   2.000   0.017   1.189
 8874SOL    HW127521   2.073   0.083   1.208
 8874SOL    HW227522   1.919   0.065   1.157
 8875SOL     OW27523   1.060   2.167   4.439
 8875SOL    HW127524   1.154   2.137   4.427
 8875SOL    HW227525   1.053   2.227   4.519
 8876SOL     OW27526   0.965   0.139   4.706
 8876SOL    HW127527   1.004   0.226   4.735
 8876SOL    HW227528   0.870   0.153   4.678
 8877SOL     OW27529   2.721   0.730   4.404
 8877SOL    HW127530   2.769   0.709   4.490
 8877SOL    HW227531   2.622   0.735   4.422
 8878SOL     OW27532   0.738   5.167   0.732
 8878SOL    HW127533   0.786   5.154   0.645
 8878SOL    HW227534   0.743   5.084   0.786
 8879SOL     OW27535   6.151   4.991   1.143
 8879SOL    HW127536   6.161   5.019   1.047
 8879SOL    HW227537   6.179   5.065   1.203
 8880SOL     OW27538   0.170   5.733   4.463
 8880SOL    HW127539   0.081   5.686   4.463
 8880SOL    HW227540   0.231   5.689   4.528
 8881SOL     OW27541   5.924   6.921   3.502
 8881SOL    HW127542   5.856   6.927   3.575
 8881SOL    HW227543   5.938   6.826   3.476
 8882SOL     OW27544   5.224   1.397   0.549
 8882SOL    HW127545   5.294   1.441   0.605
 8882SOL    HW227546   5.237   1.421   0.453
 8883SOL     OW27547   0.706   1.455   6.040
 8883SOL    HW127548   0.805   1.468   6.049
 8883SOL    HW227549   0.660   1.543   6.044
 8884SOL     OW27550   6.274   6.597   6.888
 8884SOL    HW127551   6.216   6.678   6.878
 8884SOL    HW227552   6.260   6.536   6.810
 8885SOL     OW27553   6.653   3.928   1.190
 8885SOL    HW127554   6.637   4.022   1.220
 8885SOL    HW227555   6.706   3.929   1.106
 8886SOL     OW27556   3.148   5.832   5.862
 8886SOL    HW127557   3.117   5.739   5.844
 8886SOL    HW227558   3.100   5.869   5.942
 8887SOL     OW27559   3.180   1.545   1.130
 8887SOL    HW127560   3.203   1.533   1.226
 8887SOL    HW227561   3.244   1.610   1.088
 8888SOL     OW27562   1.133   1.957   1.466
 8888SOL    HW127563   1.057   2.010   1.430
 8888SOL    HW227564   1.188   2.015   1.527
 8889SOL     OW27565   5.355   6.499   5.937
 8889SOL    HW127566   5.336   6.550   5.853
 8889SOL    HW227567   5.332   6.402   5.923
 8890SOL     OW27568   6.321   6.251   4.574
 8890SOL    HW127569   6.371   6.305   4.642
 8890SOL    HW227570   6.383   6.186   4.530
 8891SOL     OW27571   6.306   3.240   6.127
 8891SOL    HW127572   6.242   3.257   6.202
 8891SOL    HW227573   6.377   3.176   6.158
 8892SOL     OW27574   3.020   6.219   3.734
 8892SOL    HW127575   3.018   6.162   3.652
 8892SOL    HW227576   2.949   6.288   3.728
 8893SOL     OW27577   0.991   0.609   2.018
 8893SOL    HW127578   0.939   0.540   1.968
 8893SOL    HW227579   0.929   0.665   2.073
 8894SOL     OW27580   3.733   3.062   5.927
 8894SOL    HW127581   3.663   3.116   5.879
 8894SOL    HW227582   3.706   3.051   6.022
 8895SOL     OW27583   6.909   1.015   1.926
 8895SOL    HW127584   6.927   1.113   1.918
 8895SOL    HW227585   6.845   0.988   1.855
 8896SOL     OW27586   1.756   3.444   4.701
 8896SOL    HW127587   1.805   3.358   4.699
 8896SOL    HW227588   1.667   3.431   4.746
 8897SOL     OW27589   1.612   1.685   2.786
 8897SOL    HW127590   1.623   1.783   2.801
 8897SOL    HW227591   1.566   1.670   2.698
 8898SOL     OW27592   5.862   3.152   4.433
 8898SOL    HW127593   5.836   3.119   4.524
 8898SOL    HW227594   5.783   3.196   4.390
 8899SOL     OW27595   1.577   4.477   0.371
 8899SOL    HW127596   1.635   4.554   0.396
 8899SOL    HW227597   1.505   4.509   0.309
 8900SOL     OW27598   5.456   3.664   2.904
 8900SOL    HW127599   5.381   3.623   2.957
 8900SOL    HW227600   5.418   3.724   2.834
 8901SOL     OW27601   2.545   0.977   4.138
 8901SOL    HW127602   2.489   0.926   4.203
 8901SOL    HW227603   2.608   1.036   4.188
 8902SOL     OW27604   3.154   6.044   6.889
 8902SOL    HW127605   3.216   5.995   6.951
 8902SOL    HW227606   3.060   6.032   6.921
 8903SOL     OW27607   2.206   0.607   4.196
 8903SOL    HW127608   2.294   0.615   4.149
 8903SOL    HW227609   2.164   0.697   4.202
 8904SOL     OW27610   7.016   4.951   3.673
 8904SOL    HW127611   6.982   4.876   3.729
 8904SOL    HW227612   0.084   4.978   3.706
 8905SOL     OW27613   2.203   4.034   4.559
 8905SOL    HW127614   2.107   4.015   4.580
 8905SOL    HW227615   2.246   4.076   4.639
 8906SOL     OW27616   6.374   6.979   6.970
 8906SOL    HW127617   6.458   6.940   6.932
 8906SOL    HW227618   6.346   6.925   0.026
 8907SOL     OW27619   3.453   2.070   4.937
 8907SOL    HW127620   3.357   2.042   4.938
 8907SOL    HW227621   3.476   2.111   5.026
 8908SOL     OW27622   1.279   3.093   6.774
 8908SOL    HW127623   1.263   3.008   6.825
 8908SOL    HW227624   1.305   3.165   6.838
 8909SOL     OW27625   2.311   0.372   5.223
 8909SOL    HW127626   2.239   0.386   5.291
 8909SOL    HW227627   2.341   0.460   5.188
 8910SOL     OW27628   2.086   3.204   6.234
 8910SOL    HW127629   2.168   3.232   6.186
 8910SOL    HW227630   2.103   3.205   6.333
 8911SOL     OW27631   3.880   2.169   4.865
 8911SOL    HW127632   3.979   2.172   4.855
 8911SOL    HW227633   3.843   2.261   4.853
 8912SOL     OW27634   4.032   1.563   6.848
 8912SOL    HW127635   4.072   1.608   6.928
 8912SOL    HW227636   3.977   1.485   6.879
 8913SOL     OW27637   4.738   5.234   0.666
 8913SOL    HW127638   4.798   5.160   0.636
 8913SOL    HW227639   4.684   5.267   0.589
 8914SOL     OW27640   4.376   0.626   5.816
 8914SOL    HW127641   4.389   0.598   5.721
 8914SOL    HW227642   4.441   0.699   5.838
 8915SOL     OW27643   0.710   2.710   4.076
 8915SOL    HW127644   0.614   2.736   4.070
 8915SOL    HW227645   0.738   2.705   4.172
 8916SOL     OW27646   0.541   3.677   2.259
 8916SOL    HW127647   0.525   3.597   2.317
 8916SOL    HW227648   0.467   3.685   2.191
 8917SOL     OW27649   5.809   5.006   6.268
 8917SOL    HW127650   5.765   5.054   6.192
 8917SOL    HW227651   5.745   5.003   6.345
 8918SOL     OW27652   6.995   6.326   0.749
 8918SOL    HW127653   0.013   6.369   0.830
 8918SOL    HW227654   0.045   6.298   0.686
 8919SOL     OW27655   4.136   3.269   0.491
 8919SOL    HW127656   4.209   3.223   0.542
 8919SOL    HW227657   4.106   3.210   0.417
 8920SOL     OW27658   6.804   6.580   6.707
 8920SOL    HW127659   6.706   6.560   6.703
 8920SOL    HW227660   6.824   6.635   6.788
 8921SOL     OW27661   2.410   1.401   3.044
 8921SOL    HW127662   2.443   1.478   3.098
 8921SOL    HW227663   2.332   1.430   2.989
 8922SOL     OW27664   2.664   4.832   1.135
 8922SOL    HW127665   2.749   4.778   1.131
 8922SOL    HW227666   2.605   4.796   1.207
 8923SOL     OW27667   1.817   3.543   6.404
 8923SOL    HW127668   1.901   3.595   6.392
 8923SOL    HW227669   1.797   3.491   6.320
 8924SOL     OW27670   2.913   5.487   6.044
 8924SOL    HW127671   2.877   5.505   5.952
 8924SOL    HW227672   2.900   5.569   6.101
 8925SOL     OW27673   0.909   0.245   2.111
 8925SOL    HW127674   0.968   0.296   2.173
 8925SOL    HW227675   0.818   0.236   2.152
 8926SOL     OW27676   5.929   3.256   0.721
 8926SOL    HW127677   5.857   3.325   0.721
 8926SOL    HW227678   5.895   3.172   0.765
 8927SOL     OW27679   1.839   1.842   4.757
 8927SOL    HW127680   1.885   1.916   4.808
 8927SOL    HW227681   1.755   1.816   4.805
 8928SOL     OW27682   0.113   0.712   5.058
 8928SOL    HW127683   0.021   0.749   5.060
 8928SOL    HW227684   0.179   0.783   5.083
 8929SOL     OW27685   0.612   3.623   3.899
 8929SOL    HW127686   0.617   3.527   3.870
 8929SOL    HW227687   0.519   3.643   3.929
 8930SOL     OW27688   1.974   4.929   5.057
 8930SOL    HW127689   1.920   4.946   5.139
 8930SOL    HW227690   1.914   4.895   4.984
 8931SOL     OW27691   3.576   2.747   0.258
 8931SOL    HW127692   3.569   2.846   0.253
 8931SOL    HW227693   3.533   2.714   0.342
 8932SOL     OW27694   5.561   0.292   6.776
 8932SOL    HW127695   5.520   0.202   6.763
 8932SOL    HW227696   5.492   0.355   6.811
 8933SOL     OW27697   0.935   2.274   5.413
 8933SOL    HW127698   0.916   2.237   5.322
 8933SOL    HW227699   1.031   2.299   5.419
 8934SOL     OW27700   2.536   5.496   4.012
 8934SOL    HW127701   2.592   5.570   4.049
 8934SOL    HW227702   2.461   5.535   3.959
 8935SOL     OW27703   5.214   3.983   1.918
 8935SOL    HW127704   5.154   4.039   1.975
 8935SOL    HW227705   5.171   3.967   1.829
 8936SOL     OW27706   0.609   3.651   0.698
 8936SOL    HW127707   0.611   3.628   0.601
 8936SOL    HW227708   0.541   3.594   0.744
 8937SOL     OW27709   6.947   0.957   4.050
 8937SOL    HW127710   6.874   0.897   4.016
 8937SOL    HW227711   0.010   0.935   4.005
 8938SOL     OW27712   6.809   1.810   0.432
 8938SOL    HW127713   6.785   1.747   0.358
 8938SOL    HW227714   6.766   1.779   0.517
 8939SOL     OW27715   6.649   2.694   4.886
 8939SOL    HW127716   6.724   2.628   4.887
 8939SOL    HW227717   6.561   2.646   4.885
 8940SOL     OW27718   5.769   2.231   0.504
 8940SOL    HW127719   5.689   2.262   0.556
 8940SOL    HW227720   5.796   2.302   0.440
 8941SOL     OW27721   4.912   2.191   1.782
 8941SOL    HW127722   4.983   2.155   1.842
 8941SOL    HW227723   4.922   2.291   1.775
 8942SOL     OW27724   0.368   5.101   3.998
 8942SOL    HW127725   0.426   5.178   3.972
 8942SOL    HW227726   0.356   5.100   4.097
 8943SOL     OW27727   4.325   4.469   0.035
 8943SOL    HW127728   4.290   4.561   0.055
 8943SOL    HW227729   4.389   4.474   6.981
 8944SOL     OW27730   4.856   4.960   4.427
 8944SOL    HW127731   4.898   4.974   4.338
 8944SOL    HW227732   4.842   5.048   4.472
 8945SOL     OW27733   0.009   2.746   5.005
 8945SOL    HW127734   0.052   2.710   4.923
 8945SOL    HW227735   0.067   2.817   5.045
 8946SOL     OW27736   3.675   0.421   4.335
 8946SOL    HW127737   3.630   0.510   4.332
 8946SOL    HW227738   3.763   0.430   4.381
 8947SOL     OW27739   1.675   3.849   6.317
 8947SOL    HW127740   1.738   3.781   6.354
 8947SOL    HW227741   1.693   3.938   6.359
 8948SOL     OW27742   6.452   6.147   3.635
 8948SOL    HW127743   6.522   6.128   3.704
 8948SOL    HW227744   6.464   6.085   3.558
 8949SOL     OW27745   3.672   5.574   6.978
 8949SOL    HW127746   3.587   5.577   0.008
 8949SOL    HW227747   3.654   5.606   6.885
 8950SOL     OW27748   4.483   3.439   1.336
 8950SOL    HW127749   4.431   3.408   1.257
 8950SOL    HW227750   4.491   3.365   1.403
 8951SOL     OW27751   2.182   1.286   4.218
 8951SOL    HW127752   2.280   1.297   4.231
 8951SOL    HW227753   2.134   1.368   4.251
 8952SOL     OW27754   2.176   5.115   3.322
 8952SOL    HW127755   2.267   5.075   3.312
 8952SOL    HW227756   2.178   5.184   3.394
 8953SOL     OW27757   2.443   5.009   1.278
 8953SOL    HW127758   2.353   5.022   1.320
 8953SOL    HW227759   2.508   5.073   1.318
 8954SOL     OW27760   0.718   5.906   4.133
 8954SOL    HW127761   0.756   5.882   4.044
 8954SOL    HW227762   0.645   5.842   4.157
 8955SOL     OW27763   0.135   3.099   2.610
 8955SOL    HW127764   0.149   3.014   2.662
 8955SOL    HW227765   0.079   3.079   2.529
 8956SOL     OW27766   0.645   0.222   6.524
 8956SOL    HW127767   0.586   0.210   6.444
 8956SOL    HW227768   0.603   0.180   6.604
 8957SOL     OW27769   1.704   5.076   2.076
 8957SOL    HW127770   1.705   5.134   1.994
 8957SOL    HW227771   1.742   4.986   2.054
 8958SOL     OW27772   1.254   2.899   4.991
 8958SOL    HW127773   1.294   2.927   4.903
 8958SOL    HW227774   1.195   2.819   4.976
 8959SOL     OW27775   1.086   3.418   2.207
 8959SOL    HW127776   1.106   3.385   2.299
 8959SOL    HW227777   1.128   3.357   2.139
 8960SOL     OW27778   6.864   5.242   4.006
 8960SOL    HW127779   6.798   5.305   4.046
 8960SOL    HW227780   6.854   5.152   4.047
 8961SOL     OW27781   3.992   1.067   4.225
 8961SOL    HW127782   3.938   1.112   4.295
 8961SOL    HW227783   3.999   1.126   4.144
 8962SOL     OW27784   0.370   6.032   2.095
 8962SOL    HW127785   0.347   6.005   2.188
 8962SOL    HW227786   0.453   6.088   2.096
 8963SOL     OW27787   3.443   6.131   4.321
 8963SOL    HW127788   3.522   6.082   4.359
 8963SOL    HW227789   3.415   6.087   4.236
 8964SOL     OW27790   5.155   3.885   2.905
 8964SOL    HW127791   5.240   3.878   2.956
 8964SOL    HW227792   5.132   3.795   2.867
 8965SOL     OW27793   3.509   4.737   0.379
 8965SOL    HW127794   3.412   4.722   0.360
 8965SOL    HW227795   3.531   4.701   0.469
 8966SOL     OW27796   6.440   5.170   6.357
 8966SOL    HW127797   6.505   5.129   6.421
 8966SOL    HW227798   6.482   5.251   6.315
 8967SOL     OW27799   4.242   0.685   3.464
 8967SOL    HW127800   4.267   0.615   3.397
 8967SOL    HW227801   4.283   0.773   3.438
 8968SOL     OW27802   2.683   4.583   1.494
 8968SOL    HW127803   2.629   4.646   1.438
 8968SOL    HW227804   2.624   4.539   1.562
 8969SOL     OW27805   0.538   0.171   3.473
 8969SOL    HW127806   0.509   0.267   3.480
 8969SOL    HW227807   0.606   0.163   3.401
 8970SOL     OW27808   1.179   2.391   6.868
 8970SOL    HW127809   1.131   2.322   6.923
 8970SOL    HW227810   1.270   2.408   6.908
 8971SOL     OW27811   4.707   6.801   1.575
 8971SOL    HW127812   4.644   6.736   1.617
 8971SOL    HW227813   4.697   6.891   1.619
 8972SOL     OW27814   5.405   4.948   0.681
 8972SOL    HW127815   5.443   5.031   0.723
 8972SOL    HW227816   5.375   4.885   0.752
 8973SOL     OW27817   0.196   2.604   2.582
 8973SOL    HW127818   0.220   2.546   2.659
 8973SOL    HW227819   0.233   2.696   2.595
 8974SOL     OW27820   2.173   3.855   3.741
 8974SOL    HW127821   2.205   3.911   3.818
 8974SOL    HW227822   2.141   3.915   3.668
 8975SOL     OW27823   0.277   6.569   6.951
 8975SOL    HW127824   0.259   6.511   0.007
 8975SOL    HW227825   0.332   6.648   6.979
 8976SOL     OW27826   6.490   6.448   0.505
 8976SOL    HW127827   6.551   6.374   0.477
 8976SOL    HW227828   6.397   6.412   0.518
 8977SOL     OW27829   6.925   4.919   6.353
 8977SOL    HW127830   7.018   4.956   6.363
 8977SOL    HW227831   6.920   4.830   6.398
 8978SOL     OW27832   5.031   6.325   4.940
 8978SOL    HW127833   5.072   6.296   4.853
 8978SOL    HW227834   4.977   6.408   4.925
 8979SOL     OW27835   0.933   5.375   6.319
 8979SOL    HW127836   0.973   5.384   6.228
 8979SOL    HW227837   0.834   5.392   6.314
 8980SOL     OW27838   4.484   2.092   5.411
 8980SOL    HW127839   4.417   2.143   5.464
 8980SOL    HW227840   4.574   2.135   5.419
 8981SOL     OW27841   4.734   2.258   5.485
 8981SOL    HW127842   4.700   2.347   5.454
 8981SOL    HW227843   4.834   2.260   5.490
 8982SOL     OW27844   6.579   1.714   1.809
 8982SOL    HW127845   6.549   1.793   1.756
 8982SOL    HW227846   6.663   1.677   1.768
 8983SOL     OW27847   1.351   5.309   1.451
 8983SOL    HW127848   1.316   5.241   1.386
 8983SOL    HW227849   1.276   5.367   1.481
 8984SOL     OW27850   6.222   0.045   4.687
 8984SOL    HW127851   6.281   0.116   4.648
 8984SOL    HW227852   6.131   0.051   4.646
 8985SOL     OW27853   4.193   1.958   0.857
 8985SOL    HW127854   4.261   1.950   0.930
 8985SOL    HW227855   4.233   2.004   0.778
 8986SOL     OW27856   5.428   4.228   2.255
 8986SOL    HW127857   5.476   4.286   2.320
 8986SOL    HW227858   5.457   4.133   2.268
 8987SOL     OW27859   2.974   0.618   1.189
 8987SOL    HW127860   3.047   0.653   1.130
 8987SOL    HW227861   2.902   0.578   1.132
 8988SOL     OW27862   2.111   5.345   0.499
 8988SOL    HW127863   2.184   5.401   0.539
 8988SOL    HW227864   2.094   5.266   0.558
 8989SOL     OW27865   5.112   2.966   3.055
 8989SOL    HW127866   5.205   2.931   3.041
 8989SOL    HW227867   5.047   2.908   3.005
 8990SOL     OW27868   2.469   6.216   1.284
 8990SOL    HW127869   2.549   6.250   1.235
 8990SOL    HW227870   2.399   6.187   1.219
 8991SOL     OW27871   2.532   2.701   1.596
 8991SOL    HW127872   2.632   2.695   1.596
 8991SOL    HW227873   2.494   2.615   1.630
 8992SOL     OW27874   0.414   2.977   0.452
 8992SOL    HW127875   0.337   2.979   0.515
 8992SOL    HW227876   0.384   2.948   0.361
 8993SOL     OW27877   4.901   2.229   3.529
 8993SOL    HW127878   4.922   2.131   3.528
 8993SOL    HW227879   4.939   2.273   3.448
 8994SOL     OW27880   2.092   5.061   4.611
 8994SOL    HW127881   2.047   5.097   4.529
 8994SOL    HW227882   2.108   4.963   4.600
 8995SOL     OW27883   1.375   2.155   5.353
 8995SOL    HW127884   1.466   2.127   5.384
 8995SOL    HW227885   1.312   2.155   5.430
 8996SOL     OW27886   0.457   3.756   1.356
 8996SOL    HW127887   0.410   3.724   1.438
 8996SOL    HW227888   0.545   3.795   1.382
 8997SOL     OW27889   5.252   0.987   6.165
 8997SOL    HW127890   5.316   0.910   6.161
 8997SOL    HW227891   5.282   1.057   6.100
 8998SOL     OW27892   6.811   2.120   5.151
 8998SOL    HW127893   6.835   2.037   5.199
 8998SOL    HW227894   6.778   2.098   5.059
 8999SOL     OW27895   5.019   0.839   6.118
 8999SOL    HW127896   4.944   0.900   6.142
 8999SOL    HW227897   5.106   0.886   6.132
 9000SOL     OW27898   2.723   4.308   6.729
 9000SOL    HW127899   2.761   4.373   6.663
 9000SOL    HW227900   2.792   4.286   6.797
 9001SOL     OW27901   1.168   4.481   2.704
 9001SOL    HW127902   1.121   4.484   2.616
 9001SOL    HW227903   1.118   4.537   2.770
 9002SOL     OW27904   6.937   5.408   5.559
 9002SOL    HW127905   7.000   5.404   5.637
 9002SOL    HW227906   6.911   5.503   5.541
 9003SOL     OW27907   6.264   2.469   0.897
 9003SOL    HW127908   6.179   2.416   0.894
 9003SOL    HW227909   6.340   2.409   0.921
 9004SOL     OW27910   5.439   6.603   1.764
 9004SOL    HW127911   5.461   6.701   1.759
 9004SOL    HW227912   5.475   6.556   1.684
 9005SOL     OW27913   5.356   2.401   3.683
 9005SOL    HW127914   5.273   2.355   3.652
 9005SOL    HW227915   5.333   2.493   3.715
 9006SOL     OW27916   1.125   5.498   1.190
 9006SOL    HW127917   1.051   5.565   1.185
 9006SOL    HW227918   1.196   5.522   1.125
 9007SOL     OW27919   3.349   5.295   3.584
 9007SOL    HW127920   3.262   5.268   3.542
 9007SOL    HW227921   3.353   5.262   3.678
 9008SOL     OW27922   6.236   4.639   2.079
 9008SOL    HW127923   6.295   4.586   2.141
 9008SOL    HW227924   6.257   4.615   1.984
 9009SOL     OW27925   2.591   6.513   1.193
 9009SOL    HW127926   2.574   6.587   1.128
 9009SOL    HW227927   2.612   6.429   1.143
 9010SOL     OW27928   1.137   6.666   4.656
 9010SOL    HW127929   1.104   6.571   4.660
 9010SOL    HW227930   1.089   6.721   4.725
 9011SOL     OW27931   3.736   2.203   1.460
 9011SOL    HW127932   3.816   2.220   1.404
 9011SOL    HW227933   3.755   2.230   1.555
 9012SOL     OW27934   2.035   5.728   0.842
 9012SOL    HW127935   1.999   5.732   0.748
 9012SOL    HW227936   2.054   5.633   0.866
 9013SOL     OW27937   6.146   5.768   4.732
 9013SOL    HW127938   6.223   5.831   4.739
 9013SOL    HW227939   6.119   5.760   4.636
 9014SOL     OW27940   1.572   1.482   0.102
 9014SOL    HW127941   1.584   1.505   0.199
 9014SOL    HW227942   1.636   1.409   0.077
 9015SOL     OW27943   6.987   1.407   6.866
 9015SOL    HW127944   0.062   1.426   6.861
 9015SOL    HW227945   6.937   1.492   6.856
 9016SOL     OW27946   6.486   6.375   5.667
 9016SOL    HW127947   6.412   6.388   5.733
 9016SOL    HW227948   6.451   6.393   5.574
 9017SOL     OW27949   6.038   2.350   3.426
 9017SOL    HW127950   6.038   2.341   3.525
 9017SOL    HW227951   6.131   2.371   3.395
 9018SOL     OW27952   3.389   1.713   5.308
 9018SOL    HW127953   3.449   1.652   5.256
 9018SOL    HW227954   3.441   1.792   5.339
 9019SOL     OW27955   1.961   6.669   6.825
 9019SOL    HW127956   1.972   6.570   6.831
 9019SOL    HW227957   1.935   6.695   6.732
 9020SOL     OW27958   1.871   3.973   2.413
 9020SOL    HW127959   1.876   4.043   2.484
 9020SOL    HW227960   1.775   3.949   2.396
 9021SOL     OW27961   0.003   5.984   3.549
 9021SOL    HW127962   0.036   5.890   3.543
 9021SOL    HW227963   6.963   5.992   3.626
 9022SOL     OW27964   2.611   0.209   0.440
 9022SOL    HW127965   2.615   0.270   0.361
 9022SOL    HW227966   2.577   0.259   0.519
 9023SOL     OW27967   3.687   3.642   3.416
 9023SOL    HW127968   3.623   3.715   3.440
 9023SOL    HW227969   3.726   3.603   3.499
 9024SOL     OW27970   1.513   5.917   6.170
 9024SOL    HW127971   1.542   6.010   6.145
 9024SOL    HW227972   1.573   5.881   6.241
 9025SOL     OW27973   6.235   5.902   1.506
 9025SOL    HW127974   6.139   5.922   1.486
 9025SOL    HW227975   6.242   5.864   1.599
 9026SOL     OW27976   3.544   3.308   3.968
 9026SOL    HW127977   3.452   3.304   3.931
 9026SOL    HW227978   3.563   3.225   4.020
 9027SOL     OW27979   2.762   1.653   3.439
 9027SOL    HW127980   2.736   1.744   3.472
 9027SOL    HW227981   2.700   1.585   3.478
 9028SOL     OW27982   1.662   4.335   6.399
 9028SOL    HW127983   1.645   4.351   6.496
 9028SOL    HW227984   1.575   4.330   6.350
 9029SOL     OW27985   4.004   5.230   4.710
 9029SOL    HW127986   4.006   5.204   4.807
 9029SOL    HW227987   4.082   5.289   4.690
 9030SOL     OW27988   1.850   0.316   2.503
 9030SOL    HW127989   1.863   0.226   2.462
 9030SOL    HW227990   1.782   0.310   2.577
 9031SOL     OW27991   3.053   5.035   5.775
 9031SOL    HW127992   3.001   5.095   5.836
 9031SOL    HW227993   3.145   5.072   5.762
 9032SOL     OW27994   3.649   2.830   1.250
 9032SOL    HW127995   3.709   2.803   1.174
 9032SOL    HW227996   3.702   2.830   1.335
 9033SOL     OW27997   2.108   3.329   4.172
 9033SOL    HW127998   2.024   3.377   4.200
 9033SOL    HW227999   2.112   3.323   4.073
 9034SOL     OW28000   2.590   6.875   5.139
 9034SOL    HW128001   2.636   6.795   5.178
 9034SOL    HW228002   2.523   6.910   5.204
 9035SOL     OW28003   0.587   6.640   5.226
 9035SOL    HW128004   0.630   6.563   5.273
 9035SOL    HW228005   0.497   6.612   5.192
 9036SOL     OW28006   2.328   2.380   5.363
 9036SOL    HW128007   2.265   2.451   5.394
 9036SOL    HW228008   2.400   2.422   5.307
 9037SOL     OW28009   2.108   3.991   6.651
 9037SOL    HW128010   2.125   3.918   6.585
 9037SOL    HW228011   2.185   4.055   6.650
 9038SOL     OW28012   5.738   0.911   6.085
 9038SOL    HW128013   5.749   1.005   6.115
 9038SOL    HW228014   5.824   0.861   6.097
 9039SOL     OW28015   2.063   4.423   5.066
 9039SOL    HW128016   2.101   4.343   5.112
 9039SOL    HW228017   2.042   4.494   5.134
 9040SOL     OW28018   2.811   0.437   3.376
 9040SOL    HW128019   2.797   0.450   3.474
 9040SOL    HW228020   2.860   0.517   3.339
 9041SOL     OW28021   0.636   1.769   2.030
 9041SOL    HW128022   0.635   1.670   2.040
 9041SOL    HW228023   0.546   1.806   2.055
 9042SOL     OW28024   2.471   6.376   3.766
 9042SOL    HW128025   2.531   6.335   3.834
 9042SOL    HW228026   2.499   6.470   3.749
 9043SOL     OW28027   1.949   1.896   5.506
 9043SOL    HW128028   1.981   1.919   5.598
 9043SOL    HW228029   1.908   1.977   5.464
 9044SOL     OW28030   6.423   1.243   0.479
 9044SOL    HW128031   6.378   1.224   0.566
 9044SOL    HW228032   6.489   1.318   0.491
 9045SOL     OW28033   4.060   0.949   2.841
 9045SOL    HW128034   3.979   0.891   2.840
 9045SOL    HW228035   4.103   0.945   2.931
 9046SOL     OW28036   3.675   3.703   5.395
 9046SOL    HW128037   3.693   3.760   5.314
 9046SOL    HW228038   3.584   3.663   5.388
 9047SOL     OW28039   2.119   4.157   5.522
 9047SOL    HW128040   2.111   4.248   5.481
 9047SOL    HW228041   2.104   4.087   5.453
 9048SOL     OW28042   1.344   3.655   6.103
 9048SOL    HW128043   1.269   3.634   6.039
 9048SOL    HW228044   1.432   3.640   6.057
 9049SOL     OW28045   4.661   6.259   6.873
 9049SOL    HW128046   4.576   6.206   6.878
 9049SOL    HW228047   4.645   6.341   6.819
 9050SOL     OW28048   1.156   5.235   6.588
 9050SOL    HW128049   1.082   5.287   6.632
 9050SOL    HW228050   1.209   5.186   6.657
 9051SOL     OW28051   4.074   6.223   1.081
 9051SOL    HW128052   4.150   6.270   1.125
 9051SOL    HW228053   4.006   6.197   1.150
 9052SOL     OW28054   2.801   4.926   4.653
 9052SOL    HW128055   2.737   4.990   4.695
 9052SOL    HW228056   2.765   4.895   4.565
 9053SOL     OW28057   2.395   2.100   3.962
 9053SOL    HW128058   2.410   2.089   3.864
 9053SOL    HW228059   2.482   2.089   4.010
 9054SOL     OW28060   1.758   0.544   2.362
 9054SOL    HW128061   1.789   0.460   2.407
 9054SOL    HW228062   1.836   0.606   2.351
 9055SOL     OW28063   0.540   4.006   3.286
 9055SOL    HW128064   0.586   4.064   3.352
 9055SOL    HW228065   0.448   4.041   3.269
 9056SOL     OW28066   4.846   0.560   1.568
 9056SOL    HW128067   4.838   0.473   1.519
 9056SOL    HW228068   4.927   0.609   1.536
 9057SOL     OW28069   6.212   4.721   6.150
 9057SOL    HW128070   6.126   4.714   6.099
 9057SOL    HW228071   6.289   4.711   6.086
 9058SOL     OW28072   2.161   2.156   4.833
 9058SOL    HW128073   2.123   2.147   4.741
 9058SOL    HW228074   2.094   2.123   4.900
 9059SOL     OW28075   6.710   0.831   3.204
 9059SOL    HW128076   6.635   0.835   3.138
 9059SOL    HW228077   6.795   0.809   3.156
 9060SOL     OW28078   6.410   3.459   2.606
 9060SOL    HW128079   6.369   3.441   2.516
 9060SOL    HW228080   6.469   3.540   2.600
 9061SOL     OW28081   4.788   5.591   2.864
 9061SOL    HW128082   4.845   5.539   2.927
 9061SOL    HW228083   4.748   5.530   2.797
 9062SOL     OW28084   1.176   4.810   2.064
 9062SOL    HW128085   1.139   4.822   1.971
 9062SOL    HW228086   1.161   4.715   2.092
 9063SOL     OW28087   3.140   0.996   2.360
 9063SOL    HW128088   3.133   1.059   2.283
 9063SOL    HW228089   3.097   0.909   2.336
 9064SOL     OW28090   6.390   4.321   4.174
 9064SOL    HW128091   6.467   4.260   4.158
 9064SOL    HW228092   6.382   4.385   4.098
 9065SOL     OW28093   2.756   5.935   5.604
 9065SOL    HW128094   2.711   5.851   5.635
 9065SOL    HW228095   2.741   6.008   5.672
 9066SOL     OW28096   6.335   0.028   6.074
 9066SOL    HW128097   6.395   6.998   6.134
 9066SOL    HW228098   6.378   0.039   5.985
 9067SOL     OW28099   6.530   6.067   4.472
 9067SOL    HW128100   6.615   6.075   4.523
 9067SOL    HW228101   6.504   5.970   4.465
 9068SOL     OW28102   3.514   6.934   5.277
 9068SOL    HW128103   3.514   6.891   5.187
 9068SOL    HW228104   3.510   6.863   5.347
 9069SOL     OW28105   4.776   2.081   2.875
 9069SOL    HW128106   4.809   2.025   2.800
 9069SOL    HW228107   4.813   2.174   2.867
 9070SOL     OW28108   1.557   2.104   6.040
 9070SOL    HW128109   1.511   2.125   6.126
 9070SOL    HW228110   1.638   2.163   6.030
 9071SOL     OW28111   5.436   0.468   6.370
 9071SOL    HW128112   5.394   0.547   6.414
 9071SOL    HW228113   5.459   0.491   6.276
 9072SOL     OW28114   5.127   6.502   1.465
 9072SOL    HW128115   5.036   6.541   1.451
 9072SOL    HW228116   5.181   6.510   1.381
 9073SOL     OW28117   3.772   6.396   1.065
 9073SOL    HW128118   3.748   6.472   1.124
 9073SOL    HW228119   3.750   6.419   0.970
 9074SOL     OW28120   1.757   0.779   1.493
 9074SOL    HW128121   1.674   0.827   1.464
 9074SOL    HW228122   1.828   0.793   1.425
 9075SOL     OW28123   0.416   0.220   2.201
 9075SOL    HW128124   0.405   0.306   2.151
 9075SOL    HW228125   0.368   0.146   2.152
 9076SOL     OW28126   4.833   1.316   3.890
 9076SOL    HW128127   4.777   1.237   3.862
 9076SOL    HW228128   4.812   1.339   3.985
 9077SOL     OW28129   4.589   1.463   6.470
 9077SOL    HW128130   4.672   1.506   6.506
 9077SOL    HW228131   4.520   1.533   6.455
 9078SOL     OW28132   5.451   5.288   6.492
 9078SOL    HW128133   5.531   5.268   6.435
 9078SOL    HW228134   5.379   5.327   6.435
 9079SOL     OW28135   1.934   0.053   4.874
 9079SOL    HW128136   1.895   0.066   4.965
 9079SOL    HW228137   2.017   7.021   4.882
 9080SOL     OW28138   6.364   2.760   0.003
 9080SOL    HW128139   6.381   2.764   6.928
 9080SOL    HW228140   6.451   2.761   0.052
 9081SOL     OW28141   3.355   1.837   1.615
 9081SOL    HW128142   3.304   1.768   1.666
 9081SOL    HW228143   3.379   1.913   1.675
 9082SOL     OW28144   2.456   6.715   4.969
 9082SOL    HW128145   2.469   6.755   4.879
 9082SOL    HW228146   2.519   6.758   5.034
 9083SOL     OW28147   4.605   4.130   6.369
 9083SOL    HW128148   4.527   4.134   6.307
 9083SOL    HW228149   4.690   4.136   6.317
 9084SOL     OW28150   0.866   2.488   6.144
 9084SOL    HW128151   0.954   2.529   6.168
 9084SOL    HW228152   0.813   2.552   6.089
 9085SOL     OW28153   2.243   5.708   1.519
 9085SOL    HW128154   2.233   5.610   1.532
 9085SOL    HW228155   2.301   5.745   1.591
 9086SOL     OW28156   6.097   4.155   1.033
 9086SOL    HW128157   6.091   4.056   1.040
 9086SOL    HW228158   6.008   4.194   1.011
 9087SOL     OW28159   5.287   2.792   2.295
 9087SOL    HW128160   5.210   2.758   2.242
 9087SOL    HW228161   5.329   2.869   2.248
 9088SOL     OW28162   5.794   0.031   1.948
 9088SOL    HW128163   5.758   0.123   1.960
 9088SOL    HW228164   5.829   0.021   1.855
 9089SOL     OW28165   3.986   5.796   5.031
 9089SOL    HW128166   4.039   5.835   5.106
 9089SOL    HW228167   4.047   5.749   4.968
 9090SOL     OW28168   5.347   0.431   4.186
 9090SOL    HW128169   5.386   0.516   4.151
 9090SOL    HW228170   5.257   0.450   4.227
 9091SOL     OW28171   3.187   3.293   0.818
 9091SOL    HW128172   3.226   3.233   0.886
 9091SOL    HW228173   3.116   3.350   0.860
 9092SOL     OW28174   1.002   1.178   6.804
 9092SOL    HW128175   1.011   1.198   6.707
 9092SOL    HW228176   0.966   1.258   6.852
 9093SOL     OW28177   1.243   6.040   6.939
 9093SOL    HW128178   1.342   6.053   6.952
 9093SOL    HW228179   1.194   6.098   7.004
 9094SOL     OW28180   0.743   5.201   2.639
 9094SOL    HW128181   0.728   5.299   2.651
 9094SOL    HW228182   0.693   5.150   2.709
 9095SOL     OW28183   5.284   4.181   5.987
 9095SOL    HW128184   5.199   4.206   5.940
 9095SOL    HW228185   5.263   4.122   6.065
 9096SOL     OW28186   5.189   3.567   2.909
 9096SOL    HW128187   5.230   3.530   2.826
 9096SOL    HW228188   5.112   3.509   2.937
 9097SOL     OW28189   0.333   3.194   6.844
 9097SOL    HW128190   0.280   3.121   6.887
 9097SOL    HW228191   0.378   3.248   6.915
 9098SOL     OW28192   3.612   3.114   0.108
 9098SOL    HW128193   3.531   3.061   0.133
 9098SOL    HW228194   3.585   3.207   0.084
 9099SOL     OW28195   3.556   3.659   0.411
 9099SOL    HW128196   3.500   3.584   0.445
 9099SOL    HW228197   3.632   3.623   0.357
 9100SOL     OW28198   1.051   3.122   2.922
 9100SOL    HW128199   1.107   3.075   2.854
 9100SOL    HW228200   1.078   3.093   3.014
 9101SOL     OW28201   2.083   2.876   3.022
 9101SOL    HW128202   2.070   2.789   2.973
 9101SOL    HW228203   2.143   2.860   3.101
 9102SOL     OW28204   3.613   6.461   1.803
 9102SOL    HW128205   3.630   6.382   1.743
 9102SOL    HW228206   3.699   6.510   1.818
 9103SOL     OW28207   6.577   3.710   6.666
 9103SOL    HW128208   6.526   3.710   6.753
 9103SOL    HW228209   6.656   3.649   6.674
 9104SOL     OW28210   4.331   6.160   2.727
 9104SOL    HW128211   4.346   6.247   2.774
 9104SOL    HW228212   4.405   6.097   2.750
 9105SOL     OW28213   1.457   1.122   0.703
 9105SOL    HW128214   1.507   1.046   0.661
 9105SOL    HW228215   1.497   1.209   0.674
 9106SOL     OW28216   5.880   3.898   6.684
 9106SOL    HW128217   5.869   3.868   6.589
 9106SOL    HW228218   5.964   3.858   6.722
 9107SOL     OW28219   3.894   0.693   5.693
 9107SOL    HW128220   3.904   0.641   5.608
 9107SOL    HW228221   3.810   0.666   5.739
 9108SOL     OW28222   4.793   3.826   5.863
 9108SOL    HW128223   4.842   3.912   5.853
 9108SOL    HW228224   4.697   3.839   5.837
 9109SOL     OW28225   1.527   2.479   3.120
 9109SOL    HW128226   1.494   2.407   3.058
 9109SOL    HW228227   1.501   2.457   3.214
 9110SOL     OW28228   1.937   4.141   4.175
 9110SOL    HW128229   1.943   4.073   4.101
 9110SOL    HW228230   2.014   4.130   4.237
 9111SOL     OW28231   4.569   3.466   0.076
 9111SOL    HW128232   4.539   3.534   0.143
 9111SOL    HW228233   4.524   3.379   0.095
 9112SOL     OW28234   0.507   4.203   4.825
 9112SOL    HW128235   0.443   4.163   4.890
 9112SOL    HW228236   0.483   4.174   4.732
 9113SOL     OW28237   4.348   6.634   0.963
 9113SOL    HW128238   4.280   6.573   0.923
 9113SOL    HW228239   4.410   6.581   1.021
 9114SOL     OW28240   1.750   5.250   1.233
 9114SOL    HW128241   1.835   5.302   1.233
 9114SOL    HW228242   1.677   5.304   1.275
 9115SOL     OW28243   0.932   5.675   6.127
 9115SOL    HW128244   0.944   5.606   6.056
 9115SOL    HW228245   0.840   5.714   6.121
 9116SOL     OW28246   6.472   1.826   0.310
 9116SOL    HW128247   6.539   1.885   0.263
 9116SOL    HW228248   6.386   1.826   0.258
 9117SOL     OW28249   6.108   2.964   0.313
 9117SOL    HW128250   6.063   3.049   0.340
 9117SOL    HW228251   6.130   2.968   0.215
 9118SOL     OW28252   6.488   6.015   0.458
 9118SOL    HW128253   6.564   5.952   0.440
 9118SOL    HW228254   6.518   6.083   0.525
 9119SOL     OW28255   5.731   1.159   1.543
 9119SOL    HW128256   5.653   1.098   1.532
 9119SOL    HW228257   5.807   1.108   1.585
 9120SOL     OW28258   5.702   2.827   5.858
 9120SOL    HW128259   5.711   2.745   5.801
 9120SOL    HW228260   5.788   2.879   5.856
 9121SOL     OW28261   2.484   2.450   6.161
 9121SOL    HW128262   2.509   2.514   6.088
 9121SOL    HW228263   2.445   2.368   6.121
 9122SOL     OW28264   1.933   3.927   2.109
 9122SOL    HW128265   2.015   3.900   2.059
 9122SOL    HW228266   1.944   3.902   2.206
 9123SOL     OW28267   3.643   0.214   4.528
 9123SOL    HW128268   3.640   0.269   4.444
 9123SOL    HW228269   3.651   0.117   4.505
 9124SOL     OW28270   5.652   0.339   5.820
 9124SOL    HW128271   5.743   0.375   5.841
 9124SOL    HW228272   5.590   0.360   5.896
 9125SOL     OW28273   5.141   4.358   1.825
 9125SOL    HW128274   5.143   4.457   1.833
 9125SOL    HW228275   5.112   4.318   1.912
 9126SOL     OW28276   5.806   2.359   1.775
 9126SOL    HW128277   5.871   2.381   1.702
 9126SOL    HW228278   5.740   2.434   1.785
 9127SOL     OW28279   6.799   1.390   6.007
 9127SOL    HW128280   6.822   1.400   6.104
 9127SOL    HW228281   6.856   1.452   5.953
 9128SOL     OW28282   4.567   1.702   4.921
 9128SOL    HW128283   4.563   1.639   4.843
 9128SOL    HW228284   4.529   1.790   4.894
 9129SOL     OW28285   0.159   3.063   0.953
 9129SOL    HW128286   0.144   3.051   1.051
 9129SOL    HW228287   0.192   2.977   0.913
 9130SOL     OW28288   0.055   3.224   0.129
 9130SOL    HW128289   0.113   3.304   0.146
 9130SOL    HW228290   0.067   3.159   0.204
 9131SOL     OW28291   0.059   3.133   5.816
 9131SOL    HW128292   0.021   3.049   5.777
 9131SOL    HW228293   7.021   3.209   5.797
 9132SOL     OW28294   0.083   4.953   4.457
 9132SOL    HW128295   0.057   5.040   4.417
 9132SOL    HW228296   0.182   4.939   4.448
 9133SOL     OW28297   4.094   6.228   1.468
 9133SOL    HW128298   4.065   6.225   1.564
 9133SOL    HW228299   4.020   6.194   1.411
 9134SOL     OW28300   4.576   5.901   0.258
 9134SOL    HW128301   4.594   5.986   0.308
 9134SOL    HW228302   4.580   5.824   0.322
 9135SOL     OW28303   6.349   6.638   2.004
 9135SOL    HW128304   6.264   6.645   1.952
 9135SOL    HW228305   6.421   6.601   1.945
 9136SOL     OW28306   5.398   5.659   6.138
 9136SOL    HW128307   5.368   5.567   6.112
 9136SOL    HW228308   5.421   5.711   6.056
 9137SOL     OW28309   5.142   1.862   1.212
 9137SOL    HW128310   5.229   1.816   1.230
 9137SOL    HW228311   5.148   1.958   1.242
 9138SOL     OW28312   0.102   6.048   5.419
 9138SOL    HW128313   0.007   6.030   5.446
 9138SOL    HW228314   0.150   6.096   5.493
 9139SOL     OW28315   2.178   1.858   4.796
 9139SOL    HW128316   2.269   1.885   4.764
 9139SOL    HW228317   2.138   1.931   4.851
 9140SOL     OW28318   6.157   3.485   3.124
 9140SOL    HW128319   6.191   3.403   3.077
 9140SOL    HW228320   6.078   3.521   3.075
 9141SOL     OW28321   6.078   0.799   0.002
 9141SOL    HW128322   6.094   0.784   6.927
 9141SOL    HW228323   6.160   0.836   0.044
 9142SOL     OW28324   0.769   2.435   1.366
 9142SOL    HW128325   0.795   2.373   1.441
 9142SOL    HW228326   0.696   2.393   1.312
 9143SOL     OW28327   5.845   2.915   1.073
 9143SOL    HW128328   5.757   2.923   1.119
 9143SOL    HW228329   5.907   2.985   1.107
 9144SOL     OW28330   2.519   5.254   5.685
 9144SOL    HW128331   2.522   5.198   5.603
 9144SOL    HW228332   2.520   5.195   5.766
 9145SOL     OW28333   6.984   5.934   0.652
 9145SOL    HW128334   0.019   5.917   0.572
 9145SOL    HW228335   0.018   5.960   0.730
 9146SOL     OW28336   5.433   2.949   3.057
 9146SOL    HW128337   5.527   2.914   3.061
 9146SOL    HW228338   5.398   2.959   3.150
 9147SOL     OW28339   5.984   0.399   4.414
 9147SOL    HW128340   6.057   0.427   4.352
 9147SOL    HW228341   5.901   0.380   4.361
 9148SOL     OW28342   5.357   6.387   0.630
 9148SOL    HW128343   5.299   6.460   0.666
 9148SOL    HW228344   5.372   6.318   0.700
 9149SOL     OW28345   5.772   3.333   3.580
 9149SOL    HW128346   5.767   3.300   3.486
 9149SOL    HW228347   5.829   3.271   3.634
 9150SOL     OW28348   2.836   4.991   1.909
 9150SOL    HW128349   2.918   4.935   1.915
 9150SOL    HW228350   2.854   5.081   1.950
 9151SOL     OW28351   1.826   4.267   3.554
 9151SOL    HW128352   1.824   4.240   3.651
 9151SOL    HW228353   1.884   4.348   3.543
 9152SOL     OW28354   2.332   4.380   4.721
 9152SOL    HW128355   2.307   4.299   4.774
 9152SOL    HW228356   2.426   4.371   4.687
 9153SOL     OW28357   1.234   3.667   0.233
 9153SOL    HW128358   1.207   3.729   0.159
 9153SOL    HW228359   1.156   3.652   0.294
 9154SOL     OW28360   4.410   4.634   6.156
 9154SOL    HW128361   4.474   4.691   6.208
 9154SOL    HW228362   4.372   4.687   6.080
 9155SOL     OW28363   1.975   3.857   1.459
 9155SOL    HW128364   1.875   3.853   1.463
 9155SOL    HW228365   2.008   3.932   1.516
 9156SOL     OW28366   1.018   2.549   0.807
 9156SOL    HW128367   1.062   2.483   0.868
 9156SOL    HW228368   0.926   2.518   0.785
 9157SOL     OW28369   6.527   4.451   5.746
 9157SOL    HW128370   6.581   4.494   5.674
 9157SOL    HW228371   6.515   4.354   5.726
 9158SOL     OW28372   6.340   3.559   4.607
 9158SOL    HW128373   6.435   3.574   4.631
 9158SOL    HW228374   6.299   3.491   4.668
 9159SOL     OW28375   1.832   0.028   2.419
 9159SOL    HW128376   1.915   7.013   2.458
 9159SOL    HW228377   1.850   0.060   2.326
 9160SOL     OW28378   6.369   0.685   5.325
 9160SOL    HW128379   6.279   0.665   5.285
 9160SOL    HW228380   6.358   0.704   5.423
 9161SOL     OW28381   4.839   4.082   4.703
 9161SOL    HW128382   4.820   4.180   4.711
 9161SOL    HW228383   4.809   4.050   4.613
 9162SOL     OW28384   4.557   0.487   4.645
 9162SOL    HW128385   4.494   0.443   4.582
 9162SOL    HW228386   4.543   0.586   4.643
 9163SOL     OW28387   1.589   2.894   4.487
 9163SOL    HW128388   1.579   2.985   4.445
 9163SOL    HW228389   1.560   2.824   4.422
 9164SOL     OW28390   2.770   0.805   6.205
 9164SOL    HW128391   2.708   0.883   6.215
 9164SOL    HW228392   2.771   0.776   6.109
 9165SOL     OW28393   6.143   2.115   5.900
 9165SOL    HW128394   6.237   2.122   5.935
 9165SOL    HW228395   6.146   2.097   5.801
 9166SOL     OW28396   3.953   5.907   1.068
 9166SOL    HW128397   3.998   5.825   1.033
 9166SOL    HW228398   3.936   5.970   0.992
 9167SOL     OW28399   2.281   2.409   6.772
 9167SOL    HW128400   2.212   2.413   6.844
 9167SOL    HW228401   2.338   2.491   6.775
 9168SOL     OW28402   6.999   0.216   6.765
 9168SOL    HW128403   0.030   0.292   6.729
 9168SOL    HW228404   6.901   0.239   6.759
 9169SOL     OW28405   5.690   0.844   5.101
 9169SOL    HW128406   5.664   0.916   5.166
 9169SOL    HW228407   5.611   0.821   5.044
 9170SOL     OW28408   1.564   5.859   0.135
 9170SOL    HW128409   1.522   5.922   0.200
 9170SOL    HW228410   1.494   5.798   0.097
 9171SOL     OW28411   4.523   4.899   0.909
 9171SOL    HW128412   4.518   4.874   0.812
 9171SOL    HW228413   4.468   4.981   0.925
 9172SOL     OW28414   4.036   1.199   3.029
 9172SOL    HW128415   3.958   1.139   3.007
 9172SOL    HW228416   4.016   1.292   2.999
 9173SOL     OW28417   6.727   3.280   5.174
 9173SOL    HW128418   6.653   3.346   5.169
 9173SOL    HW228419   6.743   3.254   5.269
 9174SOL     OW28420   5.272   3.867   1.630
 9174SOL    HW128421   5.201   3.799   1.651
 9174SOL    HW228422   5.248   3.915   1.546
 9175SOL     OW28423   0.890   0.517   5.069
 9175SOL    HW128424   0.964   0.572   5.028
 9175SOL    HW228425   0.808   0.573   5.076
 9176SOL     OW28426   2.726   1.200   4.852
 9176SOL    HW128427   2.819   1.188   4.886
 9176SOL    HW228428   2.667   1.234   4.925
 9177SOL     OW28429   0.674   4.836   4.865
 9177SOL    HW128430   0.701   4.917   4.917
 9177SOL    HW228431   0.593   4.856   4.810
 9178SOL     OW28432   1.887   5.118   0.106
 9178SOL    HW128433   1.788   5.123   0.092
 9178SOL    HW228434   1.932   5.103   0.018
 9179SOL     OW28435   2.755   4.892   4.379
 9179SOL    HW128436   2.846   4.909   4.342
 9179SOL    HW228437   2.686   4.930   4.318
 9180SOL     OW28438   6.160   2.730   3.128
 9180SOL    HW128439   6.217   2.702   3.051
 9180SOL    HW228440   6.064   2.713   3.107
 9181SOL     OW28441   4.313   1.877   5.514
 9181SOL    HW128442   4.385   1.946   5.505
 9181SOL    HW228443   4.236   1.900   5.454
 9182SOL     OW28444   3.044   6.708   1.694
 9182SOL    HW128445   2.947   6.698   1.670
 9182SOL    HW228446   3.074   6.626   1.744
 9183SOL     OW28447   4.848   5.826   0.542
 9183SOL    HW128448   4.904   5.754   0.584
 9183SOL    HW228449   4.755   5.793   0.529
 9184SOL     OW28450   4.471   1.749   0.502
 9184SOL    HW128451   4.525   1.783   0.579
 9184SOL    HW228452   4.376   1.735   0.531
 9185SOL     OW28453   4.530   6.470   4.439
 9185SOL    HW128454   4.521   6.485   4.341
 9185SOL    HW228455   4.590   6.391   4.455
 9186SOL     OW28456   5.375   5.957   4.854
 9186SOL    HW128457   5.361   6.049   4.818
 9186SOL    HW228458   5.462   5.953   4.904
 9187SOL     OW28459   2.285   2.157   0.704
 9187SOL    HW128460   2.274   2.099   0.623
 9187SOL    HW228461   2.363   2.126   0.757
 9188SOL     OW28462   1.548   6.325   0.507
 9188SOL    HW128463   1.492   6.242   0.503
 9188SOL    HW228464   1.598   6.334   0.421
 9189SOL     OW28465   3.512   5.856   2.126
 9189SOL    HW128466   3.418   5.855   2.092
 9189SOL    HW228467   3.550   5.948   2.114
 9190SOL     OW28468   2.762   4.407   6.036
 9190SOL    HW128469   2.714   4.488   6.068
 9190SOL    HW228470   2.823   4.374   6.108
 9191SOL     OW28471   6.518   2.146   6.457
 9191SOL    HW128472   6.424   2.126   6.485
 9191SOL    HW228473   6.517   2.201   6.374
 9192SOL     OW28474   1.123   3.398   5.739
 9192SOL    HW128475   1.071   3.483   5.745
 9192SOL    HW228476   1.221   3.418   5.746
 9193SOL     OW28477   4.109   4.145   6.619
 9193SOL    HW128478   4.117   4.051   6.653
 9193SOL    HW228479   4.146   4.208   6.687
 9194SOL     OW28480   3.313   0.905   3.487
 9194SOL    HW128481   3.228   0.888   3.438
 9194SOL    HW228482   3.310   0.996   3.529
 9195SOL     OW28483   1.403   1.535   3.256
 9195SOL    HW128484   1.318   1.582   3.234
 9195SOL    HW228485   1.384   1.457   3.316
 9196SOL     OW28486   5.308   0.499   2.534
 9196SOL    HW128487   5.346   0.581   2.491
 9196SOL    HW228488   5.328   0.500   2.632
 9197SOL     OW28489   1.972   5.436   1.202
 9197SOL    HW128490   1.991   5.527   1.239
 9197SOL    HW228491   2.058   5.389   1.182
 9198SOL     OW28492   6.320   4.777   6.680
 9198SOL    HW128493   6.313   4.796   6.583
 9198SOL    HW228494   6.228   4.774   6.721
 9199SOL     OW28495   1.116   3.858   5.614
 9199SOL    HW128496   1.172   3.822   5.540
 9199SOL    HW228497   1.098   3.955   5.599
 9200SOL     OW28498   2.820   6.401   6.759
 9200SOL    HW128499   2.805   6.480   6.701
 9200SOL    HW228500   2.916   6.374   6.755
 9201SOL     OW28501   6.611   2.741   0.147
 9201SOL    HW128502   6.695   2.767   0.099
 9201SOL    HW228503   6.615   2.773   0.241
 9202SOL     OW28504   0.942   6.343   2.591
 9202SOL    HW128505   0.886   6.265   2.615
 9202SOL    HW228506   1.018   6.351   2.655
 9203SOL     OW28507   0.315   3.892   5.625
 9203SOL    HW128508   0.388   3.953   5.657
 9203SOL    HW228509   0.240   3.947   5.588
 9204SOL     OW28510   5.181   3.351   6.294
 9204SOL    HW128511   5.173   3.442   6.254
 9204SOL    HW228512   5.275   3.336   6.324
 9205SOL     OW28513   5.623   5.301   3.500
 9205SOL    HW128514   5.554   5.231   3.482
 9205SOL    HW228515   5.688   5.304   3.423
 9206SOL     OW28516   3.956   5.403   3.327
 9206SOL    HW128517   4.009   5.319   3.325
 9206SOL    HW228518   3.867   5.388   3.283
 9207SOL     OW28519   5.162   4.256   5.499
 9207SOL    HW128520   5.079   4.208   5.472
 9207SOL    HW228521   5.139   4.349   5.530
 9208SOL     OW28522   5.643   4.682   3.878
 9208SOL    HW128523   5.549   4.698   3.848
 9208SOL    HW228524   5.672   4.591   3.847
 9209SOL     OW28525   3.566   0.213   6.811
 9209SOL    HW128526   3.534   0.152   6.883
 9209SOL    HW228527   3.526   0.304   6.825
 9210SOL     OW28528   0.231   0.968   2.545
 9210SOL    HW128529   0.226   1.063   2.575
 9210SOL    HW228530   0.245   0.964   2.446
 9211SOL     OW28531   0.674   2.963   5.890
 9211SOL    HW128532   0.745   2.893   5.893
 9211SOL    HW228533   0.670   3.012   5.977
 9212SOL     OW28534   4.306   6.103   4.451
 9212SOL    HW128535   4.255   6.031   4.404
 9212SOL    HW228536   4.281   6.192   4.414
 9213SOL     OW28537   5.662   3.179   5.076
 9213SOL    HW128538   5.736   3.125   5.117
 9213SOL    HW228539   5.671   3.274   5.105
 9214SOL     OW28540   0.102   3.974   6.472
 9214SOL    HW128541   0.119   4.018   6.384
 9214SOL    HW228542   0.144   3.884   6.473
 9215SOL     OW28543   0.495   2.715   1.530
 9215SOL    HW128544   0.439   2.661   1.468
 9215SOL    HW228545   0.584   2.734   1.487
 9216SOL     OW28546   3.215   6.598   2.249
 9216SOL    HW128547   3.172   6.653   2.319
 9216SOL    HW228548   3.310   6.579   2.275
 9217SOL     OW28549   0.083   3.018   6.480
 9217SOL    HW128550   0.154   2.948   6.474
 9217SOL    HW228551   0.025   2.999   6.560
 9218SOL     OW28552   1.663   0.320   6.983
 9218SOL    HW128553   1.756   0.349   7.006
 9218SOL    HW228554   1.630   0.254   0.027
 9219SOL     OW28555   6.059   3.131   1.269
 9219SOL    HW128556   6.122   3.178   1.207
 9219SOL    HW228557   5.969   3.174   1.263
 9220SOL     OW28558   1.674   6.431   1.591
 9220SOL    HW128559   1.616   6.357   1.556
 9220SOL    HW228560   1.618   6.510   1.613
 9221SOL     OW28561   3.241   0.467   3.404
 9221SOL    HW128562   3.231   0.391   3.468
 9221SOL    HW228563   3.336   0.499   3.405
 9222SOL     OW28564   2.023   5.975   6.167
 9222SOL    HW128565   2.048   6.047   6.231
 9222SOL    HW228566   2.036   5.885   6.210
 9223SOL     OW28567   0.647   1.747   3.614
 9223SOL    HW128568   0.628   1.783   3.705
 9223SOL    HW228569   0.677   1.652   3.621
 9224SOL     OW28570   1.333   4.881   4.254
 9224SOL    HW128571   1.277   4.905   4.174
 9224SOL    HW228572   1.321   4.952   4.324
 9225SOL     OW28573   3.018   6.605   6.183
 9225SOL    HW128574   3.099   6.573   6.133
 9225SOL    HW228575   3.018   6.705   6.184
 9226SOL     OW28576   5.961   6.935   1.660
 9226SOL    HW128577   5.871   6.894   1.644
 9226SOL    HW228578   6.001   6.962   1.573
 9227SOL     OW28579   1.266   5.613   0.998
 9227SOL    HW128580   1.363   5.634   0.986
 9227SOL    HW228581   1.234   5.557   0.921
 9228SOL     OW28582   1.751   1.849   5.937
 9228SOL    HW128583   1.771   1.753   5.914
 9228SOL    HW228584   1.736   1.856   6.036
 9229SOL     OW28585   1.236   5.662   5.697
 9229SOL    HW128586   1.267   5.642   5.791
 9229SOL    HW228587   1.136   5.663   5.694
 9230SOL     OW28588   4.614   2.083   3.692
 9230SOL    HW128589   4.584   2.041   3.777
 9230SOL    HW228590   4.631   2.181   3.707
 9231SOL     OW28591   0.423   4.080   4.596
 9231SOL    HW128592   0.426   3.981   4.604
 9231SOL    HW228593   0.341   4.107   4.546
 9232SOL     OW28594   3.851   4.733   0.196
 9232SOL    HW128595   3.852   4.646   0.245
 9232SOL    HW228596   3.908   4.799   0.244
 9233SOL     OW28597   5.458   5.291   2.038
 9233SOL    HW128598   5.392   5.357   2.074
 9233SOL    HW228599   5.495   5.237   2.113
 9234SOL     OW28600   3.482   6.146   5.886
 9234SOL    HW128601   3.419   6.167   5.961
 9234SOL    HW228602   3.571   6.118   5.923
 9235SOL     OW28603   1.535   3.102   3.389
 9235SOL    HW128604   1.480   3.157   3.326
 9235SOL    HW228605   1.491   3.099   3.479
 9236SOL     OW28606   1.876   4.707   5.688
 9236SOL    HW128607   1.796   4.700   5.748
 9236SOL    HW228608   1.959   4.691   5.740
 9237SOL     OW28609   1.744   5.403   4.452
 9237SOL    HW128610   1.837   5.434   4.433
 9237SOL    HW228611   1.679   5.458   4.401
 9238SOL     OW28612   3.638   1.103   0.400
 9238SOL    HW128613   3.609   1.172   0.466
 9238SOL    HW228614   3.646   1.145   0.310
 9239SOL     OW28615   6.430   4.265   0.383
 9239SOL    HW128616   6.393   4.341   0.436
 9239SOL    HW228617   6.505   4.222   0.433
 9240SOL     OW28618   5.145   1.431   1.238
 9240SOL    HW128619   5.051   1.416   1.270
 9240SOL    HW228620   5.147   1.428   1.138
 9241SOL     OW28621   0.588   5.283   5.731
 9241SOL    HW128622   0.662   5.256   5.792
 9241SOL    HW228623   0.574   5.382   5.738
 9242SOL     OW28624   0.918   5.164   0.080
 9242SOL    HW128625   0.919   5.228   0.157
 9242SOL    HW228626   0.984   5.194   0.011
 9243SOL     OW28627   6.066   6.992   1.417
 9243SOL    HW128628   6.055   6.951   1.327
 9243SOL    HW228629   6.139   0.037   1.414
 9244SOL     OW28630   4.673   5.416   6.050
 9244SOL    HW128631   4.637   5.449   6.137
 9244SOL    HW228632   4.772   5.401   6.059
 9245SOL     OW28633   1.722   4.914   3.374
 9245SOL    HW128634   1.683   4.834   3.329
 9245SOL    HW228635   1.734   4.896   3.471
 9246SOL     OW28636   7.023   5.676   2.474
 9246SOL    HW128637   6.958   5.752   2.465
 9246SOL    HW228638   0.030   5.669   2.569
 9247SOL     OW28639   1.427   6.823   2.565
 9247SOL    HW128640   1.373   6.861   2.640
 9247SOL    HW228641   1.422   6.723   2.569
 9248SOL     OW28642   1.805   1.797   4.469
 9248SOL    HW128643   1.728   1.819   4.529
 9248SOL    HW228644   1.890   1.824   4.514
 9249SOL     OW28645   4.274   4.223   0.130
 9249SOL    HW128646   4.279   4.317   0.095
 9249SOL    HW228647   4.331   4.163   0.074
 9250SOL     OW28648   5.435   3.300   4.174
 9250SOL    HW128649   5.455   3.397   4.159
 9250SOL    HW228650   5.389   3.288   4.262
 9251SOL     OW28651   4.432   1.875   2.521
 9251SOL    HW128652   4.344   1.883   2.475
 9251SOL    HW228653   4.486   1.958   2.505
 9252SOL     OW28654   5.705   0.462   4.700
 9252SOL    HW128655   5.706   0.562   4.690
 9252SOL    HW228656   5.792   0.432   4.738
 9253SOL     OW28657   5.459   6.334   5.206
 9253SOL    HW128658   5.416   6.391   5.276
 9253SOL    HW228659   5.403   6.333   5.124
 9254SOL     OW28660   6.246   4.608   2.763
 9254SOL    HW128661   6.150   4.638   2.767
 9254SOL    HW228662   6.282   4.599   2.856
 9255SOL     OW28663   4.521   3.629   6.865
 9255SOL    HW128664   4.557   3.583   6.946
 9255SOL    HW228665   4.456   3.568   6.820
 9256SOL     OW28666   4.470   0.011   2.847
 9256SOL    HW128667   4.484   6.949   2.797
 9256SOL    HW228668   4.455   0.086   2.782
 9257SOL     OW28669   0.037   3.804   3.045
 9257SOL    HW128670   0.107   3.856   2.996
 9257SOL    HW228671   7.012   3.744   2.981
 9258SOL     OW28672   3.189   3.342   3.280
 9258SOL    HW128673   3.211   3.245   3.280
 9258SOL    HW228674   3.273   3.396   3.273
 9259SOL     OW28675   1.260   2.634   6.582
 9259SOL    HW128676   1.354   2.613   6.611
 9259SOL    HW228677   1.232   2.568   6.512
 9260SOL     OW28678   4.897   1.884   4.744
 9260SOL    HW128679   4.967   1.817   4.769
 9260SOL    HW228680   4.923   1.974   4.778
 9261SOL     OW28681   4.526   0.870   0.106
 9261SOL    HW128682   4.584   0.917   0.172
 9261SOL    HW228683   4.521   0.923   0.021
 9262SOL     OW28684   0.238   3.687   5.804
 9262SOL    HW128685   0.272   3.766   5.754
 9262SOL    HW228686   0.314   3.626   5.828
 9263SOL     OW28687   5.166   6.052   1.980
 9263SOL    HW128688   5.240   6.026   1.919
 9263SOL    HW228689   5.200   6.057   2.074
 9264SOL     OW28690   5.812   4.209   0.589
 9264SOL    HW128691   5.838   4.257   0.505
 9264SOL    HW228692   5.745   4.138   0.568
 9265SOL     OW28693   3.528   2.087   0.050
 9265SOL    HW128694   3.572   2.012   0.098
 9265SOL    HW228695   3.574   2.173   0.072
 9266SOL     OW28696   2.411   0.080   2.019
 9266SOL    HW128697   2.388   0.166   1.974
 9266SOL    HW228698   2.387   0.086   2.116
 9267SOL     OW28699   0.377   3.492   5.220
 9267SOL    HW128700   0.392   3.400   5.184
 9267SOL    HW228701   0.308   3.489   5.292
 9268SOL     OW28702   1.144   5.540   1.785
 9268SOL    HW128703   1.198   5.585   1.856
 9268SOL    HW228704   1.119   5.448   1.815
 9269SOL     OW28705   2.852   1.406   6.060
 9269SOL    HW128706   2.818   1.361   5.978
 9269SOL    HW228707   2.827   1.503   6.057
 9270SOL     OW28708   4.407   6.562   5.954
 9270SOL    HW128709   4.348   6.483   5.972
 9270SOL    HW228710   4.490   6.554   6.008
 9271SOL     OW28711   0.345   0.010   6.853
 9271SOL    HW128712   0.307   0.010   6.946
 9271SOL    HW228713   0.278   0.048   6.790
 9272SOL     OW28714   1.912   5.144   4.119
 9272SOL    HW128715   1.834   5.095   4.159
 9272SOL    HW228716   1.878   5.223   4.068
 9273SOL     OW28717   5.954   6.042   3.436
 9273SOL    HW128718   5.999   6.034   3.525
 9273SOL    HW228719   5.930   5.951   3.402
 9274SOL     OW28720   6.242   2.544   0.151
 9274SOL    HW128721   6.174   2.586   0.211
 9274SOL    HW228722   6.282   2.614   0.092
 9275SOL     OW28723   0.189   1.718   6.618
 9275SOL    HW128724   0.091   1.696   6.626
 9275SOL    HW228725   0.242   1.634   6.621
 9276SOL     OW28726   2.107   4.147   2.800
 9276SOL    HW128727   2.152   4.137   2.712
 9276SOL    HW228728   2.090   4.244   2.818
 9277SOL     OW28729   5.296   2.933   6.993
 9277SOL    HW128730   5.238   2.949   0.050
 9277SOL    HW228731   5.315   3.019   6.947
 9278SOL     OW28732   1.157   0.561   5.847
 9278SOL    HW128733   1.179   0.658   5.854
 9278SOL    HW228734   1.091   0.547   5.773
 9279SOL     OW28735   5.175   0.899   1.787
 9279SOL    HW128736   5.197   0.952   1.705
 9279SOL    HW228737   5.258   0.856   1.822
 9280SOL     OW28738   1.938   1.467   3.575
 9280SOL    HW128739   1.960   1.565   3.582
 9280SOL    HW228740   1.839   1.455   3.579
 9281SOL     OW28741   2.704   4.829   0.560
 9281SOL    HW128742   2.635   4.757   0.549
 9281SOL    HW228743   2.675   4.894   0.630
 9282SOL     OW28744   5.073   0.838   4.297
 9282SOL    HW128745   5.045   0.805   4.206
 9282SOL    HW228746   4.992   0.855   4.353
 9283SOL     OW28747   5.740   0.409   3.777
 9283SOL    HW128748   5.766   0.351   3.854
 9283SOL    HW228749   5.788   0.497   3.783
 9284SOL     OW28750   2.943   4.226   6.168
 9284SOL    HW128751   3.037   4.198   6.152
 9284SOL    HW228752   2.883   4.146   6.169
 9285SOL     OW28753   4.994   2.512   1.319
 9285SOL    HW128754   4.957   2.421   1.338
 9285SOL    HW228755   4.946   2.553   1.242
 9286SOL     OW28756   5.225   6.193   0.063
 9286SOL    HW128757   5.312   6.161   0.099
 9286SOL    HW228758   5.241   6.262   7.016
 9287SOL     OW28759   3.455   5.277   6.181
 9287SOL    HW128760   3.482   5.251   6.274
 9287SOL    HW228761   3.392   5.354   6.186
 9288SOL     OW28762   4.254   1.496   3.607
 9288SOL    HW128763   4.276   1.569   3.672
 9288SOL    HW228764   4.270   1.529   3.514
 9289SOL     OW28765   4.249   1.626   2.245
 9289SOL    HW128766   4.346   1.602   2.244
 9289SOL    HW228767   4.237   1.718   2.206
 9290SOL     OW28768   5.317   1.018   3.077
 9290SOL    HW128769   5.278   0.948   3.136
 9290SOL    HW228770   5.353   1.092   3.133
 9291SOL     OW28771   1.873   6.686   4.246
 9291SOL    HW128772   1.972   6.695   4.261
 9291SOL    HW228773   1.850   6.714   4.153
 9292SOL     OW28774   0.636   3.545   6.912
 9292SOL    HW128775   0.541   3.522   6.890
 9292SOL    HW228776   0.678   3.470   6.961
 9293SOL     OW28777   5.704   4.018   6.861
 9293SOL    HW128778   5.763   4.044   6.938
 9293SOL    HW228779   5.760   3.994   6.782
 9294SOL     OW28780   3.473   0.828   5.092
 9294SOL    HW128781   3.517   0.748   5.052
 9294SOL    HW228782   3.532   0.866   5.162
 9295SOL     OW28783   5.237   2.057   4.293
 9295SOL    HW128784   5.241   1.999   4.212
 9295SOL    HW228785   5.178   2.135   4.276
 9296SOL     OW28786   6.982   6.443   6.529
 9296SOL    HW128787   6.934   6.516   6.576
 9296SOL    HW228788   0.010   6.481   6.452
 9297SOL     OW28789   6.737   0.945   0.300
 9297SOL    HW128790   6.687   0.975   0.380
 9297SOL    HW228791   6.690   0.975   0.217
 9298SOL     OW28792   1.295   0.370   4.889
 9298SOL    HW128793   1.319   0.280   4.925
 9298SOL    HW228794   1.211   0.363   4.835
 9299SOL     OW28795   0.689   2.719   4.527
 9299SOL    HW128796   0.733   2.766   4.604
 9299SOL    HW228797   0.729   2.751   4.441
 9300SOL     OW28798   0.493   4.703   5.374
 9300SOL    HW128799   0.443   4.632   5.324
 9300SOL    HW228800   0.467   4.701   5.470
 9301SOL     OW28801   4.739   4.387   3.844
 9301SOL    HW128802   4.772   4.463   3.899
 9301SOL    HW228803   4.813   4.322   3.828
 9302SOL     OW28804   2.308   2.917   4.021
 9302SOL    HW128805   2.352   3.006   4.026
 9302SOL    HW228806   2.232   2.914   4.087
 9303SOL     OW28807   3.202   5.032   0.823
 9303SOL    HW128808   3.109   4.996   0.830
 9303SOL    HW228809   3.262   4.960   0.787
 9304SOL     OW28810   4.652   4.316   2.200
 9304SOL    HW128811   4.613   4.318   2.107
 9304SOL    HW228812   4.608   4.245   2.253
 9305SOL     OW28813   2.748   0.900   1.474
 9305SOL    HW128814   2.733   0.812   1.428
 9305SOL    HW228815   2.831   0.943   1.438
 9306SOL     OW28816   0.013   4.504   4.568
 9306SOL    HW128817   6.999   4.412   4.573
 9306SOL    HW228818   0.066   4.524   4.650
 9307SOL     OW28819   1.867   3.673   1.916
 9307SOL    HW128820   1.955   3.707   1.949
 9307SOL    HW228821   1.805   3.750   1.901
 9308SOL     OW28822   2.119   4.194   0.469
 9308SOL    HW128823   2.070   4.161   0.388
 9308SOL    HW228824   2.140   4.291   0.457
 9309SOL     OW28825   3.922   5.184   5.532
 9309SOL    HW128826   3.854   5.189   5.459
 9309SOL    HW228827   3.952   5.089   5.543
 9310SOL     OW28828   4.792   5.084   6.554
 9310SOL    HW128829   4.717   5.093   6.620
 9310SOL    HW228830   4.864   5.150   6.575
 9311SOL     OW28831   4.047   4.922   2.183
 9311SOL    HW128832   4.133   4.886   2.147
 9311SOL    HW228833   3.976   4.916   2.113
 9312SOL     OW28834   1.259   3.691   1.511
 9312SOL    HW128835   1.165   3.723   1.497
 9312SOL    HW228836   1.258   3.600   1.552
 9313SOL     OW28837   0.607   0.206   1.185
 9313SOL    HW128838   0.707   0.202   1.191
 9313SOL    HW228839   0.581   0.220   1.089
 9314SOL     OW28840   5.045   5.608   6.013
 9314SOL    HW128841   5.029   5.512   6.037
 9314SOL    HW228842   5.006   5.667   6.083
 9315SOL     OW28843   6.466   0.526   4.917
 9315SOL    HW128844   6.401   0.456   4.947
 9315SOL    HW228845   6.457   0.607   4.975
 9316SOL     OW28846   4.156   5.525   5.306
 9316SOL    HW128847   4.177   5.542   5.403
 9316SOL    HW228848   4.209   5.587   5.249
 9317SOL     OW28849   6.088   5.181   3.155
 9317SOL    HW128850   6.097   5.158   3.252
 9317SOL    HW228851   6.086   5.096   3.101
 9318SOL     OW28852   6.407   0.298   5.694
 9318SOL    HW128853   6.482   0.356   5.726
 9318SOL    HW228854   6.319   0.337   5.723
 9319SOL     OW28855   1.571   3.017   6.951
 9319SOL    HW128856   1.481   3.058   6.957
 9319SOL    HW228857   1.587   2.958   0.007
 9320SOL     OW28858   3.810   0.487   5.060
 9320SOL    HW128859   3.890   0.443   5.018
 9320SOL    HW228860   3.833   0.581   5.085
 9321SOL     OW28861   6.675   0.143   3.784
 9321SOL    HW128862   6.722   0.171   3.699
 9321SOL    HW228863   6.722   0.183   3.862
 9322SOL     OW28864   0.874   4.279   6.970
 9322SOL    HW128865   0.808   4.336   7.019
 9322SOL    HW228866   0.888   4.316   6.878
 9323SOL     OW28867   1.537   0.739   5.454
 9323SOL    HW128868   1.625   0.761   5.411
 9323SOL    HW228869   1.551   0.671   5.526
 9324SOL     OW28870   1.729   4.806   0.748
 9324SOL    HW128871   1.663   4.757   0.692
 9324SOL    HW228872   1.698   4.808   0.843
 9325SOL     OW28873   4.876   0.477   0.123
 9325SOL    HW128874   4.839   0.420   0.196
 9325SOL    HW228875   4.810   0.482   0.048
 9326SOL     OW28876   2.360   5.448   0.581
 9326SOL    HW128877   2.360   5.449   0.681
 9326SOL    HW228878   2.454   5.454   0.547
 9327SOL     OW28879   5.458   0.336   3.255
 9327SOL    HW128880   5.365   0.298   3.259
 9327SOL    HW228881   5.454   0.431   3.225
 9328SOL     OW28882   2.505   0.413   5.816
 9328SOL    HW128883   2.461   0.462   5.891
 9328SOL    HW228884   2.551   0.332   5.851
 9329SOL     OW28885   5.718   4.023   1.468
 9329SOL    HW128886   5.729   4.103   1.410
 9329SOL    HW228887   5.663   4.046   1.547
 9330SOL     OW28888   5.965   6.945   6.630
 9330SOL    HW128889   6.014   6.918   6.713
 9330SOL    HW228890   5.878   6.896   6.626
 9331SOL     OW28891   2.323   0.930   6.907
 9331SOL    HW128892   2.371   1.016   6.921
 9331SOL    HW228893   2.379   0.869   6.851
 9332SOL     OW28894   4.006   4.002   1.799
 9332SOL    HW128895   3.989   4.097   1.770
 9332SOL    HW228896   3.972   3.989   1.892
 9333SOL     OW28897   3.605   3.254   0.638
 9333SOL    HW128898   3.600   3.260   0.538
 9333SOL    HW228899   3.699   3.266   0.668
 9334SOL     OW28900   6.048   5.738   3.613
 9334SOL    HW128901   6.132   5.710   3.566
 9334SOL    HW228902   6.063   5.826   3.658
 9335SOL     OW28903   0.952   1.166   6.044
 9335SOL    HW128904   0.882   1.136   6.110
 9335SOL    HW228905   0.908   1.185   5.956
 9336SOL     OW28906   2.880   5.537   5.786
 9336SOL    HW128907   2.977   5.542   5.763
 9336SOL    HW228908   2.839   5.459   5.740
 9337SOL     OW28909   4.489   1.971   4.508
 9337SOL    HW128910   4.426   1.895   4.491
 9337SOL    HW228911   4.582   1.942   4.486
 9338SOL     OW28912   5.259   0.718   2.320
 9338SOL    HW128913   5.251   0.703   2.221
 9338SOL    HW228914   5.354   0.738   2.344
 9339SOL     OW28915   5.690   7.016   1.657
 9339SOL    HW128916   5.646   7.007   1.568
 9339SOL    HW228917   5.633   6.973   1.727
 9340SOL     OW28918   5.742   4.107   4.654
 9340SOL    HW128919   5.771   4.167   4.579
 9340SOL    HW228920   5.731   4.014   4.619
 9341SOL     OW28921   6.786   5.939   0.934
 9341SOL    HW128922   6.687   5.945   0.920
 9341SOL    HW228923   6.812   5.993   1.014
 9342SOL     OW28924   2.189   6.573   4.062
 9342SOL    HW128925   2.139   6.511   4.122
 9342SOL    HW228926   2.263   6.617   4.114
 9343SOL     OW28927   5.817   4.150   2.598
 9343SOL    HW128928   5.733   4.193   2.630
 9343SOL    HW228929   5.812   4.051   2.612
 9344SOL     OW28930   5.055   6.373   2.702
 9344SOL    HW128931   4.962   6.377   2.664
 9344SOL    HW228932   5.050   6.372   2.802
 9345SOL     OW28933   6.109   5.041   2.363
 9345SOL    HW128934   6.057   4.962   2.331
 9345SOL    HW228935   6.174   5.011   2.434
 9346SOL     OW28936   6.295   1.028   1.143
 9346SOL    HW128937   6.282   0.962   1.069
 9346SOL    HW228938   6.343   1.109   1.109
 9347SOL     OW28939   2.259   3.707   0.851
 9347SOL    HW128940   2.254   3.741   0.945
 9347SOL    HW228941   2.169   3.675   0.823
 9348SOL     OW28942   3.629   6.091   2.035
 9348SOL    HW128943   3.605   6.165   2.098
 9348SOL    HW228944   3.701   6.122   1.973
 9349SOL     OW28945   6.429   5.684   3.714
 9349SOL    HW128946   6.511   5.737   3.691
 9349SOL    HW228947   6.416   5.612   3.645
 9350SOL     OW28948   0.566   3.182   5.055
 9350SOL    HW128949   0.467   3.176   5.040
 9350SOL    HW228950   0.591   3.124   5.132
 9351SOL     OW28951   2.740   0.362   6.888
 9351SOL    HW128952   2.807   0.334   6.820
 9351SOL    HW228953   2.651   0.321   6.866
 9352SOL     OW28954   3.732   1.821   6.332
 9352SOL    HW128955   3.648   1.787   6.375
 9352SOL    HW228956   3.755   1.763   6.253
 9353SOL     OW28957   0.592   4.329   0.819
 9353SOL    HW128958   0.640   4.299   0.736
 9353SOL    HW228959   0.566   4.250   0.873
 9354SOL     OW28960   0.002   2.009   6.316
 9354SOL    HW128961   0.005   1.909   6.319
 9354SOL    HW228962   0.095   2.046   6.327
 9355SOL     OW28963   0.283   2.199   4.628
 9355SOL    HW128964   0.207   2.182   4.566
 9355SOL    HW228965   0.359   2.139   4.605
 9356SOL     OW28966   4.931   0.586   2.015
 9356SOL    HW128967   4.952   0.516   1.947
 9356SOL    HW228968   4.842   0.568   2.056
 9357SOL     OW28969   1.644   2.765   5.720
 9357SOL    HW128970   1.621   2.704   5.795
 9357SOL    HW228971   1.607   2.727   5.634
 9358SOL     OW28972   6.075   3.692   1.870
 9358SOL    HW128973   6.127   3.768   1.830
 9358SOL    HW228974   6.132   3.644   1.936
 9359SOL     OW28975   1.167   4.418   6.206
 9359SOL    HW128976   1.194   4.507   6.243
 9359SOL    HW228977   1.067   4.409   6.212
 9360SOL     OW28978   0.912   4.652   6.240
 9360SOL    HW128979   0.984   4.719   6.258
 9360SOL    HW228980   0.927   4.571   6.297
 9361SOL     OW28981   1.919   4.563   3.530
 9361SOL    HW128982   2.007   4.581   3.573
 9361SOL    HW228983   1.924   4.585   3.433
 9362SOL     OW28984   1.328   1.419   2.708
 9362SOL    HW128985   1.320   1.448   2.804
 9362SOL    HW228986   1.401   1.352   2.700
 9363SOL     OW28987   2.861   5.529   1.910
 9363SOL    HW128988   2.781   5.580   1.942
 9363SOL    HW228989   2.875   5.546   1.813
 9364SOL     OW28990   2.547   2.073   0.028
 9364SOL    HW128991   2.557   2.157   0.082
 9364SOL    HW228992   2.490   2.008   0.079
 9365SOL     OW28993   2.895   2.074   3.276
 9365SOL    HW128994   2.803   2.040   3.296
 9365SOL    HW228995   2.927   2.133   3.350
 9366SOL     OW28996   3.020   5.296   6.579
 9366SOL    HW128997   3.005   5.318   6.482
 9366SOL    HW228998   3.067   5.372   6.623
 9367SOL     OW28999   6.743   6.546   2.323
 9367SOL    HW129000   6.792   6.589   2.400
 9367SOL    HW229001   6.764   6.595   2.239
 9368SOL     OW29002   3.309   0.124   2.438
 9368SOL    HW129003   3.229   0.184   2.446
 9368SOL    HW229004   3.327   0.082   2.527
 9369SOL     OW29005   6.798   6.495   3.541
 9369SOL    HW129006   6.862   6.572   3.535
 9369SOL    HW229007   6.737   6.496   3.463
 9370SOL     OW29008   5.370   0.171   5.021
 9370SOL    HW129009   5.421   0.253   4.996
 9370SOL    HW229010   5.345   0.176   5.118
 9371SOL     OW29011   2.336   6.054   0.380
 9371SOL    HW129012   2.364   6.049   0.285
 9371SOL    HW229013   2.373   5.976   0.431
 9372SOL     OW29014   5.622   6.726   1.470
 9372SOL    HW129015   5.587   6.814   1.440
 9372SOL    HW229016   5.664   6.679   1.393
 9373SOL     OW29017   4.652   2.521   1.136
 9373SOL    HW129018   4.750   2.538   1.122
 9373SOL    HW229019   4.603   2.537   1.051
 9374SOL     OW29020   0.665   3.060   6.481
 9374SOL    HW129021   0.696   3.075   6.387
 9374SOL    HW229022   0.699   3.134   6.539
 9375SOL     OW29023   0.597   2.292   0.998
 9375SOL    HW129024   0.521   2.257   0.944
 9375SOL    HW229025   0.562   2.330   1.084
 9376SOL     OW29026   2.274   3.794   1.801
 9376SOL    HW129027   2.229   3.709   1.776
 9376SOL    HW229028   2.341   3.819   1.731
 9377SOL     OW29029   2.009   4.890   3.316
 9377SOL    HW129030   1.911   4.912   3.321
 9377SOL    HW229031   2.062   4.966   3.356
 9378SOL     OW29032   3.660   1.271   3.270
 9378SOL    HW129033   3.572   1.273   3.318
 9378SOL    HW229034   3.645   1.270   3.171
 9379SOL     OW29035   5.200   0.264   4.780
 9379SOL    HW129036   5.277   0.239   4.838
 9379SOL    HW229037   5.203   0.211   4.695
 9380SOL     OW29038   3.890   5.736   5.391
 9380SOL    HW129039   3.925   5.651   5.352
 9380SOL    HW229040   3.795   5.722   5.420
 9381SOL     OW29041   5.455   2.818   5.693
 9381SOL    HW129042   5.536   2.867   5.724
 9381SOL    HW229043   5.378   2.881   5.686
 9382SOL     OW29044   4.328   1.280   3.799
 9382SOL    HW129045   4.242   1.232   3.784
 9382SOL    HW229046   4.353   1.331   3.717
 9383SOL     OW29047   5.854   5.083   4.284
 9383SOL    HW129048   5.832   5.116   4.192
 9383SOL    HW229049   5.773   5.040   4.324
 9384SOL     OW29050   3.316   6.963   2.062
 9384SOL    HW129051   3.327   6.868   2.031
 9384SOL    HW229052   3.252   6.966   2.138
 9385SOL     OW29053   4.787   1.378   4.148
 9385SOL    HW129054   4.849   1.299   4.154
 9385SOL    HW229055   4.795   1.433   4.232
 9386SOL     OW29056   3.160   5.510   5.237
 9386SOL    HW129057   3.134   5.453   5.160
 9386SOL    HW229058   3.113   5.598   5.231
 9387SOL     OW29059   3.248   2.532   0.657
 9387SOL    HW129060   3.215   2.438   0.650
 9387SOL    HW229061   3.209   2.575   0.739
 9388SOL     OW29062   1.933   6.223   3.383
 9388SOL    HW129063   1.932   6.197   3.287
 9388SOL    HW229064   1.845   6.264   3.408
 9389SOL     OW29065   3.171   6.472   2.639
 9389SOL    HW129066   3.253   6.528   2.627
 9389SOL    HW229067   3.142   6.435   2.551
 9390SOL     OW29068   5.961   5.562   5.867
 9390SOL    HW129069   5.897   5.598   5.936
 9390SOL    HW229070   5.910   5.511   5.798
 9391SOL     OW29071   0.315   0.148   5.853
 9391SOL    HW129072   0.314   0.061   5.803
 9391SOL    HW229073   0.379   0.211   5.808
 9392SOL     OW29074   5.098   4.211   5.015
 9392SOL    HW129075   5.073   4.130   4.961
 9392SOL    HW229076   5.036   4.286   4.993
 9393SOL     OW29077   2.906   6.668   5.726
 9393SOL    HW129078   2.864   6.683   5.815
 9393SOL    HW229079   3.001   6.698   5.728
 9394SOL     OW29080   6.055   0.369   1.191
 9394SOL    HW129081   6.013   0.410   1.110
 9394SOL    HW229082   5.985   0.356   1.261
 9395SOL     OW29083   2.010   1.264   0.863
 9395SOL    HW129084   2.075   1.221   0.801
 9395SOL    HW229085   1.917   1.234   0.840
 9396SOL     OW29086   1.292   4.273   4.588
 9396SOL    HW129087   1.241   4.282   4.503
 9396SOL    HW229088   1.308   4.176   4.607
 9397SOL     OW29089   2.280   6.449   5.897
 9397SOL    HW129090   2.267   6.369   5.955
 9397SOL    HW229091   2.208   6.516   5.916
 9398SOL     OW29092   6.026   1.204   5.980
 9398SOL    HW129093   5.991   1.287   6.024
 9398SOL    HW229094   6.057   1.140   6.051
 9399SOL     OW29095   0.979   3.297   4.172
 9399SOL    HW129096   0.881   3.307   4.188
 9399SOL    HW229097   1.008   3.361   4.101
 9400SOL     OW29098   4.447   0.342   0.873
 9400SOL    HW129099   4.403   0.294   0.797
 9400SOL    HW229100   4.410   0.435   0.879
 9401SOL     OW29101   7.013   1.818   2.771
 9401SOL    HW129102   0.069   1.855   2.722
 9401SOL    HW229103   6.936   1.810   2.709
 9402SOL     OW29104   1.202   4.003   2.955
 9402SOL    HW129105   1.187   3.945   2.875
 9402SOL    HW229106   1.261   4.079   2.931
 9403SOL     OW29107   6.644   1.476   2.189
 9403SOL    HW129108   6.584   1.554   2.205
 9403SOL    HW229109   6.590   1.399   2.156
 9404SOL     OW29110   0.226   1.699   0.970
 9404SOL    HW129111   0.175   1.782   0.947
 9404SOL    HW229112   0.216   1.681   1.068
 9405SOL     OW29113   1.468   4.194   4.243
 9405SOL    HW129114   1.454   4.095   4.238
 9405SOL    HW229115   1.531   4.222   4.170
 9406SOL     OW29116   0.852   3.442   0.230
 9406SOL    HW129117   0.902   3.403   0.307
 9406SOL    HW229118   0.793   3.372   0.190
 9407SOL     OW29119   2.396   5.084   4.389
 9407SOL    HW129120   2.341   5.162   4.418
 9407SOL    HW229121   2.472   5.071   4.453
 9408SOL     OW29122   0.978   2.224   6.215
 9408SOL    HW129123   0.987   2.322   6.197
 9408SOL    HW229124   0.892   2.207   6.263
 9409SOL     OW29125   6.282   5.710   1.737
 9409SOL    HW129126   6.365   5.689   1.685
 9409SOL    HW229127   6.292   5.799   1.781
 9410SOL     OW29128   3.798   1.273   1.900
 9410SOL    HW129129   3.815   1.183   1.941
 9410SOL    HW229130   3.818   1.344   1.967
 9411SOL     OW29131   3.744   3.629   3.052
 9411SOL    HW129132   3.649   3.619   3.083
 9411SOL    HW229133   3.806   3.596   3.123
 9412SOL     OW29134   1.690   0.121   2.108
 9412SOL    HW129135   1.593   0.143   2.111
 9412SOL    HW229136   1.702   0.022   2.109
 9413SOL     OW29137   4.831   5.355   4.335
 9413SOL    HW129138   4.824   5.327   4.430
 9413SOL    HW229139   4.920   5.328   4.298
 9414SOL     OW29140   3.369   2.084   4.150
 9414SOL    HW129141   3.307   2.155   4.117
 9414SOL    HW229142   3.416   2.042   4.071
 9415SOL     OW29143   2.468   0.188   1.569
 9415SOL    HW129144   2.449   0.277   1.526
 9415SOL    HW229145   2.435   0.189   1.663
 9416SOL     OW29146   0.256   0.598   5.447
 9416SOL    HW129147   0.181   0.565   5.505
 9416SOL    HW229148   0.224   0.677   5.394
 9417SOL     OW29149   3.681   6.854   1.696
 9417SOL    HW129150   3.612   6.802   1.747
 9417SOL    HW229151   3.700   6.940   1.744
 9418SOL     OW29152   2.473   1.397   2.376
 9418SOL    HW129153   2.454   1.383   2.279
 9418SOL    HW229154   2.569   1.378   2.394
 9419SOL     OW29155   1.891   3.269   6.848
 9419SOL    HW129156   1.816   3.274   6.782
 9419SOL    HW229157   1.969   3.322   6.814
 9420SOL     OW29158   5.230   4.519   0.016
 9420SOL    HW129159   5.297   4.593   0.010
 9420SOL    HW229160   5.260   4.454   0.086
 9421SOL     OW29161   2.904   5.367   3.965
 9421SOL    HW129162   2.919   5.464   3.986
 9421SOL    HW229163   2.945   5.311   4.038
 9422SOL     OW29164   2.647   6.305   3.973
 9422SOL    HW129165   2.652   6.206   3.958
 9422SOL    HW229166   2.696   6.329   4.057
 9423SOL     OW29167   3.919   6.209   3.100
 9423SOL    HW129168   3.926   6.265   3.018
 9423SOL    HW229169   3.995   6.145   3.103
 9424SOL     OW29170   5.417   2.000   4.695
 9424SOL    HW129171   5.386   1.911   4.727
 9424SOL    HW229172   5.486   2.036   4.758
 9425SOL     OW29173   5.600   5.262   1.120
 9425SOL    HW129174   5.693   5.227   1.116
 9425SOL    HW229175   5.588   5.333   1.051
 9426SOL     OW29176   2.449   1.670   6.146
 9426SOL    HW129177   2.443   1.727   6.064
 9426SOL    HW229178   2.386   1.705   6.216
 9427SOL     OW29179   2.160   6.018   3.326
 9427SOL    HW129180   2.116   6.069   3.400
 9427SOL    HW229181   2.196   5.931   3.362
 9428SOL     OW29182   6.545   0.042   0.878
 9428SOL    HW129183   6.604   0.004   0.806
 9428SOL    HW229184   6.524   0.137   0.857
 9429SOL     OW29185   2.231   2.311   4.003
 9429SOL    HW129186   2.219   2.362   3.918
 9429SOL    HW229187   2.301   2.240   3.990
 9430SOL     OW29188   0.329   2.579   4.349
 9430SOL    HW129189   0.385   2.539   4.422
 9430SOL    HW229190   0.359   2.673   4.332
 9431SOL     OW29191   6.926   4.827   1.216
 9431SOL    HW129192   6.992   4.858   1.148
 9431SOL    HW229193   6.870   4.904   1.246
 9432SOL     OW29194   5.836   1.611   4.989
 9432SOL    HW129195   5.845   1.518   5.027
 9432SOL    HW229196   5.781   1.667   5.052
 9433SOL     OW29197   3.939   6.397   3.302
 9433SOL    HW129198   3.931   6.328   3.231
 9433SOL    HW229199   3.849   6.419   3.339
 9434SOL     OW29200   6.265   5.723   3.423
 9434SOL    HW129201   6.340   5.657   3.425
 9434SOL    HW229202   6.207   5.705   3.343
 9435SOL     OW29203   0.237   1.872   2.617
 9435SOL    HW129204   0.317   1.926   2.639
 9435SOL    HW229205   0.222   1.871   2.519
 9436SOL     OW29206   1.469   1.496   2.968
 9436SOL    HW129207   1.466   1.530   3.062
 9436SOL    HW229208   1.513   1.565   2.910
 9437SOL     OW29209   0.764   4.986   3.706
 9437SOL    HW129210   0.758   4.980   3.607
 9437SOL    HW229211   0.856   5.014   3.733
 9438SOL     OW29212   1.626   0.402   2.006
 9438SOL    HW129213   1.700   0.339   2.032
 9438SOL    HW229214   1.640   0.490   2.051
 9439SOL     OW29215   0.612   3.557   1.263
 9439SOL    HW129216   0.581   3.500   1.187
 9439SOL    HW229217   0.554   3.639   1.268
 9440SOL     OW29218   3.778   4.926   3.763
 9440SOL    HW129219   3.748   4.925   3.668
 9440SOL    HW229220   3.713   4.875   3.819
 9441SOL     OW29221   6.479   6.107   5.624
 9441SOL    HW129222   6.491   6.206   5.629
 9441SOL    HW229223   6.393   6.081   5.668
 9442SOL     OW29224   4.798   3.349   1.820
 9442SOL    HW129225   4.768   3.295   1.742
 9442SOL    HW229226   4.847   3.290   1.884
 9443SOL     OW29227   2.643   5.452   1.005
 9443SOL    HW129228   2.583   5.493   1.074
 9443SOL    HW229229   2.695   5.378   1.046
 9444SOL     OW29230   1.862   4.529   0.550
 9444SOL    HW129231   1.961   4.544   0.552
 9444SOL    HW229232   1.841   4.439   0.588
 9445SOL     OW29233   6.945   2.623   3.026
 9445SOL    HW129234   6.851   2.639   2.996
 9445SOL    HW229235   6.994   2.571   2.957
 9446SOL     OW29236   0.709   5.294   4.206
 9446SOL    HW129237   0.736   5.330   4.116
 9446SOL    HW229238   0.791   5.280   4.262
 9447SOL     OW29239   5.235   4.513   3.502
 9447SOL    HW129240   5.276   4.595   3.461
 9447SOL    HW229241   5.171   4.541   3.574
 9448SOL     OW29242   6.643   6.901   6.854
 9448SOL    HW129243   6.688   6.970   6.911
 9448SOL    HW229244   6.684   6.812   6.870
 9449SOL     OW29245   5.677   6.651   0.070
 9449SOL    HW129246   5.756   6.640   0.009
 9449SOL    HW229247   5.593   6.638   0.018
 9450SOL     OW29248   2.229   5.356   3.517
 9450SOL    HW129249   2.287   5.300   3.577
 9450SOL    HW229250   2.140   5.369   3.560
 9451SOL     OW29251   4.227   5.975   5.768
 9451SOL    HW129252   4.286   5.985   5.848
 9451SOL    HW229253   4.132   5.989   5.795
 9452SOL     OW29254   0.941   4.047   0.055
 9452SOL    HW129255   0.848   4.014   0.038
 9452SOL    HW229256   0.949   4.141   0.020
 9453SOL     OW29257   2.757   4.886   2.346
 9453SOL    HW129258   2.853   4.890   2.374
 9453SOL    HW229259   2.701   4.940   2.408
 9454SOL     OW29260   3.895   3.488   6.630
 9454SOL    HW129261   3.871   3.408   6.575
 9454SOL    HW229262   3.921   3.563   6.569
 9455SOL     OW29263   2.604   2.041   2.627
 9455SOL    HW129264   2.680   2.009   2.571
 9455SOL    HW229265   2.640   2.083   2.711
 9456SOL     OW29266   5.981   4.155   1.863
 9456SOL    HW129267   5.931   4.230   1.908
 9456SOL    HW229268   5.917   4.102   1.807
 9457SOL     OW29269   0.160   4.574   4.152
 9457SOL    HW129270   0.096   4.498   4.151
 9457SOL    HW229271   0.237   4.554   4.092
 9458SOL     OW29272   6.989   3.851   0.262
 9458SOL    HW129273   6.998   3.829   0.165
 9458SOL    HW229274   6.930   3.932   0.272
 9459SOL     OW29275   5.363   4.715   3.854
 9459SOL    HW129276   5.344   4.749   3.761
 9459SOL    HW229277   5.363   4.615   3.853
 9460SOL     OW29278   2.166   3.119   4.356
 9460SOL    HW129279   2.176   3.209   4.313
 9460SOL    HW229280   2.177   3.128   4.455
 9461SOL     OW29281   0.818   1.518   1.613
 9461SOL    HW129282   0.890   1.561   1.668
 9461SOL    HW229283   0.762   1.460   1.671
 9462SOL     OW29284   2.122   2.938   3.710
 9462SOL    HW129285   2.076   2.994   3.641
 9462SOL    HW229286   2.082   2.956   3.800
 9463SOL     OW29287   5.274   6.607   1.257
 9463SOL    HW129288   5.179   6.602   1.227
 9463SOL    HW229289   5.309   6.699   1.242
 9464SOL     OW29290   5.700   0.011   0.632
 9464SOL    HW129291   5.699   0.097   0.581
 9464SOL    HW229292   5.608   7.011   0.661
 9465SOL     OW29293   6.765   4.250   1.397
 9465SOL    HW129294   6.701   4.290   1.462
 9465SOL    HW229295   6.718   4.232   1.311
 9466SOL     OW29296   3.634   4.235   5.934
 9466SOL    HW129297   3.644   4.251   5.836
 9466SOL    HW229298   3.656   4.319   5.984
 9467SOL     OW29299   0.857   2.616   1.047
 9467SOL    HW129300   0.874   2.593   0.952
 9467SOL    HW229301   0.925   2.572   1.106
 9468SOL     OW29302   6.677   3.922   6.513
 9468SOL    HW129303   6.715   4.010   6.540
 9468SOL    HW229304   6.648   3.872   6.595
 9469SOL     OW29305   0.304   6.015   1.376
 9469SOL    HW129306   0.301   5.982   1.470
 9469SOL    HW229307   0.285   5.940   1.313
 9470SOL     OW29308   4.758   3.739   6.785
 9470SOL    HW129309   4.661   3.716   6.791
 9470SOL    HW229310   4.769   3.829   6.743
 9471SOL     OW29311   6.129   1.813   5.611
 9471SOL    HW129312   6.164   1.803   5.704
 9471SOL    HW229313   6.174   1.747   5.551
 9472SOL     OW29314   1.095   4.141   5.571
 9472SOL    HW129315   1.030   4.215   5.554
 9472SOL    HW229316   1.111   4.134   5.670
 9473SOL     OW29317   2.724   4.051   6.515
 9473SOL    HW129318   2.766   4.122   6.572
 9473SOL    HW229319   2.640   4.020   6.559
 9474SOL     OW29320   6.003   3.287   2.195
 9474SOL    HW129321   6.013   3.312   2.098
 9474SOL    HW229322   6.047   3.198   2.211
 9475SOL     OW29323   4.896   3.759   0.020
 9475SOL    HW129324   4.858   3.852   0.024
 9475SOL    HW229325   4.877   3.719   6.953
 9476SOL     OW29326   4.222   3.751   5.137
 9476SOL    HW129327   4.187   3.663   5.104
 9476SOL    HW229328   4.266   3.738   5.226
 9477SOL     OW29329   1.168   3.221   0.953
 9477SOL    HW129330   1.097   3.257   0.893
 9477SOL    HW229331   1.151   3.124   0.969
 9478SOL     OW29332   4.914   2.601   1.063
 9478SOL    HW129333   4.907   2.700   1.051
 9478SOL    HW229334   4.990   2.566   1.008
 9479SOL     OW29335   3.887   6.732   0.572
 9479SOL    HW129336   3.958   6.743   0.641
 9479SOL    HW229337   3.898   6.645   0.525
 9480SOL     OW29338   6.040   5.403   0.446
 9480SOL    HW129339   6.075   5.392   0.354
 9480SOL    HW229340   5.962   5.466   0.445
 9481SOL     OW29341   5.516   2.291   2.711
 9481SOL    HW129342   5.535   2.320   2.805
 9481SOL    HW229343   5.480   2.367   2.659
 9482SOL     OW29344   6.403   0.257   2.588
 9482SOL    HW129345   6.444   0.345   2.610
 9482SOL    HW229346   6.410   0.197   2.668
 9483SOL     OW29347   1.383   1.389   0.489
 9483SOL    HW129348   1.319   1.450   0.536
 9483SOL    HW229349   1.379   1.405   0.391
 9484SOL     OW29350   2.859   0.326   4.894
 9484SOL    HW129351   2.789   0.254   4.891
 9484SOL    HW229352   2.880   0.355   4.800
 9485SOL     OW29353   0.048   1.725   0.613
 9485SOL    HW129354   0.147   1.727   0.630
 9485SOL    HW229355   0.028   1.666   0.536
 9486SOL     OW29356   4.541   6.366   1.367
 9486SOL    HW129357   4.612   6.305   1.403
 9486SOL    HW229358   4.456   6.315   1.355
 9487SOL     OW29359   3.306   3.939   4.323
 9487SOL    HW129360   3.354   4.024   4.346
 9487SOL    HW229361   3.313   3.875   4.399
 9488SOL     OW29362   2.458   0.356   0.888
 9488SOL    HW129363   2.426   0.337   0.795
 9488SOL    HW229364   2.420   0.443   0.919
 9489SOL     OW29365   5.060   4.446   1.115
 9489SOL    HW129366   5.144   4.404   1.079
 9489SOL    HW229367   4.994   4.457   1.041
 9490SOL     OW29368   0.203   6.258   4.097
 9490SOL    HW129369   0.207   6.164   4.063
 9490SOL    HW229370   0.243   6.319   4.028
 9491SOL     OW29371   6.088   5.501   4.437
 9491SOL    HW129372   6.029   5.449   4.499
 9491SOL    HW229373   6.073   5.471   4.343
 9492SOL     OW29374   3.966   3.341   5.409
 9492SOL    HW129375   3.924   3.407   5.347
 9492SOL    HW229376   3.964   3.250   5.367
 9493SOL     OW29377   3.240   5.633   4.165
 9493SOL    HW129378   3.313   5.591   4.112
 9493SOL    HW229379   3.271   5.649   4.259
 9494SOL     OW29380   5.458   3.003   2.131
 9494SOL    HW129381   5.475   3.100   2.118
 9494SOL    HW229382   5.545   2.954   2.135
 9495SOL     OW29383   0.059   1.426   2.345
 9495SOL    HW129384   0.101   1.493   2.406
 9495SOL    HW229385   0.060   1.336   2.389
 9496SOL     OW29386   4.958   2.473   1.771
 9496SOL    HW129387   4.898   2.542   1.730
 9496SOL    HW229388   4.971   2.494   1.868
 9497SOL     OW29389   5.086   6.327   5.558
 9497SOL    HW129390   5.058   6.232   5.569
 9497SOL    HW229391   5.181   6.338   5.586
 9498SOL     OW29392   6.538   4.418   5.309
 9498SOL    HW129393   6.585   4.330   5.302
 9498SOL    HW229394   6.441   4.402   5.328
 9499SOL     OW29395   0.435   5.603   4.929
 9499SOL    HW129396   0.423   5.519   4.981
 9499SOL    HW229397   0.358   5.614   4.866
 9500SOL     OW29398   3.961   6.475   0.508
 9500SOL    HW129399   4.055   6.451   0.530
 9500SOL    HW229400   3.933   6.425   0.426
 9501SOL     OW29401   1.899   1.173   4.162
 9501SOL    HW129402   1.849   1.097   4.203
 9501SOL    HW229403   1.995   1.147   4.148
 9502SOL     OW29404   6.311   4.080   4.468
 9502SOL    HW129405   6.253   4.101   4.390
 9502SOL    HW229406   6.317   4.160   4.528
 9503SOL     OW29407   6.909   2.559   0.321
 9503SOL    HW129408   7.004   2.586   0.336
 9503SOL    HW229409   6.879   2.593   0.231
 9504SOL     OW29410   6.494   3.912   1.689
 9504SOL    HW129411   6.593   3.914   1.689
 9504SOL    HW229412   6.459   3.949   1.603
 9505SOL     OW29413   5.543   4.472   5.423
 9505SOL    HW129414   5.444   4.473   5.439
 9505SOL    HW229415   5.585   4.552   5.466
 9506SOL     OW29416   1.682   2.754   0.679
 9506SOL    HW129417   1.776   2.752   0.644
 9506SOL    HW229418   1.642   2.844   0.661
 9507SOL     OW29419   6.862   0.620   1.356
 9507SOL    HW129420   6.885   0.592   1.263
 9507SOL    HW229421   6.778   0.573   1.385
 9508SOL     OW29422   5.757   2.124   2.864
 9508SOL    HW129423   5.749   2.034   2.821
 9508SOL    HW229424   5.668   2.170   2.862
 9509SOL     OW29425   0.080   0.352   3.500
 9509SOL    HW129426   0.052   0.257   3.511
 9509SOL    HW229427   0.002   0.406   3.469
 9510SOL     OW29428   1.302   3.335   3.310
 9510SOL    HW129429   1.286   3.306   3.404
 9510SOL    HW229430   1.308   3.435   3.307
 9511SOL     OW29431   1.917   1.036   2.068
 9511SOL    HW129432   2.004   1.012   2.111
 9511SOL    HW229433   1.924   1.126   2.025
 9512SOL     OW29434   6.575   2.526   1.094
 9512SOL    HW129435   6.558   2.614   1.139
 9512SOL    HW229436   6.501   2.462   1.117
 9513SOL     OW29437   2.881   4.829   6.324
 9513SOL    HW129438   2.790   4.813   6.362
 9513SOL    HW229439   2.876   4.894   6.249
 9514SOL     OW29440   2.593   4.824   6.877
 9514SOL    HW129441   2.640   4.812   6.790
 9514SOL    HW229442   2.566   4.734   6.913
 9515SOL     OW29443   2.147   5.906   2.414
 9515SOL    HW129444   2.141   5.988   2.358
 9515SOL    HW229445   2.061   5.855   2.409
 9516SOL     OW29446   5.779   4.544   0.220
 9516SOL    HW129447   5.687   4.535   0.258
 9516SOL    HW229448   5.776   4.601   0.138
 9517SOL     OW29449   1.408   3.833   1.685
 9517SOL    HW129450   1.437   3.768   1.755
 9517SOL    HW229451   1.361   3.784   1.612
 9518SOL     OW29452   2.250   1.727   0.836
 9518SOL    HW129453   2.235   1.628   0.837
 9518SOL    HW229454   2.163   1.775   0.843
 9519SOL     OW29455   2.954   2.951   5.323
 9519SOL    HW129456   2.999   2.862   5.323
 9519SOL    HW229457   2.997   3.010   5.255
 9520SOL     OW29458   2.741   0.459   3.017
 9520SOL    HW129459   2.732   0.551   2.978
 9520SOL    HW229460   2.721   0.463   3.115
 9521SOL     OW29461   5.718   5.198   2.472
 9521SOL    HW129462   5.711   5.293   2.505
 9521SOL    HW229463   5.773   5.195   2.389
 9522SOL     OW29464   3.541   5.322   0.802
 9522SOL    HW129465   3.631   5.360   0.826
 9522SOL    HW229466   3.535   5.311   0.703
 9523SOL     OW29467   3.255   5.515   4.870
 9523SOL    HW129468   3.179   5.579   4.869
 9523SOL    HW229469   3.341   5.566   4.870
 9524SOL     OW29470   3.902   2.617   1.707
 9524SOL    HW129471   3.922   2.701   1.759
 9524SOL    HW229472   3.813   2.626   1.663
 9525SOL     OW29473   2.284   2.670   6.252
 9525SOL    HW129474   2.307   2.577   6.223
 9525SOL    HW229475   2.248   2.668   6.345
 9526SOL     OW29476   5.325   5.523   1.838
 9526SOL    HW129477   5.259   5.472   1.784
 9526SOL    HW229478   5.291   5.535   1.931
 9527SOL     OW29479   1.015   0.417   1.338
 9527SOL    HW129480   0.916   0.429   1.341
 9527SOL    HW229481   1.056   0.498   1.295
 9528SOL     OW29482   0.105   0.918   0.012
 9528SOL    HW129483   0.117   1.015   7.016
 9528SOL    HW229484   0.184   0.884   0.063
 9529SOL     OW29485   0.180   2.923   5.144
 9529SOL    HW129486   0.107   2.972   5.191
 9529SOL    HW229487   0.256   2.986   5.126
 9530SOL     OW29488   1.887   2.965   3.878
 9530SOL    HW129489   1.825   2.972   3.799
 9530SOL    HW229490   1.858   2.890   3.937
 9531SOL     OW29491   3.614   5.240   3.471
 9531SOL    HW129492   3.685   5.296   3.514
 9531SOL    HW229493   3.524   5.266   3.508
 9532SOL     OW29494   0.656   6.000   2.108
 9532SOL    HW129495   0.743   6.019   2.153
 9532SOL    HW229496   0.617   5.915   2.146
 9533SOL     OW29497   0.018   0.539   5.283
 9533SOL    HW129498   0.065   0.567   5.198
 9533SOL    HW229499   6.982   0.613   5.314
 9534SOL     OW29500   5.864   3.087   5.416
 9534SOL    HW129501   5.945   3.107   5.471
 9534SOL    HW229502   5.790   3.150   5.442
 9535SOL     OW29503   2.426   1.179   6.012
 9535SOL    HW129504   2.458   1.265   5.972
 9535SOL    HW229505   2.340   1.195   6.061
 9536SOL     OW29506   2.350   4.916   5.354
 9536SOL    HW129507   2.264   4.865   5.364
 9536SOL    HW229508   2.344   4.975   5.274
 9537SOL     OW29509   2.883   0.434   2.425
 9537SOL    HW129510   2.806   0.498   2.429
 9537SOL    HW229511   2.881   0.385   2.338
 9538SOL     OW29512   6.614   1.711   4.076
 9538SOL    HW129513   6.606   1.789   4.139
 9538SOL    HW229514   6.708   1.680   4.073
 9539SOL     OW29515   1.999   4.438   6.480
 9539SOL    HW129516   2.049   4.444   6.566
 9539SOL    HW229517   1.936   4.361   6.484
 9540SOL     OW29518   4.663   4.350   5.108
 9540SOL    HW129519   4.758   4.371   5.085
 9540SOL    HW229520   4.655   4.253   5.128
 9541SOL     OW29521   2.193   2.305   5.589
 9541SOL    HW129522   2.266   2.317   5.521
 9541SOL    HW229523   2.227   2.332   5.679
 9542SOL     OW29524   4.792   3.822   5.223
 9542SOL    HW129525   4.769   3.744   5.164
 9542SOL    HW229526   4.858   3.792   5.292
 9543SOL     OW29527   4.844   0.945   4.435
 9543SOL    HW129528   4.761   0.973   4.386
 9543SOL    HW229529   4.825   0.938   4.533
 9544SOL     OW29530   5.486   0.829   1.826
 9544SOL    HW129531   5.537   0.915   1.818
 9544SOL    HW229532   5.524   0.762   1.762
 9545SOL     OW29533   6.651   5.311   2.760
 9545SOL    HW129534   6.731   5.368   2.742
 9545SOL    HW229535   6.680   5.230   2.812
 9546SOL     OW29536   2.401   4.040   6.904
 9546SOL    HW129537   2.396   3.964   6.839
 9546SOL    HW229538   2.425   4.124   6.855
 9547SOL     OW29539   2.302   6.088   4.347
 9547SOL    HW129540   2.342   6.130   4.428
 9547SOL    HW229541   2.202   6.088   4.356
 9548SOL     OW29542   6.799   5.317   5.110
 9548SOL    HW129543   6.743   5.313   5.027
 9548SOL    HW229544   6.895   5.330   5.085
 9549SOL     OW29545   3.268   4.645   0.925
 9549SOL    HW129546   3.306   4.689   0.844
 9549SOL    HW229547   3.263   4.711   1.000
 9550SOL     OW29548   6.857   1.036   6.281
 9550SOL    HW129549   6.925   1.077   6.220
 9550SOL    HW229550   6.901   0.972   6.343
 9551SOL     OW29551   0.150   6.753   4.284
 9551SOL    HW129552   0.178   6.657   4.283
 9551SOL    HW229553   0.109   6.777   4.196
 9552SOL     OW29554   1.753   6.158   2.677
 9552SOL    HW129555   1.764   6.111   2.764
 9552SOL    HW229556   1.796   6.248   2.682
 9553SOL     OW29557   5.856   4.714   6.560
 9553SOL    HW129558   5.881   4.810   6.555
 9553SOL    HW229559   5.788   4.694   6.489
 9554SOL     OW29560   2.965   0.982   1.683
 9554SOL    HW129561   2.929   1.056   1.740
 9554SOL    HW229562   2.899   0.907   1.681
 9555SOL     OW29563   6.222   2.737   0.952
 9555SOL    HW129564   6.228   2.638   0.935
 9555SOL    HW229565   6.236   2.786   0.866
 9556SOL     OW29566   2.599   1.895   1.413
 9556SOL    HW129567   2.601   1.990   1.446
 9556SOL    HW229568   2.693   1.860   1.409
 9557SOL     OW29569   5.918   0.400   2.664
 9557SOL    HW129570   5.841   0.336   2.671
 9557SOL    HW229571   5.974   0.375   2.585
 9558SOL     OW29572   6.818   5.296   3.421
 9558SOL    HW129573   6.731   5.281   3.375
 9558SOL    HW229574   6.852   5.387   3.401
 9559SOL     OW29575   6.735   4.180   2.646
 9559SOL    HW129576   6.812   4.125   2.677
 9559SOL    HW229577   6.752   4.211   2.553
 9560SOL     OW29578   2.229   1.332   2.446
 9560SOL    HW129579   2.211   1.309   2.542
 9560SOL    HW229580   2.328   1.331   2.430
 9561SOL     OW29581   2.871   6.956   0.598
 9561SOL    HW129582   2.905   6.882   0.540
 9561SOL    HW229583   2.944   7.021   0.615
 9562SOL     OW29584   3.347   5.744   4.400
 9562SOL    HW129585   3.340   5.816   4.469
 9562SOL    HW229586   3.422   5.765   4.337
 9563SOL     OW29587   6.570   6.615   6.906
 9563SOL    HW129588   6.627   6.563   6.971
 9563SOL    HW229589   6.476   6.616   6.939
 9564SOL     OW29590   2.399   0.485   6.589
 9564SOL    HW129591   2.497   0.480   6.567
 9564SOL    HW229592   2.346   0.477   6.505
 9565SOL     OW29593   4.406   6.076   5.561
 9565SOL    HW129594   4.349   6.040   5.635
 9565SOL    HW229595   4.350   6.128   5.498
 9566SOL     OW29596   3.600   4.662   6.653
 9566SOL    HW129597   3.528   4.716   6.610
 9566SOL    HW229598   3.664   4.629   6.583
 9567SOL     OW29599   6.412   5.660   6.324
 9567SOL    HW129600   6.350   5.647   6.247
 9567SOL    HW229601   6.369   5.719   6.392
 9568SOL     OW29602   4.717   3.609   6.473
 9568SOL    HW129603   4.801   3.581   6.521
 9568SOL    HW229604   4.696   3.704   6.495
 9569SOL     OW29605   6.580   0.993   0.502
 9569SOL    HW129606   6.525   0.910   0.515
 9569SOL    HW229607   6.525   1.073   0.526
 9570SOL     OW29608   0.625   1.702   1.477
 9570SOL    HW129609   0.526   1.686   1.477
 9570SOL    HW229610   0.672   1.616   1.498
 9571SOL     OW29611   3.048   3.217   0.288
 9571SOL    HW129612   3.086   3.246   0.376
 9571SOL    HW229613   2.963   3.266   0.270
 9572SOL     OW29614   1.342   4.855   1.021
 9572SOL    HW129615   1.314   4.760   1.007
 9572SOL    HW229616   1.285   4.897   1.091
 9573SOL     OW29617   0.611   0.866   6.641
 9573SOL    HW129618   0.652   0.955   6.620
 9573SOL    HW229619   0.682   0.803   6.672
 9574SOL     OW29620   3.450   3.380   5.144
 9574SOL    HW129621   3.365   3.411   5.102
 9574SOL    HW229622   3.499   3.319   5.082
 9575SOL     OW29623   6.149   1.013   0.802
 9575SOL    HW129624   6.198   1.098   0.784
 9575SOL    HW229625   6.182   0.973   0.888
 9576SOL     OW29626   3.884   1.051   3.509
 9576SOL    HW129627   3.865   1.033   3.413
 9576SOL    HW229628   3.949   0.983   3.544
 9577SOL     OW29629   0.793   0.665   2.254
 9577SOL    HW129630   0.863   0.614   2.304
 9577SOL    HW229631   0.703   0.623   2.270
 9578SOL     OW29632   6.005   3.114   3.004
 9578SOL    HW129633   6.028   3.106   3.101
 9578SOL    HW229634   6.063   3.052   2.951
 9579SOL     OW29635   1.154   6.657   2.610
 9579SOL    HW129636   1.151   6.631   2.513
 9579SOL    HW229637   1.168   6.574   2.665
 9580SOL     OW29638   5.169   3.593   6.760
 9580SOL    HW129639   5.081   3.584   6.808
 9580SOL    HW229640   5.238   3.628   6.823
 9581SOL     OW29641   1.927   4.849   6.264
 9581SOL    HW129642   1.934   4.834   6.165
 9581SOL    HW229643   1.875   4.775   6.305
 9582SOL     OW29644   4.526   4.521   3.957
 9582SOL    HW129645   4.548   4.520   4.055
 9582SOL    HW229646   4.587   4.457   3.909
 9583SOL     OW29647   1.976   3.428   1.931
 9583SOL    HW129648   1.920   3.507   1.906
 9583SOL    HW229649   2.066   3.460   1.961
 9584SOL     OW29650   6.038   5.654   0.091
 9584SOL    HW129651   5.998   5.683   0.003
 9584SOL    HW229652   6.138   5.665   0.087
 9585SOL     OW29653   5.485   0.228   2.704
 9585SOL    HW129654   5.388   0.208   2.711
 9585SOL    HW229655   5.512   0.290   2.778
 9586SOL     OW29656   5.112   3.455   3.665
 9586SOL    HW129657   5.096   3.370   3.615
 9586SOL    HW229658   5.194   3.446   3.721
 9587SOL     OW29659   6.045   0.441   1.519
 9587SOL    HW129660   6.055   0.538   1.541
 9587SOL    HW229661   6.119   0.412   1.458
 9588SOL     OW29662   0.177   0.925   1.227
 9588SOL    HW129663   0.189   0.836   1.182
 9588SOL    HW229664   0.132   0.911   1.315
 9589SOL     OW29665   1.953   6.356   6.196
 9589SOL    HW129666   1.886   6.375   6.267
 9589SOL    HW229667   2.023   6.293   6.231
 9590SOL     OW29668   0.604   3.822   2.474
 9590SOL    HW129669   0.544   3.902   2.477
 9590SOL    HW229670   0.580   3.765   2.396
 9591SOL     OW29671   2.225   6.856   0.690
 9591SOL    HW129672   2.254   6.806   0.608
 9591SOL    HW229673   2.271   6.819   0.770
 9592SOL     OW29674   3.996   5.158   3.186
 9592SOL    HW129675   4.052   5.232   3.147
 9592SOL    HW229676   3.921   5.137   3.123
 9593SOL     OW29677   5.410   2.507   4.364
 9593SOL    HW129678   5.416   2.417   4.321
 9593SOL    HW229679   5.496   2.528   4.409
 9594SOL     OW29680   6.939   6.563   3.087
 9594SOL    HW129681   6.858   6.531   3.136
 9594SOL    HW229682   7.016   6.571   3.152
 9595SOL     OW29683   2.057   5.772   4.588
 9595SOL    HW129684   2.014   5.743   4.673
 9595SOL    HW229685   2.098   5.863   4.600
 9596SOL     OW29686   0.299   5.534   5.715
 9596SOL    HW129687   0.373   5.543   5.781
 9596SOL    HW229688   0.218   5.497   5.761
 9597SOL     OW29689   6.944   4.202   2.134
 9597SOL    HW129690   6.994   4.115   2.135
 9597SOL    HW229691   6.962   4.249   2.048
 9598SOL     OW29692   0.358   4.609   5.627
 9598SOL    HW129693   0.343   4.611   5.726
 9598SOL    HW229694   0.336   4.518   5.591
 9599SOL     OW29695   3.727   7.000   5.507
 9599SOL    HW129696   3.746   6.932   5.436
 9599SOL    HW229697   3.683   0.056   5.465
 9600SOL     OW29698   1.550   0.575   5.673
 9600SOL    HW129699   1.588   0.663   5.701
 9600SOL    HW229700   1.462   0.561   5.719
 9601SOL     OW29701   0.306   4.434   6.496
 9601SOL    HW129702   0.324   4.524   6.458
 9601SOL    HW229703   0.315   4.365   6.424
 9602SOL     OW29704   6.800   4.701   6.522
 9602SOL    HW129705   6.710   4.680   6.559
 9602SOL    HW229706   6.855   4.618   6.517
 9603SOL     OW29707   2.536   6.212   4.843
 9603SOL    HW129708   2.598   6.191   4.919
 9603SOL    HW229709   2.560   6.155   4.764
 9604SOL     OW29710   5.052   1.130   0.306
 9604SOL    HW129711   4.953   1.144   0.299
 9604SOL    HW229712   5.073   1.080   0.390
 9605SOL     OW29713   1.570   5.073   5.507
 9605SOL    HW129714   1.549   5.068   5.409
 9605SOL    HW229715   1.585   4.980   5.542
 9606SOL     OW29716   0.783   6.632   3.455
 9606SOL    HW129717   0.737   6.720   3.466
 9606SOL    HW229718   0.876   6.637   3.491
 9607SOL     OW29719   0.945   1.129   1.627
 9607SOL    HW129720   0.848   1.106   1.624
 9607SOL    HW229721   0.998   1.047   1.649
 9608SOL     OW29722   6.844   6.995   2.099
 9608SOL    HW129723   6.790   6.911   2.111
 9608SOL    HW229724   6.941   6.971   2.094
 9609SOL     OW29725   1.963   4.171   4.783
 9609SOL    HW129726   1.950   4.187   4.685
 9609SOL    HW229727   1.959   4.072   4.801
 9610SOL     OW29728   1.738   2.411   5.582
 9610SOL    HW129729   1.685   2.359   5.515
 9610SOL    HW229730   1.679   2.437   5.659
 9611SOL     OW29731   6.326   0.382   0.877
 9611SOL    HW129732   6.330   0.408   0.974
 9611SOL    HW229733   6.418   0.374   0.840
 9612SOL     OW29734   0.230   3.259   0.611
 9612SOL    HW129735   0.174   3.323   0.664
 9612SOL    HW229736   0.324   3.261   0.644
 9613SOL     OW29737   5.634   6.978   4.389
 9613SOL    HW129738   5.720   7.016   4.354
 9613SOL    HW229739   5.634   6.981   4.488
 9614SOL     OW29740   3.815   3.983   2.313
 9614SOL    HW129741   3.719   4.003   2.335
 9614SOL    HW229742   3.874   4.052   2.355
 9615SOL     OW29743   2.343   5.636   2.896
 9615SOL    HW129744   2.399   5.553   2.904
 9615SOL    HW229745   2.257   5.614   2.849
 9616SOL     OW29746   3.532   2.654   1.045
 9616SOL    HW129747   3.587   2.571   1.051
 9616SOL    HW229748   3.549   2.711   1.125
 9617SOL     OW29749   1.202   3.355   3.573
 9617SOL    HW129750   1.179   3.451   3.588
 9617SOL    HW229751   1.212   3.310   3.662
 9618SOL     OW29752   4.010   6.732   6.667
 9618SOL    HW129753   3.999   6.828   6.640
 9618SOL    HW229754   3.920   6.690   6.675
 9619SOL     OW29755   1.750   5.649   0.251
 9619SOL    HW129756   1.779   5.563   0.292
 9619SOL    HW229757   1.798   5.662   0.164
 9620SOL     OW29758   3.858   0.205   6.392
 9620SOL    HW129759   3.789   0.263   6.347
 9620SOL    HW229760   3.827   0.110   6.391
 9621SOL     OW29761   0.930   0.368   2.613
 9621SOL    HW129762   0.958   0.413   2.528
 9621SOL    HW229763   1.011   0.341   2.664
 9622SOL     OW29764   7.019   1.229   6.653
 9622SOL    HW129765   6.954   1.154   6.660
 9622SOL    HW229766   6.992   1.303   6.714
 9623SOL     OW29767   4.835   5.600   6.491
 9623SOL    HW129768   4.814   5.672   6.557
 9623SOL    HW229769   4.910   5.544   6.525
 9624SOL     OW29770   5.628   5.367   5.280
 9624SOL    HW129771   5.561   5.293   5.278
 9624SOL    HW229772   5.720   5.328   5.292
 9625SOL     OW29773   5.626   4.612   6.457
 9625SOL    HW129774   5.590   4.649   6.542
 9625SOL    HW229775   5.637   4.513   6.466
 9626SOL     OW29776   1.570   4.645   4.770
 9626SOL    HW129777   1.575   4.614   4.865
 9626SOL    HW229778   1.619   4.582   4.711
 9627SOL     OW29779   1.458   4.537   5.974
 9627SOL    HW129780   1.452   4.582   5.885
 9627SOL    HW229781   1.482   4.605   6.044
 9628SOL     OW29782   5.896   4.118   0.045
 9628SOL    HW129783   5.863   4.067   0.124
 9628SOL    HW229784   5.957   4.191   0.076
 9629SOL     OW29785   6.753   6.116   3.002
 9629SOL    HW129786   6.828   6.182   3.003
 9629SOL    HW229787   6.702   6.126   2.917
 9630SOL     OW29788   5.965   6.618   5.762
 9630SOL    HW129789   6.061   6.638   5.776
 9630SOL    HW229790   5.952   6.572   5.674
 9631SOL     OW29791   4.673   1.082   1.441
 9631SOL    HW129792   4.624   1.143   1.377
 9631SOL    HW229793   4.619   0.999   1.455
 9632SOL     OW29794   2.092   5.230   1.543
 9632SOL    HW129795   2.014   5.187   1.589
 9632SOL    HW229796   2.123   5.171   1.468
 9633SOL     OW29797   3.935   3.337   2.033
 9633SOL    HW129798   3.986   3.329   2.119
 9633SOL    HW229799   3.981   3.286   1.961
 9634SOL     OW29800   5.301   4.463   2.395
 9634SOL    HW129801   5.292   4.367   2.421
 9634SOL    HW229802   5.231   4.516   2.443
 9635SOL     OW29803   0.540   3.946   4.127
 9635SOL    HW129804   0.505   3.872   4.185
 9635SOL    HW229805   0.517   4.034   4.167
 9636SOL     OW29806   4.230   1.514   5.653
 9636SOL    HW129807   4.252   1.512   5.750
 9636SOL    HW229808   4.143   1.561   5.639
 9637SOL     OW29809   2.634   2.945   1.053
 9637SOL    HW129810   2.558   2.999   1.017
 9637SOL    HW229811   2.613   2.915   1.146
 9638SOL     OW29812   0.079   4.611   6.108
 9638SOL    HW129813   0.025   4.563   6.039
 9638SOL    HW229814   0.157   4.554   6.135
 9639SOL     OW29815   4.484   2.527   1.869
 9639SOL    HW129816   4.394   2.485   1.870
 9639SOL    HW229817   4.486   2.602   1.802
 9640SOL     OW29818   4.086   1.606   1.984
 9640SOL    HW129819   4.036   1.656   2.055
 9640SOL    HW229820   4.137   1.531   2.026
 9641SOL     OW29821   5.527   4.915   2.826
 9641SOL    HW129822   5.464   4.845   2.792
 9641SOL    HW229823   5.488   5.006   2.809
 9642SOL     OW29824   1.716   0.188   4.510
 9642SOL    HW129825   1.715   0.222   4.604
 9642SOL    HW229826   1.675   0.096   4.507
 9643SOL     OW29827   5.033   4.059   4.185
 9643SOL    HW129828   5.001   3.986   4.124
 9643SOL    HW229829   4.972   4.137   4.178
 9644SOL     OW29830   2.473   6.168   5.235
 9644SOL    HW129831   2.383   6.136   5.205
 9644SOL    HW229832   2.538   6.092   5.231
 9645SOL     OW29833   0.845   4.640   4.850
 9645SOL    HW129834   0.789   4.723   4.842
 9645SOL    HW229835   0.788   4.564   4.883
 9646SOL     OW29836   3.116   6.934   4.423
 9646SOL    HW129837   3.119   0.008   4.448
 9646SOL    HW229838   3.021   6.903   4.421
 9647SOL     OW29839   6.602   5.916   2.786
 9647SOL    HW129840   6.525   5.862   2.817
 9647SOL    HW229841   6.578   6.013   2.789
 9648SOL     OW29842   5.174   2.412   1.635
 9648SOL    HW129843   5.116   2.450   1.707
 9648SOL    HW229844   5.122   2.406   1.550
 9649SOL     OW29845   2.088   3.760   6.515
 9649SOL    HW129846   2.080   3.763   6.416
 9649SOL    HW229847   2.127   3.671   6.542
 9650SOL     OW29848   6.261   4.890   3.852
 9650SOL    HW129849   6.246   4.912   3.755
 9650SOL    HW229850   6.297   4.971   3.899
 9651SOL     OW29851   3.277   1.263   0.253
 9651SOL    HW129852   3.264   1.180   0.199
 9651SOL    HW229853   3.318   1.334   0.195
 9652SOL     OW29854   0.701   4.376   1.165
 9652SOL    HW129855   0.725   4.416   1.254
 9652SOL    HW229856   0.602   4.381   1.152
 9653SOL     OW29857   4.454   4.531   5.620
 9653SOL    HW129858   4.413   4.442   5.640
 9653SOL    HW229859   4.381   4.597   5.600
 9654SOL     OW29860   3.465   3.143   2.864
 9654SOL    HW129861   3.388   3.079   2.854
 9654SOL    HW229862   3.483   3.157   2.962
 9655SOL     OW29863   6.566   1.599   0.901
 9655SOL    HW129864   6.603   1.658   0.830
 9655SOL    HW229865   6.495   1.648   0.952
 9656SOL     OW29866   4.762   3.098   0.631
 9656SOL    HW129867   4.826   3.167   0.596
 9656SOL    HW229868   4.670   3.138   0.637
 9657SOL     OW29869   5.009   4.257   3.864
 9657SOL    HW129870   5.085   4.191   3.861
 9657SOL    HW229871   5.029   4.327   3.932
 9658SOL     OW29872   5.435   2.046   2.590
 9658SOL    HW129873   5.479   2.130   2.622
 9658SOL    HW229874   5.349   2.033   2.639
 9659SOL     OW29875   2.939   1.689   0.496
 9659SOL    HW129876   2.990   1.751   0.437
 9659SOL    HW229877   2.889   1.623   0.440
 9660SOL     OW29878   0.649   6.312   0.794
 9660SOL    HW129879   0.561   6.318   0.841
 9660SOL    HW229880   0.708   6.246   0.840
 9661SOL     OW29881   4.302   5.771   1.115
 9661SOL    HW129882   4.255   5.841   1.062
 9661SOL    HW229883   4.243   5.738   1.188
 9662SOL     OW29884   5.493   4.239   6.917
 9662SOL    HW129885   5.404   4.202   6.940
 9662SOL    HW229886   5.560   4.165   6.912
 9663SOL     OW29887   0.326   4.802   2.787
 9663SOL    HW129888   0.232   4.774   2.804
 9663SOL    HW229889   0.382   4.779   2.867
 9664SOL     OW29890   5.163   4.046   3.831
 9664SOL    HW129891   5.200   3.968   3.882
 9664SOL    HW229892   5.159   4.024   3.734
 9665SOL     OW29893   6.319   6.167   5.398
 9665SOL    HW129894   6.370   6.127   5.474
 9665SOL    HW229895   6.249   6.102   5.367
 9666SOL     OW29896   6.552   4.527   1.225
 9666SOL    HW129897   6.593   4.528   1.317
 9666SOL    HW229898   6.454   4.509   1.232
 9667SOL     OW29899   4.875   4.491   0.901
 9667SOL    HW129900   4.868   4.429   0.822
 9667SOL    HW229901   4.784   4.523   0.926
 9668SOL     OW29902   1.355   0.437   5.996
 9668SOL    HW129903   1.314   0.495   5.925
 9668SOL    HW229904   1.318   0.463   6.085
 9669SOL     OW29905   2.753   0.228   0.746
 9669SOL    HW129906   2.725   0.133   0.739
 9669SOL    HW229907   2.776   0.249   0.841
 9670SOL     OW29908   0.400   6.049   5.106
 9670SOL    HW129909   0.331   5.978   5.088
 9670SOL    HW229910   0.477   6.037   5.044
 9671SOL     OW29911   0.595   4.738   0.423
 9671SOL    HW129912   0.613   4.644   0.393
 9671SOL    HW229913   0.547   4.787   0.351
 9672SOL     OW29914   1.284   4.836   2.831
 9672SOL    HW129915   1.195   4.819   2.871
 9672SOL    HW229916   1.272   4.873   2.738
 9673SOL     OW29917   3.742   4.218   1.603
 9673SOL    HW129918   3.695   4.216   1.691
 9673SOL    HW229919   3.714   4.299   1.553
 9674SOL     OW29920   3.918   6.389   2.890
 9674SOL    HW129921   3.860   6.374   2.810
 9674SOL    HW229922   3.988   6.457   2.868
 9675SOL     OW29923   5.239   3.727   0.298
 9675SOL    HW129924   5.285   3.778   0.225
 9675SOL    HW229925   5.163   3.675   0.259
 9676SOL     OW29926   1.535   3.116   6.689
 9676SOL    HW129927   1.575   3.098   6.779
 9676SOL    HW229928   1.442   3.079   6.685
 9677SOL     OW29929   6.468   5.206   6.685
 9677SOL    HW129930   6.431   5.133   6.742
 9677SOL    HW229931   6.546   5.249   6.731
 9678SOL     OW29932   3.249   3.567   4.621
 9678SOL    HW129933   3.166   3.522   4.652
 9678SOL    HW229934   3.227   3.656   4.580
 9679SOL     OW29935   2.851   1.918   4.573
 9679SOL    HW129936   2.931   1.899   4.516
 9679SOL    HW229937   2.778   1.957   4.516
 9680SOL     OW29938   5.340   6.888   4.662
 9680SOL    HW129939   5.364   6.939   4.580
 9680SOL    HW229940   5.249   6.917   4.694
 9681SOL     OW29941   2.810   1.296   1.770
 9681SOL    HW129942   2.796   1.207   1.813
 9681SOL    HW229943   2.793   1.368   1.837
 9682SOL     OW29944   5.062   4.564   3.705
 9682SOL    HW129945   5.091   4.632   3.774
 9682SOL    HW229946   5.000   4.498   3.747
 9683SOL     OW29947   1.836   6.373   0.583
 9683SOL    HW129948   1.856   6.277   0.565
 9683SOL    HW229949   1.750   6.380   0.635
 9684SOL     OW29950   0.599   3.504   4.889
 9684SOL    HW129951   0.609   3.599   4.861
 9684SOL    HW229952   0.687   3.470   4.924
 9685SOL     OW29953   4.332   3.732   0.573
 9685SOL    HW129954   4.290   3.643   0.556
 9685SOL    HW229955   4.270   3.788   0.628
 9686SOL     OW29956   0.368   2.630   0.071
 9686SOL    HW129957   0.346   2.579   7.011
 9686SOL    HW229958   0.456   2.677   0.059
 9687SOL     OW29959   6.471   6.901   2.145
 9687SOL    HW129960   6.450   6.936   2.237
 9687SOL    HW229961   6.403   6.832   2.119
 9688SOL     OW29962   0.802   3.825   0.827
 9688SOL    HW129963   0.744   3.767   0.770
 9688SOL    HW229964   0.791   3.799   0.923
 9689SOL     OW29965   0.787   4.649   5.979
 9689SOL    HW129966   0.848   4.617   5.906
 9689SOL    HW229967   0.835   4.644   6.067
 9690SOL     OW29968   4.368   5.711   5.774
 9690SOL    HW129969   4.461   5.694   5.806
 9690SOL    HW229970   4.349   5.809   5.777
 9691SOL     OW29971   3.455   3.694   2.580
 9691SOL    HW129972   3.455   3.728   2.674
 9691SOL    HW229973   3.392   3.616   2.574
 9692SOL     OW29974   5.052   5.503   0.407
 9692SOL    HW129975   5.092   5.417   0.440
 9692SOL    HW229976   5.087   5.524   0.316
 9693SOL     OW29977   5.621   4.514   4.230
 9693SOL    HW129978   5.636   4.467   4.143
 9693SOL    HW229979   5.602   4.611   4.213
 9694SOL     OW29980   3.681   0.704   1.170
 9694SOL    HW129981   3.738   0.784   1.158
 9694SOL    HW229982   3.713   0.652   1.250
 9695SOL     OW29983   0.314   3.624   2.648
 9695SOL    HW129984   0.353   3.682   2.719
 9695SOL    HW229985   0.216   3.616   2.662
 9696SOL     OW29986   6.106   1.922   2.541
 9696SOL    HW129987   6.122   1.963   2.451
 9696SOL    HW229988   6.082   1.994   2.606
 9697SOL     OW29989   0.230   6.622   0.795
 9697SOL    HW129990   0.255   6.703   0.849
 9697SOL    HW229991   0.312   6.571   0.771
 9698SOL     OW29992   5.833   3.102   6.397
 9698SOL    HW129993   5.762   3.149   6.344
 9698SOL    HW229994   5.856   3.016   6.352
 9699SOL     OW29995   1.025   6.009   0.195
 9699SOL    HW129996   0.941   6.056   0.169
 9699SOL    HW229997   1.012   5.910   0.184
 9700SOL     OW29998   6.415   5.498   3.480
 9700SOL    HW129999   6.467   5.429   3.429
 9700SOL    HW230000   6.338   5.454   3.526
 9701SOL     OW30001   4.246   3.472   6.040
 9701SOL    HW130002   4.152   3.438   6.043
 9701SOL    HW230003   4.252   3.559   6.088
 9702SOL     OW30004   4.080   2.932   0.566
 9702SOL    HW130005   3.995   2.950   0.517
 9702SOL    HW230006   4.129   2.857   0.523
 9703SOL     OW30007   5.689   3.775   4.529
 9703SOL    HW130008   5.603   3.728   4.507
 9703SOL    HW230009   5.759   3.749   4.463
 9704SOL     OW30010   3.237   5.134   2.396
 9704SOL    HW130011   3.234   5.147   2.496
 9704SOL    HW230012   3.323   5.171   2.361
 9705SOL     OW30013   6.179   4.271   5.589
 9705SOL    HW130014   6.153   4.367   5.603
 9705SOL    HW230015   6.278   4.266   5.575
 9706SOL     OW30016   2.165   2.277   1.385
 9706SOL    HW130017   2.198   2.184   1.399
 9706SOL    HW230018   2.102   2.278   1.307
 9707SOL     OW30019   5.525   5.152   2.258
 9707SOL    HW130020   5.439   5.107   2.282
 9707SOL    HW230021   5.585   5.155   2.339
 9708SOL     OW30022   1.527   1.636   2.056
 9708SOL    HW130023   1.610   1.651   2.002
 9708SOL    HW230024   1.448   1.628   1.994
 9709SOL     OW30025   4.789   4.678   1.985
 9709SOL    HW130026   4.704   4.726   2.008
 9709SOL    HW230027   4.787   4.648   1.890
 9710SOL     OW30028   6.553   0.646   0.488
 9710SOL    HW130029   6.553   0.645   0.588
 9710SOL    HW230030   6.459   0.659   0.454
 9711SOL     OW30031   3.583   5.624   6.264
 9711SOL    HW130032   3.506   5.671   6.220
 9711SOL    HW230033   3.603   5.540   6.214
 9712SOL     OW30034   6.441   3.262   0.334
 9712SOL    HW130035   6.499   3.292   0.410
 9712SOL    HW230036   6.385   3.339   0.302
 9713SOL     OW30037   2.507   5.870   3.146
 9713SOL    HW130038   2.451   5.872   3.229
 9713SOL    HW230039   2.513   5.962   3.108
 9714SOL     OW30040   4.121   6.206   5.559
 9714SOL    HW130041   4.082   6.239   5.473
 9714SOL    HW230042   4.115   6.107   5.563
 9715SOL     OW30043   6.256   5.052   6.841
 9715SOL    HW130044   6.237   5.149   6.836
 9715SOL    HW230045   6.173   5.000   6.825
 9716SOL     OW30046   3.717   4.164   6.837
 9716SOL    HW130047   3.670   4.224   6.902
 9716SOL    HW230048   3.806   4.137   6.875
 9717SOL     OW30049   4.704   6.256   0.381
 9717SOL    HW130050   4.653   6.176   0.411
 9717SOL    HW230051   4.656   6.299   0.304
 9718SOL     OW30052   3.883   2.959   0.351
 9718SOL    HW130053   3.929   3.009   0.277
 9718SOL    HW230054   3.786   2.981   0.350
 9719SOL     OW30055   5.342   6.746   5.478
 9719SOL    HW130056   5.395   6.786   5.553
 9719SOL    HW230057   5.356   6.800   5.395
 9720SOL     OW30058   0.879   3.658   2.462
 9720SOL    HW130059   0.856   3.593   2.390
 9720SOL    HW230060   0.798   3.674   2.519
 9721SOL     OW30061   0.590   1.752   6.933
 9721SOL    HW130062   0.593   1.834   6.991
 9721SOL    HW230063   0.603   1.778   6.838
 9722SOL     OW30064   3.517   1.498   5.146
 9722SOL    HW130065   3.597   1.449   5.180
 9722SOL    HW230066   3.480   1.449   5.066
 9723SOL     OW30067   5.632   5.276   4.103
 9723SOL    HW130068   5.664   5.346   4.039
 9723SOL    HW230069   5.680   5.190   4.086
 9724SOL     OW30070   2.220   4.849   6.930
 9724SOL    HW130071   2.267   4.782   6.874
 9724SOL    HW230072   2.195   4.928   6.873
 9725SOL     OW30073   4.681   6.143   5.538
 9725SOL    HW130074   4.592   6.130   5.583
 9725SOL    HW230075   4.671   6.129   5.440
 9726SOL     OW30076   4.552   1.645   4.375
 9726SOL    HW130077   4.633   1.703   4.387
 9726SOL    HW230078   4.470   1.697   4.398
 9727SOL     OW30079   0.644   2.688   0.411
 9727SOL    HW130080   0.546   2.670   0.414
 9727SOL    HW230081   0.677   2.705   0.504
 9728SOL     OW30082   7.023   2.012   5.988
 9728SOL    HW130083   0.092   2.048   5.976
 9728SOL    HW230084   6.965   2.083   6.029
 9729SOL     OW30085   1.431   3.939   4.228
 9729SOL    HW130086   1.505   3.906   4.169
 9729SOL    HW230087   1.352   3.877   4.220
 9730SOL     OW30088   0.802   4.383   3.015
 9730SOL    HW130089   0.812   4.295   3.062
 9730SOL    HW230090   0.893   4.422   2.997
 9731SOL     OW30091   4.897   5.765   1.820
 9731SOL    HW130092   4.930   5.807   1.735
 9731SOL    HW230093   4.801   5.741   1.810
 9732SOL     OW30094   6.638   3.410   1.771
 9732SOL    HW130095   6.734   3.422   1.797
 9732SOL    HW230096   6.586   3.492   1.796
 9733SOL     OW30097   5.625   5.950   0.932
 9733SOL    HW130098   5.601   5.862   0.975
 9733SOL    HW230099   5.680   6.004   0.995
 9734SOL     OW30100   6.558   0.175   0.415
 9734SOL    HW130101   6.462   0.173   0.387
 9734SOL    HW230102   6.615   0.200   0.337
 9735SOL     OW30103   1.489   2.661   3.577
 9735SOL    HW130104   1.582   2.684   3.605
 9735SOL    HW230105   1.460   2.577   3.623
 9736SOL     OW30106   5.200   1.921   5.941
 9736SOL    HW130107   5.235   1.934   6.034
 9736SOL    HW230108   5.248   1.981   5.878
 9737SOL     OW30109   5.675   2.126   3.343
 9737SOL    HW130110   5.747   2.098   3.280
 9737SOL    HW230111   5.680   2.224   3.358
 9738SOL     OW30112   1.517   6.756   0.620
 9738SOL    HW130113   1.499   6.683   0.686
 9738SOL    HW230114   1.451   6.750   0.545
 9739SOL     OW30115   4.964   6.276   0.276
 9739SOL    HW130116   4.930   6.248   0.186
 9739SOL    HW230117   4.886   6.284   0.339
 9740SOL     OW30118   5.780   1.338   2.833
 9740SOL    HW130119   5.792   1.312   2.737
 9740SOL    HW230120   5.809   1.263   2.892
 9741SOL     OW30121   2.258   0.568   3.858
 9741SOL    HW130122   2.308   0.550   3.773
 9741SOL    HW230123   2.305   0.640   3.909
 9742SOL     OW30124   4.112   1.129   0.668
 9742SOL    HW130125   4.152   1.037   0.667
 9742SOL    HW230126   4.012   1.122   0.676
 9743SOL     OW30127   0.018   4.280   3.362
 9743SOL    HW130128   7.003   4.215   3.298
 9743SOL    HW230129   0.020   4.371   3.321
 9744SOL     OW30130   2.740   6.772   3.120
 9744SOL    HW130131   2.656   6.823   3.138
 9744SOL    HW230132   2.727   6.676   3.144
 9745SOL     OW30133   5.361   2.931   6.567
 9745SOL    HW130134   5.371   2.911   6.470
 9745SOL    HW230135   5.444   2.904   6.616
 9746SOL     OW30136   5.806   6.321   6.270
 9746SOL    HW130137   5.751   6.392   6.225
 9746SOL    HW230138   5.903   6.347   6.264
 9747SOL     OW30139   3.004   2.282   1.685
 9747SOL    HW130140   3.092   2.267   1.729
 9747SOL    HW230141   2.960   2.364   1.723
 9748SOL     OW30142   0.358   6.608   3.102
 9748SOL    HW130143   0.312   6.684   3.056
 9748SOL    HW230144   0.360   6.528   3.042
 9749SOL     OW30145   1.013   1.256   2.840
 9749SOL    HW130146   1.091   1.306   2.877
 9749SOL    HW230147   1.035   1.222   2.749
 9750SOL     OW30148   6.377   5.763   3.955
 9750SOL    HW130149   6.371   5.678   4.009
 9750SOL    HW230150   6.400   5.740   3.860
 9751SOL     OW30151   1.609   0.268   0.608
 9751SOL    HW130152   1.622   0.288   0.705
 9751SOL    HW230153   1.595   0.170   0.596
 9752SOL     OW30154   3.749   2.073   6.386
 9752SOL    HW130155   3.742   1.976   6.364
 9752SOL    HW230156   3.801   2.121   6.315
 9753SOL     OW30157   1.352   6.065   6.536
 9753SOL    HW130158   1.385   6.022   6.452
 9753SOL    HW230159   1.254   6.085   6.526
 9754SOL     OW30160   2.895   6.768   0.953
 9754SOL    HW130161   2.962   6.698   0.928
 9754SOL    HW230162   2.942   6.849   0.988
 9755SOL     OW30163   3.391   3.802   4.878
 9755SOL    HW130164   3.337   3.757   4.807
 9755SOL    HW230165   3.481   3.759   4.884
 9756SOL     OW30166   6.098   2.026   6.343
 9756SOL    HW130167   6.175   2.044   6.404
 9756SOL    HW230168   6.013   2.052   6.387
 9757SOL     OW30169   5.943   4.442   4.829
 9757SOL    HW130170   5.851   4.404   4.837
 9757SOL    HW230171   5.968   4.448   4.732
 9758SOL     OW30172   1.760   1.212   0.296
 9758SOL    HW130173   1.793   1.268   0.372
 9758SOL    HW230174   1.662   1.195   0.307
 9759SOL     OW30175   0.849   1.840   0.322
 9759SOL    HW130176   0.851   1.804   0.415
 9759SOL    HW230177   0.765   1.811   0.276
 9760SOL     OW30178   4.946   3.488   6.533
 9760SOL    HW130179   5.032   3.495   6.584
 9760SOL    HW230180   4.959   3.427   6.455
 9761SOL     OW30181   1.428   2.414   2.632
 9761SOL    HW130182   1.404   2.445   2.723
 9761SOL    HW230183   1.464   2.491   2.579
 9762SOL     OW30184   3.344   1.595   4.624
 9762SOL    HW130185   3.314   1.685   4.654
 9762SOL    HW230186   3.403   1.604   4.544
 9763SOL     OW30187   5.715   0.978   3.061
 9763SOL    HW130188   5.802   1.026   3.056
 9763SOL    HW230189   5.646   1.027   3.008
 9764SOL     OW30190   6.564   2.205   2.227
 9764SOL    HW130191   6.519   2.190   2.315
 9764SOL    HW230192   6.633   2.133   2.212
 9765SOL     OW30193   6.893   0.142   3.120
 9765SOL    HW130194   6.877   0.076   3.194
 9765SOL    HW230195   6.974   0.115   3.069
 9766SOL     OW30196   2.324   6.825   2.623
 9766SOL    HW130197   2.234   6.803   2.660
 9766SOL    HW230198   2.388   6.841   2.697
 9767SOL     OW30199   2.497   2.738   5.219
 9767SOL    HW130200   2.490   2.724   5.121
 9767SOL    HW230201   2.506   2.836   5.238
 9768SOL     OW30202   4.330   1.557   1.425
 9768SOL    HW130203   4.256   1.615   1.457
 9768SOL    HW230204   4.389   1.532   1.502
 9769SOL     OW30205   3.709   0.940   4.537
 9769SOL    HW130206   3.667   0.946   4.628
 9769SOL    HW230207   3.767   0.859   4.532
 9770SOL     OW30208   4.011   1.610   5.304
 9770SOL    HW130209   3.911   1.623   5.309
 9770SOL    HW230210   4.052   1.690   5.259
 9771SOL     OW30211   2.336   6.168   1.021
 9771SOL    HW130212   2.421   6.151   0.971
 9771SOL    HW230213   2.272   6.218   0.962
 9772SOL     OW30214   2.094   6.176   1.612
 9772SOL    HW130215   2.073   6.169   1.710
 9772SOL    HW230216   2.062   6.264   1.577
 9773SOL     OW30217   5.627   5.736   3.307
 9773SOL    HW130218   5.624   5.636   3.317
 9773SOL    HW230219   5.720   5.769   3.323
 9774SOL     OW30220   0.617   5.093   3.064
 9774SOL    HW130221   0.711   5.061   3.072
 9774SOL    HW230222   0.582   5.116   3.155
 9775SOL     OW30223   2.711   6.969   3.787
 9775SOL    HW130224   2.768   6.897   3.826
 9775SOL    HW230225   2.629   6.928   3.746
 9776SOL     OW30226   1.435   4.368   6.243
 9776SOL    HW130227   1.336   4.381   6.246
 9776SOL    HW230228   1.466   4.374   6.148
 9777SOL     OW30229   5.439   5.979   0.664
 9777SOL    HW130230   5.373   5.969   0.738
 9777SOL    HW230231   5.480   5.890   0.643
 9778SOL     OW30232   7.004   1.601   4.705
 9778SOL    HW130233   6.965   1.578   4.616
 9778SOL    HW230234   6.982   1.529   4.771
 9779SOL     OW30235   0.010   2.323   3.645
 9779SOL    HW130236   6.942   2.295   3.617
 9779SOL    HW230237   0.035   2.278   3.731
 9780SOL     OW30238   1.997   1.881   1.046
 9780SOL    HW130239   1.986   1.787   1.076
 9780SOL    HW230240   1.971   1.943   1.121
 9781SOL     OW30241   2.161   3.193   4.629
 9781SOL    HW130242   2.075   3.147   4.651
 9781SOL    HW230243   2.144   3.290   4.613
 9782SOL     OW30244   0.615   1.742   0.219
 9782SOL    HW130245   0.662   1.679   0.156
 9782SOL    HW230246   0.517   1.743   0.197
 9783SOL     OW30247   4.241   2.198   3.479
 9783SOL    HW130248   4.154   2.179   3.524
 9783SOL    HW230249   4.295   2.114   3.474
 9784SOL     OW30250   3.776   0.781   6.124
 9784SOL    HW130251   3.841   0.730   6.182
 9784SOL    HW230252   3.706   0.823   6.182
 9785SOL     OW30253   6.180   2.452   5.363
 9785SOL    HW130254   6.086   2.488   5.360
 9785SOL    HW230255   6.176   2.352   5.371
 9786SOL     OW30256   2.559   3.664   0.458
 9786SOL    HW130257   2.462   3.644   0.474
 9786SOL    HW230258   2.573   3.685   0.361
 9787SOL     OW30259   2.897   3.688   2.972
 9787SOL    HW130260   2.944   3.616   3.022
 9787SOL    HW230261   2.804   3.699   3.008
 9788SOL     OW30262   0.576   0.294   1.823
 9788SOL    HW130263   0.595   0.197   1.837
 9788SOL    HW230264   0.484   0.316   1.856
 9789SOL     OW30265   2.087   6.173   7.018
 9789SOL    HW130266   2.157   6.208   6.956
 9789SOL    HW230267   2.097   6.216   0.084
 9790SOL     OW30268   6.423   4.547   6.256
 9790SOL    HW130269   6.342   4.605   6.263
 9790SOL    HW230270   6.454   4.543   6.161
 9791SOL     OW30271   0.581   0.440   0.025
 9791SOL    HW130272   0.663   0.498   0.030
 9791SOL    HW230273   0.510   0.477   0.085
 9792SOL     OW30274   3.433   5.339   0.507
 9792SOL    HW130275   3.349   5.301   0.546
 9792SOL    HW230276   3.487   5.265   0.467
 9793SOL     OW30277   4.161   0.159   2.668
 9793SOL    HW130278   4.221   0.087   2.635
 9793SOL    HW230279   4.178   0.243   2.617
 9794SOL     OW30280   6.242   4.550   5.506
 9794SOL    HW130281   6.209   4.639   5.539
 9794SOL    HW230282   6.323   4.523   5.557
 9795SOL     OW30283   1.296   3.002   4.325
 9795SOL    HW130284   1.377   3.023   4.269
 9795SOL    HW230285   1.285   3.072   4.395
 9796SOL     OW30286   4.057   3.872   2.970
 9796SOL    HW130287   4.008   3.950   2.932
 9796SOL    HW230288   4.038   3.790   2.915
 9797SOL     OW30289   2.022   5.483   6.831
 9797SOL    HW130290   2.020   5.477   6.930
 9797SOL    HW230291   1.936   5.450   6.793
 9798SOL     OW30292   2.263   0.881   2.207
 9798SOL    HW130293   2.230   0.973   2.186
 9798SOL    HW230294   2.357   0.871   2.174
 9799SOL     OW30295   3.146   3.947   5.866
 9799SOL    HW130296   3.211   3.923   5.794
 9799SOL    HW230297   3.138   4.047   5.871
 9800SOL     OW30298   5.490   4.789   4.274
 9800SOL    HW130299   5.405   4.814   4.227
 9800SOL    HW230300   5.471   4.716   4.340
 9801SOL     OW30301   5.269   4.705   0.332
 9801SOL    HW130302   5.226   4.616   0.345
 9801SOL    HW230303   5.208   4.777   0.367
 9802SOL     OW30304   4.648   5.297   0.398
 9802SOL    HW130305   4.683   5.391   0.396
 9802SOL    HW230306   4.640   5.262   0.305
 9803SOL     OW30307   2.041   3.635   6.255
 9803SOL    HW130308   1.999   3.636   6.164
 9803SOL    HW230309   2.108   3.560   6.260
 9804SOL     OW30310   0.389   5.984   2.894
 9804SOL    HW130311   0.290   5.995   2.894
 9804SOL    HW230312   0.415   5.917   2.824
 9805SOL     OW30313   0.418   6.586   3.596
 9805SOL    HW130314   0.388   6.588   3.500
 9805SOL    HW230315   0.433   6.492   3.624
 9806SOL     OW30316   1.472   1.370   6.849
 9806SOL    HW130317   1.544   1.315   6.808
 9806SOL    HW230318   1.496   1.391   6.944
 9807SOL     OW30319   3.101   3.675   1.548
 9807SOL    HW130320   3.183   3.620   1.529
 9807SOL    HW230321   3.027   3.615   1.578
 9808SOL     OW30322   3.558   5.784   4.234
 9808SOL    HW130323   3.589   5.874   4.204
 9808SOL    HW230324   3.598   5.713   4.175
 9809SOL     OW30325   0.636   3.642   0.404
 9809SOL    HW130326   0.714   3.704   0.414
 9809SOL    HW230327   0.594   3.656   0.314
 9810SOL     OW30328   3.179   2.107   4.846
 9810SOL    HW130329   3.092   2.061   4.826
 9810SOL    HW230330   3.162   2.187   4.903
 9811SOL     OW30331   5.897   4.843   3.740
 9811SOL    HW130332   5.951   4.763   3.713
 9811SOL    HW230333   5.821   4.813   3.798
 9812SOL     OW30334   3.120   1.680   5.320
 9812SOL    HW130335   3.214   1.712   5.309
 9812SOL    HW230336   3.087   1.644   5.233
 9813SOL     OW30337   5.259   1.855   0.946
 9813SOL    HW130338   5.294   1.949   0.939
 9813SOL    HW230339   5.208   1.845   1.032
 9814SOL     OW30340   6.034   1.332   0.035
 9814SOL    HW130341   6.031   1.263   0.108
 9814SOL    HW230342   6.014   1.289   6.971
 9815SOL     OW30343   4.533   2.534   4.052
 9815SOL    HW130344   4.443   2.515   4.089
 9815SOL    HW230345   4.548   2.478   3.971
 9816SOL     OW30346   0.641   1.220   6.233
 9816SOL    HW130347   0.666   1.288   6.164
 9816SOL    HW230348   0.691   1.135   6.216
 9817SOL     OW30349   1.317   0.456   3.647
 9817SOL    HW130350   1.283   0.375   3.599
 9817SOL    HW230351   1.366   0.428   3.730
 9818SOL     OW30352   6.646   2.276   4.532
 9818SOL    HW130353   6.735   2.236   4.554
 9818SOL    HW230354   6.659   2.361   4.483
 9819SOL     OW30355   4.836   3.046   3.528
 9819SOL    HW130356   4.866   3.064   3.622
 9819SOL    HW230357   4.795   2.955   3.524
 9820SOL     OW30358   4.121   3.305   7.019
 9820SOL    HW130359   4.191   3.259   6.965
 9820SOL    HW230360   4.086   3.384   6.968
 9821SOL     OW30361   5.921   1.434   6.608
 9821SOL    HW130362   5.986   1.403   6.676
 9821SOL    HW230363   5.852   1.363   6.592
 9822SOL     OW30364   1.833   6.773   3.633
 9822SOL    HW130365   1.779   6.835   3.576
 9822SOL    HW230366   1.929   6.779   3.607
 9823SOL     OW30367   3.588   6.846   0.913
 9823SOL    HW130368   3.558   6.763   0.960
 9823SOL    HW230369   3.667   6.885   0.961
 9824SOL     OW30370   1.777   4.609   5.230
 9824SOL    HW130371   1.800   4.704   5.251
 9824SOL    HW230372   1.851   4.549   5.260
 9825SOL     OW30373   3.798   5.253   5.820
 9825SOL    HW130374   3.738   5.177   5.846
 9825SOL    HW230375   3.826   5.241   5.724
 9826SOL     OW30376   5.173   5.204   6.172
 9826SOL    HW130377   5.212   5.118   6.205
 9826SOL    HW230378   5.245   5.271   6.158
 9827SOL     OW30379   2.089   3.311   3.894
 9827SOL    HW130380   2.131   3.401   3.884
 9827SOL    HW230381   2.070   3.273   3.804
 9828SOL     OW30382   2.294   3.071   6.475
 9828SOL    HW130383   2.373   3.132   6.477
 9828SOL    HW230384   2.296   3.017   6.391
 9829SOL     OW30385   2.674   6.156   0.594
 9829SOL    HW130386   2.729   6.218   0.650
 9829SOL    HW230387   2.593   6.205   0.560
 9830SOL     OW30388   5.421   2.279   1.667
 9830SOL    HW130389   5.336   2.329   1.676
 9830SOL    HW230390   5.436   2.254   1.571
 9831SOL     OW30391   1.534   6.022   0.992
 9831SOL    HW130392   1.621   5.983   1.022
 9831SOL    HW230393   1.540   6.044   0.895
 9832SOL     OW30394   5.175   5.711   2.547
 9832SOL    HW130395   5.233   5.686   2.625
 9832SOL    HW230396   5.144   5.628   2.501
 9833SOL     OW30397   3.803   2.910   4.768
 9833SOL    HW130398   3.792   2.824   4.818
 9833SOL    HW230399   3.869   2.968   4.816
 9834SOL     OW30400   3.110   4.569   5.770
 9834SOL    HW130401   3.076   4.634   5.702
 9834SOL    HW230402   3.085   4.476   5.744
 9835SOL     OW30403   3.651   2.402   6.030
 9835SOL    HW130404   3.671   2.401   5.932
 9835SOL    HW230405   3.714   2.465   6.076
 9836SOL     OW30406   6.013   4.597   3.651
 9836SOL    HW130407   6.113   4.593   3.654
 9836SOL    HW230408   5.975   4.523   3.707
 9837SOL     OW30409   3.321   6.974   2.682
 9837SOL    HW130410   3.384   6.995   2.757
 9837SOL    HW230411   3.228   6.992   2.711
 9838SOL     OW30412   0.422   6.732   5.692
 9838SOL    HW130413   0.462   6.793   5.761
 9838SOL    HW230414   0.344   6.683   5.732
 9839SOL     OW30415   5.590   1.220   3.020
 9839SOL    HW130416   5.657   1.211   3.094
 9839SOL    HW230417   5.499   1.196   3.055
 9840SOL     OW30418   0.785   1.480   1.328
 9840SOL    HW130419   0.800   1.472   1.427
 9840SOL    HW230420   0.757   1.392   1.291
 9841SOL     OW30421   1.551   3.734   4.937
 9841SOL    HW130422   1.540   3.686   4.850
 9841SOL    HW230423   1.463   3.773   4.964
 9842SOL     OW30424   4.017   3.615   2.867
 9842SOL    HW130425   4.081   3.539   2.875
 9842SOL    HW230426   3.940   3.601   2.929
 9843SOL     OW30427   5.980   0.986   1.197
 9843SOL    HW130428   6.077   0.985   1.219
 9843SOL    HW230429   5.939   1.071   1.229
 9844SOL     OW30430   5.802   0.887   2.109
 9844SOL    HW130431   5.892   0.922   2.080
 9844SOL    HW230432   5.753   0.960   2.157
 9845SOL     OW30433   3.134   1.189   3.365
 9845SOL    HW130434   3.061   1.151   3.422
 9845SOL    HW230435   3.121   1.158   3.270
 9846SOL     OW30436   4.074   3.600   1.629
 9846SOL    HW130437   4.104   3.531   1.695
 9846SOL    HW230438   4.155   3.647   1.592
 9847SOL     OW30439   3.197   3.041   4.792
 9847SOL    HW130440   3.248   3.061   4.708
 9847SOL    HW230441   3.238   2.962   4.838
 9848SOL     OW30442   3.450   2.687   6.045
 9848SOL    HW130443   3.412   2.626   5.976
 9848SOL    HW230444   3.546   2.664   6.062
 9849SOL     OW30445   6.706   0.467   0.303
 9849SOL    HW130446   6.625   0.488   0.358
 9849SOL    HW230447   6.734   0.550   0.255
 9850SOL     OW30448   5.916   6.501   3.180
 9850SOL    HW130449   5.872   6.468   3.264
 9850SOL    HW230450   5.943   6.423   3.124
 9851SOL     OW30451   4.634   1.936   5.748
 9851SOL    HW130452   4.542   1.903   5.728
 9851SOL    HW230453   4.695   1.914   5.673
 9852SOL     OW30454   4.264   2.190   2.534
 9852SOL    HW130455   4.341   2.239   2.494
 9852SOL    HW230456   4.246   2.106   2.482
 9853SOL     OW30457   4.800   4.706   3.925
 9853SOL    HW130458   4.747   4.754   3.994
 9853SOL    HW230459   4.872   4.766   3.890
 9854SOL     OW30460   0.857   5.422   4.568
 9854SOL    HW130461   0.757   5.420   4.555
 9854SOL    HW230462   0.881   5.371   4.650
 9855SOL     OW30463   2.281   3.898   1.524
 9855SOL    HW130464   2.344   3.876   1.449
 9855SOL    HW230465   2.217   3.823   1.536
 9856SOL     OW30466   4.971   4.027   5.898
 9856SOL    HW130467   5.037   3.985   5.960
 9856SOL    HW230468   5.015   4.104   5.851
 9857SOL     OW30469   4.585   2.276   4.225
 9857SOL    HW130470   4.589   2.376   4.230
 9857SOL    HW230471   4.490   2.246   4.234
 9858SOL     OW30472   0.667   0.860   1.166
 9858SOL    HW130473   0.651   0.779   1.111
 9858SOL    HW230474   0.691   0.833   1.260
 9859SOL     OW30475   6.108   6.672   1.845
 9859SOL    HW130476   6.156   6.760   1.848
 9859SOL    HW230477   6.035   6.677   1.776
 9860SOL     OW30478   0.065   1.324   3.233
 9860SOL    HW130479   0.064   1.235   3.279
 9860SOL    HW230480   0.137   1.325   3.164
 9861SOL     OW30481   3.532   6.962   2.965
 9861SOL    HW130482   3.595   6.885   2.961
 9861SOL    HW230483   3.456   6.940   3.027
 9862SOL     OW30484   3.067   4.368   0.500
 9862SOL    HW130485   3.006   4.447   0.491
 9862SOL    HW230486   3.102   4.343   0.409
 9863SOL     OW30487   3.608   0.324   3.484
 9863SOL    HW130488   3.651   0.246   3.437
 9863SOL    HW230489   3.614   0.311   3.583
 9864SOL     OW30490   3.899   6.250   3.977
 9864SOL    HW130491   3.898   6.245   3.877
 9864SOL    HW230492   3.814   6.212   4.013
 9865SOL     OW30493   1.533   0.588   4.044
 9865SOL    HW130494   1.504   0.631   4.130
 9865SOL    HW230495   1.617   0.536   4.059
 9866SOL     OW30496   5.621   4.867   5.862
 9866SOL    HW130497   5.684   4.885   5.938
 9866SOL    HW230498   5.646   4.781   5.818
 9867SOL     OW30499   5.728   0.816   0.831
 9867SOL    HW130500   5.648   0.771   0.792
 9867SOL    HW230501   5.699   0.901   0.876
 9868SOL     OW30502   1.255   4.066   5.311
 9868SOL    HW130503   1.220   4.142   5.256
 9868SOL    HW230504   1.228   4.079   5.407
 9869SOL     OW30505   1.582   3.142   2.498
 9869SOL    HW130506   1.555   3.230   2.535
 9869SOL    HW230507   1.681   3.134   2.499
 9870SOL     OW30508   3.984   5.657   2.453
 9870SOL    HW130509   4.043   5.691   2.527
 9870SOL    HW230510   4.038   5.604   2.389
 9871SOL     OW30511   0.367   6.108   6.489
 9871SOL    HW130512   0.391   6.090   6.394
 9871SOL    HW230513   0.375   6.206   6.508
 9872SOL     OW30514   2.420   4.633   4.455
 9872SOL    HW130515   2.474   4.635   4.370
 9872SOL    HW230516   2.481   4.621   4.533
 9873SOL     OW30517   2.968   2.215   1.049
 9873SOL    HW130518   3.055   2.194   1.093
 9873SOL    HW230519   2.894   2.204   1.115
 9874SOL     OW30520   0.923   3.473   4.658
 9874SOL    HW130521   0.968   3.417   4.588
 9874SOL    HW230522   0.905   3.417   4.739
 9875SOL     OW30523   6.699   6.752   2.113
 9875SOL    HW130524   6.628   6.815   2.145
 9875SOL    HW230525   6.670   6.710   2.027
 9876SOL     OW30526   6.631   0.963   2.963
 9876SOL    HW130527   6.549   1.019   2.970
 9876SOL    HW230528   6.698   0.993   3.030
 9877SOL     OW30529   0.410   6.302   3.393
 9877SOL    HW130530   0.329   6.265   3.347
 9877SOL    HW230531   0.403   6.284   3.491
 9878SOL     OW30532   2.773   5.000   5.170
 9878SOL    HW130533   2.755   4.917   5.222
 9878SOL    HW230534   2.836   4.980   5.095
 9879SOL     OW30535   5.124   5.619   4.330
 9879SOL    HW130536   5.181   5.665   4.398
 9879SOL    HW230537   5.130   5.520   4.343
 9880SOL     OW30538   2.786   0.926   5.399
 9880SOL    HW130539   2.805   0.973   5.313
 9880SOL    HW230540   2.869   0.923   5.454
 9881SOL     OW30541   0.762   1.147   4.778
 9881SOL    HW130542   0.770   1.177   4.873
 9881SOL    HW230543   0.796   1.218   4.718
 9882SOL     OW30544   1.108   2.927   3.811
 9882SOL    HW130545   1.016   2.906   3.844
 9882SOL    HW230546   1.154   2.986   3.877
 9883SOL     OW30547   1.272   6.424   0.324
 9883SOL    HW130548   1.363   6.398   0.291
 9883SOL    HW230549   1.224   6.342   0.357
 9884SOL     OW30550   4.915   1.936   2.324
 9884SOL    HW130551   4.885   2.015   2.376
 9884SOL    HW230552   4.866   1.854   2.356
 9885SOL     OW30553   6.948   2.253   4.937
 9885SOL    HW130554   6.953   2.178   5.003
 9885SOL    HW230555   7.006   2.329   4.968
 9886SOL     OW30556   1.313   4.051   2.379
 9886SOL    HW130557   1.267   3.972   2.338
 9886SOL    HW230558   1.397   4.071   2.327
 9887SOL     OW30559   3.485   0.469   5.592
 9887SOL    HW130560   3.449   0.395   5.535
 9887SOL    HW230561   3.523   0.541   5.534
 9888SOL     OW30562   6.131   4.557   2.507
 9888SOL    HW130563   6.149   4.458   2.503
 9888SOL    HW230564   6.138   4.588   2.602
 9889SOL     OW30565   0.044   4.938   1.684
 9889SOL    HW130566   0.136   4.956   1.650
 9889SOL    HW230567   0.030   4.987   1.770
 9890SOL     OW30568   1.579   2.029   0.849
 9890SOL    HW130569   1.512   2.050   0.778
 9890SOL    HW230570   1.664   2.078   0.830
 9891SOL     OW30571   4.884   3.583   2.055
 9891SOL    HW130572   4.819   3.623   1.991
 9891SOL    HW230573   4.977   3.609   2.029
 9892SOL     OW30574   0.175   4.912   0.881
 9892SOL    HW130575   0.175   4.812   0.874
 9892SOL    HW230576   0.113   4.939   0.955
 9893SOL     OW30577   0.845   0.725   0.838
 9893SOL    HW130578   0.794   0.805   0.805
 9893SOL    HW230579   0.841   0.653   0.768
 9894SOL     OW30580   2.741   2.235   1.246
 9894SOL    HW130581   2.702   2.325   1.265
 9894SOL    HW230582   2.789   2.202   1.327
 9895SOL     OW30583   5.889   4.901   4.569
 9895SOL    HW130584   5.971   4.902   4.511
 9895SOL    HW230585   5.808   4.906   4.510
 9896SOL     OW30586   6.930   0.798   6.394
 9896SOL    HW130587   6.831   0.806   6.405
 9896SOL    HW230588   6.970   0.761   6.478
 9897SOL     OW30589   5.805   5.944   2.870
 9897SOL    HW130590   5.741   6.014   2.837
 9897SOL    HW230591   5.758   5.881   2.931
 9898SOL     OW30592   1.662   5.817   4.222
 9898SOL    HW130593   1.622   5.898   4.179
 9898SOL    HW230594   1.761   5.827   4.227
 9899SOL     OW30595   0.726   5.785   0.838
 9899SOL    HW130596   0.806   5.812   0.891
 9899SOL    HW230597   0.749   5.707   0.780
 9900SOL     OW30598   1.854   3.069   3.091
 9900SOL    HW130599   1.859   3.094   2.994
 9900SOL    HW230600   1.916   2.992   3.108
 9901SOL     OW30601   2.730   0.940   7.003
 9901SOL    HW130602   2.725   0.857   0.035
 9901SOL    HW230603   2.731   0.915   6.906
 9902SOL     OW30604   3.392   4.798   0.723
 9902SOL    HW130605   3.455   4.867   0.760
 9902SOL    HW230606   3.445   4.721   0.688
 9903SOL     OW30607   5.805   2.241   2.016
 9903SOL    HW130608   5.782   2.277   1.925
 9903SOL    HW230609   5.739   2.170   2.041
 9904SOL     OW30610   0.997   3.796   6.412
 9904SOL    HW130611   1.083   3.793   6.464
 9904SOL    HW230612   0.990   3.883   6.363
 9905SOL     OW30613   1.885   0.320   6.148
 9905SOL    HW130614   1.832   0.291   6.069
 9905SOL    HW230615   1.982   0.319   6.125
 9906SOL     OW30616   2.173   3.565   1.661
 9906SOL    HW130617   2.193   3.508   1.741
 9906SOL    HW230618   2.230   3.536   1.584
 9907SOL     OW30619   0.334   0.306   1.314
 9907SOL    HW130620   0.430   0.314   1.289
 9907SOL    HW230621   0.280   0.288   1.232
 9908SOL     OW30622   6.046   1.392   4.832
 9908SOL    HW130623   5.958   1.424   4.798
 9908SOL    HW230624   6.098   1.352   4.756
 9909SOL     OW30625   4.423   0.982   2.990
 9909SOL    HW130626   4.512   1.007   2.953
 9909SOL    HW230627   4.381   0.912   2.932
 9910SOL     OW30628   1.481   4.793   2.183
 9910SOL    HW130629   1.474   4.715   2.245
 9910SOL    HW230630   1.480   4.878   2.236
 9911SOL     OW30631   2.480   6.093   1.963
 9911SOL    HW130632   2.567   6.107   2.009
 9911SOL    HW230633   2.497   6.067   1.867
 9912SOL     OW30634   3.788   0.636   1.426
 9912SOL    HW130635   3.791   0.538   1.448
 9912SOL    HW230636   3.746   0.685   1.502
 9913SOL     OW30637   6.084   3.905   1.098
 9913SOL    HW130638   6.127   3.817   1.078
 9913SOL    HW230639   6.004   3.891   1.156
 9914SOL     OW30640   6.017   1.401   5.281
 9914SOL    HW130641   6.034   1.362   5.191
 9914SOL    HW230642   6.010   1.501   5.274
 9915SOL     OW30643   5.557   0.589   3.564
 9915SOL    HW130644   5.630   0.593   3.496
 9915SOL    HW230645   5.552   0.496   3.602
 9916SOL     OW30646   2.322   2.031   2.613
 9916SOL    HW130647   2.314   1.962   2.542
 9916SOL    HW230648   2.418   2.054   2.628
 9917SOL     OW30649   5.261   4.660   6.599
 9917SOL    HW130650   5.263   4.561   6.616
 9917SOL    HW230651   5.349   4.700   6.628
 9918SOL     OW30652   3.098   1.850   3.117
 9918SOL    HW130653   3.154   1.893   3.046
 9918SOL    HW230654   3.036   1.918   3.156
 9919SOL     OW30655   0.908   5.125   1.092
 9919SOL    HW130656   0.922   5.038   1.046
 9919SOL    HW230657   0.812   5.132   1.121
 9920SOL     OW30658   5.244   1.487   2.300
 9920SOL    HW130659   5.201   1.572   2.328
 9920SOL    HW230660   5.178   1.432   2.248
 9921SOL     OW30661   4.158   6.959   4.968
 9921SOL    HW130662   4.142   6.882   5.031
 9921SOL    HW230663   4.175   6.924   4.876
 9922SOL     OW30664   2.362   4.252   0.913
 9922SOL    HW130665   2.428   4.324   0.931
 9922SOL    HW230666   2.295   4.248   0.987
 9923SOL     OW30667   5.834   5.102   6.842
 9923SOL    HW130668   5.898   5.170   6.808
 9923SOL    HW230669   5.787   5.137   6.923
 9924SOL     OW30670   6.507   1.343   3.896
 9924SOL    HW130671   6.438   1.343   3.968
 9924SOL    HW230672   6.482   1.410   3.826
 9925SOL     OW30673   0.155   4.107   4.340
 9925SOL    HW130674   0.154   4.201   4.373
 9925SOL    HW230675   0.142   4.105   4.241
 9926SOL     OW30676   4.345   3.082   1.462
 9926SOL    HW130677   4.245   3.088   1.453
 9926SOL    HW230678   4.371   2.986   1.473
 9927SOL     OW30679   0.500   0.003   0.766
 9927SOL    HW130680   0.473   0.032   0.674
 9927SOL    HW230681   0.599   0.011   0.776
 9928SOL     OW30682   5.246   4.625   3.059
 9928SOL    HW130683   5.216   4.602   2.966
 9928SOL    HW230684   5.345   4.625   3.062
 9929SOL     OW30685   3.678   4.173   5.214
 9929SOL    HW130686   3.684   4.211   5.122
 9929SOL    HW230687   3.591   4.125   5.224
 9930SOL     OW30688   6.447   6.371   4.787
 9930SOL    HW130689   6.377   6.393   4.855
 9930SOL    HW230690   6.537   6.396   4.822
 9931SOL     OW30691   0.582   5.599   4.275
 9931SOL    HW130692   0.682   5.592   4.281
 9931SOL    HW230693   0.545   5.629   4.362
 9932SOL     OW30694   3.488   3.140   6.609
 9932SOL    HW130695   3.552   3.145   6.686
 9932SOL    HW230696   3.485   3.228   6.562
 9933SOL     OW30697   0.479   5.742   3.347
 9933SOL    HW130698   0.549   5.672   3.337
 9933SOL    HW230699   0.428   5.727   3.432
 9934SOL     OW30700   6.379   2.426   5.690
 9934SOL    HW130701   6.311   2.354   5.678
 9934SOL    HW230702   6.466   2.385   5.717
 9935SOL     OW30703   2.983   6.386   0.224
 9935SOL    HW130704   2.986   6.479   0.188
 9935SOL    HW230705   2.960   6.389   0.321
 9936SOL     OW30706   0.052   4.786   0.020
 9936SOL    HW130707   0.123   4.833   0.072
 9936SOL    HW230708   0.088   4.762   6.953
 9937SOL     OW30709   0.371   1.584   1.448
 9937SOL    HW130710   0.346   1.539   1.362
 9937SOL    HW230711   0.340   1.679   1.446
 9938SOL     OW30712   6.683   5.006   3.498
 9938SOL    HW130713   6.697   5.077   3.567
 9938SOL    HW230714   6.655   4.921   3.543
 9939SOL     OW30715   4.134   2.197   1.435
 9939SOL    HW130716   4.049   2.195   1.383
 9939SOL    HW230717   4.116   2.234   1.527
 9940SOL     OW30718   1.107   0.581   1.139
 9940SOL    HW130719   1.110   0.680   1.126
 9940SOL    HW230720   1.201   0.546   1.143
 9941SOL     OW30721   3.552   3.257   4.767
 9941SOL    HW130722   3.622   3.325   4.747
 9941SOL    HW230723   3.565   3.176   4.709
 9942SOL     OW30724   2.585   5.716   2.637
 9942SOL    HW130725   2.529   5.798   2.624
 9942SOL    HW230726   2.664   5.739   2.693
 9943SOL     OW30727   7.005   4.488   5.891
 9943SOL    HW130728   6.914   4.527   5.873
 9943SOL    HW230729   0.002   4.417   5.824
 9944SOL     OW30730   0.927   4.360   6.666
 9944SOL    HW130731   1.006   4.302   6.644
 9944SOL    HW230732   0.843   4.309   6.649
 9945SOL     OW30733   4.825   5.492   6.820
 9945SOL    HW130734   4.732   5.457   6.830
 9945SOL    HW230735   4.875   5.437   6.753
 9946SOL     OW30736   6.210   0.871   3.131
 9946SOL    HW130737   6.149   0.835   3.201
 9946SOL    HW230738   6.177   0.843   3.041
 9947SOL     OW30739   2.267   2.322   4.625
 9947SOL    HW130740   2.265   2.361   4.533
 9947SOL    HW230741   2.208   2.241   4.628
 9948SOL     OW30742   6.080   3.969   5.665
 9948SOL    HW130743   6.096   4.064   5.638
 9948SOL    HW230744   5.986   3.943   5.641
 9949SOL     OW30745   6.637   5.414   4.235
 9949SOL    HW130746   6.680   5.338   4.283
 9949SOL    HW230747   6.664   5.500   4.278
 9950SOL     OW30748   5.503   6.029   6.018
 9950SOL    HW130749   5.425   6.013   6.078
 9950SOL    HW230750   5.585   6.045   6.073
 9951SOL     OW30751   0.019   1.445   3.782
 9951SOL    HW130752   0.084   1.462   3.707
 9951SOL    HW230753   0.061   1.471   3.869
 9952SOL     OW30754   1.236   4.698   0.703
 9952SOL    HW130755   1.257   4.679   0.799
 9952SOL    HW230756   1.319   4.726   0.655
 9953SOL     OW30757   5.318   2.762   4.379
 9953SOL    HW130758   5.295   2.796   4.470
 9953SOL    HW230759   5.310   2.662   4.378
 9954SOL     OW30760   0.255   0.509   6.085
 9954SOL    HW130761   0.309   0.425   6.075
 9954SOL    HW230762   0.226   0.541   5.995
 9955SOL     OW30763   5.660   3.216   5.570
 9955SOL    HW130764   5.578   3.166   5.597
 9955SOL    HW230765   5.635   3.307   5.536
 9956SOL     OW30766   1.466   6.887   1.705
 9956SOL    HW130767   1.444   6.984   1.700
 9956SOL    HW230768   1.560   6.872   1.675
 9957SOL     OW30769   5.395   5.829   2.352
 9957SOL    HW130770   5.450   5.804   2.432
 9957SOL    HW230771   5.299   5.807   2.370
 9958SOL     OW30772   2.733   5.413   6.896
 9958SOL    HW130773   2.658   5.436   6.958
 9958SOL    HW230774   2.815   5.394   6.950
 9959SOL     OW30775   4.115   3.805   4.828
 9959SOL    HW130776   4.070   3.870   4.889
 9959SOL    HW230777   4.212   3.800   4.850
 9960SOL     OW30778   0.341   0.464   2.135
 9960SOL    HW130779   0.258   0.455   2.189
 9960SOL    HW230780   0.344   0.554   2.093
 9961SOL     OW30781   1.716   4.850   4.445
 9961SOL    HW130782   1.632   4.801   4.469
 9961SOL    HW230783   1.760   4.882   4.529
 9962SOL     OW30784   5.476   5.768   1.735
 9962SOL    HW130785   5.421   5.702   1.787
 9962SOL    HW230786   5.467   5.858   1.777
 9963SOL     OW30787   2.725   3.628   6.667
 9963SOL    HW130788   2.740   3.698   6.596
 9963SOL    HW230789   2.753   3.539   6.631
 9964SOL     OW30790   5.627   4.632   5.680
 9964SOL    HW130791   5.529   4.639   5.700
 9964SOL    HW230792   5.659   4.541   5.707
 9965SOL     OW30793   4.081   6.455   6.322
 9965SOL    HW130794   4.103   6.376   6.265
 9965SOL    HW230795   3.984   6.478   6.310
 9966SOL     OW30796   1.935   5.731   2.295
 9966SOL    HW130797   1.900   5.648   2.339
 9966SOL    HW230798   2.017   5.708   2.242
 9967SOL     OW30799   6.200   6.866   2.206
 9967SOL    HW130800   6.199   6.775   2.163
 9967SOL    HW230801   6.250   6.861   2.292
 9968SOL     OW30802   2.871   3.666   6.995
 9968SOL    HW130803   2.787   3.685   6.943
 9968SOL    HW230804   2.848   3.652   0.068
 9969SOL     OW30805   1.720   2.655   3.042
 9969SOL    HW130806   1.756   2.698   3.125
 9969SOL    HW230807   1.643   2.596   3.065
 9970SOL     OW30808   5.358   3.753   2.681
 9970SOL    HW130809   5.361   3.827   2.614
 9970SOL    HW230810   5.279   3.695   2.662
 9971SOL     OW30811   2.475   4.988   1.005
 9971SOL    HW130812   2.565   4.943   1.011
 9971SOL    HW230813   2.438   4.999   1.097
 9972SOL     OW30814   4.002   4.691   1.214
 9972SOL    HW130815   3.991   4.593   1.233
 9972SOL    HW230816   3.928   4.721   1.153
 9973SOL     OW30817   4.415   2.172   3.981
 9973SOL    HW130818   4.459   2.083   3.995
 9973SOL    HW230819   4.485   2.244   3.977
 9974SOL     OW30820   6.739   3.072   3.560
 9974SOL    HW130821   6.716   3.144   3.494
 9974SOL    HW230822   6.677   2.994   3.547
 9975SOL     OW30823   6.252   4.710   0.044
 9975SOL    HW130824   6.207   4.782   7.014
 9975SOL    HW230825   6.294   4.644   7.005
 9976SOL     OW30826   0.740   6.425   5.393
 9976SOL    HW130827   0.717   6.507   5.444
 9976SOL    HW230828   0.657   6.382   5.358
 9977SOL     OW30829   0.069   5.383   5.066
 9977SOL    HW130830   0.056   5.391   5.165
 9977SOL    HW230831   0.141   5.317   5.047
 9978SOL     OW30832   6.760   3.140   2.985
 9978SOL    HW130833   6.715   3.093   2.908
 9978SOL    HW230834   6.823   3.209   2.950
 9979SOL     OW30835   5.986   4.776   5.405
 9979SOL    HW130836   6.028   4.718   5.336
 9979SOL    HW230837   6.058   4.822   5.458
 9980SOL     OW30838   1.850   1.593   5.929
 9980SOL    HW130839   1.941   1.618   5.964
 9980SOL    HW230840   1.819   1.509   5.974
 9981SOL     OW30841   2.177   2.029   1.744
 9981SOL    HW130842   2.167   1.933   1.770
 9981SOL    HW230843   2.273   2.056   1.748
 9982SOL     OW30844   0.028   0.089   3.550
 9982SOL    HW130845   0.101   0.023   3.562
 9982SOL    HW230846   6.983   0.077   3.623
 9983SOL     OW30847   0.372   2.535   3.184
 9983SOL    HW130848   0.446   2.500   3.125
 9983SOL    HW230849   0.299   2.467   3.190
 9984SOL     OW30850   1.934   1.021   0.291
 9984SOL    HW130851   2.017   1.035   0.344
 9984SOL    HW230852   1.890   1.110   0.273
 9985SOL     OW30853   2.081   1.214   1.501
 9985SOL    HW130854   2.006   1.162   1.541
 9985SOL    HW230855   2.149   1.235   1.571
 9986SOL     OW30856   5.635   4.358   5.747
 9986SOL    HW130857   5.643   4.357   5.847
 9986SOL    HW230858   5.540   4.340   5.721
 9987SOL     OW30859   6.660   2.895   3.929
 9987SOL    HW130860   6.707   2.897   4.017
 9987SOL    HW230861   6.717   2.846   3.862
 9988SOL     OW30862   0.060   5.395   5.331
 9988SOL    HW130863   7.018   5.382   5.406
 9988SOL    HW230864   0.122   5.470   5.354
 9989SOL     OW30865   6.213   4.078   3.421
 9989SOL    HW130866   6.226   3.981   3.442
 9989SOL    HW230867   6.271   4.103   3.343
 9990SOL     OW30868   2.638   5.575   1.588
 9990SOL    HW130869   2.737   5.562   1.592
 9990SOL    HW230870   2.594   5.513   1.652
 9991SOL     OW30871   2.112   2.646   3.963
 9991SOL    HW130872   2.152   2.625   4.052
 9991SOL    HW230873   2.093   2.744   3.957
 9992SOL     OW30874   5.690   4.779   0.448
 9992SOL    HW130875   5.684   4.752   0.544
 9992SOL    HW230876   5.655   4.705   0.390
 9993SOL     OW30877   3.435   0.519   0.919
 9993SOL    HW130878   3.459   0.422   0.914
 9993SOL    HW230879   3.516   0.574   0.900
 9994SOL     OW30880   0.226   5.090   3.196
 9994SOL    HW130881   0.205   5.001   3.235
 9994SOL    HW230882   0.160   5.157   3.230
 9995SOL     OW30883   4.667   1.080   2.938
 9995SOL    HW130884   4.739   1.033   2.887
 9995SOL    HW230885   4.649   1.170   2.897
 9996SOL     OW30886   2.453   2.913   1.269
 9996SOL    HW130887   2.541   2.891   1.310
 9996SOL    HW230888   2.434   3.011   1.279
 9997SOL     OW30889   3.574   1.866   0.781
 9997SOL    HW130890   3.508   1.799   0.746
 9997SOL    HW230891   3.598   1.929   0.707
 9998SOL     OW30892   5.555   4.497   6.874
 9998SOL    HW130893   5.557   4.568   6.945
 9998SOL    HW230894   5.503   4.418   6.908
 9999SOL     OW30895   0.226   2.934   5.546
 9999SOL    HW130896   0.323   2.954   5.536
 9999SOL    HW230897   0.213   2.835   5.547
10000SOL     OW30898   0.005   3.810   0.016
10000SOL    HW130899   0.039   3.898   7.008
10000SOL    HW230900   6.938   3.792   7.000
10001SOL     OW30901   4.774   0.225   2.395
10001SOL    HW130902   4.771   0.137   2.442
10001SOL    HW230903   4.684   0.267   2.396
10002SOL     OW30904   2.156   6.953   2.445
10002SOL    HW130905   2.231   6.949   2.510
10002SOL    HW230906   2.162   6.875   2.383
10003SOL     OW30907   3.890   1.314   3.420
10003SOL    HW130908   3.815   1.317   3.354
10003SOL    HW230909   3.875   1.239   3.485
10004SOL     OW30910   5.952   2.218   4.417
10004SOL    HW130911   5.859   2.179   4.415
10004SOL    HW230912   5.999   2.195   4.331
10005SOL     OW30913   4.850   0.388   4.340
10005SOL    HW130914   4.920   0.317   4.344
10005SOL    HW230915   4.818   0.408   4.433
10006SOL     OW30916   5.308   6.089   4.465
10006SOL    HW130917   5.222   6.136   4.447
10006SOL    HW230918   5.295   5.990   4.453
10007SOL     OW30919   6.705   4.925   5.760
10007SOL    HW130920   6.749   5.003   5.803
10007SOL    HW230921   6.606   4.931   5.773
10008SOL     OW30922   4.314   1.255   4.494
10008SOL    HW130923   4.358   1.323   4.437
10008SOL    HW230924   4.295   1.295   4.584
10009SOL     OW30925   1.904   3.586   1.606
10009SOL    HW130926   1.994   3.578   1.649
10009SOL    HW230927   1.902   3.667   1.547
10010SOL     OW30928   2.202   0.589   5.846
10010SOL    HW130929   2.200   0.671   5.903
10010SOL    HW230930   2.199   0.616   5.750
10011SOL     OW30931   5.103   1.102   5.344
10011SOL    HW130932   5.069   1.102   5.438
10011SOL    HW230933   5.035   1.062   5.283
10012SOL     OW30934   6.064   1.393   2.859
10012SOL    HW130935   5.969   1.418   2.840
10012SOL    HW230936   6.082   1.301   2.824
10013SOL     OW30937   0.653   1.114   3.320
10013SOL    HW130938   0.686   1.020   3.313
10013SOL    HW230939   0.587   1.132   3.247
10014SOL     OW30940   6.940   3.633   0.603
10014SOL    HW130941   6.961   3.546   0.649
10014SOL    HW230942   6.941   3.707   0.670
10015SOL     OW30943   2.358   4.717   0.378
10015SOL    HW130944   2.291   4.781   0.415
10015SOL    HW230945   2.390   4.750   0.289
10016SOL     OW30946   1.256   0.548   6.864
10016SOL    HW130947   1.288   0.479   6.799
10016SOL    HW230948   1.330   0.574   6.925
10017SOL     OW30949   2.738   1.195   3.252
10017SOL    HW130950   2.694   1.238   3.331
10017SOL    HW230951   2.746   1.261   3.177
10018SOL     OW30952   4.239   0.320   5.631
10018SOL    HW130953   4.291   0.293   5.550
10018SOL    HW230954   4.182   0.399   5.609
10019SOL     OW30955   0.451   1.966   2.929
10019SOL    HW130956   0.447   1.978   2.830
10019SOL    HW230957   0.466   1.869   2.950
10020SOL     OW30958   1.239   2.813   1.209
10020SOL    HW130959   1.188   2.727   1.197
10020SOL    HW230960   1.328   2.793   1.250
10021SOL     OW30961   6.888   2.952   1.446
10021SOL    HW130962   6.853   2.988   1.359
10021SOL    HW230963   6.968   2.895   1.428
10022SOL     OW30964   2.629   1.044   6.219
10022SOL    HW130965   2.547   1.026   6.272
10022SOL    HW230966   2.679   1.121   6.260
10023SOL     OW30967   0.921   5.306   0.316
10023SOL    HW130968   0.839   5.318   0.372
10023SOL    HW230969   0.985   5.381   0.334
10024SOL     OW30970   2.456   6.425   2.309
10024SOL    HW130971   2.520   6.349   2.318
10024SOL    HW230972   2.498   6.500   2.258
10025SOL     OW30973   1.283   2.342   1.270
10025SOL    HW130974   1.376   2.327   1.237
10025SOL    HW230975   1.220   2.280   1.222
10026SOL     OW30976   5.464   6.237   3.494
10026SOL    HW130977   5.522   6.249   3.575
10026SOL    HW230978   5.382   6.185   3.519
10027SOL     OW30979   6.388   4.553   4.628
10027SOL    HW130980   6.368   4.588   4.719
10027SOL    HW230981   6.486   4.565   4.608
10028SOL     OW30982   1.554   0.902   2.193
10028SOL    HW130983   1.617   0.971   2.228
10028SOL    HW230984   1.477   0.947   2.147
10029SOL     OW30985   4.997   1.584   4.947
10029SOL    HW130986   5.066   1.542   5.007
10029SOL    HW230987   4.912   1.597   4.998
10030SOL     OW30988   2.112   0.024   3.929
10030SOL    HW130989   2.056   6.999   3.997
10030SOL    HW230990   2.052   0.080   3.871
10031SOL     OW30991   5.457   5.034   5.002
10031SOL    HW130992   5.362   5.002   5.000
10031SOL    HW230993   5.514   4.967   5.049
10032SOL     OW30994   3.019   1.619   4.777
10032SOL    HW130995   3.025   1.585   4.871
10032SOL    HW230996   3.104   1.664   4.752
10033SOL     OW30997   6.739   2.843   4.678
10033SOL    HW130998   6.826   2.812   4.640
10033SOL    HW230999   6.715   2.787   4.758
10034SOL     OW31000   3.518   0.779   3.998
10034SOL    HW131001   3.610   0.813   3.980
10034SOL    HW231002   3.523   0.696   4.053
10035SOL     OW31003   6.856   4.857   1.546
10035SOL    HW131004   6.925   4.890   1.609
10035SOL    HW231005   6.879   4.764   1.516
10036SOL     OW31006   6.172   2.487   1.254
10036SOL    HW131007   6.218   2.558   1.309
10036SOL    HW231008   6.240   2.420   1.223
10037SOL     OW31009   0.381   1.699   0.093
10037SOL    HW131010   0.443   1.694   0.015
10037SOL    HW231011   0.336   1.611   0.106
10038SOL     OW31012   5.768   0.842   6.792
10038SOL    HW131013   5.788   0.754   6.748
10038SOL    HW231014   5.834   0.910   6.762
10039SOL     OW31015   3.797   0.731   3.728
10039SOL    HW131016   3.714   0.739   3.674
10039SOL    HW231017   3.874   0.767   3.675
10040SOL     OW31018   5.587   5.440   6.258
10040SOL    HW131019   5.673   5.420   6.211
10040SOL    HW231020   5.601   5.517   6.320
10041SOL     OW31021   4.173   5.755   6.711
10041SOL    HW131022   4.133   5.668   6.741
10041SOL    HW231023   4.267   5.740   6.683
10042SOL     OW31024   0.642   1.672   4.025
10042SOL    HW131025   0.625   1.743   3.957
10042SOL    HW231026   0.555   1.643   4.065
10043SOL     OW31027   6.218   1.782   5.041
10043SOL    HW131028   6.300   1.810   4.991
10043SOL    HW231029   6.141   1.840   5.014
10044SOL     OW31030   2.535   2.462   4.869
10044SOL    HW131031   2.499   2.369   4.862
10044SOL    HW231032   2.467   2.520   4.915
10045SOL     OW31033   3.622   1.034   1.536
10045SOL    HW131034   3.607   1.100   1.610
10045SOL    HW231035   3.534   1.000   1.503
10046SOL     OW31036   1.783   3.230   0.729
10046SOL    HW131037   1.782   3.277   0.641
10046SOL    HW231038   1.719   3.274   0.791
10047SOL     OW31039   0.999   3.114   5.182
10047SOL    HW131040   0.954   3.181   5.242
10047SOL    HW231041   1.097   3.112   5.202
10048SOL     OW31042   6.582   6.599   2.787
10048SOL    HW131043   6.531   6.679   2.753
10048SOL    HW231044   6.588   6.603   2.886
10049SOL     OW31045   1.558   1.400   5.605
10049SOL    HW131046   1.653   1.384   5.576
10049SOL    HW231047   1.504   1.318   5.584
10050SOL     OW31048   5.488   3.543   4.777
10050SOL    HW131049   5.459   3.573   4.868
10050SOL    HW231050   5.569   3.485   4.785
10051SOL     OW31051   0.948   4.503   4.646
10051SOL    HW131052   0.946   4.537   4.552
10051SOL    HW231053   0.902   4.569   4.706
10052SOL     OW31054   1.937   0.997   3.074
10052SOL    HW131055   1.983   0.961   2.993
10052SOL    HW231056   1.902   1.089   3.054
10053SOL     OW31057   4.349   5.980   3.914
10053SOL    HW131058   4.251   5.992   3.928
10053SOL    HW231059   4.396   5.980   4.002
10054SOL     OW31060   5.574   4.193   5.377
10054SOL    HW131061   5.601   4.178   5.282
10054SOL    HW231062   5.566   4.291   5.394
10055SOL     OW31063   6.198   2.781   5.941
10055SOL    HW131064   6.223   2.711   6.008
10055SOL    HW231065   6.281   2.819   5.900
10056SOL     OW31066   5.077   4.248   3.320
10056SOL    HW131067   5.083   4.333   3.267
10056SOL    HW231068   5.098   4.267   3.416
10057SOL     OW31069   6.110   3.582   5.556
10057SOL    HW131070   6.057   3.588   5.641
10057SOL    HW231071   6.168   3.501   5.558
10058SOL     OW31072   6.501   3.864   4.487
10058SOL    HW131073   6.508   3.794   4.416
10058SOL    HW231074   6.438   3.936   4.456
10059SOL     OW31075   6.901   2.179   1.036
10059SOL    HW131076   6.862   2.270   1.038
10059SOL    HW231077   6.980   2.178   0.974
10060SOL     OW31078   2.418   2.241   2.326
10060SOL    HW131079   2.474   2.183   2.385
10060SOL    HW231080   2.450   2.336   2.332
10061SOL     OW31081   4.598   1.135   3.847
10061SOL    HW131082   4.498   1.144   3.846
10061SOL    HW231083   4.626   1.087   3.930
10062SOL     OW31084   6.301   6.842   4.253
10062SOL    HW131085   6.378   6.787   4.285
10062SOL    HW231086   6.309   6.934   4.289
10063SOL     OW31087   2.737   1.830   4.264
10063SOL    HW131088   2.764   1.739   4.234
10063SOL    HW231089   2.637   1.838   4.263
10064SOL     OW31090   4.472   6.021   6.257
10064SOL    HW131091   4.412   6.069   6.193
10064SOL    HW231092   4.487   5.927   6.224
10065SOL     OW31093   1.411   0.670   1.918
10065SOL    HW131094   1.348   0.593   1.930
10065SOL    HW231095   1.475   0.673   1.994
10066SOL     OW31096   0.771   3.380   5.139
10066SOL    HW131097   0.698   3.315   5.117
10066SOL    HW231098   0.747   3.430   5.222
10067SOL     OW31099   0.632   2.789   6.220
10067SOL    HW131100   0.564   2.862   6.225
10067SOL    HW231101   0.659   2.762   6.312
10068SOL     OW31102   1.613   3.528   3.072
10068SOL    HW131103   1.704   3.538   3.033
10068SOL    HW231104   1.588   3.611   3.121
10069SOL     OW31105   3.653   4.916   1.489
10069SOL    HW131106   3.740   4.964   1.484
10069SOL    HW231107   3.586   4.962   1.431
10070SOL     OW31108   1.245   5.490   4.751
10070SOL    HW131109   1.172   5.451   4.808
10070SOL    HW231110   1.234   5.457   4.657
10071SOL     OW31111   0.737   0.315   3.979
10071SOL    HW131112   0.745   0.216   3.993
10071SOL    HW231113   0.772   0.338   3.889
10072SOL     OW31114   0.606   1.269   2.625
10072SOL    HW131115   0.568   1.336   2.688
10072SOL    HW231116   0.600   1.303   2.531
10073SOL     OW31117   5.989   3.241   3.765
10073SOL    HW131118   6.009   3.146   3.788
10073SOL    HW231119   6.070   3.283   3.724
10074SOL     OW31120   0.744   5.555   0.666
10074SOL    HW131121   0.645   5.558   0.649
10074SOL    HW231122   0.776   5.461   0.659
10075SOL     OW31123   2.068   0.396   2.681
10075SOL    HW131124   2.021   0.365   2.599
10075SOL    HW231125   2.167   0.391   2.667
10076SOL     OW31126   5.016   5.344   3.097
10076SOL    HW131127   4.917   5.354   3.090
10076SOL    HW231128   5.061   5.399   3.026
10077SOL     OW31129   5.779   2.738   0.290
10077SOL    HW131130   5.761   2.753   0.193
10077SOL    HW231131   5.783   2.827   0.337
10078SOL     OW31132   0.104   6.292   4.821
10078SOL    HW131133   0.013   6.333   4.835
10078SOL    HW231134   0.118   6.219   4.887
10079SOL     OW31135   5.621   2.379   3.632
10079SOL    HW131136   5.677   2.350   3.709
10079SOL    HW231137   5.530   2.406   3.665
10080SOL     OW31138   5.781   1.160   6.317
10080SOL    HW131139   5.708   1.198   6.260
10080SOL    HW231140   5.851   1.229   6.333
10081SOL     OW31141   1.284   1.740   6.939
10081SOL    HW131142   1.354   1.700   6.880
10081SOL    HW231143   1.327   1.781   7.019
10082SOL     OW31144   1.427   5.315   3.386
10082SOL    HW131145   1.402   5.398   3.336
10082SOL    HW231146   1.432   5.238   3.323
10083SOL     OW31147   3.622   6.112   3.516
10083SOL    HW131148   3.574   6.165   3.445
10083SOL    HW231149   3.701   6.067   3.475
10084SOL     OW31150   0.097   6.520   4.982
10084SOL    HW131151   0.057   6.544   4.893
10084SOL    HW231152   0.187   6.563   4.990
10085SOL     OW31153   3.982   6.688   0.143
10085SOL    HW131154   4.002   6.600   0.100
10085SOL    HW231155   4.064   6.721   0.191
10086SOL     OW31156   5.896   6.516   2.432
10086SOL    HW131157   5.826   6.586   2.419
10086SOL    HW231158   5.984   6.549   2.398
10087SOL     OW31159   0.653   6.879   4.755
10087SOL    HW131160   0.608   6.793   4.777
10087SOL    HW231161   0.694   6.873   4.664
10088SOL     OW31162   6.883   1.880   6.995
10088SOL    HW131163   6.865   1.967   6.950
10088SOL    HW231164   6.944   1.894   0.050
10089SOL     OW31165   3.677   1.251   2.739
10089SOL    HW131166   3.649   1.340   2.775
10089SOL    HW231167   3.776   1.241   2.749
10090SOL     OW31168   0.572   4.597   1.875
10090SOL    HW131169   0.492   4.561   1.922
10090SOL    HW231170   0.638   4.630   1.942
10091SOL     OW31171   6.677   5.896   6.617
10091SOL    HW131172   6.746   5.947   6.668
10091SOL    HW231173   6.705   5.800   6.611
10092SOL     OW31174   1.483   3.450   5.181
10092SOL    HW131175   1.385   3.441   5.167
10092SOL    HW231176   1.529   3.365   5.157
10093SOL     OW31177   5.050   3.246   5.496
10093SOL    HW131178   5.096   3.266   5.582
10093SOL    HW231179   4.981   3.316   5.477
10094SOL     OW31180   2.714   6.759   1.338
10094SOL    HW131181   2.679   6.687   1.279
10094SOL    HW231182   2.638   6.813   1.374
10095SOL     OW31183   5.538   2.273   4.644
10095SOL    HW131184   5.448   2.316   4.642
10095SOL    HW231185   5.543   2.202   4.573
10096SOL     OW31186   4.976   0.644   2.364
10096SOL    HW131187   4.986   0.544   2.366
10096SOL    HW231188   5.059   0.685   2.325
10097SOL     OW31189   2.042   1.875   6.405
10097SOL    HW131190   2.079   1.956   6.450
10097SOL    HW231191   1.968   1.903   6.343
10098SOL     OW31192   3.054   5.715   4.621
10098SOL    HW131193   3.118   5.658   4.570
10098SOL    HW231194   3.036   5.799   4.570
10099SOL     OW31195   6.315   4.323   1.485
10099SOL    HW131196   6.341   4.419   1.499
10099SOL    HW231197   6.305   4.306   1.387
10100SOL     OW31198   5.467   5.291   5.656
10100SOL    HW131199   5.561   5.264   5.632
10100SOL    HW231200   5.408   5.283   5.576
10101SOL     OW31201   6.573   3.141   1.828
10101SOL    HW131202   6.608   3.227   1.791
10101SOL    HW231203   6.647   3.091   1.873
10102SOL     OW31204   5.187   0.598   0.539
10102SOL    HW131205   5.279   0.562   0.525
10102SOL    HW231206   5.134   0.533   0.595
10103SOL     OW31207   0.650   0.216   5.914
10103SOL    HW131208   0.615   0.298   5.960
10103SOL    HW231209   0.720   0.243   5.848
10104SOL     OW31210   2.134   1.043   6.182
10104SOL    HW131211   2.057   1.047   6.245
10104SOL    HW231212   2.148   1.134   6.142
10105SOL     OW31213   2.720   1.313   5.825
10105SOL    HW131214   2.631   1.358   5.836
10105SOL    HW231215   2.717   1.254   5.744
10106SOL     OW31216   4.724   6.208   1.504
10106SOL    HW131217   4.728   6.254   1.592
10106SOL    HW231218   4.812   6.218   1.457
10107SOL     OW31219   5.148   4.391   6.677
10107SOL    HW131220   5.150   4.376   6.776
10107SOL    HW231221   5.060   4.363   6.641
10108SOL     OW31222   1.797   3.076   0.359
10108SOL    HW131223   1.872   3.019   0.326
10108SOL    HW231224   1.802   3.083   0.458
10109SOL     OW31225   0.631   1.256   0.051
10109SOL    HW131226   0.599   1.232   6.982
10109SOL    HW231227   0.676   1.345   0.048
10110SOL     OW31228   4.630   4.780   2.212
10110SOL    HW131229   4.725   4.798   2.187
10110SOL    HW231230   4.569   4.817   2.142
10111SOL     OW31231   0.794   2.836   2.023
10111SOL    HW131232   0.871   2.877   1.973
10111SOL    HW231233   0.803   2.860   2.120
10112SOL     OW31234   6.552   3.316   3.088
10112SOL    HW131235   6.617   3.276   3.023
10112SOL    HW231236   6.460   3.283   3.067
10113SOL     OW31237   4.892   1.081   6.702
10113SOL    HW131238   4.866   1.050   6.793
10113SOL    HW231239   4.919   1.002   6.646
10114SOL     OW31240   3.938   2.174   2.894
10114SOL    HW131241   4.021   2.227   2.874
10114SOL    HW231242   3.922   2.174   2.992
10115SOL     OW31243   3.663   1.539   4.075
10115SOL    HW131244   3.727   1.535   3.998
10115SOL    HW231245   3.571   1.516   4.043
10116SOL     OW31246   6.035   0.357   5.653
10116SOL    HW131247   6.087   0.433   5.614
10116SOL    HW231248   5.996   0.385   5.741
10117SOL     OW31249   6.652   5.518   5.256
10117SOL    HW131250   6.602   5.474   5.331
10117SOL    HW231251   6.688   5.448   5.195
10118SOL     OW31252   2.610   5.059   4.781
10118SOL    HW131253   2.556   4.986   4.824
10118SOL    HW231254   2.567   5.148   4.801
10119SOL     OW31255   0.162   4.748   3.889
10119SOL    HW131256   0.174   4.839   3.849
10119SOL    HW231257   0.252   4.704   3.899
10120SOL     OW31258   1.277   2.611   3.062
10120SOL    HW131259   1.337   2.559   3.123
10120SOL    HW231260   1.291   2.709   3.077
10121SOL     OW31261   6.409   4.729   0.561
10121SOL    HW131262   6.402   4.642   0.610
10121SOL    HW231263   6.494   4.731   0.509
10122SOL     OW31264   6.664   1.807   3.597
10122SOL    HW131265   6.687   1.739   3.528
10122SOL    HW231266   6.625   1.761   3.677
10123SOL     OW31267   5.572   6.272   1.067
10123SOL    HW131268   5.561   6.326   1.151
10123SOL    HW231269   5.660   6.226   1.068
10124SOL     OW31270   1.095   5.167   2.467
10124SOL    HW131271   1.014   5.108   2.462
10124SOL    HW231272   1.134   5.176   2.376
10125SOL     OW31273   2.065   1.619   1.141
10125SOL    HW131274   2.044   1.552   1.212
10125SOL    HW231275   2.161   1.645   1.146
10126SOL     OW31276   6.389   0.815   6.569
10126SOL    HW131277   6.381   0.760   6.652
10126SOL    HW231278   6.327   0.780   6.499
10127SOL     OW31279   1.174   4.390   5.912
10127SOL    HW131280   1.197   4.412   6.007
10127SOL    HW231281   1.165   4.291   5.903
10128SOL     OW31282   3.026   0.839   0.117
10128SOL    HW131283   2.936   0.798   0.129
10128SOL    HW231284   3.072   0.846   0.205
10129SOL     OW31285   6.095   1.530   2.601
10129SOL    HW131286   6.154   1.521   2.681
10129SOL    HW231287   6.018   1.590   2.623
10130SOL     OW31288   0.828   2.515   2.080
10130SOL    HW131289   0.814   2.613   2.067
10130SOL    HW231290   0.849   2.496   2.176
10131SOL     OW31291   2.339   0.905   4.740
10131SOL    HW131292   2.430   0.884   4.703
10131SOL    HW231293   2.287   0.820   4.750
10132SOL     OW31294   6.787   0.044   2.656
10132SOL    HW131295   6.823   0.124   2.703
10132SOL    HW231296   6.861   7.001   2.641
10133SOL     OW31297   4.582   5.702   0.487
10133SOL    HW131298   4.648   5.639   0.447
10133SOL    HW231299   4.569   5.680   0.584
10134SOL     OW31300   5.907   0.628   2.237
10134SOL    HW131301   5.993   0.643   2.285
10134SOL    HW231302   5.877   0.713   2.193
10135SOL     OW31303   5.453   0.669   4.133
10135SOL    HW131304   5.408   0.730   4.199
10135SOL    HW231305   5.507   0.723   4.069
10136SOL     OW31306   5.049   2.222   2.630
10136SOL    HW131307   4.989   2.242   2.708
10136SOL    HW231308   5.084   2.129   2.639
10137SOL     OW31309   0.469   5.534   5.942
10137SOL    HW131310   0.538   5.607   5.947
10137SOL    HW231311   0.382   5.568   5.976
10138SOL     OW31312   6.014   1.690   0.287
10138SOL    HW131313   5.967   1.703   0.200
10138SOL    HW231314   6.062   1.603   0.287
10139SOL     OW31315   3.131   3.524   5.816
10139SOL    HW131316   3.221   3.544   5.776
10139SOL    HW231317   3.112   3.588   5.889
10140SOL     OW31318   0.108   6.170   6.199
10140SOL    HW131319   0.147   6.082   6.226
10140SOL    HW231320   0.032   6.193   6.260
10141SOL     OW31321   3.830   1.505   3.877
10141SOL    HW131322   3.880   1.590   3.865
10141SOL    HW231323   3.785   1.480   3.791
10142SOL     OW31324   5.738   6.467   4.808
10142SOL    HW131325   5.721   6.373   4.778
10142SOL    HW231326   5.744   6.526   4.728
10143SOL     OW31327   5.185   3.116   0.710
10143SOL    HW131328   5.175   3.180   0.633
10143SOL    HW231329   5.095   3.081   0.736
10144SOL     OW31330   3.783   6.465   5.425
10144SOL    HW131331   3.817   6.535   5.488
10144SOL    HW231332   3.683   6.471   5.419
10145SOL     OW31333   4.657   5.912   1.124
10145SOL    HW131334   4.707   5.935   1.208
10145SOL    HW231335   4.697   5.831   1.082
10146SOL     OW31336   0.341   3.843   3.952
10146SOL    HW131337   0.422   3.875   4.002
10146SOL    HW231338   0.286   3.784   4.012
10147SOL     OW31339   4.505   5.216   6.523
10147SOL    HW131340   4.414   5.256   6.531
10147SOL    HW231341   4.534   5.217   6.428
10148SOL     OW31342   0.853   4.822   0.475
10148SOL    HW131343   0.756   4.803   0.466
10148SOL    HW231344   0.883   4.802   0.568
10149SOL     OW31345   4.531   5.461   1.777
10149SOL    HW131346   4.627   5.464   1.749
10149SOL    HW231347   4.484   5.385   1.730
10150SOL     OW31348   4.977   3.800   0.780
10150SOL    HW131349   5.022   3.799   0.691
10150SOL    HW231350   4.953   3.707   0.806
10151SOL     OW31351   6.758   0.034   6.182
10151SOL    HW131352   6.737   0.132   6.180
10151SOL    HW231353   6.856   0.021   6.192
10152SOL     OW31354   6.007   6.134   2.799
10152SOL    HW131355   5.944   6.057   2.803
10152SOL    HW231356   5.999   6.179   2.710
10153SOL     OW31357   4.606   5.748   3.999
10153SOL    HW131358   4.554   5.731   4.083
10153SOL    HW231359   4.678   5.679   3.990
10154SOL     OW31360   4.079   5.000   5.710
10154SOL    HW131361   4.020   4.925   5.740
10154SOL    HW231362   4.172   4.983   5.741
10155SOL     OW31363   4.642   2.224   5.772
10155SOL    HW131364   4.632   2.125   5.780
10155SOL    HW231365   4.667   2.248   5.678
10156SOL     OW31366   5.041   0.213   1.172
10156SOL    HW131367   5.124   0.229   1.119
10156SOL    HW231368   4.970   0.277   1.141
10157SOL     OW31369   6.816   2.429   1.011
10157SOL    HW131370   6.874   2.503   1.044
10157SOL    HW231371   6.720   2.450   1.031
10158SOL     OW31372   4.903   6.966   2.435
10158SOL    HW131373   4.832   7.004   2.495
10158SOL    HW231374   4.887   6.868   2.422
10159SOL     OW31375   3.305   3.365   2.910
10159SOL    HW131376   3.385   3.307   2.897
10159SOL    HW231377   3.229   3.329   2.856
10160SOL     OW31378   2.076   4.428   2.868
10160SOL    HW131379   2.113   4.479   2.791
10160SOL    HW231380   2.109   4.468   2.954
10161SOL     OW31381   3.635   4.824   6.314
10161SOL    HW131382   3.557   4.859   6.262
10161SOL    HW231383   3.715   4.883   6.297
10162SOL     OW31384   1.988   4.457   1.943
10162SOL    HW131385   2.029   4.500   1.862
10162SOL    HW231386   1.900   4.501   1.962
10163SOL     OW31387   1.706   6.048   4.970
10163SOL    HW131388   1.685   6.047   4.872
10163SOL    HW231389   1.684   5.959   5.010
10164SOL     OW31390   6.504   3.326   3.666
10164SOL    HW131391   6.585   3.326   3.608
10164SOL    HW231392   6.501   3.242   3.721
10165SOL     OW31393   5.651   2.527   4.086
10165SOL    HW131394   5.588   2.603   4.069
10165SOL    HW231395   5.716   2.552   4.157
10166SOL     OW31396   0.587   2.660   1.062
10166SOL    HW131397   0.682   2.645   1.086
10166SOL    HW231398   0.569   2.621   0.972
10167SOL     OW31399   0.387   5.193   6.180
10167SOL    HW131400   0.374   5.251   6.099
10167SOL    HW231401   0.390   5.098   6.152
10168SOL     OW31402   5.916   1.694   6.440
10168SOL    HW131403   5.966   1.767   6.487
10168SOL    HW231404   5.859   1.645   6.506
10169SOL     OW31405   6.777   3.889   3.233
10169SOL    HW131406   6.810   3.929   3.318
10169SOL    HW231407   6.797   3.791   3.233
10170SOL     OW31408   6.381   5.889   0.090
10170SOL    HW131409   6.289   5.906   0.124
10170SOL    HW231410   6.440   5.966   0.116
10171SOL     OW31411   1.990   2.987   5.307
10171SOL    HW131412   2.045   2.964   5.388
10171SOL    HW231413   2.031   2.944   5.226
10172SOL     OW31414   6.627   0.111   2.992
10172SOL    HW131415   6.622   0.179   2.920
10172SOL    HW231416   6.720   0.105   3.027
10173SOL     OW31417   3.722   5.000   6.601
10173SOL    HW131418   3.640   4.946   6.580
10173SOL    HW231419   3.772   4.956   6.676
10174SOL     OW31420   5.255   6.780   3.280
10174SOL    HW131421   5.286   6.818   3.193
10174SOL    HW231422   5.267   6.681   3.279
10175SOL     OW31423   6.732   1.960   3.228
10175SOL    HW131424   6.659   1.893   3.217
10175SOL    HW231425   6.802   1.924   3.289
10176SOL     OW31426   6.667   3.471   5.954
10176SOL    HW131427   6.686   3.534   5.879
10176SOL    HW231428   6.573   3.485   5.986
10177SOL     OW31429   2.604   0.464   1.689
10177SOL    HW131430   2.541   0.433   1.619
10177SOL    HW231431   2.561   0.456   1.779
10178SOL     OW31432   1.808   1.745   0.428
10178SOL    HW131433   1.860   1.697   0.358
10178SOL    HW231434   1.746   1.811   0.385
10179SOL     OW31435   6.912   4.269   0.460
10179SOL    HW131436   6.959   4.236   0.542
10179SOL    HW231437   6.855   4.196   0.422
10180SOL     OW31438   4.422   6.713   6.501
10180SOL    HW131439   4.415   6.708   6.601
10180SOL    HW231440   4.373   6.794   6.468
10181SOL     OW31441   6.362   4.027   1.497
10181SOL    HW131442   6.361   4.127   1.495
10181SOL    HW231443   6.376   3.992   1.404
10182SOL     OW31444   5.383   1.714   0.067
10182SOL    HW131445   5.314   1.654   0.027
10182SOL    HW231446   5.469   1.664   0.077
10183SOL     OW31447   6.726   2.514   6.194
10183SOL    HW131448   6.687   2.606   6.194
10183SOL    HW231449   6.738   2.483   6.099
10184SOL     OW31450   6.159   3.781   6.517
10184SOL    HW131451   6.247   3.806   6.478
10184SOL    HW231452   6.148   3.825   6.606
10185SOL     OW31453   3.902   5.966   2.231
10185SOL    HW131454   3.830   5.898   2.220
10185SOL    HW231455   3.865   6.057   2.212
10186SOL     OW31456   4.723   4.167   5.671
10186SOL    HW131457   4.628   4.195   5.659
10186SOL    HW231458   4.769   4.229   5.735
10187SOL     OW31459   2.388   4.504   5.901
10187SOL    HW131460   2.384   4.438   5.976
10187SOL    HW231461   2.483   4.518   5.874
10188SOL     OW31462   2.637   6.668   6.969
10188SOL    HW131463   2.704   6.736   6.997
10188SOL    HW231464   2.622   6.673   6.871
10189SOL     OW31465   1.280   1.205   6.728
10189SOL    HW131466   1.208   1.171   6.788
10189SOL    HW231467   1.338   1.269   6.779
10190SOL     OW31468   2.910   3.740   1.096
10190SOL    HW131469   2.838   3.805   1.123
10190SOL    HW231470   2.910   3.730   0.996
10191SOL     OW31471   6.178   5.656   0.556
10191SOL    HW131472   6.143   5.578   0.504
10191SOL    HW231473   6.178   5.737   0.498
10192SOL     OW31474   2.413   1.944   5.382
10192SOL    HW131475   2.415   2.010   5.307
10192SOL    HW231476   2.354   1.867   5.358
10193SOL     OW31477   3.860   3.278   2.624
10193SOL    HW131478   3.947   3.296   2.578
10193SOL    HW231479   3.809   3.364   2.632
10194SOL     OW31480   3.966   0.169   4.748
10194SOL    HW131481   3.907   0.093   4.774
10194SOL    HW231482   4.043   0.135   4.695
10195SOL     OW31483   5.422   0.225   1.838
10195SOL    HW131484   5.431   0.194   1.933
10195SOL    HW231485   5.506   0.270   1.810
10196SOL     OW31486   5.591   2.021   3.628
10196SOL    HW131487   5.660   1.957   3.594
10196SOL    HW231488   5.547   2.066   3.551
10197SOL     OW31489   5.678   0.193   3.138
10197SOL    HW131490   5.603   0.249   3.173
10197SOL    HW231491   5.709   0.131   3.210
10198SOL     OW31492   2.994   6.448   1.147
10198SOL    HW131493   2.953   6.468   1.236
10198SOL    HW231494   2.963   6.358   1.115
10199SOL     OW31495   1.279   2.050   6.950
10199SOL    HW131496   1.237   1.993   6.879
10199SOL    HW231497   1.253   2.016   0.017
10200SOL     OW31498   5.866   3.980   6.096
10200SOL    HW131499   5.786   3.931   6.130
10200SOL    HW231500   5.888   4.056   6.157
10201SOL     OW31501   0.499   5.599   2.347
10201SOL    HW131502   0.428   5.662   2.319
10201SOL    HW231503   0.503   5.522   2.283
10202SOL     OW31504   6.885   4.191   1.104
10202SOL    HW131505   6.844   4.263   1.160
10202SOL    HW231506   6.980   4.177   1.132
10203SOL     OW31507   1.860   3.204   2.433
10203SOL    HW131508   1.953   3.185   2.463
10203SOL    HW231509   1.853   3.300   2.406
10204SOL     OW31510   3.119   4.580   6.055
10204SOL    HW131511   3.106   4.588   5.956
10204SOL    HW231512   3.190   4.512   6.074
10205SOL     OW31513   4.959   1.590   3.525
10205SOL    HW131514   4.955   1.654   3.601
10205SOL    HW231515   4.885   1.610   3.460
10206SOL     OW31516   5.463   6.699   6.085
10206SOL    HW131517   5.407   6.775   6.118
10206SOL    HW231518   5.410   6.644   6.020
10207SOL     OW31519   2.152   1.147   1.858
10207SOL    HW131520   2.066   1.197   1.864
10207SOL    HW231521   2.195   1.143   1.948
10208SOL     OW31522   6.155   5.714   5.281
10208SOL    HW131523   6.103   5.696   5.364
10208SOL    HW231524   6.168   5.628   5.230
10209SOL     OW31525   0.367   1.067   5.993
10209SOL    HW131526   0.434   1.140   5.981
10209SOL    HW231527   0.414   0.978   5.992
10210SOL     OW31528   5.319   0.096   2.160
10210SOL    HW131529   5.409   0.139   2.152
10210SOL    HW231530   5.273   0.130   2.242
10211SOL     OW31531   3.498   6.491   5.617
10211SOL    HW131532   3.568   6.518   5.684
10211SOL    HW231533   3.413   6.468   5.664
10212SOL     OW31534   0.368   1.179   4.432
10212SOL    HW131535   0.355   1.201   4.336
10212SOL    HW231536   0.294   1.218   4.487
10213SOL     OW31537   5.517   1.723   2.790
10213SOL    HW131538   5.426   1.752   2.819
10213SOL    HW231539   5.534   1.755   2.697
10214SOL     OW31540   6.514   0.751   2.015
10214SOL    HW131541   6.493   0.683   2.085
10214SOL    HW231542   6.577   0.712   1.948
10215SOL     OW31543   2.961   3.517   5.602
10215SOL    HW131544   3.039   3.524   5.665
10215SOL    HW231545   2.924   3.608   5.586
10216SOL     OW31546   6.285   6.946   0.872
10216SOL    HW131547   6.236   0.010   0.877
10216SOL    HW231548   6.383   6.963   0.875
10217SOL     OW31549   2.852   1.570   4.400
10217SOL    HW131550   2.871   1.569   4.302
10217SOL    HW231551   2.921   1.624   4.447
10218SOL     OW31552   1.131   1.692   1.464
10218SOL    HW131553   1.174   1.650   1.385
10218SOL    HW231554   1.127   1.791   1.451
10219SOL     OW31555   0.499   2.230   2.169
10219SOL    HW131556   0.415   2.243   2.222
10219SOL    HW231557   0.578   2.247   2.228
10220SOL     OW31558   3.917   1.533   1.691
10220SOL    HW131559   3.836   1.522   1.749
10220SOL    HW231560   3.998   1.509   1.744
10221SOL     OW31561   2.155   1.137   4.652
10221SOL    HW131562   2.118   1.229   4.663
10221SOL    HW231563   2.245   1.132   4.695
10222SOL     OW31564   1.133   3.912   5.136
10222SOL    HW131565   1.106   3.946   5.046
10222SOL    HW231566   1.173   3.986   5.189
10223SOL     OW31567   1.332   5.101   6.751
10223SOL    HW131568   1.416   5.152   6.729
10223SOL    HW231569   1.350   5.040   6.828
10224SOL     OW31570   1.526   1.047   4.673
10224SOL    HW131571   1.528   1.147   4.674
10224SOL    HW231572   1.613   1.012   4.705
10225SOL     OW31573   0.805   6.100   4.730
10225SOL    HW131574   0.739   6.091   4.804
10225SOL    HW231575   0.798   6.191   4.690
10226SOL     OW31576   3.222   1.258   6.794
10226SOL    HW131577   3.243   1.199   6.716
10226SOL    HW231578   3.242   1.353   6.771
10227SOL     OW31579   4.804   4.580   0.586
10227SOL    HW131580   4.780   4.483   0.587
10227SOL    HW231581   4.883   4.594   0.527
10228SOL     OW31582   0.529   5.359   2.182
10228SOL    HW131583   0.556   5.421   2.108
10228SOL    HW231584   0.489   5.276   2.143
10229SOL     OW31585   1.018   1.215   3.508
10229SOL    HW131586   1.086   1.190   3.577
10229SOL    HW231587   0.928   1.225   3.552
10230SOL     OW31588   0.239   0.302   3.242
10230SOL    HW131589   0.284   0.390   3.224
10230SOL    HW231590   0.181   0.310   3.323
10231SOL     OW31591   0.145   6.867   5.341
10231SOL    HW131592   0.205   6.790   5.360
10231SOL    HW231593   0.193   6.952   5.362
10232SOL     OW31594   4.152   1.036   4.531
10232SOL    HW131595   4.067   1.063   4.576
10232SOL    HW231596   4.216   1.112   4.531
10233SOL     OW31597   4.676   2.896   5.630
10233SOL    HW131598   4.654   2.832   5.556
10233SOL    HW231599   4.683   2.988   5.593
10234SOL     OW31600   5.094   0.399   0.722
10234SOL    HW131601   5.085   0.304   0.753
10234SOL    HW231602   5.004   0.441   0.715
10235SOL     OW31603   4.476   1.003   0.602
10235SOL    HW131604   4.475   1.077   0.668
10235SOL    HW231605   4.399   1.013   0.539
10236SOL     OW31606   1.717   6.792   1.583
10236SOL    HW131607   1.799   6.837   1.549
10236SOL    HW231608   1.700   6.709   1.530
10237SOL     OW31609   6.076   4.218   1.471
10237SOL    HW131610   6.039   4.149   1.534
10237SOL    HW231611   6.171   4.237   1.494
10238SOL     OW31612   3.745   3.817   5.151
10238SOL    HW131613   3.700   3.784   5.068
10238SOL    HW231614   3.835   3.854   5.128
10239SOL     OW31615   1.311   4.427   5.688
10239SOL    HW131616   1.276   4.412   5.781
10239SOL    HW231617   1.235   4.447   5.627
10240SOL     OW31618   1.103   4.200   2.446
10240SOL    HW131619   1.190   4.152   2.433
10240SOL    HW231620   1.120   4.290   2.486
10241SOL     OW31621   0.326   0.976   1.797
10241SOL    HW131622   0.337   1.029   1.713
10241SOL    HW231623   0.411   0.927   1.817
10242SOL     OW31624   0.907   1.889   5.983
10242SOL    HW131625   0.999   1.870   6.016
10242SOL    HW231626   0.851   1.923   6.058
10243SOL     OW31627   0.012   5.412   1.369
10243SOL    HW131628   0.019   5.335   1.307
10243SOL    HW231629   0.103   5.442   1.397
10244SOL     OW31630   1.944   4.478   7.013
10244SOL    HW131631   1.994   4.551   0.038
10244SOL    HW231632   1.921   4.405   0.054
10245SOL     OW31633   2.156   3.580   6.866
10245SOL    HW131634   2.065   3.558   6.901
10245SOL    HW231635   2.179   3.519   6.791
10246SOL     OW31636   3.216   4.086   4.646
10246SOL    HW131637   3.258   4.068   4.735
10246SOL    HW231638   3.162   4.170   4.651
10247SOL     OW31639   0.527   5.226   5.459
10247SOL    HW131640   0.440   5.184   5.433
10247SOL    HW231641   0.536   5.222   5.559
10248SOL     OW31642   3.133   0.343   2.443
10248SOL    HW131643   3.197   0.402   2.393
10248SOL    HW231644   3.049   0.394   2.463
10249SOL     OW31645   3.097   0.914   5.470
10249SOL    HW131646   3.144   0.884   5.387
10249SOL    HW231647   3.145   0.879   5.550
10250SOL     OW31648   6.881   1.796   1.104
10250SOL    HW131649   6.800   1.792   1.163
10250SOL    HW231650   6.866   1.740   1.023
10251SOL     OW31651   2.290   2.979   6.005
10251SOL    HW131652   2.330   2.955   6.094
10251SOL    HW231653   2.358   3.026   5.949
10252SOL     OW31654   6.166   6.978   0.613
10252SOL    HW131655   6.072   6.944   0.605
10252SOL    HW231656   6.205   6.950   0.700
10253SOL     OW31657   4.958   5.317   0.027
10253SOL    HW131658   5.005   5.313   6.962
10253SOL    HW231659   4.916   5.406   0.039
10254SOL     OW31660   3.579   2.150   4.308
10254SOL    HW131661   3.521   2.095   4.248
10254SOL    HW231662   3.523   2.217   4.356
10255SOL     OW31663   1.835   6.097   1.292
10255SOL    HW131664   1.802   6.189   1.274
10255SOL    HW231665   1.928   6.086   1.255
10256SOL     OW31666   5.281   0.236   1.024
10256SOL    HW131667   5.309   0.202   0.934
10256SOL    HW231668   5.336   0.316   1.048
10257SOL     OW31669   0.713   4.407   5.141
10257SOL    HW131670   0.680   4.417   5.047
10257SOL    HW231671   0.650   4.453   5.203
10258SOL     OW31672   5.548   6.708   3.592
10258SOL    HW131673   5.583   6.680   3.502
10258SOL    HW231674   5.618   6.762   3.639
10259SOL     OW31675   1.105   5.084   3.339
10259SOL    HW131676   1.175   5.075   3.410
10259SOL    HW231677   1.148   5.074   3.249
10260SOL     OW31678   6.925   6.793   2.919
10260SOL    HW131679   6.954   6.706   2.959
10260SOL    HW231680   6.826   6.804   2.930
10261SOL     OW31681   6.789   6.271   2.147
10261SOL    HW131682   6.705   6.325   2.148
10261SOL    HW231683   6.868   6.333   2.147
10262SOL     OW31684   3.250   5.483   4.593
10262SOL    HW131685   3.343   5.498   4.559
10262SOL    HW231686   3.252   5.476   4.692
10263SOL     OW31687   5.105   1.693   6.592
10263SOL    HW131688   5.099   1.629   6.515
10263SOL    HW231689   5.167   1.656   6.661
10264SOL     OW31690   6.188   1.841   6.668
10264SOL    HW131691   6.098   1.881   6.654
10264SOL    HW231692   6.257   1.891   6.615
10265SOL     OW31693   3.156   1.708   2.756
10265SOL    HW131694   3.197   1.658   2.680
10265SOL    HW231695   3.078   1.656   2.791
10266SOL     OW31696   3.676   3.780   5.837
10266SOL    HW131697   3.584   3.786   5.874
10266SOL    HW231698   3.734   3.728   5.901
10267SOL     OW31699   6.532   1.978   6.880
10267SOL    HW131700   6.437   2.007   6.870
10267SOL    HW231701   6.591   2.058   6.883
10268SOL     OW31702   5.374   6.276   1.526
10268SOL    HW131703   5.290   6.291   1.578
10268SOL    HW231704   5.443   6.343   1.554
10269SOL     OW31705   2.084   1.327   5.714
10269SOL    HW131706   2.156   1.266   5.683
10269SOL    HW231707   2.005   1.320   5.652
10270SOL     OW31708   2.177   5.973   1.408
10270SOL    HW131709   2.184   5.878   1.438
10270SOL    HW231710   2.164   6.032   1.488
10271SOL     OW31711   3.153   3.284   0.546
10271SOL    HW131712   3.198   3.367   0.514
10271SOL    HW231713   3.159   3.280   0.646
10272SOL     OW31714   0.823   0.917   4.163
10272SOL    HW131715   0.778   0.990   4.113
10272SOL    HW231716   0.870   0.955   4.243
10273SOL     OW31717   4.070   6.012   3.950
10273SOL    HW131718   4.023   6.100   3.962
10273SOL    HW231719   4.009   5.948   3.904
10274SOL     OW31720   1.492   4.629   5.703
10274SOL    HW131721   1.529   4.690   5.633
10274SOL    HW231722   1.417   4.575   5.664
10275SOL     OW31723   1.199   0.164   2.482
10275SOL    HW131724   1.115   0.110   2.472
10275SOL    HW231725   1.201   0.206   2.573
10276SOL     OW31726   6.776   5.380   6.348
10276SOL    HW131727   6.842   5.410   6.417
10276SOL    HW231728   6.812   5.301   6.299
10277SOL     OW31729   2.802   6.334   4.201
10277SOL    HW131730   2.863   6.279   4.145
10277SOL    HW231731   2.848   6.359   4.286
10278SOL     OW31732   6.401   1.289   5.631
10278SOL    HW131733   6.474   1.229   5.666
10278SOL    HW231734   6.393   1.370   5.690
10279SOL     OW31735   3.626   0.397   3.747
10279SOL    HW131736   3.683   0.339   3.805
10279SOL    HW231737   3.629   0.491   3.779
10280SOL     OW31738   2.365   4.509   1.153
10280SOL    HW131739   2.369   4.506   1.253
10280SOL    HW231740   2.284   4.459   1.121
10281SOL     OW31741   5.231   2.327   2.409
10281SOL    HW131742   5.170   2.296   2.482
10281SOL    HW231743   5.320   2.349   2.447
10282SOL     OW31744   6.484   3.341   4.277
10282SOL    HW131745   6.520   3.249   4.295
10282SOL    HW231746   6.384   3.337   4.273
10283SOL     OW31747   1.194   3.349   1.179
10283SOL    HW131748   1.141   3.299   1.247
10283SOL    HW231749   1.183   3.305   1.090
10284SOL     OW31750   5.899   4.213   5.157
10284SOL    HW131751   5.990   4.208   5.118
10284SOL    HW231752   5.875   4.309   5.174
10285SOL     OW31753   4.592   0.279   1.611
10285SOL    HW131754   4.671   0.290   1.550
10285SOL    HW231755   4.528   0.354   1.597
10286SOL     OW31756   3.295   1.866   2.928
10286SOL    HW131757   3.239   1.824   2.857
10286SOL    HW231758   3.322   1.958   2.899
10287SOL     OW31759   1.791   0.003   1.789
10287SOL    HW131760   1.730   0.024   1.865
10287SOL    HW231761   1.768   6.936   1.752
10288SOL     OW31762   5.533   5.684   2.180
10288SOL    HW131763   5.560   5.729   2.095
10288SOL    HW231764   5.453   5.731   2.218
10289SOL     OW31765   3.130   0.986   1.277
10289SOL    HW131766   3.050   0.954   1.225
10289SOL    HW231767   3.183   0.907   1.307
10290SOL     OW31768   3.567   4.141   2.943
10290SOL    HW131769   3.580   4.196   2.861
10290SOL    HW231770   3.505   4.065   2.923
10291SOL     OW31771   4.024   0.513   3.845
10291SOL    HW131772   3.973   0.594   3.819
10291SOL    HW231773   3.962   0.435   3.855
10292SOL     OW31774   0.534   2.090   4.605
10292SOL    HW131775   0.573   2.061   4.518
10292SOL    HW231776   0.578   2.040   4.679
10293SOL     OW31777   1.442   6.481   3.037
10293SOL    HW131778   1.437   6.560   3.098
10293SOL    HW231779   1.428   6.397   3.090
10294SOL     OW31780   4.819   3.167   3.290
10294SOL    HW131781   4.790   3.119   3.372
10294SOL    HW231782   4.822   3.266   3.309
10295SOL     OW31783   5.709   4.825   5.502
10295SOL    HW131784   5.795   4.782   5.475
10295SOL    HW231785   5.679   4.787   5.590
10296SOL     OW31786   5.706   4.526   6.096
10296SOL    HW131787   5.773   4.456   6.072
10296SOL    HW231788   5.620   4.482   6.123
10297SOL     OW31789   2.461   6.523   4.451
10297SOL    HW131790   2.366   6.501   4.426
10297SOL    HW231791   2.482   6.485   4.541
10298SOL     OW31792   4.642   4.387   3.315
10298SOL    HW131793   4.580   4.413   3.390
10298SOL    HW231794   4.650   4.288   3.312
10299SOL     OW31795   4.556   4.363   3.022
10299SOL    HW131796   4.644   4.323   2.995
10299SOL    HW231797   4.558   4.384   3.120
10300SOL     OW31798   1.649   4.025   2.101
10300SOL    HW131799   1.740   3.984   2.106
10300SOL    HW231800   1.635   4.085   2.179
10301SOL     OW31801   5.923   1.790   2.987
10301SOL    HW131802   5.823   1.796   2.993
10301SOL    HW231803   5.962   1.793   3.079
10302SOL     OW31804   1.517   6.242   2.555
10302SOL    HW131805   1.609   6.209   2.579
10302SOL    HW231806   1.470   6.271   2.638
10303SOL     OW31807   3.937   4.132   1.314
10303SOL    HW131808   4.023   4.144   1.363
10303SOL    HW231809   3.869   4.091   1.374
10304SOL     OW31810   6.136   0.386   4.027
10304SOL    HW131811   6.188   0.303   4.045
10304SOL    HW231812   6.150   0.451   4.102
10305SOL     OW31813   1.503   6.148   6.975
10305SOL    HW131814   1.464   6.226   0.001
10305SOL    HW231815   1.580   6.112   0.003
10306SOL     OW31816   4.569   5.375   6.851
10306SOL    HW131817   4.555   5.280   6.877
10306SOL    HW231818   4.516   5.434   6.912
10307SOL     OW31819   1.539   1.138   4.994
10307SOL    HW131820   1.466   1.177   4.938
10307SOL    HW231821   1.625   1.184   4.974
10308SOL     OW31822   3.387   5.199   3.836
10308SOL    HW131823   3.318   5.247   3.890
10308SOL    HW231824   3.431   5.129   3.892
10309SOL     OW31825   6.299   6.887   3.403
10309SOL    HW131826   6.372   6.887   3.334
10309SOL    HW231827   6.239   6.965   3.388
10310SOL     OW31828   2.946   3.722   1.827
10310SOL    HW131829   3.046   3.729   1.831
10310SOL    HW231830   2.910   3.791   1.764
10311SOL     OW31831   0.652   5.484   1.242
10311SOL    HW131832   0.708   5.472   1.160
10311SOL    HW231833   0.584   5.556   1.226
10312SOL     OW31834   3.602   4.961   0.758
10312SOL    HW131835   3.590   5.017   0.676
10312SOL    HW231836   3.692   4.917   0.756
10313SOL     OW31837   4.309   0.122   2.303
10313SOL    HW131838   4.330   0.157   2.211
10313SOL    HW231839   4.215   0.147   2.327
10314SOL     OW31840   6.258   0.670   0.738
10314SOL    HW131841   6.336   0.608   0.740
10314SOL    HW231842   6.175   0.618   0.717
10315SOL     OW31843   6.106   5.990   5.420
10315SOL    HW131844   6.021   6.041   5.433
10315SOL    HW231845   6.104   5.944   5.332
10316SOL     OW31846   0.299   3.437   4.767
10316SOL    HW131847   0.339   3.410   4.680
10316SOL    HW231848   0.372   3.453   4.833
10317SOL     OW31849   3.771   5.026   6.144
10317SOL    HW131850   3.714   5.094   6.097
10317SOL    HW231851   3.814   5.068   6.224
10318SOL     OW31852   6.098   5.556   1.619
10318SOL    HW131853   6.151   5.602   1.691
10318SOL    HW231854   6.133   5.464   1.605
10319SOL     OW31855   0.277   4.623   4.529
10319SOL    HW131856   0.217   4.573   4.592
10319SOL    HW231857   0.338   4.558   4.483
10320SOL     OW31858   0.871   0.229   0.866
10320SOL    HW131859   0.857   0.325   0.889
10320SOL    HW231860   0.857   0.215   0.768
10321SOL     OW31861   3.850   6.420   4.908
10321SOL    HW131862   3.767   6.390   4.859
10321SOL    HW231863   3.912   6.343   4.918
10322SOL     OW31864   6.280   6.271   0.583
10322SOL    HW131865   6.230   6.233   0.505
10322SOL    HW231866   6.348   6.205   0.615
10323SOL     OW31867   6.788   3.524   6.669
10323SOL    HW131868   6.815   3.513   6.573
10323SOL    HW231869   6.869   3.522   6.727
10324SOL     OW31870   3.516   3.158   3.131
10324SOL    HW131871   3.481   3.219   3.201
10324SOL    HW231872   3.603   3.192   3.096
10325SOL     OW31873   6.778   4.331   3.769
10325SOL    HW131874   6.698   4.285   3.808
10325SOL    HW231875   6.785   4.423   3.807
10326SOL     OW31876   4.870   2.494   0.137
10326SOL    HW131877   4.834   2.581   0.168
10326SOL    HW231878   4.906   2.442   0.214
10327SOL     OW31879   2.169   1.035   2.919
10327SOL    HW131880   2.147   1.122   2.875
10327SOL    HW231881   2.223   1.052   3.001
10328SOL     OW31882   5.661   3.406   2.310
10328SOL    HW131883   5.752   3.430   2.344
10328SOL    HW231884   5.598   3.482   2.328
10329SOL     OW31885   2.669   0.686   3.963
10329SOL    HW131886   2.647   0.774   3.921
10329SOL    HW231887   2.659   0.613   3.896
10330SOL     OW31888   3.504   5.110   3.271
10330SOL    HW131889   3.565   5.032   3.254
10330SOL    HW231890   3.543   5.167   3.344
10331SOL     OW31891   5.742   0.911   3.325
10331SOL    HW131892   5.720   0.923   3.228
10331SOL    HW231893   5.713   0.992   3.376
10332SOL     OW31894   0.106   1.893   0.834
10332SOL    HW131895   0.008   1.908   0.826
10332SOL    HW231896   0.147   1.890   0.743
10333SOL     OW31897   5.725   4.785   4.097
10333SOL    HW131898   5.662   4.814   4.168
10333SOL    HW231899   5.678   4.723   4.034
10334SOL     OW31900   2.040   5.047   3.733
10334SOL    HW131901   2.129   5.010   3.706
10334SOL    HW231902   2.016   5.015   3.824
10335SOL     OW31903   2.324   5.240   6.613
10335SOL    HW131904   2.380   5.246   6.695
10335SOL    HW231905   2.276   5.326   6.598
10336SOL     OW31906   4.298   6.859   2.207
10336SOL    HW131907   4.291   6.952   2.242
10336SOL    HW231908   4.267   6.857   2.112
10337SOL     OW31909   0.293   5.225   4.964
10337SOL    HW131910   0.298   5.171   5.048
10337SOL    HW231911   0.278   5.165   4.886
10338SOL     OW31912   3.689   6.626   1.204
10338SOL    HW131913   3.787   6.645   1.213
10338SOL    HW231914   3.638   6.712   1.203
10339SOL     OW31915   4.054   5.674   0.982
10339SOL    HW131916   3.957   5.657   0.965
10339SOL    HW231917   4.096   5.590   1.018
10340SOL     OW31918   2.439   5.558   6.709
10340SOL    HW131919   2.527   5.511   6.702
10340SOL    HW231920   2.365   5.494   6.689
10341SOL     OW31921   2.526   2.493   2.397
10341SOL    HW131922   2.602   2.456   2.450
10341SOL    HW231923   2.557   2.513   2.304
10342SOL     OW31924   1.779   6.464   6.465
10342SOL    HW131925   1.734   6.418   6.389
10342SOL    HW231926   1.728   6.445   6.549
10343SOL     OW31927   1.865   4.137   6.660
10343SOL    HW131928   1.839   4.221   6.709
10343SOL    HW231929   1.957   4.110   6.687
10344SOL     OW31930   4.118   3.690   4.581
10344SOL    HW131931   4.192   3.711   4.516
10344SOL    HW231932   4.123   3.753   4.658
10345SOL     OW31933   2.859   1.369   0.285
10345SOL    HW131934   2.895   1.305   0.217
10345SOL    HW231935   2.774   1.331   0.323
10346SOL     OW31936   5.320   7.000   0.205
10346SOL    HW131937   5.311   0.005   0.110
10346SOL    HW231938   5.415   7.011   0.234
10347SOL     OW31939   5.163   1.660   0.792
10347SOL    HW131940   5.231   1.590   0.773
10347SOL    HW231941   5.206   1.735   0.842
10348SOL     OW31942   6.175   1.002   6.142
10348SOL    HW131943   6.221   0.976   6.057
10348SOL    HW231944   6.243   1.029   6.210
10349SOL     OW31945   5.919   0.951   0.691
10349SOL    HW131946   6.006   0.958   0.740
10349SOL    HW231947   5.855   0.897   0.745
10350SOL     OW31948   3.749   5.986   4.104
10350SOL    HW131949   3.801   6.041   4.169
10350SOL    HW231950   3.804   5.906   4.077
10351SOL     OW31951   6.160   4.989   5.097
10351SOL    HW131952   6.062   4.975   5.111
10351SOL    HW231953   6.210   4.915   5.142
10352SOL     OW31954   5.652   1.904   6.971
10352SOL    HW131955   5.665   1.982   6.910
10352SOL    HW231956   5.571   1.919   0.004
10353SOL     OW31957   6.942   3.308   3.599
10353SOL    HW131958   6.911   3.272   3.511
10353SOL    HW231959   6.939   3.408   3.597
10354SOL     OW31960   0.472   3.866   0.768
10354SOL    HW131961   0.388   3.880   0.716
10354SOL    HW231962   0.531   3.802   0.720
10355SOL     OW31963   1.173   1.865   1.037
10355SOL    HW131964   1.178   1.826   0.945
10355SOL    HW231965   1.191   1.794   1.105
10356SOL     OW31966   0.419   2.950   6.552
10356SOL    HW131967   0.512   2.986   6.537
10356SOL    HW231968   0.416   2.905   6.641
10357SOL     OW31969   1.787   2.223   6.463
10357SOL    HW131970   1.863   2.242   6.525
10357SOL    HW231971   1.721   2.163   6.509
10358SOL     OW31972   1.663   2.545   2.787
10358SOL    HW131973   1.673   2.565   2.884
10358SOL    HW231974   1.605   2.465   2.775
10359SOL     OW31975   4.995   2.494   2.580
10359SOL    HW131976   5.058   2.419   2.603
10359SOL    HW231977   4.902   2.457   2.571
10360SOL     OW31978   5.372   5.114   3.158
10360SOL    HW131979   5.443   5.046   3.139
10360SOL    HW231980   5.282   5.068   3.161
10361SOL     OW31981   2.075   1.766   1.529
10361SOL    HW131982   2.141   1.702   1.569
10361SOL    HW231983   1.993   1.715   1.501
10362SOL     OW31984   0.272   5.266   1.958
10362SOL    HW131985   0.320   5.218   2.031
10362SOL    HW231986   0.304   5.360   1.953
10363SOL     OW31987   4.496   3.311   0.441
10363SOL    HW131988   4.568   3.252   0.405
10363SOL    HW231989   4.524   3.347   0.530
10364SOL     OW31990   5.086   5.040   0.968
10364SOL    HW131991   5.020   5.113   0.949
10364SOL    HW231992   5.040   4.952   0.964
10365SOL     OW31993   6.133   5.327   0.193
10365SOL    HW131994   6.182   5.368   0.116
10365SOL    HW231995   6.180   5.243   0.222
10366SOL     OW31996   4.317   6.750   3.156
10366SOL    HW131997   4.267   6.805   3.089
10366SOL    HW231998   4.410   6.785   3.164
10367SOL     OW31999   6.618   1.901   2.009
10367SOL    HW132000   6.619   1.832   1.937
10367SOL    HW232001   6.526   1.909   2.047
10368SOL     OW32002   2.763   1.007   2.347
10368SOL    HW132003   2.824   0.949   2.399
10368SOL    HW232004   2.672   1.007   2.388
10369SOL     OW32005   2.823   6.399   5.688
10369SOL    HW132006   2.795   6.360   5.601
10369SOL    HW232007   2.862   6.490   5.674
10370SOL     OW32008   6.324   1.373   4.103
10370SOL    HW132009   6.275   1.449   4.061
10370SOL    HW232010   6.295   1.287   4.061
10371SOL     OW32011   3.706   6.486   3.020
10371SOL    HW132012   3.773   6.430   2.972
10371SOL    HW232013   3.615   6.469   2.980
10372SOL     OW32014   2.870   0.510   1.653
10372SOL    HW132015   2.912   0.428   1.693
10372SOL    HW232016   2.778   0.521   1.689
10373SOL     OW32017   0.616   0.106   4.882
10373SOL    HW132018   0.517   0.123   4.877
10373SOL    HW232019   0.634   0.011   4.857
10374SOL     OW32020   2.682   6.623   4.361
10374SOL    HW132021   2.763   6.579   4.400
10374SOL    HW232022   2.600   6.573   4.389
10375SOL     OW32023   2.790   2.383   5.936
10375SOL    HW132024   2.804   2.295   5.982
10375SOL    HW232025   2.857   2.449   5.970
10376SOL     OW32026   1.452   6.374   3.470
10376SOL    HW132027   1.467   6.298   3.532
10376SOL    HW232028   1.536   6.392   3.418
10377SOL     OW32029   0.024   1.802   1.884
10377SOL    HW132030   0.123   1.812   1.878
10377SOL    HW232031   7.004   1.855   1.812
10378SOL     OW32032   0.294   5.817   5.637
10378SOL    HW132033   0.315   5.725   5.671
10378SOL    HW232034   0.195   5.827   5.628
10379SOL     OW32035   2.632   6.066   4.616
10379SOL    HW132036   2.724   6.085   4.651
10379SOL    HW232037   2.621   6.108   4.526
10380SOL     OW32038   1.174   2.088   4.929
10380SOL    HW132039   1.192   2.138   5.014
10380SOL    HW232040   1.120   2.145   4.867
10381SOL     OW32041   4.203   4.087   1.468
10381SOL    HW132042   4.208   4.187   1.470
10381SOL    HW232043   4.226   4.051   1.558
10382SOL     OW32044   2.383   5.823   2.091
10382SOL    HW132045   2.427   5.799   2.177
10382SOL    HW232046   2.416   5.913   2.060
10383SOL     OW32047   2.155   4.059   0.146
10383SOL    HW132048   2.118   3.989   0.085
10383SOL    HW232049   2.255   4.060   0.138
10384SOL     OW32050   6.222   6.524   1.088
10384SOL    HW132051   6.223   6.579   1.004
10384SOL    HW232052   6.271   6.439   1.073
10385SOL     OW32053   3.589   5.130   5.953
10385SOL    HW132054   3.528   5.053   5.937
10385SOL    HW232055   3.546   5.194   6.017
10386SOL     OW32056   0.327   1.008   5.552
10386SOL    HW132057   0.323   1.105   5.531
10386SOL    HW232058   0.234   0.972   5.559
10387SOL     OW32059   5.227   3.078   3.644
10387SOL    HW132060   5.312   3.050   3.600
10387SOL    HW232061   5.182   3.149   3.589
10388SOL     OW32062   2.843   0.345   0.128
10388SOL    HW132063   2.793   0.343   0.042
10388SOL    HW232064   2.781   0.370   0.202
10389SOL     OW32065   6.459   3.714   0.334
10389SOL    HW132066   6.538   3.734   0.276
10389SOL    HW232067   6.389   3.784   0.321
10390SOL     OW32068   1.743   2.355   0.449
10390SOL    HW132069   1.813   2.284   0.458
10390SOL    HW232070   1.679   2.349   0.526
10391SOL     OW32071   1.358   6.560   3.678
10391SOL    HW132072   1.395   6.502   3.606
10391SOL    HW232073   1.374   6.656   3.655
10392SOL     OW32074   5.690   5.128   5.580
10392SOL    HW132075   5.655   5.038   5.603
10392SOL    HW232076   5.782   5.120   5.541
10393SOL     OW32077   1.924   3.754   3.802
10393SOL    HW132078   2.016   3.787   3.785
10393SOL    HW232079   1.891   3.704   3.722
10394SOL     OW32080   2.736   5.605   4.426
10394SOL    HW132081   2.689   5.693   4.436
10394SOL    HW232082   2.779   5.581   4.513
10395SOL     OW32083   0.379   6.440   1.520
10395SOL    HW132084   0.339   6.442   1.611
10395SOL    HW232085   0.353   6.355   1.474
10396SOL     OW32086   4.487   1.605   4.009
10396SOL    HW132087   4.571   1.617   4.061
10396SOL    HW232088   4.422   1.550   4.061
10397SOL     OW32089   3.110   2.184   3.171
10397SOL    HW132090   3.186   2.172   3.235
10397SOL    HW232091   3.026   2.149   3.212
10398SOL     OW32092   5.763   2.328   1.013
10398SOL    HW132093   5.857   2.361   1.023
10398SOL    HW232094   5.759   2.262   0.938
10399SOL     OW32095   5.147   2.214   3.651
10399SOL    HW132096   5.177   2.120   3.633
10399SOL    HW232097   5.053   2.226   3.619
10400SOL     OW32098   4.364   6.520   0.217
10400SOL    HW132099   4.301   6.593   0.244
10400SOL    HW232100   4.338   6.435   0.263
10401SOL     OW32101   6.546   0.288   3.381
10401SOL    HW132102   6.581   0.342   3.305
10401SOL    HW232103   6.469   0.336   3.424
10402SOL     OW32104   6.319   3.256   5.406
10402SOL    HW132105   6.385   3.224   5.338
10402SOL    HW232106   6.255   3.183   5.428
10403SOL     OW32107   5.030   1.361   3.713
10403SOL    HW132108   4.955   1.357   3.780
10403SOL    HW232109   4.998   1.407   3.630
10404SOL     OW32110   6.181   6.585   5.346
10404SOL    HW132111   6.116   6.651   5.385
10404SOL    HW232112   6.139   6.495   5.343
10405SOL     OW32113   0.969   0.835   4.979
10405SOL    HW132114   1.066   0.818   4.964
10405SOL    HW232115   0.924   0.854   4.892
10406SOL     OW32116   3.154   4.853   2.892
10406SOL    HW132117   3.118   4.946   2.893
10406SOL    HW232118   3.232   4.846   2.954
10407SOL     OW32119   2.763   6.702   5.954
10407SOL    HW132120   2.664   6.715   5.941
10407SOL    HW232121   2.779   6.657   6.042
10408SOL     OW32122   4.226   0.249   1.583
10408SOL    HW132123   4.280   0.243   1.500
10408SOL    HW232124   4.279   0.295   1.654
10409SOL     OW32125   0.152   4.630   0.873
10409SOL    HW132126   0.231   4.576   0.841
10409SOL    HW232127   0.072   4.608   0.817
10410SOL     OW32128   5.606   1.914   1.222
10410SOL    HW132129   5.597   2.013   1.213
10410SOL    HW232130   5.650   1.893   1.309
10411SOL     OW32131   3.403   6.813   3.637
10411SOL    HW132132   3.407   6.757   3.554
10411SOL    HW232133   3.344   6.893   3.621
10412SOL     OW32134   0.347   1.398   0.042
10412SOL    HW132135   0.289   1.358   0.113
10412SOL    HW232136   0.443   1.375   0.061
10413SOL     OW32137   6.557   2.743   0.623
10413SOL    HW132138   6.490   2.670   0.611
10413SOL    HW232139   6.591   2.742   0.717
10414SOL     OW32140   3.995   4.108   5.843
10414SOL    HW132141   3.907   4.079   5.804
10414SOL    HW232142   3.981   4.186   5.903
10415SOL     OW32143   1.694   3.448   4.434
10415SOL    HW132144   1.715   3.471   4.529
10415SOL    HW232145   1.749   3.505   4.373
10416SOL     OW32146   6.021   7.000   5.071
10416SOL    HW132147   5.970   0.058   5.098
10416SOL    HW232148   6.107   0.004   5.026
10417SOL     OW32149   3.085   5.457   4.366
10417SOL    HW132150   3.136   5.466   4.452
10417SOL    HW232151   2.988   5.472   4.383
10418SOL     OW32152   0.010   4.476   6.931
10418SOL    HW132153   0.059   4.556   6.966
10418SOL    HW232154   0.065   4.432   6.860
10419SOL     OW32155   1.443   7.016   6.127
10419SOL    HW132156   1.364   6.955   6.127
10419SOL    HW232157   1.446   0.044   6.212
10420SOL     OW32158   6.438   3.764   3.452
10420SOL    HW132159   6.404   3.699   3.384
10420SOL    HW232160   6.366   3.783   3.519
10421SOL     OW32161   0.494   1.990   3.540
10421SOL    HW132162   0.535   1.904   3.572
10421SOL    HW232163   0.526   2.009   3.448
10422SOL     OW32164   6.807   3.261   5.415
10422SOL    HW132165   6.883   3.199   5.432
10422SOL    HW232166   6.798   3.325   5.492
10423SOL     OW32167   6.109   5.511   4.853
10423SOL    HW132168   6.009   5.510   4.860
10423SOL    HW232169   6.138   5.595   4.807
10424SOL     OW32170   5.609   2.827   0.730
10424SOL    HW132171   5.573   2.785   0.647
10424SOL    HW232172   5.611   2.760   0.804
10425SOL     OW32173   0.970   6.983   1.796
10425SOL    HW132174   0.884   7.022   1.828
10425SOL    HW232175   1.028   6.962   1.874
10426SOL     OW32176   6.562   4.885   0.280
10426SOL    HW132177   6.560   4.947   0.201
10426SOL    HW232178   6.501   4.808   0.264
10427SOL     OW32179   3.710   0.447   6.232
10427SOL    HW132180   3.627   0.485   6.192
10427SOL    HW232181   3.790   0.483   6.184
10428SOL     OW32182   3.127   1.062   3.844
10428SOL    HW132183   3.167   1.003   3.914
10428SOL    HW232184   3.160   1.156   3.857
10429SOL     OW32185   0.389   5.081   0.748
10429SOL    HW132186   0.315   5.027   0.789
10429SOL    HW232187   0.429   5.141   0.817
10430SOL     OW32188   5.167   6.360   4.198
10430SOL    HW132189   5.167   6.289   4.269
10430SOL    HW232190   5.165   6.450   4.241
10431SOL     OW32191   3.186   5.910   4.182
10431SOL    HW132192   3.175   5.811   4.187
10431SOL    HW232193   3.096   5.954   4.187
10432SOL     OW32194   6.187   6.747   5.134
10432SOL    HW132195   6.088   6.760   5.126
10432SOL    HW232196   6.210   6.720   5.228
10433SOL     OW32197   2.133   6.193   1.228
10433SOL    HW132198   2.160   6.136   1.305
10433SOL    HW232199   2.206   6.195   1.160
10434SOL     OW32200   4.127   6.643   3.679
10434SOL    HW132201   4.155   6.561   3.629
10434SOL    HW232202   4.037   6.628   3.720
10435SOL     OW32203   0.280   0.189   4.642
10435SOL    HW132204   0.297   0.179   4.740
10435SOL    HW232205   0.368   0.201   4.595
10436SOL     OW32206   0.708   5.054   5.933
10436SOL    HW132207   0.700   5.141   5.981
10436SOL    HW232208   0.777   5.061   5.861
10437SOL     OW32209   5.814   5.353   6.121
10437SOL    HW132210   5.900   5.379   6.163
10437SOL    HW232211   5.831   5.321   6.027
10438SOL     OW32212   6.062   6.646   0.615
10438SOL    HW132213   5.980   6.700   0.631
10438SOL    HW232214   6.129   6.662   0.688
10439SOL     OW32215   3.941   1.250   5.982
10439SOL    HW132216   4.038   1.272   5.983
10439SOL    HW232217   3.929   1.151   5.987
10440SOL     OW32218   1.044   6.570   0.319
10440SOL    HW132219   1.085   6.645   0.268
10440SOL    HW232220   1.114   6.502   0.342
10441SOL     OW32221   4.055   0.436   0.630
10441SOL    HW132222   3.968   0.449   0.676
10441SOL    HW232223   4.119   0.508   0.657
10442SOL     OW32224   3.334   6.222   6.090
10442SOL    HW132225   3.241   6.221   6.053
10442SOL    HW232226   3.332   6.193   6.186
10443SOL     OW32227   5.090   4.019   4.762
10443SOL    HW132228   5.151   4.089   4.722
10443SOL    HW232229   4.998   4.032   4.727
10444SOL     OW32230   3.784   6.410   4.568
10444SOL    HW132231   3.781   6.401   4.468
10444SOL    HW232232   3.866   6.365   4.603
10445SOL     OW32233   1.075   5.408   4.156
10445SOL    HW132234   0.994   5.438   4.106
10445SOL    HW232235   1.157   5.446   4.112
10446SOL     OW32236   1.043   2.968   5.544
10446SOL    HW132237   0.988   2.918   5.477
10446SOL    HW232238   0.984   3.028   5.597
10447SOL     OW32239   6.912   0.897   2.248
10447SOL    HW132240   6.887   0.827   2.181
10447SOL    HW232241   6.927   0.854   2.337
10448SOL     OW32242   3.557   1.614   1.533
10448SOL    HW132243   3.499   1.687   1.571
10448SOL    HW232244   3.635   1.655   1.486
10449SOL     OW32245   2.244   5.324   4.449
10449SOL    HW132246   2.323   5.364   4.496
10449SOL    HW232247   2.164   5.383   4.462
10450SOL     OW32248   0.377   2.106   0.503
10450SOL    HW132249   0.447   2.059   0.448
10450SOL    HW232250   0.292   2.112   0.450
10451SOL     OW32251   1.963   5.112   2.717
10451SOL    HW132252   1.966   5.013   2.726
10451SOL    HW232253   2.050   5.152   2.745
10452SOL     OW32254   5.561   3.505   3.254
10452SOL    HW132255   5.616   3.550   3.184
10452SOL    HW232256   5.488   3.567   3.284
10453SOL     OW32257   4.692   5.751   1.565
10453SOL    HW132258   4.772   5.810   1.571
10453SOL    HW232259   4.669   5.717   1.656
10454SOL     OW32260   4.355   3.217   1.166
10454SOL    HW132261   4.373   3.131   1.214
10454SOL    HW232262   4.259   3.220   1.138
10455SOL     OW32263   6.711   5.310   2.187
10455SOL    HW132264   6.780   5.382   2.193
10455SOL    HW232265   6.748   5.226   2.225
10456SOL     OW32266   2.913   6.141   1.159
10456SOL    HW132267   2.984   6.114   1.094
10456SOL    HW232268   2.911   6.075   1.235
10457SOL     OW32269   3.168   3.171   2.536
10457SOL    HW132270   3.224   3.093   2.508
10457SOL    HW232271   3.082   3.170   2.484
10458SOL     OW32272   0.240   1.125   6.233
10458SOL    HW132273   0.247   1.042   6.289
10458SOL    HW232274   0.286   1.110   6.146
10459SOL     OW32275   4.878   4.941   2.673
10459SOL    HW132276   4.857   5.039   2.671
10459SOL    HW232277   4.958   4.923   2.617
10460SOL     OW32278   1.540   5.168   1.653
10460SOL    HW132279   1.491   5.201   1.572
10460SOL    HW232280   1.591   5.085   1.629
10461SOL     OW32281   1.315   5.769   5.471
10461SOL    HW132282   1.264   5.730   5.395
10461SOL    HW232283   1.289   5.723   5.556
10462SOL     OW32284   5.751   1.898   2.644
10462SOL    HW132285   5.685   1.831   2.610
10462SOL    HW232286   5.752   1.978   2.584
10463SOL     OW32287   4.151   2.790   5.614
10463SOL    HW132288   4.153   2.883   5.650
10463SOL    HW232289   4.191   2.789   5.522
10464SOL     OW32290   5.957   6.449   1.124
10464SOL    HW132291   6.049   6.488   1.125
10464SOL    HW232292   5.961   6.355   1.090
10465SOL     OW32293   5.921   6.881   0.539
10465SOL    HW132294   5.883   6.837   0.457
10465SOL    HW232295   5.852   6.939   0.581
10466SOL     OW32296   4.570   4.959   5.145
10466SOL    HW132297   4.611   5.049   5.161
10466SOL    HW232298   4.626   4.909   5.079
10467SOL     OW32299   1.086   1.862   5.539
10467SOL    HW132300   1.093   1.770   5.499
10467SOL    HW232301   0.989   1.887   5.548
10468SOL     OW32302   3.692   4.900   3.191
10468SOL    HW132303   3.672   4.849   3.107
10468SOL    HW232304   3.788   4.886   3.216
10469SOL     OW32305   3.382   2.493   6.657
10469SOL    HW132306   3.354   2.480   6.562
10469SOL    HW232307   3.304   2.527   6.710
10470SOL     OW32308   2.778   1.598   3.108
10470SOL    HW132309   2.771   1.664   3.034
10470SOL    HW232310   2.796   1.646   3.194
10471SOL     OW32311   1.948   3.376   1.184
10471SOL    HW132312   2.029   3.335   1.226
10471SOL    HW232313   1.960   3.475   1.179
10472SOL     OW32314   3.347   5.525   0.881
10472SOL    HW132315   3.417   5.464   0.844
10472SOL    HW232316   3.315   5.490   0.969
10473SOL     OW32317   5.643   0.442   0.366
10473SOL    HW132318   5.642   0.467   0.269
10473SOL    HW232319   5.692   0.513   0.418
10474SOL     OW32320   4.308   1.594   4.751
10474SOL    HW132321   4.270   1.503   4.764
10474SOL    HW232322   4.400   1.587   4.711
10475SOL     OW32323   4.326   6.250   2.066
10475SOL    HW132324   4.245   6.194   2.078
10475SOL    HW232325   4.332   6.281   1.971
10476SOL     OW32326   0.116   5.516   6.135
10476SOL    HW132327   0.156   5.478   6.218
10476SOL    HW232328   0.086   5.442   6.075
10477SOL     OW32329   6.098   2.645   5.082
10477SOL    HW132330   6.093   2.676   5.177
10477SOL    HW232331   6.132   2.551   5.081
10478SOL     OW32332   0.326   0.411   0.903
10478SOL    HW132333   0.417   0.369   0.907
10478SOL    HW232334   0.260   0.352   0.949
10479SOL     OW32335   0.003   2.926   1.931
10479SOL    HW132336   0.100   2.903   1.921
10479SOL    HW232337   7.004   3.003   1.871
10480SOL     OW32338   5.747   0.269   1.315
10480SOL    HW132339   5.799   0.185   1.298
10480SOL    HW232340   5.752   0.291   1.412
10481SOL     OW32341   2.491   0.832   5.554
10481SOL    HW132342   2.519   0.793   5.466
10481SOL    HW232343   2.395   0.810   5.571
10482SOL     OW32344   1.069   5.957   4.728
10482SOL    HW132345   1.099   6.002   4.812
10482SOL    HW232346   0.972   5.976   4.713
10483SOL     OW32347   0.190   5.168   0.208
10483SOL    HW132348   0.257   5.099   0.180
10483SOL    HW232349   0.129   5.188   0.131
10484SOL     OW32350   6.943   0.588   1.115
10484SOL    HW132351   6.907   0.681   1.101
10484SOL    HW232352   7.002   0.564   1.039
10485SOL     OW32353   3.280   2.873   2.523
10485SOL    HW132354   3.263   2.837   2.431
10485SOL    HW232355   3.377   2.895   2.532
10486SOL     OW32356   6.726   0.829   6.051
10486SOL    HW132357   6.668   0.905   6.080
10486SOL    HW232358   6.822   0.854   6.062
10487SOL     OW32359   4.408   2.148   1.296
10487SOL    HW132360   4.319   2.166   1.337
10487SOL    HW232361   4.476   2.137   1.369
10488SOL     OW32362   1.858   2.167   6.067
10488SOL    HW132363   1.882   2.087   6.013
10488SOL    HW232364   1.937   2.194   6.123
10489SOL     OW32365   5.743   6.110   4.404
10489SOL    HW132366   5.669   6.171   4.434
10489SOL    HW232367   5.829   6.138   4.447
10490SOL     OW32368   5.951   1.222   0.522
10490SOL    HW132369   5.956   1.150   0.592
10490SOL    HW232370   5.922   1.307   0.565
10491SOL     OW32371   2.042   2.756   6.154
10491SOL    HW132372   1.993   2.725   6.235
10491SOL    HW232373   2.140   2.743   6.166
10492SOL     OW32374   3.932   5.802   0.559
10492SOL    HW132375   3.880   5.725   0.519
10492SOL    HW232376   3.870   5.878   0.577
10493SOL     OW32377   3.062   5.412   1.225
10493SOL    HW132378   3.157   5.410   1.196
10493SOL    HW232379   3.004   5.377   1.152
10494SOL     OW32380   6.868   4.391   5.521
10494SOL    HW132381   6.780   4.439   5.525
10494SOL    HW232382   6.871   4.320   5.592
10495SOL     OW32383   6.048   6.628   0.210
10495SOL    HW132384   6.015   6.584   0.293
10495SOL    HW232385   6.148   6.631   0.211
10496SOL     OW32386   6.409   4.690   4.882
10496SOL    HW132387   6.500   4.727   4.896
10496SOL    HW232388   6.343   4.765   4.872
10497SOL     OW32389   1.287   6.453   2.300
10497SOL    HW132390   1.297   6.413   2.209
10497SOL    HW232391   1.273   6.552   2.292
10498SOL     OW32392   5.343   6.093   1.093
10498SOL    HW132393   5.403   6.173   1.084
10498SOL    HW232394   5.362   6.028   1.020
10499SOL     OW32395   4.955   6.214   1.367
10499SOL    HW132396   4.933   6.227   1.271
10499SOL    HW232397   5.051   6.240   1.383
10500SOL     OW32398   5.508   2.115   5.551
10500SOL    HW132399   5.597   2.095   5.592
10500SOL    HW232400   5.520   2.177   5.474
10501SOL     OW32401   2.398   5.910   2.815
10501SOL    HW132402   2.345   5.975   2.869
10501SOL    HW232403   2.381   5.817   2.848
10502SOL     OW32404   2.554   3.803   0.859
10502SOL    HW132405   2.478   3.752   0.897
10502SOL    HW232406   2.637   3.786   0.912
10503SOL     OW32407   6.149   4.187   6.872
10503SOL    HW132408   6.142   4.130   6.953
10503SOL    HW232409   6.080   4.160   6.805
10504SOL     OW32410   0.448   2.252   5.381
10504SOL    HW132411   0.446   2.352   5.378
10504SOL    HW232412   0.483   2.222   5.469
10505SOL     OW32413   5.141   6.328   1.668
10505SOL    HW132414   5.131   6.399   1.599
10505SOL    HW232415   5.132   6.369   1.759
10506SOL     OW32416   0.426   3.512   0.267
10506SOL    HW132417   0.466   3.538   0.355
10506SOL    HW232418   0.356   3.442   0.282
10507SOL     OW32419   1.761   5.407   6.741
10507SOL    HW132420   1.682   5.410   6.801
10507SOL    HW232421   1.772   5.496   6.696
10508SOL     OW32422   1.099   6.092   3.981
10508SOL    HW132423   1.082   6.089   4.079
10508SOL    HW232424   1.018   6.061   3.932
10509SOL     OW32425   6.046   4.526   4.580
10509SOL    HW132426   6.132   4.487   4.546
10509SOL    HW232427   6.023   4.607   4.526
10510SOL     OW32428   4.696   6.637   0.258
10510SOL    HW132429   4.673   6.557   0.203
10510SOL    HW232430   4.768   6.689   0.210
10511SOL     OW32431   2.763   1.524   1.967
10511SOL    HW132432   2.700   1.598   1.992
10511SOL    HW232433   2.814   1.495   2.047
10512SOL     OW32434   4.066   6.621   5.986
10512SOL    HW132435   3.977   6.627   6.030
10512SOL    HW232436   4.076   6.695   5.920
10513SOL     OW32437   6.540   2.913   3.475
10513SOL    HW132438   6.534   2.938   3.379
10513SOL    HW232439   6.448   2.907   3.514
10514SOL     OW32440   1.643   1.735   1.688
10514SOL    HW132441   1.549   1.700   1.690
10514SOL    HW232442   1.643   1.831   1.714
10515SOL     OW32443   2.485   2.505   3.968
10515SOL    HW132444   2.436   2.562   4.035
10515SOL    HW232445   2.489   2.554   3.880
10516SOL     OW32446   2.681   1.884   0.306
10516SOL    HW132447   2.713   1.908   0.214
10516SOL    HW232448   2.712   1.791   0.328
10517SOL     OW32449   1.333   4.241   1.334
10517SOL    HW132450   1.344   4.194   1.246
10517SOL    HW232451   1.367   4.335   1.326
10518SOL     OW32452   0.355   5.527   1.898
10518SOL    HW132453   0.299   5.564   1.824
10518SOL    HW232454   0.364   5.595   1.971
10519SOL     OW32455   2.833   4.446   1.130
10519SOL    HW132456   2.753   4.392   1.157
10519SOL    HW232457   2.832   4.461   1.032
10520SOL     OW32458   6.860   2.175   6.148
10520SOL    HW132459   6.765   2.199   6.169
10520SOL    HW232460   6.899   2.125   6.224
10521SOL     OW32461   6.476   5.187   1.215
10521SOL    HW132462   6.505   5.091   1.219
10521SOL    HW232463   6.499   5.225   1.126
10522SOL     OW32464   0.556   2.717   2.856
10522SOL    HW132465   0.564   2.786   2.929
10522SOL    HW232466   0.620   2.738   2.783
10523SOL     OW32467   0.143   4.529   2.989
10523SOL    HW132468   0.102   4.460   2.930
10523SOL    HW232469   0.142   4.617   2.942
10524SOL     OW32470   0.578   5.594   3.891
10524SOL    HW132471   0.652   5.538   3.926
10524SOL    HW232472   0.573   5.586   3.791
10525SOL     OW32473   3.835   6.798   5.341
10525SOL    HW132474   3.863   6.731   5.272
10525SOL    HW232475   3.903   6.871   5.346
10526SOL     OW32476   0.432   6.619   1.284
10526SOL    HW132477   0.422   6.565   1.367
10526SOL    HW232478   0.526   6.652   1.277
10527SOL     OW32479   0.912   0.207   6.293
10527SOL    HW132480   0.993   0.196   6.234
10527SOL    HW232481   0.847   0.268   6.249
10528SOL     OW32482   0.720   4.166   6.693
10528SOL    HW132483   0.736   4.069   6.670
10528SOL    HW232484   0.674   4.172   6.781
10529SOL     OW32485   1.370   5.890   4.953
10529SOL    HW132486   1.366   5.988   4.931
10529SOL    HW232487   1.310   5.870   5.030
10530SOL     OW32488   0.829   6.182   5.867
10530SOL    HW132489   0.838   6.244   5.790
10530SOL    HW232490   0.908   6.121   5.870
10531SOL     OW32491   2.877   2.290   3.897
10531SOL    HW132492   2.847   2.298   3.992
10531SOL    HW232493   2.806   2.326   3.837
10532SOL     OW32494   6.079   6.871   6.912
10532SOL    HW132495   6.158   6.897   6.856
10532SOL    HW232496   6.095   6.900   7.007
10533SOL     OW32497   3.033   5.953   4.495
10533SOL    HW132498   3.131   5.969   4.509
10533SOL    HW232499   3.007   5.990   4.406
10534SOL     OW32500   6.900   5.553   2.243
10534SOL    HW132501   6.854   5.623   2.189
10534SOL    HW232502   6.935   5.593   2.327
10535SOL     OW32503   1.838   1.444   1.738
10535SOL    HW132504   1.902   1.502   1.687
10535SOL    HW232505   1.791   1.382   1.675
10536SOL     OW32506   4.378   6.841   4.057
10536SOL    HW132507   4.392   6.801   3.966
10536SOL    HW232508   4.434   6.923   4.066
10537SOL     OW32509   5.116   6.180   3.724
10537SOL    HW132510   5.092   6.265   3.771
10537SOL    HW232511   5.091   6.102   3.781
10538SOL     OW32512   5.570   4.299   2.732
10538SOL    HW132513   5.533   4.219   2.779
10538SOL    HW232514   5.514   4.379   2.755
10539SOL     OW32515   5.814   5.452   1.379
10539SOL    HW132516   5.793   5.411   1.290
10539SOL    HW232517   5.900   5.504   1.371
10540SOL     OW32518   2.338   4.263   6.039
10540SOL    HW132519   2.271   4.234   6.107
10540SOL    HW232520   2.305   4.242   5.947
10541SOL     OW32521   3.665   2.949   3.628
10541SOL    HW132522   3.566   2.948   3.620
10541SOL    HW232523   3.705   2.911   3.544
10542SOL     OW32524   6.890   7.016   4.953
10542SOL    HW132525   6.896   0.038   5.042
10542SOL    HW232526   6.794   7.002   4.930
10543SOL     OW32527   0.362   1.758   4.687
10543SOL    HW132528   0.374   1.667   4.646
10543SOL    HW232529   0.343   1.825   4.615
10544SOL     OW32530   2.128   6.450   3.217
10544SOL    HW132531   2.075   6.399   3.285
10544SOL    HW232532   2.071   6.469   3.137
10545SOL     OW32533   1.214   2.978   1.860
10545SOL    HW132534   1.131   2.949   1.813
10545SOL    HW232535   1.294   2.955   1.804
10546SOL     OW32536   3.766   5.869   1.269
10546SOL    HW132537   3.683   5.837   1.224
10546SOL    HW232538   3.840   5.874   1.202
10547SOL     OW32539   5.128   1.303   4.329
10547SOL    HW132540   5.105   1.232   4.395
10547SOL    HW232541   5.113   1.393   4.370
10548SOL     OW32542   0.727   4.172   4.273
10548SOL    HW132543   0.725   4.185   4.372
10548SOL    HW232544   0.642   4.208   4.233
10549SOL     OW32545   0.382   1.188   0.694
10549SOL    HW132546   0.358   1.273   0.648
10549SOL    HW232547   0.468   1.201   0.745
10550SOL     OW32548   4.112   6.696   3.393
10550SOL    HW132549   4.168   6.694   3.311
10550SOL    HW232550   4.170   6.683   3.474
10551SOL     OW32551   2.079   1.591   6.077
10551SOL    HW132552   2.120   1.592   6.168
10551SOL    HW232553   2.145   1.555   6.011
10552SOL     OW32554   2.525   0.676   5.322
10552SOL    HW132555   2.586   0.619   5.269
10552SOL    HW232556   2.439   0.689   5.272
10553SOL     OW32557   6.933   4.525   0.722
10553SOL    HW132558   6.909   4.430   0.744
10553SOL    HW232559   6.882   4.554   0.641
10554SOL     OW32560   5.405   5.480   2.398
10554SOL    HW132561   5.440   5.495   2.490
10554SOL    HW232562   5.469   5.518   2.331
10555SOL     OW32563   2.785   2.208   0.804
10555SOL    HW132564   2.827   2.135   0.750
10555SOL    HW232565   2.845   2.233   0.880
10556SOL     OW32566   3.127   1.520   3.937
10556SOL    HW132567   3.096   1.578   3.861
10556SOL    HW232568   3.049   1.470   3.974
10557SOL     OW32569   1.907   3.125   4.244
10557SOL    HW132570   1.886   3.172   4.158
10557SOL    HW232571   2.003   3.138   4.267
10558SOL     OW32572   3.342   5.439   5.884
10558SOL    HW132573   3.424   5.440   5.826
10558SOL    HW232574   3.369   5.424   5.979
10559SOL     OW32575   3.617   0.797   0.745
10559SOL    HW132576   3.566   0.842   0.818
10559SOL    HW232577   3.707   0.839   0.735
10560SOL     OW32578   4.191   6.470   1.611
10560SOL    HW132579   4.160   6.418   1.691
10560SOL    HW232580   4.169   6.419   1.528
10561SOL     OW32581   3.743   4.621   1.572
10561SOL    HW132582   3.727   4.582   1.663
10561SOL    HW232583   3.693   4.567   1.504
10562SOL     OW32584   3.967   5.630   0.117
10562SOL    HW132585   3.875   5.648   0.081
10562SOL    HW232586   4.034   5.676   0.059
10563SOL     OW32587   1.062   0.881   0.991
10563SOL    HW132588   1.022   0.804   0.942
10563SOL    HW232589   1.129   0.927   0.933
10564SOL     OW32590   6.092   6.025   3.711
10564SOL    HW132591   6.035   6.055   3.789
10564SOL    HW232592   6.158   6.097   3.690
10565SOL     OW32593   6.535   6.744   5.725
10565SOL    HW132594   6.530   6.767   5.628
10565SOL    HW232595   6.592   6.812   5.772
10566SOL     OW32596   2.719   2.425   6.944
10566SOL    HW132597   2.652   2.422   7.018
10566SOL    HW232598   2.752   2.333   6.924
10567SOL     OW32599   2.198   2.573   5.737
10567SOL    HW132600   2.258   2.649   5.765
10567SOL    HW232601   2.182   2.578   5.638
10568SOL     OW32602   5.913   2.571   0.037
10568SOL    HW132603   5.847   2.582   0.111
10568SOL    HW232604   5.934   2.474   0.024
10569SOL     OW32605   5.437   1.057   1.387
10569SOL    HW132606   5.518   0.999   1.385
10569SOL    HW232607   5.357   1.005   1.359
10570SOL     OW32608   1.638   4.650   3.292
10570SOL    HW132609   1.633   4.550   3.284
10570SOL    HW232610   1.651   4.691   3.202
10571SOL     OW32611   0.442   3.721   5.480
10571SOL    HW132612   0.396   3.798   5.525
10571SOL    HW232613   0.486   3.754   5.396
10572SOL     OW32614   6.839   5.067   2.222
10572SOL    HW132615   6.813   4.995   2.286
10572SOL    HW232616   6.838   5.031   2.128
10573SOL     OW32617   4.615   0.500   5.232
10573SOL    HW132618   4.664   0.587   5.223
10573SOL    HW232619   4.663   0.429   5.180
10574SOL     OW32620   6.551   1.082   3.809
10574SOL    HW132621   6.547   1.172   3.852
10574SOL    HW232622   6.642   1.068   3.769
10575SOL     OW32623   6.035   0.942   3.796
10575SOL    HW132624   6.009   0.905   3.706
10575SOL    HW232625   6.135   0.950   3.801
10576SOL     OW32626   1.381   5.094   2.880
10576SOL    HW132627   1.391   5.001   2.846
10576SOL    HW232628   1.335   5.150   2.811
10577SOL     OW32629   2.149   5.119   0.690
10577SOL    HW132630   2.104   5.121   0.779
10577SOL    HW232631   2.125   5.033   0.643
10578SOL     OW32632   4.935   0.956   3.235
10578SOL    HW132633   4.903   0.862   3.226
10578SOL    HW232634   4.948   0.995   3.144
10579SOL     OW32635   3.080   2.869   1.403
10579SOL    HW132636   3.097   2.887   1.500
10579SOL    HW232637   2.991   2.906   1.377
10580SOL     OW32638   6.431   6.591   6.429
10580SOL    HW132639   6.353   6.645   6.396
10580SOL    HW232640   6.478   6.641   6.501
10581SOL     OW32641   4.860   0.102   2.999
10581SOL    HW132642   4.805   0.172   2.954
10581SOL    HW232643   4.952   0.101   2.960
10582SOL     OW32644   5.629   5.013   6.463
10582SOL    HW132645   5.617   5.018   6.562
10582SOL    HW232646   5.576   4.937   6.426
10583SOL     OW32647   4.394   0.337   4.493
10583SOL    HW132648   4.471   0.293   4.446
10583SOL    HW232649   4.362   0.415   4.439
10584SOL     OW32650   6.701   0.404   6.674
10584SOL    HW132651   6.732   0.320   6.631
10584SOL    HW232652   6.654   0.461   6.607
10585SOL     OW32653   1.703   2.047   5.741
10585SOL    HW132654   1.796   2.068   5.710
10585SOL    HW232655   1.706   2.016   5.836
10586SOL     OW32656   4.971   4.700   5.163
10586SOL    HW132657   5.057   4.652   5.179
10586SOL    HW232658   4.961   4.774   5.230
10587SOL     OW32659   0.091   5.709   6.544
10587SOL    HW132660   7.018   5.697   6.571
10587SOL    HW232661   0.143   5.627   6.566
10588SOL     OW32662   1.819   1.729   5.182
10588SOL    HW132663   1.830   1.657   5.114
10588SOL    HW232664   1.905   1.741   5.232
10589SOL     OW32665   5.334   6.739   4.199
10589SOL    HW132666   5.311   6.790   4.116
10589SOL    HW232667   5.433   6.730   4.206
10590SOL     OW32668   0.400   6.147   1.799
10590SOL    HW132669   0.377   6.106   1.888
10590SOL    HW232670   0.375   6.083   1.726
10591SOL     OW32671   2.361   1.985   1.181
10591SOL    HW132672   2.354   1.885   1.174
10591SOL    HW232673   2.359   2.012   1.278
10592SOL     OW32674   5.840   2.487   4.302
10592SOL    HW132675   5.793   2.446   4.380
10592SOL    HW232676   5.874   2.578   4.328
10593SOL     OW32677   1.400   6.425   0.704
10593SOL    HW132678   1.394   6.342   0.761
10593SOL    HW232679   1.444   6.403   0.617
10594SOL     OW32680   4.395   1.559   3.098
10594SOL    HW132681   4.364   1.463   3.101
10594SOL    HW232682   4.494   1.562   3.109
10595SOL     OW32683   6.162   0.455   7.012
10595SOL    HW132684   6.199   0.383   0.049
10595SOL    HW232685   6.134   0.414   6.925
10596SOL     OW32686   5.337   0.974   6.845
10596SOL    HW132687   5.391   0.891   6.858
10596SOL    HW232688   5.262   0.976   6.912
10597SOL     OW32689   2.150   0.575   5.349
10597SOL    HW132690   2.050   0.575   5.358
10597SOL    HW232691   2.191   0.617   5.430
10598SOL     OW32692   2.440   2.239   6.603
10598SOL    HW132693   2.356   2.271   6.647
10598SOL    HW232694   2.461   2.147   6.635
10599SOL     OW32695   6.371   4.113   6.586
10599SOL    HW132696   6.403   4.048   6.517
10599SOL    HW232697   6.298   4.170   6.547
10600SOL     OW32698   3.778   1.868   1.493
10600SOL    HW132699   3.745   1.956   1.460
10600SOL    HW232700   3.853   1.837   1.435
10601SOL     OW32701   1.043   5.230   5.545
10601SOL    HW132702   0.985   5.268   5.473
10601SOL    HW232703   1.113   5.296   5.571
10602SOL     OW32704   1.011   1.196   0.915
10602SOL    HW132705   0.948   1.149   0.977
10602SOL    HW232706   1.060   1.268   0.965
10603SOL     OW32707   4.730   6.884   2.987
10603SOL    HW132708   4.742   6.868   3.085
10603SOL    HW232709   4.780   6.966   2.960
10604SOL     OW32710   6.951   5.790   4.866
10604SOL    HW132711   7.016   5.866   4.869
10604SOL    HW232712   6.876   5.807   4.929
10605SOL     OW32713   1.696   0.042   6.571
10605SOL    HW132714   1.651   0.033   6.660
10605SOL    HW232715   1.631   0.018   6.499
10606SOL     OW32716   6.733   1.022   1.620
10606SOL    HW132717   6.702   1.064   1.534
10606SOL    HW232718   6.725   0.923   1.613
10607SOL     OW32719   4.018   4.337   0.643
10607SOL    HW132720   4.046   4.283   0.722
10607SOL    HW232721   4.088   4.334   0.572
10608SOL     OW32722   6.650   3.576   3.453
10608SOL    HW132723   6.621   3.616   3.366
10608SOL    HW232724   6.613   3.629   3.529
10609SOL     OW32725   2.353   6.814   6.624
10609SOL    HW132726   2.261   6.842   6.595
10609SOL    HW232727   2.361   6.826   6.723
10610SOL     OW32728   0.077   2.101   4.470
10610SOL    HW132729   0.065   2.161   4.391
10610SOL    HW232730   0.073   2.005   4.441
10611SOL     OW32731   2.808   5.273   5.647
10611SOL    HW132732   2.860   5.220   5.579
10611SOL    HW232733   2.710   5.257   5.633
10612SOL     OW32734   5.252   1.866   4.043
10612SOL    HW132735   5.345   1.872   4.077
10612SOL    HW232736   5.240   1.782   3.990
10613SOL     OW32737   5.985   5.816   4.957
10613SOL    HW132738   6.037   5.780   4.880
10613SOL    HW232739   5.896   5.771   4.961
10614SOL     OW32740   5.273   1.263   4.770
10614SOL    HW132741   5.196   1.232   4.825
10614SOL    HW232742   5.350   1.284   4.829
10615SOL     OW32743   3.588   1.081   5.763
10615SOL    HW132744   3.527   1.011   5.726
10615SOL    HW232745   3.540   1.135   5.832
10616SOL     OW32746   3.077   6.282   6.719
10616SOL    HW132747   3.087   6.278   6.619
10616SOL    HW232748   3.100   6.193   6.759
10617SOL     OW32749   2.335   4.458   1.425
10617SOL    HW132750   2.386   4.390   1.478
10617SOL    HW232751   2.238   4.452   1.447
10618SOL     OW32752   0.771   5.108   5.408
10618SOL    HW132753   0.792   5.010   5.420
10618SOL    HW232754   0.672   5.120   5.402
10619SOL     OW32755   0.598   2.785   3.186
10619SOL    HW132756   0.589   2.869   3.240
10619SOL    HW232757   0.527   2.720   3.214
10620SOL     OW32758   1.358   6.891   5.074
10620SOL    HW132759   1.355   6.813   5.011
10620SOL    HW232760   1.416   6.868   5.152
10621SOL     OW32761   0.079   4.464   2.116
10621SOL    HW132762   7.020   4.426   2.158
10621SOL    HW232763   0.128   4.391   2.068
10622SOL     OW32764   4.371   2.461   1.579
10622SOL    HW132765   4.438   2.395   1.614
10622SOL    HW232766   4.406   2.502   1.495
10623SOL     OW32767   6.337   5.876   5.202
10623SOL    HW132768   6.259   5.820   5.229
10623SOL    HW232769   6.318   5.921   5.115
10624SOL     OW32770   0.239   2.637   5.190
10624SOL    HW132771   0.203   2.701   5.123
10624SOL    HW232772   0.335   2.658   5.208
10625SOL     OW32773   0.679   3.951   1.368
10625SOL    HW132774   0.722   3.951   1.458
10625SOL    HW232775   0.748   3.969   1.298
10626SOL     OW32776   3.129   2.631   1.215
10626SOL    HW132777   3.101   2.700   1.282
10626SOL    HW232778   3.202   2.575   1.253
10627SOL     OW32779   6.259   1.408   6.609
10627SOL    HW132780   6.230   1.483   6.669
10627SOL    HW232781   6.357   1.392   6.621
10628SOL     OW32782   4.630   7.006   1.131
10628SOL    HW132783   4.626   0.043   1.051
10628SOL    HW232784   4.707   0.010   1.189
10629SOL     OW32785   3.265   5.057   4.681
10629SOL    HW132786   3.294   5.055   4.777
10629SOL    HW232787   3.177   5.104   4.674
10630SOL     OW32788   6.008   1.268   2.123
10630SOL    HW132789   6.084   1.317   2.165
10630SOL    HW232790   5.922   1.293   2.169
10631SOL     OW32791   3.913   4.377   5.415
10631SOL    HW132792   3.813   4.386   5.409
10631SOL    HW232793   3.935   4.297   5.471
10632SOL     OW32794   4.995   6.111   3.070
10632SOL    HW132795   4.941   6.132   3.152
10632SOL    HW232796   5.091   6.097   3.096
10633SOL     OW32797   2.353   2.484   1.450
10633SOL    HW132798   2.300   2.408   1.413
10633SOL    HW232799   2.399   2.456   1.534
10634SOL     OW32800   1.827   5.372   0.234
10634SOL    HW132801   1.811   5.359   0.332
10634SOL    HW232802   1.850   5.284   0.192
10635SOL     OW32803   2.134   3.327   6.716
10635SOL    HW132804   2.152   3.277   6.800
10635SOL    HW232805   2.104   3.263   6.645
10636SOL     OW32806   0.111   2.053   1.484
10636SOL    HW132807   0.081   2.088   1.573
10636SOL    HW232808   0.045   2.079   1.414
10637SOL     OW32809   1.227   5.283   6.343
10637SOL    HW132810   1.212   5.250   6.436
10637SOL    HW232811   1.139   5.300   6.298
10638SOL     OW32812   5.629   6.070   2.577
10638SOL    HW132813   5.641   6.123   2.493
10638SOL    HW232814   5.616   5.974   2.555
10639SOL     OW32815   1.838   3.464   2.366
10639SOL    HW132816   1.784   3.505   2.439
10639SOL    HW232817   1.920   3.518   2.350
10640SOL     OW32818   5.009   0.391   3.341
10640SOL    HW132819   4.976   0.309   3.388
10640SOL    HW232820   4.932   0.436   3.295
10641SOL     OW32821   2.246   1.668   3.200
10641SOL    HW132822   2.207   1.588   3.245
10641SOL    HW232823   2.343   1.676   3.222
10642SOL     OW32824   6.020   1.775   0.571
10642SOL    HW132825   5.964   1.853   0.599
10642SOL    HW232826   6.012   1.762   0.472
10643SOL     OW32827   2.313   5.891   5.292
10643SOL    HW132828   2.316   5.808   5.347
10643SOL    HW232829   2.287   5.968   5.350
10644SOL     OW32830   5.521   3.195   1.283
10644SOL    HW132831   5.529   3.113   1.227
10644SOL    HW232832   5.609   3.241   1.288
10645SOL     OW32833   2.254   2.424   4.246
10645SOL    HW132834   2.310   2.507   4.247
10645SOL    HW232835   2.268   2.375   4.160
10646SOL     OW32836   6.697   0.447   5.844
10646SOL    HW132837   6.790   0.412   5.835
10646SOL    HW232838   6.684   0.485   5.935
10647SOL     OW32839   3.580   5.372   4.878
10647SOL    HW132840   3.622   5.356   4.789
10647SOL    HW232841   3.536   5.462   4.878
10648SOL     OW32842   6.015   5.470   6.253
10648SOL    HW132843   6.107   5.432   6.257
10648SOL    HW232844   6.020   5.569   6.244
10649SOL     OW32845   1.045   3.399   3.103
10649SOL    HW132846   1.066   3.310   3.063
10649SOL    HW232847   0.963   3.436   3.062
10650SOL     OW32848   0.686   0.471   4.200
10650SOL    HW132849   0.716   0.408   4.128
10650SOL    HW232850   0.587   0.484   4.194
10651SOL     OW32851   6.436   5.877   6.116
10651SOL    HW132852   6.488   5.793   6.099
10651SOL    HW232853   6.432   5.930   6.031
10652SOL     OW32854   1.873   0.058   6.389
10652SOL    HW132855   1.868   0.002   6.306
10652SOL    HW232856   1.791   0.042   6.445
10653SOL     OW32857   3.780   5.988   5.333
10653SOL    HW132858   3.843   5.922   5.374
10653SOL    HW232859   3.798   5.995   5.235
10654SOL     OW32860   4.874   0.766   5.882
10654SOL    HW132861   4.935   0.798   5.955
10654SOL    HW232862   4.902   0.807   5.795
10655SOL     OW32863   1.640   4.753   0.011
10655SOL    HW132864   1.732   4.750   0.049
10655SOL    HW232865   1.633   4.831   6.971
10656SOL     OW32866   6.653   1.280   2.468
10656SOL    HW132867   6.741   1.235   2.485
10656SOL    HW232868   6.669   1.371   2.430
10657SOL     OW32869   6.241   0.770   4.584
10657SOL    HW132870   6.166   0.719   4.543
10657SOL    HW232871   6.316   0.708   4.606
10658SOL     OW32872   6.295   4.298   4.611
10658SOL    HW132873   6.368   4.365   4.596
10658SOL    HW232874   6.305   4.258   4.702
10659SOL     OW32875   0.960   4.796   0.745
10659SOL    HW132876   0.977   4.891   0.771
10659SOL    HW232877   1.044   4.756   0.709
10660SOL     OW32878   5.849   4.140   5.873
10660SOL    HW132879   5.833   4.097   5.962
10660SOL    HW232880   5.850   4.071   5.801
10661SOL     OW32881   1.865   6.209   0.922
10661SOL    HW132882   1.957   6.243   0.904
10661SOL    HW232883   1.866   6.109   0.920
10662SOL     OW32884   4.494   0.660   2.422
10662SOL    HW132885   4.526   0.713   2.501
10662SOL    HW232886   4.564   0.659   2.351
10663SOL     OW32887   0.758   1.306   2.932
10663SOL    HW132888   0.676   1.251   2.916
10663SOL    HW232889   0.833   1.271   2.876
10664SOL     OW32890   6.383   4.128   5.362
10664SOL    HW132891   6.346   4.040   5.333
10664SOL    HW232892   6.322   4.201   5.332
10665SOL     OW32893   1.566   2.128   6.862
10665SOL    HW132894   1.474   2.108   6.894
10665SOL    HW232895   1.573   2.108   6.764
10666SOL     OW32896   3.238   4.076   2.018
10666SOL    HW132897   3.190   4.123   1.944
10666SOL    HW232898   3.196   3.987   2.034
10667SOL     OW32899   4.760   2.350   3.715
10667SOL    HW132900   4.822   2.339   3.637
10667SOL    HW232901   4.812   2.346   3.800
10668SOL     OW32902   3.414   1.470   4.860
10668SOL    HW132903   3.382   1.514   4.776
10668SOL    HW232904   3.505   1.431   4.844
10669SOL     OW32905   6.630   0.480   1.331
10669SOL    HW132906   6.611   0.557   1.271
10669SOL    HW232907   6.601   0.395   1.286
10670SOL     OW32908   5.598   4.684   4.845
10670SOL    HW132909   5.573   4.593   4.811
10670SOL    HW232910   5.547   4.754   4.794
10671SOL     OW32911   1.487   1.745   4.089
10671SOL    HW132912   1.392   1.729   4.063
10671SOL    HW232913   1.494   1.832   4.138
10672SOL     OW32914   6.478   4.156   1.847
10672SOL    HW132915   6.444   4.066   1.818
10672SOL    HW232916   6.421   4.190   1.922
10673SOL     OW32917   0.408   0.797   0.124
10673SOL    HW132918   0.488   0.817   0.068
10673SOL    HW232919   0.410   0.854   0.206
10674SOL     OW32920   4.131   3.418   3.802
10674SOL    HW132921   4.097   3.482   3.732
10674SOL    HW232922   4.141   3.327   3.761
10675SOL     OW32923   2.057   0.249   6.502
10675SOL    HW132924   2.018   0.284   6.587
10675SOL    HW232925   1.986   0.205   6.447
10676SOL     OW32926   0.217   5.825   5.097
10676SOL    HW132927   0.166   5.799   5.179
10676SOL    HW232928   0.280   5.751   5.072
10677SOL     OW32929   1.464   0.608   1.665
10677SOL    HW132930   1.523   0.675   1.620
10677SOL    HW232931   1.427   0.647   1.749
10678SOL     OW32932   4.439   5.142   4.286
10678SOL    HW132933   4.500   5.074   4.246
10678SOL    HW232934   4.360   5.097   4.327
10679SOL     OW32935   4.087   5.637   6.249
10679SOL    HW132936   4.038   5.553   6.225
10679SOL    HW232937   4.181   5.631   6.217
10680SOL     OW32938   3.803   1.982   3.796
10680SOL    HW132939   3.712   1.975   3.756
10680SOL    HW232940   3.868   2.015   3.727
10681SOL     OW32941   0.016   3.601   0.351
10681SOL    HW132942   6.994   3.600   0.440
10681SOL    HW232943   0.016   3.694   0.314
10682SOL     OW32944   6.975   2.293   5.297
10682SOL    HW132945   0.014   2.328   5.227
10682SOL    HW232946   6.909   2.231   5.255
10683SOL     OW32947   4.966   0.845   3.817
10683SOL    HW132948   4.959   0.928   3.761
10683SOL    HW232949   4.922   0.769   3.769
10684SOL     OW32950   4.528   4.647   2.742
10684SOL    HW132951   4.538   4.548   2.727
10684SOL    HW232952   4.555   4.696   2.659
10685SOL     OW32953   0.659   5.914   1.327
10685SOL    HW132954   0.711   5.984   1.375
10685SOL    HW232955   0.721   5.850   1.283
10686SOL     OW32956   1.423   3.978   5.788
10686SOL    HW132957   1.477   3.981   5.872
10686SOL    HW232958   1.381   3.888   5.778
10687SOL     OW32959   6.123   5.433   4.168
10687SOL    HW132960   6.219   5.450   4.145
10687SOL    HW232961   6.099   5.340   4.140
10688SOL     OW32962   5.744   3.212   2.955
10688SOL    HW132963   5.841   3.199   2.976
10688SOL    HW232964   5.732   3.213   2.856
10689SOL     OW32965   6.568   0.388   2.931
10689SOL    HW132966   6.471   0.405   2.952
10689SOL    HW232967   6.619   0.382   3.016
10690SOL     OW32968   0.225   5.597   3.785
10690SOL    HW132969   0.221   5.498   3.798
10690SOL    HW232970   0.164   5.641   3.851
10691SOL     OW32971   1.562   1.925   2.170
10691SOL    HW132972   1.554   1.836   2.126
10691SOL    HW232973   1.502   1.991   2.123
10692SOL     OW32974   2.376   6.992   3.841
10692SOL    HW132975   2.279   7.013   3.858
10692SOL    HW232976   2.388   6.893   3.835
10693SOL     OW32977   1.458   6.266   1.505
10693SOL    HW132978   1.399   6.186   1.506
10693SOL    HW232979   1.459   6.307   1.414
10694SOL     OW32980   5.280   6.387   6.874
10694SOL    HW132981   5.356   6.438   6.833
10694SOL    HW232982   5.212   6.367   6.804
10695SOL     OW32983   1.584   1.984   2.703
10695SOL    HW132984   1.618   2.077   2.692
10695SOL    HW232985   1.566   1.944   2.613
10696SOL     OW32986   6.296   4.541   3.660
10696SOL    HW132987   6.353   4.553   3.579
10696SOL    HW232988   6.259   4.448   3.662
10697SOL     OW32989   0.535   6.926   5.280
10697SOL    HW132990   0.586   6.962   5.202
10697SOL    HW232991   0.517   6.829   5.266
10698SOL     OW32992   5.426   4.721   7.001
10698SOL    HW132993   5.524   4.744   6.999
10698SOL    HW232994   5.373   4.802   0.002
10699SOL     OW32995   3.997   4.514   1.597
10699SOL    HW132996   4.047   4.559   1.672
10699SOL    HW232997   3.909   4.558   1.584
10700SOL     OW32998   5.612   6.430   0.540
10700SOL    HW132999   5.534   6.402   0.595
10700SOL    HW233000   5.580   6.485   0.462
10701SOL     OW33001   2.652   6.711   6.687
10701SOL    HW133002   2.694   6.801   6.700
10701SOL    HW233003   2.553   6.721   6.676
10702SOL     OW33004   5.607   3.195   1.807
10702SOL    HW133005   5.575   3.205   1.901
10702SOL    HW233006   5.528   3.177   1.747
10703SOL     OW33007   2.717   3.049   5.382
10703SOL    HW133008   2.648   3.039   5.310
10703SOL    HW233009   2.793   2.986   5.365
10704SOL     OW33010   5.901   5.468   2.217
10704SOL    HW133011   5.931   5.378   2.249
10704SOL    HW233012   5.818   5.458   2.162
10705SOL     OW33013   6.205   5.304   1.586
10705SOL    HW133014   6.239   5.254   1.506
10705SOL    HW233015   6.191   5.240   1.662
10706SOL     OW33016   4.183   0.587   2.916
10706SOL    HW133017   4.159   0.643   2.995
10706SOL    HW233018   4.168   0.490   2.938
10707SOL     OW33019   0.285   6.823   4.549
10707SOL    HW133020   0.351   6.881   4.500
10707SOL    HW233021   0.221   6.784   4.483
10708SOL     OW33022   3.641   1.279   1.203
10708SOL    HW133023   3.722   1.234   1.241
10708SOL    HW233024   3.665   1.373   1.176
10709SOL     OW33025   5.398   5.557   5.634
10709SOL    HW133026   5.466   5.621   5.598
10709SOL    HW233027   5.439   5.466   5.642
10710SOL     OW33028   6.473   0.555   4.371
10710SOL    HW133029   6.532   0.475   4.363
10710SOL    HW233030   6.490   0.601   4.458
10711SOL     OW33031   2.056   6.622   4.547
10711SOL    HW133032   1.968   6.604   4.502
10711SOL    HW233033   2.042   6.633   4.645
10712SOL     OW33034   2.947   0.660   1.943
10712SOL    HW133035   2.884   0.643   1.868
10712SOL    HW233036   2.943   0.585   2.009
10713SOL     OW33037   0.590   3.543   1.882
10713SOL    HW133038   0.631   3.478   1.945
10713SOL    HW233039   0.511   3.586   1.925
10714SOL     OW33040   5.735   3.629   5.260
10714SOL    HW133041   5.812   3.685   5.292
10714SOL    HW233042   5.769   3.556   5.201
10715SOL     OW33043   4.708   0.665   2.252
10715SOL    HW133044   4.692   0.628   2.161
10715SOL    HW233045   4.799   0.640   2.284
10716SOL     OW33046   6.205   1.781   3.580
10716SOL    HW133047   6.128   1.753   3.638
10716SOL    HW233048   6.223   1.879   3.593
10717SOL     OW33049   1.452   2.484   1.606
10717SOL    HW133050   1.487   2.576   1.591
10717SOL    HW233051   1.362   2.476   1.563
10718SOL     OW33052   0.870   3.048   0.102
10718SOL    HW133053   0.948   3.098   0.141
10718SOL    HW233054   0.853   2.966   0.156
10719SOL     OW33055   6.224   5.503   2.477
10719SOL    HW133056   6.212   5.428   2.411
10719SOL    HW233057   6.320   5.508   2.505
10720SOL     OW33058   0.397   4.484   5.205
10720SOL    HW133059   0.321   4.427   5.238
10720SOL    HW233060   0.444   4.436   5.131
10721SOL     OW33061   5.678   3.881   5.070
10721SOL    HW133062   5.726   3.826   5.001
10721SOL    HW233063   5.600   3.829   5.105
10722SOL     OW33064   0.849   5.078   6.593
10722SOL    HW133065   0.848   5.050   6.497
10722SOL    HW233066   0.919   5.027   6.643
10723SOL     OW33067   0.473   2.933   5.724
10723SOL    HW133068   0.545   2.929   5.793
10723SOL    HW233069   0.515   2.941   5.633
10724SOL     OW33070   6.585   1.731   6.758
10724SOL    HW133071   6.611   1.741   6.662
10724SOL    HW233072   6.563   1.820   6.796
10725SOL     OW33073   1.210   5.799   4.131
10725SOL    HW133074   1.169   5.774   4.218
10725SOL    HW233075   1.247   5.718   4.086
10726SOL     OW33076   5.452   0.182   5.326
10726SOL    HW133077   5.458   0.281   5.340
10726SOL    HW233078   5.432   0.137   5.414
10727SOL     OW33079   0.347   5.107   5.191
10727SOL    HW133080   0.428   5.052   5.170
10727SOL    HW233081   0.281   5.050   5.241
10728SOL     OW33082   0.122   5.966   6.617
10728SOL    HW133083   0.216   5.986   6.646
10728SOL    HW233084   0.118   5.874   6.579
10729SOL     OW33085   5.689   1.572   2.077
10729SOL    HW133086   5.648   1.550   2.165
10729SOL    HW233087   5.649   1.513   2.006
10730SOL     OW33088   2.017   1.432   1.342
10730SOL    HW133089   1.931   1.474   1.369
10730SOL    HW233090   2.035   1.353   1.401
10731SOL     OW33091   3.151   6.390   0.712
10731SOL    HW133092   3.109   6.426   0.629
10731SOL    HW233093   3.199   6.305   0.691
10732SOL     OW33094   5.910   5.125   4.737
10732SOL    HW133095   5.909   5.043   4.679
10732SOL    HW233096   5.877   5.203   4.685
10733SOL     OW33097   6.865   1.726   0.771
10733SOL    HW133098   6.935   1.698   0.705
10733SOL    HW233099   6.868   1.825   0.783
10734SOL     OW33100   0.847   0.904   0.148
10734SOL    HW133101   0.811   0.965   0.219
10734SOL    HW233102   0.780   0.897   0.074
10735SOL     OW33103   0.841   2.926   2.906
10735SOL    HW133104   0.872   2.887   2.993
10735SOL    HW233105   0.888   3.013   2.891
10736SOL     OW33106   1.574   0.111   3.389
10736SOL    HW133107   1.544   0.091   3.296
10736SOL    HW233108   1.604   0.206   3.394
10737SOL     OW33109   1.887   1.992   1.311
10737SOL    HW133110   1.904   1.991   1.409
10737SOL    HW233111   1.923   2.077   1.272
10738SOL     OW33112   2.618   0.254   3.313
10738SOL    HW133113   2.673   0.334   3.337
10738SOL    HW233114   2.677   0.184   3.273
10739SOL     OW33115   1.138   1.782   0.763
10739SOL    HW133116   1.145   1.693   0.718
10739SOL    HW233117   1.063   1.834   0.722
10740SOL     OW33118   6.896   4.381   5.107
10740SOL    HW133119   6.945   4.466   5.127
10740SOL    HW233120   6.844   4.392   5.022
10741SOL     OW33121   5.593   6.975   1.376
10741SOL    HW133122   5.592   6.969   1.276
10741SOL    HW233123   5.550   0.038   1.404
10742SOL     OW33124   5.170   0.516   0.956
10742SOL    HW133125   5.265   0.496   0.982
10742SOL    HW233126   5.147   0.468   0.872
10743SOL     OW33127   2.564   1.116   5.561
10743SOL    HW133128   2.648   1.156   5.524
10743SOL    HW233129   2.558   1.020   5.536
10744SOL     OW33130   3.726   1.541   1.193
10744SOL    HW133131   3.767   1.532   1.284
10744SOL    HW233132   3.647   1.603   1.198
10745SOL     OW33133   0.264   5.720   7.002
10745SOL    HW133134   0.176   5.672   7.007
10745SOL    HW233135   0.250   5.817   0.002
10746SOL     OW33136   1.692   4.339   1.358
10746SOL    HW133137   1.749   4.412   1.396
10746SOL    HW233138   1.639   4.296   1.431
10747SOL     OW33139   4.263   1.151   4.228
10747SOL    HW133140   4.301   1.176   4.316
10747SOL    HW233141   4.174   1.107   4.241
10748SOL     OW33142   4.851   1.135   1.089
10748SOL    HW133143   4.885   1.159   0.998
10748SOL    HW233144   4.757   1.102   1.082
10749SOL     OW33145   0.933   5.689   2.665
10749SOL    HW133146   0.999   5.614   2.662
10749SOL    HW233147   0.977   5.774   2.633
10750SOL     OW33148   4.459   6.073   5.076
10750SOL    HW133149   4.360   6.073   5.067
10750SOL    HW233150   4.496   5.991   5.031
10751SOL     OW33151   1.785   3.891   4.350
10751SOL    HW133152   1.732   3.967   4.387
10751SOL    HW233153   1.810   3.910   4.255
10752SOL     OW33154   5.937   4.145   6.289
10752SOL    HW133155   5.939   4.227   6.347
10752SOL    HW233156   5.930   4.064   6.347
10753SOL     OW33157   4.550   6.061   4.154
10753SOL    HW133158   4.609   6.041   4.076
10753SOL    HW233159   4.563   6.156   4.183
10754SOL     OW33160   0.679   1.578   2.922
10754SOL    HW133161   0.643   1.652   2.979
10754SOL    HW233162   0.677   1.492   2.973
10755SOL     OW33163   6.666   0.869   6.493
10755SOL    HW133164   6.709   0.921   6.567
10755SOL    HW233165   6.569   0.859   6.511
10756SOL     OW33166   6.828   4.815   0.121
10756SOL    HW133167   6.916   4.792   0.079
10756SOL    HW233168   6.755   4.767   0.072
10757SOL     OW33169   2.042   2.818   0.194
10757SOL    HW133170   2.066   2.901   0.143
10757SOL    HW233171   2.094   2.817   0.279
10758SOL     OW33172   0.231   6.901   3.926
10758SOL    HW133173   0.156   6.844   3.958
10758SOL    HW233174   0.318   6.862   3.955
10759SOL     OW33175   1.698   3.594   1.290
10759SOL    HW133176   1.681   3.496   1.289
10759SOL    HW233177   1.621   3.641   1.333
10760SOL     OW33178   6.489   1.615   2.357
10760SOL    HW133179   6.394   1.600   2.331
10760SOL    HW233180   6.497   1.701   2.407
10761SOL     OW33181   0.817   7.020   6.474
10761SOL    HW133182   0.887   0.040   6.416
10761SOL    HW233183   0.745   0.064   6.494
10762SOL     OW33184   3.916   2.148   4.277
10762SOL    HW133185   3.826   2.121   4.242
10762SOL    HW233186   3.973   2.066   4.288
10763SOL     OW33187   5.290   6.340   2.599
10763SOL    HW133188   5.321   6.264   2.655
10763SOL    HW233189   5.192   6.355   2.614
10764SOL     OW33190   5.167   2.743   5.922
10764SOL    HW133191   5.242   2.678   5.931
10764SOL    HW233192   5.103   2.731   5.998
10765SOL     OW33193   5.442   2.099   0.030
10765SOL    HW133194   5.403   2.055   0.111
10765SOL    HW233195   5.381   2.172   7.022
10766SOL     OW33196   4.840   3.868   0.403
10766SOL    HW133197   4.808   3.773   0.404
10766SOL    HW233198   4.786   3.922   0.467
10767SOL     OW33199   1.075   0.961   0.300
10767SOL    HW133200   1.152   0.899   0.312
10767SOL    HW233201   1.000   0.912   0.253
10768SOL     OW33202   4.620   4.068   1.726
10768SOL    HW133203   4.537   4.097   1.773
10768SOL    HW233204   4.699   4.111   1.769
10769SOL     OW33205   2.450   4.468   5.211
10769SOL    HW133206   2.502   4.387   5.241
10769SOL    HW233207   2.440   4.530   5.289
10770SOL     OW33208   5.630   1.033   5.335
10770SOL    HW133209   5.686   0.989   5.405
10770SOL    HW233210   5.538   0.994   5.338
10771SOL     OW33211   6.071   0.687   3.371
10771SOL    HW133212   6.032   0.595   3.383
10771SOL    HW233213   6.170   0.681   3.366
10772SOL     OW33214   6.121   6.434   4.164
10772SOL    HW133215   6.084   6.521   4.131
10772SOL    HW233216   6.139   6.440   4.262
10773SOL     OW33217   6.349   5.688   6.895
10773SOL    HW133218   6.381   5.746   6.971
10773SOL    HW233219   6.338   5.744   6.813
10774SOL     OW33220   2.389   1.366   0.343
10774SOL    HW133221   2.434   1.290   0.388
10774SOL    HW233222   2.344   1.424   0.411
10775SOL     OW33223   0.356   4.537   1.415
10775SOL    HW133224   0.396   4.603   1.479
10775SOL    HW233225   0.306   4.468   1.467
10776SOL     OW33226   0.098   0.934   6.584
10776SOL    HW133227   0.100   0.842   6.624
10776SOL    HW233228   0.010   0.977   6.604
10777SOL     OW33229   3.307   5.390   3.098
10777SOL    HW133230   3.321   5.436   3.185
10777SOL    HW233231   3.307   5.291   3.113
10778SOL     OW33232   5.908   0.016   4.335
10778SOL    HW133233   5.943   6.949   4.309
10778SOL    HW233234   5.964   0.053   4.409
10779SOL     OW33235   6.532   3.485   3.879
10779SOL    HW133236   6.534   3.439   3.790
10779SOL    HW233237   6.440   3.479   3.917
10780SOL     OW33238   2.007   0.491   3.930
10780SOL    HW133239   1.996   0.406   3.981
10780SOL    HW233240   2.104   0.507   3.910
10781SOL     OW33241   4.677   0.989   4.047
10781SOL    HW133242   4.756   0.966   3.991
10781SOL    HW233243   4.632   0.905   4.078
10782SOL     OW33244   6.143   1.925   1.732
10782SOL    HW133245   6.159   1.909   1.830
10782SOL    HW233246   6.060   1.878   1.704
10783SOL     OW33247   0.644   3.301   3.110
10783SOL    HW133248   0.564   3.315   3.052
10783SOL    HW233249   0.717   3.362   3.080
10784SOL     OW33250   3.568   6.504   4.220
10784SOL    HW133251   3.664   6.486   4.243
10784SOL    HW233252   3.548   6.601   4.231
10785SOL     OW33253   0.211   4.376   1.011
10785SOL    HW133254   0.298   4.359   1.057
10785SOL    HW233255   0.228   4.408   0.918
10786SOL     OW33256   5.745   4.155   3.475
10786SOL    HW133257   5.701   4.243   3.457
10786SOL    HW233258   5.698   4.109   3.550
10787SOL     OW33259   2.177   1.586   4.941
10787SOL    HW133260   2.203   1.665   4.884
10787SOL    HW233261   2.247   1.571   5.010
10788SOL     OW33262   1.951   4.512   6.041
10788SOL    HW133263   1.862   4.538   6.004
10788SOL    HW233264   1.954   4.412   6.051
10789SOL     OW33265   0.123   3.294   6.491
10789SOL    HW133266   0.094   3.199   6.494
10789SOL    HW233267   0.223   3.299   6.501
10790SOL     OW33268   1.403   0.280   1.926
10790SOL    HW133269   1.493   0.322   1.929
10790SOL    HW233270   1.339   0.333   1.982
10791SOL     OW33271   6.617   0.061   1.479
10791SOL    HW133272   6.665   0.088   1.563
10791SOL    HW233273   6.647   6.994   1.451
10792SOL     OW33274   2.953   3.787   4.081
10792SOL    HW133275   2.959   3.881   4.116
10792SOL    HW233276   2.996   3.724   4.145
10793SOL     OW33277   5.326   3.319   4.699
10793SOL    HW133278   5.301   3.263   4.778
10793SOL    HW233279   5.398   3.384   4.725
10794SOL     OW33280   3.001   3.720   3.462
10794SOL    HW133281   2.968   3.673   3.544
10794SOL    HW233282   3.008   3.818   3.481
10795SOL     OW33283   6.630   4.896   1.740
10795SOL    HW133284   6.627   4.992   1.767
10795SOL    HW233285   6.713   4.878   1.687
10796SOL     OW33286   5.709   0.293   6.171
10796SOL    HW133287   5.735   0.196   6.169
10796SOL    HW233288   5.772   0.343   6.232
10797SOL     OW33289   3.714   2.573   1.493
10797SOL    HW133290   3.735   2.671   1.485
10797SOL    HW233291   3.760   2.523   1.420
10798SOL     OW33292   3.049   0.238   0.670
10798SOL    HW133293   2.951   0.242   0.691
10798SOL    HW233294   3.092   0.325   0.693
10799SOL     OW33295   3.746   0.867   1.718
10799SOL    HW133296   3.689   0.918   1.783
10799SOL    HW233297   3.730   0.901   1.625
10800SOL     OW33298   0.048   6.535   6.279
10800SOL    HW133299   7.015   6.478   6.219
10800SOL    HW233300   0.075   6.619   6.230
10801SOL     OW33301   0.749   6.163   6.141
10801SOL    HW133302   0.804   6.091   6.183
10801SOL    HW233303   0.765   6.163   6.042
10802SOL     OW33304   0.890   0.898   3.234
10802SOL    HW133305   0.976   0.866   3.274
10802SOL    HW233306   0.906   0.981   3.181
10803SOL     OW33307   2.188   4.684   5.819
10803SOL    HW133308   2.157   4.702   5.912
10803SOL    HW233309   2.270   4.628   5.821
10804SOL     OW33310   5.543   3.277   2.058
10804SOL    HW133311   5.575   3.336   2.132
10804SOL    HW233312   5.453   3.307   2.028
10805SOL     OW33313   4.505   6.484   6.353
10805SOL    HW133314   4.464   6.564   6.398
10805SOL    HW233315   4.447   6.404   6.369
10806SOL     OW33316   4.134   4.201   6.370
10806SOL    HW133317   4.136   4.180   6.468
10806SOL    HW233318   4.228   4.205   6.335
10807SOL     OW33319   1.269   6.932   2.371
10807SOL    HW133320   1.246   0.005   2.387
10807SOL    HW233321   1.322   6.898   2.449
10808SOL     OW33322   0.293   2.682   5.639
10808SOL    HW133323   0.313   2.605   5.700
10808SOL    HW233324   0.340   2.764   5.674
10809SOL     OW33325   3.278   4.888   3.429
10809SOL    HW133326   3.322   4.891   3.519
10809SOL    HW233327   3.347   4.902   3.358
10810SOL     OW33328   1.564   6.772   4.008
10810SOL    HW133329   1.552   6.687   4.060
10810SOL    HW233330   1.660   6.781   3.981
10811SOL     OW33331   4.392   4.110   6.201
10811SOL    HW133332   4.420   4.056   6.122
10811SOL    HW233333   4.373   4.204   6.174
10812SOL     OW33334   0.823   3.835   0.509
10812SOL    HW133335   0.834   3.881   0.597
10812SOL    HW233336   0.802   3.903   0.438
10813SOL     OW33337   1.619   3.802   6.792
10813SOL    HW133338   1.699   3.753   6.756
10813SOL    HW233339   1.615   3.894   6.752
10814SOL     OW33340   0.820   6.771   6.381
10814SOL    HW133341   0.857   6.753   6.290
10814SOL    HW233342   0.803   6.869   6.392
10815SOL     OW33343   4.756   4.125   3.314
10815SOL    HW133344   4.831   4.187   3.338
10815SOL    HW233345   4.791   4.048   3.261
10816SOL     OW33346   3.277   3.624   2.318
10816SOL    HW133347   3.279   3.544   2.257
10816SOL    HW233348   3.328   3.604   2.402
10817SOL     OW33349   4.277   0.489   3.734
10817SOL    HW133350   4.305   0.582   3.709
10817SOL    HW233351   4.184   0.491   3.771
10818SOL     OW33352   4.625   4.783   5.444
10818SOL    HW133353   4.546   4.792   5.505
10818SOL    HW233354   4.596   4.804   5.350
10819SOL     OW33355   6.872   5.144   6.200
10819SOL    HW133356   6.866   5.079   6.276
10819SOL    HW233357   6.817   5.111   6.123
10820SOL     OW33358   7.014   5.332   4.487
10820SOL    HW133359   0.077   5.360   4.529
10820SOL    HW233360   6.995   5.390   4.408
10821SOL     OW33361   4.439   0.556   3.301
10821SOL    HW133362   4.484   0.586   3.386
10821SOL    HW233363   4.416   0.459   3.308
10822SOL     OW33364   6.666   2.614   2.964
10822SOL    HW133365   6.634   2.595   2.871
10822SOL    HW233366   6.610   2.686   3.005
10823SOL     OW33367   1.224   0.468   2.034
10823SOL    HW133368   1.251   0.487   2.128
10823SOL    HW233369   1.141   0.520   2.013
10824SOL     OW33370   6.831   1.100   3.159
10824SOL    HW133371   6.796   1.192   3.175
10824SOL    HW233372   6.866   1.063   3.246
10825SOL     OW33373   2.441   1.993   6.404
10825SOL    HW133374   2.385   2.076   6.416
10825SOL    HW233375   2.447   1.972   6.307
10826SOL     OW33376   0.844   2.868   3.604
10826SOL    HW133377   0.857   2.833   3.696
10826SOL    HW233378   0.874   2.799   3.538
10827SOL     OW33379   0.050   3.324   4.568
10827SOL    HW133380   0.150   3.322   4.572
10827SOL    HW233381   0.015   3.231   4.560
10828SOL     OW33382   1.677   4.283   0.957
10828SOL    HW133383   1.628   4.202   0.990
10828SOL    HW233384   1.640   4.365   1.000
10829SOL     OW33385   4.442   2.871   0.199
10829SOL    HW133386   4.487   2.782   0.213
10829SOL    HW233387   4.406   2.905   0.286
10830SOL     OW33388   5.219   1.761   2.805
10830SOL    HW133389   5.214   1.758   2.905
10830SOL    HW233390   5.166   1.686   2.767
10831SOL     OW33391   2.839   6.240   3.207
10831SOL    HW133392   2.829   6.140   3.208
10831SOL    HW233393   2.934   6.263   3.187
10832SOL     OW33394   0.878   3.245   5.991
10832SOL    HW133395   0.790   3.268   5.949
10832SOL    HW233396   0.935   3.199   5.923
10833SOL     OW33397   0.687   0.829   2.073
10833SOL    HW133398   0.739   0.762   2.126
10833SOL    HW233399   0.618   0.872   2.131
10834SOL     OW33400   0.310   1.692   0.684
10834SOL    HW133401   0.375   1.631   0.639
10834SOL    HW233402   0.327   1.693   0.783
10835SOL     OW33403   5.831   2.598   0.637
10835SOL    HW133404   5.772   2.663   0.589
10835SOL    HW233405   5.865   2.640   0.721
10836SOL     OW33406   6.211   1.309   4.641
10836SOL    HW133407   6.239   1.306   4.545
10836SOL    HW233408   6.272   1.370   4.692
10837SOL     OW33409   6.304   5.353   0.996
10837SOL    HW133410   6.401   5.371   0.983
10837SOL    HW233411   6.258   5.437   1.026
10838SOL     OW33412   6.684   5.820   3.707
10838SOL    HW133413   6.659   5.909   3.746
10838SOL    HW233414   6.745   5.835   3.629
10839SOL     OW33415   4.326   3.145   1.750
10839SOL    HW133416   4.343   3.150   1.652
10839SOL    HW233417   4.399   3.092   1.794
10840SOL     OW33418   3.085   5.750   2.746
10840SOL    HW133419   3.005   5.802   2.717
10840SOL    HW233420   3.090   5.749   2.846
10841SOL     OW33421   6.296   5.028   5.887
10841SOL    HW133422   6.196   5.023   5.889
10841SOL    HW233423   6.326   5.123   5.897
10842SOL     OW33424   4.860   2.253   1.294
10842SOL    HW133425   4.823   2.200   1.218
10842SOL    HW233426   4.863   2.197   1.377
10843SOL     OW33427   0.990   1.682   1.719
10843SOL    HW133428   1.036   1.685   1.630
10843SOL    HW233429   0.983   1.774   1.756
10844SOL     OW33430   0.630   6.392   3.178
10844SOL    HW133431   0.708   6.337   3.207
10844SOL    HW233432   0.557   6.387   3.246
10845SOL     OW33433   3.382   6.777   5.509
10845SOL    HW133434   3.364   6.696   5.566
10845SOL    HW233435   3.419   6.850   5.566
10846SOL     OW33436   5.647   0.880   0.323
10846SOL    HW133437   5.568   0.835   0.280
10846SOL    HW233438   5.729   0.861   0.268
10847SOL     OW33439   3.374   3.090   6.891
10847SOL    HW133440   3.341   2.997   6.871
10847SOL    HW233441   3.337   3.120   6.979
10848SOL     OW33442   2.688   4.081   0.551
10848SOL    HW133443   2.690   4.153   0.482
10848SOL    HW233444   2.762   4.096   0.616
10849SOL     OW33445   2.261   4.693   4.057
10849SOL    HW133446   2.186   4.630   4.038
10849SOL    HW233447   2.226   4.770   4.111
10850SOL     OW33448   2.226   6.524   6.464
10850SOL    HW133449   2.311   6.555   6.422
10850SOL    HW233450   2.211   6.428   6.441
10851SOL     OW33451   2.299   3.213   0.216
10851SOL    HW133452   2.275   3.294   0.161
10851SOL    HW233453   2.348   3.243   0.298
10852SOL     OW33454   0.917   0.021   0.137
10852SOL    HW133455   0.932   0.119   0.145
10852SOL    HW233456   0.868   0.001   0.052
10853SOL     OW33457   1.539   2.665   5.209
10853SOL    HW133458   1.453   2.715   5.217
10853SOL    HW233459   1.570   2.666   5.114
10854SOL     OW33460   4.539   4.687   5.845
10854SOL    HW133461   4.455   4.685   5.899
10854SOL    HW233462   4.531   4.624   5.767
10855SOL     OW33463   3.596   0.571   0.602
10855SOL    HW133464   3.673   0.513   0.630
10855SOL    HW233465   3.596   0.655   0.657
10856SOL     OW33466   5.265   1.233   0.187
10856SOL    HW133467   5.241   1.330   0.195
10856SOL    HW233468   5.204   1.179   0.246
10857SOL     OW33469   0.285   2.131   3.068
10857SOL    HW133470   0.348   2.083   3.006
10857SOL    HW233471   0.197   2.084   3.068
10858SOL     OW33472   0.871   1.590   6.639
10858SOL    HW133473   0.892   1.550   6.550
10858SOL    HW233474   0.897   1.687   6.640
10859SOL     OW33475   1.148   4.266   4.348
10859SOL    HW133476   1.166   4.261   4.250
10859SOL    HW233477   1.081   4.338   4.366
10860SOL     OW33478   0.495   2.528   5.455
10860SOL    HW133479   0.587   2.542   5.491
10860SOL    HW233480   0.428   2.552   5.524
10861SOL     OW33481   3.527   3.844   3.462
10861SOL    HW133482   3.486   3.931   3.435
10861SOL    HW233483   3.467   3.769   3.434
10862SOL     OW33484   2.213   1.408   6.312
10862SOL    HW133485   2.306   1.403   6.277
10862SOL    HW233486   2.155   1.344   6.262
10863SOL     OW33487   3.786   0.868   3.970
10863SOL    HW133488   3.863   0.842   4.029
10863SOL    HW233489   3.812   0.856   3.874
10864SOL     OW33490   1.730   6.597   0.448
10864SOL    HW133491   1.712   6.667   0.517
10864SOL    HW233492   1.742   6.509   0.492
10865SOL     OW33493   0.407   1.397   1.633
10865SOL    HW133494   0.348   1.322   1.603
10865SOL    HW233495   0.405   1.470   1.565
10866SOL     OW33496   5.568   4.044   0.569
10866SOL    HW133497   5.550   3.945   0.570
10866SOL    HW233498   5.541   4.083   0.657
10867SOL     OW33499   3.533   3.942   6.772
10867SOL    HW133500   3.589   4.025   6.775
10867SOL    HW233501   3.560   3.887   6.693
10868SOL     OW33502   4.880   1.599   4.297
10868SOL    HW133503   4.903   1.694   4.273
10868SOL    HW233504   4.942   1.566   4.368
10869NA      NA33505   6.410   2.558   5.369
10870NA      NA33506   4.519   4.517   5.173
10871NA      NA33507   1.895   3.138   2.193
10872NA      NA33508   5.185   3.787   4.853
10873NA      NA33509   4.140   2.346   5.372
10874NA      NA33510   3.585   4.779   1.678
10875NA      NA33511   6.780   4.794   0.348
10876NA      NA33512   3.462   3.752   3.939
10877NA      NA33513   5.134   6.133   0.283
10878NA      NA33514   3.186   6.757   5.336
10879NA      NA33515   5.735   5.335   1.575
10880NA      NA33516   2.128   0.230   4.321
10881NA      NA33517   3.644   5.412   2.779
10882NA      NA33518   3.855   3.738   2.355
   7.02325   7.02325   7.02325
